Generated by trjconv : CNT in water t= 521.00000
33518
    1C        C    1   2.846   2.773   4.749
    1C        C    2   2.900   2.724   4.870
    1C        C    3   2.846   2.777   4.988
    1C        C    4   2.852   2.777   4.262
    1C        C    5   2.903   2.731   4.386
    1C        C    6   2.848   2.777   4.508
    1C        C    7   3.015   2.643   4.627
    1C        C    8   2.901   2.727   4.628
    1C        C    9   3.076   2.599   4.747
    1C        C   10   3.009   2.634   4.866
    1C        C   11   3.180   2.491   4.975
    1C        C   12   3.064   2.570   4.978
    1C        C   13   2.855   2.779   3.775
    1C        C   14   2.905   2.727   3.896
    1C        C   15   2.857   2.780   4.018
    1C        C   16   3.018   2.644   4.142
    1C        C   17   2.909   2.734   4.141
    1C        C   18   3.081   2.611   4.264
    1C        C   19   3.019   2.650   4.385
    1C        C   20   3.213   2.562   4.504
    1C        C   21   3.081   2.611   4.506
    1C        C   22   3.280   2.538   4.626
    1C        C   23   3.208   2.547   4.747
    1C        C   24   3.413   2.480   4.866
    1C        C   25   3.271   2.501   4.865
    1C        C   26   3.490   2.482   4.983
    1C        C   27   2.856   2.776   3.285
    1C        C   28   2.907   2.728   3.408
    1C        C   29   2.854   2.775   3.530
    1C        C   30   3.020   2.645   3.652
    1C        C   31   2.907   2.730   3.653
    1C        C   32   3.077   2.606   3.775
    1C        C   33   3.018   2.643   3.897
    1C        C   34   3.210   2.556   4.016
    1C        C   35   3.077   2.604   4.020
    1C        C   36   3.276   2.533   4.138
    1C        C   37   3.210   2.556   4.262
    1C        C   38   3.419   2.507   4.383
    1C        C   39   3.281   2.537   4.383
    1C        C   40   3.489   2.496   4.505
    1C        C   41   3.418   2.504   4.626
    1C        C   42   3.631   2.488   4.746
    1C        C   43   3.489   2.481   4.746
    1C        C   44   3.708   2.488   4.864
    1C        C   45   3.629   2.478   4.980
    1C        C   46   2.843   2.760   2.794
    1C        C   47   2.899   2.719   2.918
    1C        C   48   2.852   2.769   3.041
    1C        C   49   3.023   2.643   3.163
    1C        C   50   2.908   2.725   3.163
    1C        C   51   3.084   2.610   3.286
    1C        C   52   3.020   2.644   3.408
    1C        C   53   3.208   2.546   3.528
    1C        C   54   3.080   2.606   3.530
    1C        C   55   3.276   2.528   3.651
    1C        C   56   3.207   2.549   3.773
    1C        C   57   3.416   2.507   3.896
    1C        C   58   3.277   2.532   3.894
    1C        C   59   3.486   2.500   4.019
    1C        C   60   3.415   2.505   4.140
    1C        C   61   3.630   2.500   4.262
    1C        C   62   3.489   2.497   4.260
    1C        C   63   3.703   2.511   4.383
    1C        C   64   3.630   2.506   4.504
    1C        C   65   3.839   2.542   4.626
    1C        C   66   3.702   2.508   4.625
    1C        C   67   3.909   2.562   4.747
    1C        C   68   3.844   2.524   4.866
    1C        C   69   4.057   2.583   4.980
    1C        C   70   3.924   2.539   4.980
    1C        C   71   2.832   2.738   2.307
    1C        C   72   2.887   2.696   2.430
    1C        C   73   2.842   2.751   2.552
    1C        C   74   3.015   2.629   2.677
    1C        C   75   2.897   2.706   2.675
    1C        C   76   3.078   2.601   2.800
    1C        C   77   3.014   2.637   2.920
    1C        C   78   3.206   2.540   3.039
    1C        C   79   3.077   2.598   3.041
    1C        C   80   3.276   2.524   3.161
    1C        C   81   3.211   2.547   3.284
    1C        C   82   3.415   2.497   3.406
    1C        C   83   3.275   2.519   3.407
    1C        C   84   3.486   2.495   3.528
    1C        C   85   3.415   2.506   3.650
    1C        C   86   3.626   2.505   3.771
    1C        C   87   3.485   2.502   3.773
    1C        C   88   3.694   2.512   3.894
    1C        C   89   3.627   2.507   4.019
    1C        C   90   3.836   2.552   4.139
    1C        C   91   3.699   2.517   4.140
    1C        C   92   3.906   2.574   4.260
    1C        C   93   3.839   2.550   4.382
    1C        C   94   4.030   2.638   4.504
    1C        C   95   3.905   2.573   4.505
    1C        C   96   4.096   2.671   4.625
    1C        C   97   4.038   2.622   4.744
    1C        C   98   4.195   2.765   4.865
    1C        C   99   4.103   2.656   4.866
    1C        C  100   4.224   2.841   4.979
    1C        C  101   2.822   2.733   2.072
    1C        C  102   2.995   2.593   2.194
    1C        C  103   2.883   2.682   2.187
    1C        C  104   3.066   2.576   2.316
    1C        C  105   3.004   2.618   2.436
    1C        C  106   3.208   2.543   2.552
    1C        C  107   3.076   2.593   2.555
    1C        C  108   3.275   2.521   2.675
    1C        C  109   3.206   2.542   2.796
    1C        C  110   3.415   2.496   2.916
    1C        C  111   3.275   2.519   2.918
    1C        C  112   3.483   2.487   3.039
    1C        C  113   3.413   2.492   3.163
    1C        C  114   3.627   2.500   3.281
    1C        C  115   3.486   2.493   3.284
    1C        C  116   3.696   2.511   3.404
    1C        C  117   3.627   2.502   3.527
    1C        C  118   3.836   2.540   3.649
    1C        C  119   3.697   2.512   3.649
    1C        C  120   3.898   2.569   3.772
    1C        C  121   3.831   2.544   3.894
    1C        C  122   4.024   2.641   4.015
    1C        C  123   3.898   2.576   4.014
    1C        C  124   4.089   2.676   4.135
    1C        C  125   4.033   2.634   4.258
    1C        C  126   4.195   2.769   4.378
    1C        C  127   4.087   2.677   4.381
    1C        C  128   4.244   2.820   4.500
    1C        C  129   4.201   2.765   4.622
    1C        C  130   4.328   2.936   4.742
    1C        C  131   4.248   2.819   4.744
    1C        C  132   4.355   3.009   4.860
    1C        C  133   4.288   2.965   4.975
    1C        C  134   3.179   2.474   2.080
    1C        C  135   3.045   2.514   2.085
    1C        C  136   3.264   2.488   2.190
    1C        C  137   3.200   2.528   2.309
    1C        C  138   3.412   2.489   2.427
    1C        C  139   3.272   2.512   2.429
    1C        C  140   3.483   2.484   2.549
    1C        C  141   3.414   2.497   2.672
    1C        C  142   3.626   2.489   2.793
    1C        C  143   3.485   2.488   2.794
    1C        C  144   3.695   2.503   2.915
    1C        C  145   3.624   2.495   3.037
    1C        C  146   3.832   2.539   3.158
    1C        C  147   3.696   2.502   3.158
    1C        C  148   3.899   2.563   3.280
    1C        C  149   3.834   2.541   3.404
    1C        C  150   4.027   2.628   3.525
    1C        C  151   3.902   2.563   3.526
    1C        C  152   4.085   2.667   3.647
    1C        C  153   4.022   2.638   3.770
    1C        C  154   4.191   2.769   3.891
    1C        C  155   4.082   2.679   3.891
    1C        C  156   4.245   2.816   4.012
    1C        C  157   4.199   2.765   4.136
    1C        C  158   4.339   2.927   4.255
    1C        C  159   4.250   2.817   4.257
    1C        C  160   4.373   2.989   4.377
    1C        C  161   4.325   2.936   4.499
    1C        C  162   4.437   3.118   4.618
    1C        C  163   4.368   2.995   4.619
    1C        C  164   4.472   3.185   4.737
    1C        C  165   4.435   3.125   4.860
    1C        C  166   4.524   3.322   4.976
    1C        C  167   4.483   3.189   4.975
    1C        C  168   3.480   2.446   2.075
    1C        C  169   3.403   2.461   2.191
    1C        C  170   3.624   2.470   2.308
    1C        C  171   3.482   2.465   2.307
    1C        C  172   3.699   2.488   2.427
    1C        C  173   3.624   2.485   2.547
    1C        C  174   3.830   2.536   2.668
    1C        C  175   3.693   2.502   2.669
    1C        C  176   3.897   2.564   2.790
    1C        C  177   3.832   2.538   2.913
    1C        C  178   4.022   2.630   3.033
    1C        C  179   3.898   2.563   3.035
    1C        C  180   4.080   2.669   3.156
    1C        C  181   4.023   2.631   3.279
    1C        C  182   4.192   2.759   3.401
    1C        C  183   4.083   2.668   3.402
    1C        C  184   4.240   2.811   3.523
    1C        C  185   4.191   2.761   3.645
    1C        C  186   4.331   2.922   3.767
    1C        C  187   4.242   2.813   3.766
    1C        C  188   4.374   2.980   3.889
    1C        C  189   4.335   2.925   4.012
    1C        C  190   4.447   3.108   4.129
    1C        C  191   4.380   2.984   4.132
    1C        C  192   4.472   3.176   4.251
    1C        C  193   4.436   3.115   4.373
    1C        C  194   4.509   3.315   4.494
    1C        C  195   4.462   3.182   4.495
    1C        C  196   4.525   3.388   4.613
    1C        C  197   4.514   3.321   4.737
    1C        C  198   4.562   3.534   4.853
    1C        C  199   4.540   3.393   4.857
    1C        C  200   4.589   3.621   4.963
    1C        C  201   3.619   2.425   2.074
    1C        C  202   3.833   2.510   2.182
    1C        C  203   3.697   2.466   2.186
    1C        C  204   3.903   2.542   2.302
    1C        C  205   3.835   2.524   2.425
    1C        C  206   4.025   2.621   2.544
    1C        C  207   3.900   2.554   2.547
    1C        C  208   4.086   2.658   2.666
    1C        C  209   4.024   2.627   2.789
    1C        C  210   4.197   2.749   2.912
    1C        C  211   4.083   2.666   2.911
    1C        C  212   4.247   2.800   3.034
    1C        C  213   4.194   2.753   3.156
    1C        C  214   4.333   2.914   3.276
    1C        C  215   4.247   2.802   3.278
    1C        C  216   4.373   2.973   3.398
    1C        C  217   4.334   2.917   3.522
    1C        C  218   4.435   3.104   3.642
    1C        C  219   4.370   2.979   3.644
    1C        C  220   4.466   3.170   3.764
    1C        C  221   4.443   3.104   3.886
    1C        C  222   4.506   3.310   4.007
    1C        C  223   4.476   3.172   4.006
    1C        C  224   4.519   3.381   4.128
    1C        C  225   4.511   3.312   4.251
    1C        C  226   4.520   3.526   4.369
    1C        C  227   4.519   3.385   4.371
    1C        C  228   4.523   3.600   4.489
    1C        C  229   4.533   3.529   4.611
    1C        C  230   4.500   3.741   4.729
    1C        C  231   4.536   3.604   4.731
    1C        C  232   4.498   3.821   4.846
    1C        C  233   4.555   3.757   4.957
    1C        C  234   4.028   2.602   2.064
    1C        C  235   3.902   2.543   2.064
    1C        C  236   4.090   2.647   2.181
    1C        C  237   4.029   2.608   2.302
    1C        C  238   4.202   2.739   2.423
    1C        C  239   4.088   2.653   2.422
    1C        C  240   4.254   2.787   2.546
    1C        C  241   4.199   2.741   2.668
    1C        C  242   4.336   2.905   2.785
    1C        C  243   4.252   2.792   2.789
    1C        C  244   4.374   2.965   2.907
    1C        C  245   4.334   2.911   3.031
    1C        C  246   4.433   3.099   3.150
    1C        C  247   4.372   2.972   3.153
    1C        C  248   4.458   3.165   3.272
    1C        C  249   4.433   3.100   3.395
    1C        C  250   4.498   3.302   3.515
    1C        C  251   4.458   3.166   3.517
    1C        C  252   4.512   3.373   3.637
    1C        C  253   4.505   3.306   3.761
    1C        C  254   4.526   3.517   3.879
    1C        C  255   4.520   3.376   3.882
    1C        C  256   4.520   3.591   4.000
    1C        C  257   4.522   3.522   4.123
    1C        C  258   4.494   3.734   4.244
    1C        C  259   4.515   3.594   4.245
    1C        C  260   4.478   3.805   4.365
    1C        C  261   4.490   3.737   4.489
    1C        C  262   4.425   3.943   4.605
    1C        C  263   4.474   3.810   4.609
    1C        C  264   4.404   4.015   4.725
    1C        C  265   4.436   3.948   4.845
    1C        C  266   4.321   4.135   4.959
    1C        C  267   4.390   4.014   4.959
    1C        C  268   4.261   2.781   2.063
    1C        C  269   4.198   2.737   2.181
    1C        C  270   4.354   2.886   2.298
    1C        C  271   4.259   2.780   2.301
    1C        C  272   4.386   2.952   2.419
    1C        C  273   4.345   2.894   2.541
    1C        C  274   4.447   3.084   2.661
    1C        C  275   4.380   2.959   2.662
    1C        C  276   4.474   3.151   2.782
    1C        C  277   4.446   3.087   2.905
    1C        C  278   4.507   3.293   3.024
    1C        C  279   4.468   3.157   3.026
    1C        C  280   4.519   3.364   3.146
    1C        C  281   4.500   3.300   3.270
    1C        C  282   4.519   3.512   3.392
    1C        C  283   4.509   3.371   3.392
    1C        C  284   4.515   3.582   3.514
    1C        C  285   4.517   3.514   3.637
    1C        C  286   4.490   3.727   3.757
    1C        C  287   4.517   3.588   3.758
    1C        C  288   4.477   3.797   3.879
    1C        C  289   4.498   3.730   4.002
    1C        C  290   4.428   3.934   4.117
    1C        C  291   4.478   3.802   4.122
    1C        C  292   4.399   3.999   4.239
    1C        C  293   4.426   3.936   4.363
    1C        C  294   4.326   4.128   4.479
    1C        C  295   4.392   4.003   4.482
    1C        C  296   4.290   4.193   4.600
    1C        C  297   4.330   4.136   4.722
    1C        C  298   4.200   4.316   4.841
    1C        C  299   4.282   4.198   4.841
    1C        C  300   4.173   4.406   4.949
    1C        C  301   4.358   2.881   2.062
    1C        C  302   4.473   3.069   2.177
    1C        C  303   4.403   2.944   2.178
    1C        C  304   4.487   3.143   2.298
    1C        C  305   4.453   3.076   2.418
    1C        C  306   4.510   3.284   2.538
    1C        C  307   4.474   3.148   2.538
    1C        C  308   4.516   3.356   2.659
    1C        C  309   4.507   3.289   2.783
    1C        C  310   4.527   3.504   2.901
    1C        C  311   4.520   3.363   2.902
    1C        C  312   4.522   3.576   3.023
    1C        C  313   4.524   3.505   3.145
    1C        C  314   4.489   3.716   3.265
    1C        C  315   4.516   3.577   3.266
    1C        C  316   4.478   3.787   3.387
    1C        C  317   4.493   3.722   3.511
    1C        C  318   4.423   3.924   3.631
    1C        C  319   4.471   3.791   3.633
    1C        C  320   4.392   3.992   3.751
    1C        C  321   4.423   3.928   3.873
    1C        C  322   4.320   4.115   3.993
    1C        C  323   4.393   3.994   3.994
    1C        C  324   4.278   4.173   4.115
    1C        C  325   4.326   4.120   4.237
    1C        C  326   4.190   4.288   4.356
    1C        C  327   4.285   4.184   4.356
    1C        C  328   4.139   4.341   4.477
    1C        C  329   4.198   4.300   4.598
    1C        C  330   4.030   4.440   4.716
    1C        C  331   4.145   4.358   4.716
    1C        C  332   3.971   4.489   4.835
    1C        C  333   4.055   4.481   4.947
    1C        C  334   4.554   3.271   2.061
    1C        C  335   4.535   3.132   2.064
    1C        C  336   4.538   3.352   2.174
    1C        C  337   4.516   3.282   2.295
    1C        C  338   4.527   3.495   2.414
    1C        C  339   4.522   3.354   2.416
    1C        C  340   4.523   3.569   2.534
    1C        C  341   4.526   3.497   2.656
    1C        C  342   4.489   3.708   2.775
    1C        C  343   4.520   3.571   2.777
    1C        C  344   4.471   3.780   2.895
    1C        C  345   4.491   3.713   3.018
    1C        C  346   4.428   3.915   3.142
    1C        C  347   4.470   3.780   3.141
    1C        C  348   4.395   3.980   3.263
    1C        C  349   4.425   3.918   3.386
    1C        C  350   4.318   4.102   3.505
    1C        C  351   4.398   3.985   3.507
    1C        C  352   4.272   4.164   3.624
    1C        C  353   4.313   4.109   3.747
    1C        C  354   4.173   4.265   3.869
    1C        C  355   4.275   4.168   3.870
    1C        C  356   4.123   4.317   3.991
    1C        C  357   4.177   4.272   4.113
    1C        C  358   4.015   4.408   4.233
    1C        C  359   4.133   4.330   4.234
    1C        C  360   3.954   4.447   4.355
    1C        C  361   4.022   4.420   4.476
    1C        C  362   3.830   4.516   4.596
    1C        C  363   3.963   4.468   4.595
    1C        C  364   3.761   4.544   4.717
    1C        C  365   3.839   4.541   4.835
    1C        C  366   3.632   4.598   4.952
    1C        C  367   3.770   4.577   4.951
    1C        C  368   4.505   3.566   2.057
    1C        C  369   4.527   3.493   2.175
    1C        C  370   4.504   3.709   2.291
    1C        C  371   4.522   3.569   2.293
    1C        C  372   4.485   3.780   2.411
    1C        C  373   4.500   3.709   2.532
    1C        C  374   4.421   3.908   2.650
    1C        C  375   4.470   3.776   2.653
    1C        C  376   4.392   3.975   2.771
    1C        C  377   4.419   3.912   2.895
    1C        C  378   4.319   4.094   3.014
    1C        C  379   4.396   3.976   3.019
    1C        C  380   4.269   4.148   3.134
    1C        C  381   4.312   4.095   3.258
    1C        C  382   4.173   4.252   3.378
    1C        C  383   4.267   4.147   3.381
    1C        C  384   4.120   4.303   3.498
    1C        C  385   4.173   4.265   3.623
    1C        C  386   4.003   4.389   3.746
    1C        C  387   4.119   4.308   3.746
    1C        C  388   3.947   4.433   3.867
    1C        C  389   4.011   4.403   3.990
    1C        C  390   3.820   4.495   4.109
    1C        C  391   3.951   4.441   4.112
    1C        C  392   3.756   4.520   4.232
    1C        C  393   3.826   4.506   4.354
    1C        C  394   3.619   4.555   4.476
    1C        C  395   3.758   4.533   4.476
    1C        C  396   3.547   4.564   4.597
    1C        C  397   3.622   4.563   4.717
    1C        C  398   3.413   4.554   4.845
    1C        C  399   3.552   4.576   4.839
    1C        C  400   3.341   4.519   4.960
    1C        C  401   4.511   3.705   2.052
    1C        C  402   4.457   3.916   2.166
    1C        C  403   4.497   3.780   2.169
    1C        C  404   4.417   3.981   2.285
    1C        C  405   4.436   3.913   2.407
    1C        C  406   4.325   4.096   2.527
    1C        C  407   4.400   3.976   2.528
    1C        C  408   4.283   4.155   2.648
    1C        C  409   4.322   4.098   2.771
    1C        C  410   4.174   4.251   2.889
    1C        C  411   4.277   4.154   2.893
    1C        C  412   4.121   4.299   3.011
    1C        C  413   4.171   4.250   3.133
    1C        C  414   4.004   4.380   3.254
    1C        C  415   4.121   4.300   3.256
    1C        C  416   3.942   4.412   3.377
    1C        C  417   4.001   4.380   3.501
    1C        C  418   3.817   4.486   3.620
    1C        C  419   3.944   4.426   3.623
    1C        C  420   3.752   4.510   3.743
    1C        C  421   3.818   4.492   3.866
    1C        C  422   3.614   4.548   3.987
    1C        C  423   3.752   4.520   3.987
    1C        C  424   3.545   4.553   4.111
    1C        C  425   3.617   4.544   4.232
    1C        C  426   3.406   4.552   4.359
    1C        C  427   3.547   4.557   4.354
    1C        C  428   3.335   4.550   4.480
    1C        C  429   3.407   4.551   4.602
    1C        C  430   3.197   4.526   4.726
    1C        C  431   3.337   4.547   4.725
    1C        C  432   3.124   4.504   4.846
    1C        C  433   3.205   4.491   4.959
    1C        C  434   4.385   4.124   2.054
    1C        C  435   4.450   4.000   2.054
    1C        C  436   4.302   4.162   2.165
    1C        C  437   4.337   4.098   2.287
    1C        C  438   4.185   4.255   2.403
    1C        C  439   4.283   4.153   2.405
    1C        C  440   4.128   4.298   2.525
    1C        C  441   4.182   4.254   2.647
    1C        C  442   4.006   4.379   2.766
    1C        C  443   4.125   4.303   2.767
    1C        C  444   3.946   4.415   2.889
    1C        C  445   4.005   4.379   3.012
    1C        C  446   3.812   4.474   3.132
    1C        C  447   3.940   4.413   3.133
    1C        C  448   3.750   4.505   3.255
    1C        C  449   3.816   4.475   3.377
    1C        C  450   3.611   4.534   3.499
    1C        C  451   3.749   4.506   3.497
    1C        C  452   3.544   4.547   3.623
    1C        C  453   3.614   4.542   3.746
    1C        C  454   3.400   4.551   3.869
    1C        C  455   3.541   4.556   3.866
    1C        C  456   3.332   4.539   3.992
    1C        C  457   3.404   4.544   4.113
    1C        C  458   3.199   4.504   4.236
    1C        C  459   3.335   4.543   4.237
    1C        C  460   3.134   4.484   4.360
    1C        C  461   3.198   4.515   4.482
    1C        C  462   3.005   4.432   4.604
    1C        C  463   3.130   4.496   4.605
    1C        C  464   2.940   4.398   4.725
    1C        C  465   2.993   4.446   4.848
    1C        C  466   2.803   4.339   4.962
    1C        C  467   2.908   4.432   4.962
    1C        C  468   4.128   4.291   2.043
    1C        C  469   4.190   4.251   2.162
    1C        C  470   4.010   4.377   2.280
    1C        C  471   4.132   4.304   2.281
    1C        C  472   3.943   4.405   2.401
    1C        C  473   4.006   4.369   2.523
    1C        C  474   3.815   4.469   2.645
    1C        C  475   3.942   4.406   2.643
    1C        C  476   3.749   4.495   2.767
    1C        C  477   3.817   4.472   2.889
    1C        C  478   3.610   4.529   3.010
    1C        C  479   3.748   4.498   3.009
    1C        C  480   3.539   4.539   3.132
    1C        C  481   3.612   4.534   3.253
    1C        C  482   3.402   4.536   3.379
    1C        C  483   3.543   4.544   3.376
    1C        C  484   3.331   4.530   3.501
    1C        C  485   3.403   4.548   3.622
    1C        C  486   3.196   4.508   3.746
    1C        C  487   3.333   4.543   3.744
    1C        C  488   3.131   4.476   3.867
    1C        C  489   3.195   4.504   3.990
    1C        C  490   3.007   4.415   4.116
    1C        C  491   3.131   4.484   4.115
    1C        C  492   2.950   4.382   4.241
    1C        C  493   3.005   4.426   4.363
    1C        C  494   2.837   4.295   4.484
    1C        C  495   2.943   4.389   4.484
    1C        C  496   2.777   4.256   4.606
    1C        C  497   2.826   4.313   4.725
    1C        C  498   2.674   4.163   4.846
    1C        C  499   2.767   4.270   4.846
    1C        C  500   2.599   4.120   4.956
    1C        C  501   4.010   4.364   2.044
    1C        C  502   3.817   4.470   2.158
    1C        C  503   3.944   4.409   2.160
    1C        C  504   3.746   4.478   2.279
    1C        C  505   3.811   4.456   2.402
    1C        C  506   3.609   4.522   2.522
    1C        C  507   3.747   4.490   2.523
    1C        C  508   3.538   4.529   2.643
    1C        C  509   3.610   4.524   2.764
    1C        C  510   3.400   4.530   2.888
    1C        C  511   3.541   4.534   2.887
    1C        C  512   3.329   4.526   3.010
    1C        C  513   3.397   4.538   3.133
    1C        C  514   3.193   4.496   3.256
    1C        C  515   3.330   4.531   3.257
    1C        C  516   3.127   4.471   3.378
    1C        C  517   3.194   4.499   3.500
    1C        C  518   3.008   4.407   3.626
    1C        C  519   3.131   4.477   3.624
    1C        C  520   2.947   4.371   3.748
    1C        C  521   3.007   4.408   3.870
    1C        C  522   2.843   4.279   3.996
    1C        C  523   2.949   4.373   3.994
    1C        C  524   2.792   4.236   4.121
    1C        C  525   2.839   4.294   4.241
    1C        C  526   2.697   4.135   4.363
    1C        C  527   2.787   4.243   4.362
    1C        C  528   2.653   4.081   4.486
    1C        C  529   2.690   4.145   4.606
    1C        C  530   2.587   3.960   4.731
    1C        C  531   2.649   4.088   4.729
    1C        C  532   2.539   3.903   4.852
    1C        C  533   2.534   3.996   4.961
    1C        C  534   3.620   4.561   2.042
    1C        C  535   3.753   4.514   2.042
    1C        C  536   3.538   4.539   2.158
    1C        C  537   3.609   4.516   2.279
    1C        C  538   3.396   4.524   2.399
    1C        C  539   3.537   4.524   2.400
    1C        C  540   3.327   4.515   2.522
    1C        C  541   3.397   4.526   2.644
    1C        C  542   3.190   4.484   2.767
    1C        C  543   3.328   4.517   2.767
    1C        C  544   3.126   4.463   2.891
    1C        C  545   3.193   4.489   3.013
    1C        C  546   3.000   4.403   3.136
    1C        C  547   3.124   4.471   3.135
    1C        C  548   2.945   4.362   3.259
    1C        C  549   3.004   4.402   3.381
    1C        C  550   2.840   4.274   3.507
    1C        C  551   2.946   4.368   3.505
    1C        C  552   2.787   4.229   3.630
    1C        C  553   2.839   4.279   3.751
    1C        C  554   2.703   4.120   3.875
    1C        C  555   2.795   4.227   3.875
    1C        C  556   2.666   4.062   3.998
    1C        C  557   2.706   4.125   4.118
    1C        C  558   2.601   3.944   4.247
    1C        C  559   2.665   4.070   4.242
    1C        C  560   2.568   3.882   4.369
    1C        C  561   2.589   3.954   4.488
    1C        C  562   2.528   3.753   4.614
    1C        C  563   2.560   3.891   4.611
    1C        C  564   2.513   3.683   4.736
    1C        C  565   2.525   3.760   4.855
    1C        C  566   2.530   3.548   4.977
    1C        C  567   2.531   3.687   4.974
    1C        C  568   3.328   4.481   2.041
    1C        C  569   3.398   4.519   2.156
    1C        C  570   3.187   4.481   2.280
    1C        C  571   3.324   4.517   2.278
    1C        C  572   3.119   4.457   2.402
    1C        C  573   3.189   4.484   2.522
    1C        C  574   2.996   4.400   2.648
    1C        C  575   3.124   4.460   2.645
    1C        C  576   2.943   4.355   2.771
    1C        C  577   3.003   4.394   2.893
    1C        C  578   2.833   4.268   3.017
    1C        C  579   2.940   4.360   3.016
    1C        C  580   2.786   4.216   3.140
    1C        C  581   2.839   4.268   3.260
    1C        C  582   2.706   4.110   3.387
    1C        C  583   2.793   4.222   3.385
    1C        C  584   2.664   4.052   3.509
    1C        C  585   2.701   4.116   3.630
    1C        C  586   2.597   3.935   3.755
    1C        C  587   2.660   4.061   3.753
    1C        C  588   2.573   3.873   3.879
    1C        C  589   2.601   3.936   4.002
    1C        C  590   2.528   3.741   4.127
    1C        C  591   2.571   3.876   4.127
    1C        C  592   2.513   3.675   4.250
    1C        C  593   2.524   3.747   4.371
    1C        C  594   2.507   3.539   4.498
    1C        C  595   2.514   3.680   4.495
    1C        C  596   2.510   3.467   4.620
    1C        C  597   2.508   3.541   4.740
    1C        C  598   2.535   3.329   4.863
    1C        C  599   2.524   3.470   4.861
    1C        C  600   2.537   3.254   4.981
    1C        C  601   3.197   4.436   2.041
    1C        C  602   2.986   4.398   2.162
    1C        C  603   3.123   4.440   2.160
    1C        C  604   2.931   4.354   2.285
    1C        C  605   2.995   4.391   2.406
    1C        C  606   2.826   4.266   2.529
    1C        C  607   2.934   4.358   2.529
    1C        C  608   2.779   4.215   2.652
    1C        C  609   2.833   4.267   2.772
    1C        C  610   2.694   4.109   2.899
    1C        C  611   2.786   4.216   2.895
    1C        C  612   2.652   4.054   3.022
    1C        C  613   2.694   4.108   3.145
    1C        C  614   2.587   3.928   3.268
    1C        C  615   2.658   4.050   3.268
    1C        C  616   2.562   3.864   3.391
    1C        C  617   2.594   3.930   3.512
    1C        C  618   2.525   3.732   3.639
    1C        C  619   2.566   3.867   3.635
    1C        C  620   2.513   3.665   3.763
    1C        C  621   2.528   3.739   3.883
    1C        C  622   2.505   3.529   4.010
    1C        C  623   2.519   3.669   4.005
    1C        C  624   2.511   3.459   4.134
    1C        C  625   2.504   3.534   4.254
    1C        C  626   2.537   3.326   4.381
    1C        C  627   2.511   3.465   4.377
    1C        C  628   2.556   3.258   4.503
    1C        C  629   2.535   3.328   4.623
    1C        C  630   2.601   3.122   4.748
    1C        C  631   2.554   3.257   4.743
    1C        C  632   2.624   3.055   4.871
    1C        C  633   2.565   3.117   4.986
    1C        C  634   2.785   4.307   2.058
    1C        C  635   2.893   4.396   2.053
    1C        C  636   2.754   4.226   2.168
    1C        C  637   2.815   4.272   2.287
    1C        C  638   2.682   4.107   2.412
    1C        C  639   2.770   4.217   2.409
    1C        C  640   2.642   4.048   2.534
    1C        C  641   2.690   4.105   2.654
    1C        C  642   2.588   3.923   2.782
    1C        C  643   2.651   4.050   2.778
    1C        C  644   2.564   3.857   2.904
    1C        C  645   2.587   3.928   3.024
    1C        C  646   2.517   3.728   3.150
    1C        C  647   2.557   3.863   3.146
    1C        C  648   2.503   3.658   3.272
    1C        C  649   2.522   3.728   3.393
    1C        C  650   2.498   3.521   3.520
    1C        C  651   2.509   3.662   3.517
    1C        C  652   2.507   3.452   3.643
    1C        C  653   2.506   3.524   3.765
    1C        C  654   2.528   3.317   3.890
    1C        C  655   2.506   3.457   3.889
    1C        C  656   2.546   3.251   4.014
    1C        C  657   2.534   3.320   4.136
    1C        C  658   2.608   3.125   4.259
    1C        C  659   2.550   3.254   4.260
    1C        C  660   2.641   3.062   4.381
    1C        C  661   2.606   3.125   4.502
    1C        C  662   2.712   2.943   4.627
    1C        C  663   2.633   3.061   4.625
    1C        C  664   2.755   2.883   4.747
    1C        C  665   2.705   2.937   4.869
    1C        C  666   2.750   2.877   4.987
    1C        C  667   2.682   4.027   2.053
    1C        C  668   2.685   4.103   2.170
    1C        C  669   2.588   3.912   2.292
    1C        C  670   2.644   4.043   2.291
    1C        C  671   2.558   3.850   2.415
    1C        C  672   2.586   3.918   2.536
    1C        C  673   2.518   3.723   2.659
    1C        C  674   2.556   3.859   2.660
    1C        C  675   2.510   3.654   2.782
    1C        C  676   2.530   3.720   2.905
    1C        C  677   2.499   3.514   3.030
    1C        C  678   2.515   3.654   3.029
    1C        C  679   2.498   3.445   3.153
    1C        C  680   2.496   3.517   3.275
    1C        C  681   2.523   3.309   3.403
    1C        C  682   2.498   3.448   3.399
    1C        C  683   2.540   3.240   3.525
    1C        C  684   2.526   3.312   3.645
    1C        C  685   2.607   3.119   3.773
    1C        C  686   2.548   3.247   3.769
    1C        C  687   2.644   3.060   3.896
    1C        C  688   2.610   3.125   4.016
    1C        C  689   2.720   2.942   4.141
    1C        C  690   2.645   3.062   4.138
    1C        C  691   2.762   2.886   4.263
    1C        C  692   2.718   2.944   4.384
    1C        C  693   2.755   2.883   4.507
    1C        C  694   2.632   3.896   2.060
    1C        C  695   2.521   3.706   2.177
    1C        C  696   2.579   3.835   2.174
    1C        C  697   2.499   3.640   2.299
    1C        C  698   2.516   3.715   2.418
    1C        C  699   2.481   3.507   2.543
    1C        C  700   2.498   3.648   2.541
    1C        C  701   2.498   3.437   2.664
    1C        C  702   2.498   3.513   2.783
    1C        C  703   2.528   3.307   2.913
    1C        C  704   2.499   3.445   2.907
    1C        C  705   2.549   3.239   3.036
    1C        C  706   2.527   3.307   3.158
    1C        C  707   2.604   3.113   3.280
    1C        C  708   2.546   3.241   3.281
    1C        C  709   2.638   3.052   3.404
    1C        C  710   2.601   3.112   3.527
    1C        C  711   2.718   2.939   3.650
    1C        C  712   2.636   3.054   3.651
    1C        C  713   2.762   2.885   3.773
    1C        C  714   2.719   2.940   3.896
    1C        C  715   2.763   2.886   4.019
    1C        C  716   2.447   3.499   2.062
    1C        C  717   2.495   3.631   2.062
    1C        C  718   2.463   3.423   2.182
    1C        C  719   2.478   3.499   2.301
    1C        C  720   2.515   3.293   2.427
    1C        C  721   2.483   3.431   2.424
    1C        C  722   2.539   3.227   2.549
    1C        C  723   2.522   3.298   2.670
    1C        C  724   2.601   3.104   2.792
    1C        C  725   2.543   3.233   2.794
    1C        C  726   2.629   3.041   2.916
    1C        C  727   2.601   3.108   3.037
    1C        C  728   2.715   2.929   3.161
    1C        C  729   2.637   3.047   3.159
    1C        C  730   2.755   2.875   3.284
    1C        C  731   2.715   2.934   3.406
    1C        C  732   2.756   2.877   3.529
    1C        C  733   2.496   3.199   2.075
    1C        C  734   2.485   3.282   2.187
    1C        C  735   2.587   3.090   2.309
    1C        C  736   2.530   3.220   2.307
    1C        C  737   2.619   3.023   2.430
    1C        C  738   2.592   3.096   2.548
    1C        C  739   2.705   2.919   2.671
    1C        C  740   2.627   3.036   2.671
    1C        C  741   2.747   2.863   2.794
    1C        C  742   2.711   2.926   2.915
    1C        C  743   2.757   2.874   3.038
    1C        C  744   2.557   3.073   2.074
    1C        C  745   2.687   2.899   2.188
    1C        C  746   2.613   3.019   2.190
    1C        C  747   2.737   2.844   2.309
    1C        C  748   2.697   2.905   2.430
    1C        C  749   2.749   2.857   2.552
    1C        C  750   2.731   2.838   2.070
    1C        C  751   3.665   2.309   1.993
    1C        O  752   3.629   2.191   2.019
    1C        O  753   3.681   2.322   1.854
    1C        C  754   4.625   3.056   1.975
    1C        O  755   4.587   3.002   1.868
    1C        O  756   4.750   3.012   2.020
    1C        C  757   4.428   4.219   1.950
    1C        O  758   4.488   4.325   1.984
    1C        O  759   4.478   4.178   1.826
    1C        C  760   3.583   4.656   1.935
    1C        O  761   3.620   4.776   1.942
    1C        O  762   3.552   4.601   1.810
    1C        C  763   2.897   4.478   1.930
    1C        O  764   2.909   4.429   1.814
    1C        O  765   2.874   4.616   1.933
    1C        C  766   2.346   3.469   1.958
    1C        O  767   2.382   3.427   1.845
    1C        O  768   2.207   3.477   1.976
    1C        C  769   4.675   3.580   5.077
    1C        O  770   4.644   3.633   5.187
    1C        O  771   4.814   3.582   5.065
    1C        C  772   4.265   4.451   5.056
    1C        O  773   4.275   4.388   5.164
    1C        O  774   4.356   4.557   5.041
    1C        C  775   4.152   2.486   5.038
    1C        O  776   4.131   2.362   5.055
    1C        O  777   4.231   2.528   5.146
    1C        C  778   2.898   4.542   5.061
    1C        O  779   2.827   4.639   5.023
    1C        O  780   2.901   4.518   5.199
    1C        C  781   2.500   3.043   5.097
    1C        O  782   2.430   2.940   5.079
    1C        O  783   2.550   3.039   5.226
    1C        C  784   2.438   3.986   5.073
    1C        O  785   2.331   4.051   5.076
    1C        O  786   2.460   3.910   5.189
    1C        C  787   2.964   2.425   1.999
    1C        O  788   2.916   2.454   1.886
    1C        O  789   2.924   2.302   2.050
    1C        C  790   3.169   2.367   5.055
    1C        O  791   3.158   2.259   4.992
    1C        O  792   3.211   2.363   5.189
    1C        H  793   4.279   3.031   5.059
    1C        H  794   4.228   2.791   5.073
    1C        H  795   4.527   3.120   5.043
    1C        H  796   4.531   3.371   5.071
    1C        H  797   4.550   3.816   5.046
    1C        H  798   4.387   3.954   5.048
    1C        H  799   4.302   4.179   5.055
    1C        H  800   4.047   4.561   5.017
    1C        H  801   3.817   4.564   5.046
    1C        H  802   3.586   4.618   5.046
    1C        H  803   3.391   4.516   5.055
    1C        H  804   3.158   4.487   5.055
    1C        H  805   3.887   2.506   5.075
    1C        H  806   3.672   2.460   5.076
    1C        H  807   3.011   2.574   5.071
    1C        H  808   3.443   2.447   5.073
    1C        H  809   2.854   2.717   5.076
    1C        H  810   2.669   2.856   5.055
    1C        H  811   2.521   3.304   5.074
    1C        H  812   2.542   3.499   5.072
    1C        H  813   2.478   3.727   5.058
    1C        H  814   2.594   4.183   5.042
    1C        H  815   2.723   4.361   5.029
    1C        H  816   2.728   2.894   1.979
    1C        H  817   2.823   2.675   1.981
    1C        H  818   3.224   2.485   1.983
    1C        H  819   3.435   2.472   1.982
    1C        H  820   3.860   2.523   1.968
    1C        H  821   4.084   2.594   1.973
    1C        H  822   4.248   2.729   1.970
    1C        H  823   4.388   2.920   1.967
    1C        H  824   4.620   3.307   1.985
    1C        H  825   4.445   3.520   1.982
    1C        H  826   4.554   3.753   1.966
    1C        H  827   3.810   4.539   1.955
    1C        H  828   3.964   4.375   1.948
    1C        H  829   4.157   4.241   1.953
    1C        H  830   4.522   3.979   1.978
    1C        H  831   2.665   3.834   1.980
    1C        H  832   2.697   4.075   1.958
    1C        H  833   2.725   4.310   1.969
    1C        H  834   3.365   4.521   1.949
    1C        H  835   3.159   4.383   1.956
    1C        H  836   2.526   3.006   1.997
    1C        H  837   2.446   3.222   1.983
    1C        H  838   2.545   3.662   1.972
    2V3OU   H29  839   2.798   3.540   5.776
    2V3OU   C27  840   2.786   3.507   5.882
    2V3OU   H27  841   2.722   3.567   5.952
    2V3OU   H28  842   2.734   3.408   5.879
    2V3OU   O11  843   2.912   3.482   5.946
    2V3OU   C15  844   2.919   3.404   6.059
    2V3OU   C13  845   3.051   3.382   6.103
    2V3OU   C14  846   3.077   3.269   6.182
    2V3OU   C16  847   2.972   3.188   6.221
    2V3OU    H6  848   2.998   3.103   6.287
    2V3OU   C12  849   3.216   3.223   6.202
    2V3OU    O2  850   3.243   3.120   6.267
    2V3OU   C10  851   3.330   3.310   6.168
    2V3OU    C8  852   3.463   3.270   6.176
    2V3OU   O10  853   3.490   3.151   6.236
    2V3OU   H26  854   3.404   3.110   6.255
    2V3OU    C6  855   3.571   3.348   6.125
    2V3OU    C5  856   3.538   3.465   6.058
    2V3OU    C4  857   3.710   3.295   6.116
    2V3OU    H4  858   3.727   3.226   6.203
    2V3OU    H5  859   3.717   3.231   6.023
    2V3OU    C2  860   3.820   3.402   6.116
    2V3OU    O6  861   3.807   3.476   6.237
    2V3OU   H21  862   3.764   3.555   6.201
    2V3OU    C3  863   3.784   3.502   6.006
    2V3OU    H2  864   3.865   3.579   5.999
    2V3OU    H3  865   3.789   3.444   5.910
    2V3OU   C25  866   3.955   3.333   6.098
    2V3OU    O7  867   4.002   3.300   5.990
    2V3OU   C26  868   4.034   3.291   6.222
    2V3OU   H22  869   4.059   3.388   6.272
    2V3OU   H23  870   4.125   3.234   6.190
    2V3OU    O8  871   3.966   3.213   6.317
    2V3OU   H24  872   3.927   3.270   6.386
    2V3OU    C1  873   3.646   3.563   6.023
    2V3OU    H1  874   3.625   3.625   5.931
    2V3OU    O3  875   3.665   3.657   6.129
    2V3OU   C19  876   3.628   3.795   6.122
    2V3OU    H9  877   3.531   3.797   6.063
    2V3OU    O4  878   3.723   3.848   6.033
    2V3OU   C20  879   3.849   3.872   6.095
    2V3OU   H10  880   3.900   3.772   6.106
    2V3OU   C24  881   3.613   3.859   6.260
    2V3OU   H16  882   3.544   3.797   6.323
    2V3OU   H17  883   3.566   3.961   6.257
    2V3OU   C23  884   3.751   3.879   6.321
    2V3OU   H15  885   3.795   3.776   6.345
    2V3OU    N1  886   3.740   3.961   6.439
    2V3OU   H19  887   3.808   3.920   6.500
    2V3OU   H20  888   3.653   3.941   6.484
    2V3OU   C21  889   3.853   3.950   6.227
    2V3OU   H11  890   3.950   3.930   6.282
    2V3OU    O5  891   3.831   4.090   6.229
    2V3OU   H18  892   3.789   4.098   6.316
    2V3OU   C22  893   3.917   3.944   5.980
    2V3OU   H12  894   3.867   4.043   5.965
    2V3OU   H13  895   3.898   3.893   5.883
    2V3OU   H14  896   4.028   3.955   5.998
    2V3OU   C11  897   3.161   3.475   6.073
    2V3OU    O1  898   3.133   3.590   6.033
    2V3OU    C9  899   3.300   3.430   6.098
    2V3OU    C7  900   3.402   3.508   6.045
    2V3OU    O9  901   3.385   3.618   5.963
    2V3OU   H25  902   3.289   3.630   5.965
    2V3OU   C17  903   2.818   3.320   6.110
    2V3OU    H7  904   2.718   3.342   6.073
    2V3OU   C18  905   2.838   3.210   6.192
    2V3OU    H8  906   2.757   3.151   6.238
    3SOL     OW  907   3.545   3.250   3.897
    3SOL    HW1  908   3.584   3.165   3.930
    3SOL    HW2  909   3.557   3.322   3.966
    4SOL     OW  910   6.606   6.280   1.054
    4SOL    HW1  911   6.702   6.280   1.025
    4SOL    HW2  912   6.576   6.186   1.071
    5SOL     OW  913   4.609   2.582   0.441
    5SOL    HW1  914   4.570   2.592   0.532
    5SOL    HW2  915   4.707   2.563   0.448
    6SOL     OW  916   4.477   1.501   1.972
    6SOL    HW1  917   4.388   1.508   2.017
    6SOL    HW2  918   4.543   1.461   2.036
    7SOL     OW  919   1.975   3.380   4.499
    7SOL    HW1  920   1.961   3.395   4.597
    7SOL    HW2  921   2.018   3.291   4.485
    8SOL     OW  922   1.139   1.979   4.967
    8SOL    HW1  923   1.191   1.917   5.026
    8SOL    HW2  924   1.093   2.047   5.023
    9SOL     OW  925   7.000   1.645   5.738
    9SOL    HW1  926   7.016   1.586   5.817
    9SOL    HW2  927   6.989   1.588   5.656
   10SOL     OW  928   5.273   4.664   1.858
   10SOL    HW1  929   5.345   4.697   1.796
   10SOL    HW2  930   5.202   4.734   1.866
   11SOL     OW  931   2.500   2.493   0.895
   11SOL    HW1  932   2.513   2.407   0.946
   11SOL    HW2  933   2.587   2.542   0.892
   12SOL     OW  934   4.812   4.938   2.092
   12SOL    HW1  935   4.718   4.969   2.080
   12SOL    HW2  936   4.813   4.863   2.159
   13SOL     OW  937   5.833   6.236   1.390
   13SOL    HW1  938   5.873   6.268   1.476
   13SOL    HW2  939   5.891   6.265   1.313
   14SOL     OW  940   4.723   6.675   7.013
   14SOL    HW1  941   4.758   6.735   6.941
   14SOL    HW2  942   4.725   6.724   0.073
   15SOL     OW  943   0.884   6.031   6.338
   15SOL    HW1  944   0.935   6.072   6.413
   15SOL    HW2  945   0.898   5.932   6.338
   16SOL     OW  946   2.273   5.444   5.131
   16SOL    HW1  947   2.281   5.463   5.033
   16SOL    HW2  948   2.347   5.382   5.159
   17SOL     OW  949   6.811   0.790   4.851
   17SOL    HW1  950   6.744   0.853   4.814
   17SOL    HW2  951   6.786   0.766   4.945
   18SOL     OW  952   2.851   1.253   5.754
   18SOL    HW1  953   2.809   1.340   5.781
   18SOL    HW2  954   2.949   1.257   5.773
   19SOL     OW  955   3.270   6.303   2.412
   19SOL    HW1  956   3.247   6.342   2.323
   19SOL    HW2  957   3.228   6.212   2.420
   20SOL     OW  958   6.816   1.935   5.526
   20SOL    HW1  959   6.822   1.960   5.430
   20SOL    HW2  960   6.906   1.911   5.561
   21SOL     OW  961   2.211   3.950   2.224
   21SOL    HW1  962   2.291   3.926   2.170
   21SOL    HW2  963   2.128   3.941   2.168
   22SOL     OW  964   0.854   1.292   0.266
   22SOL    HW1  965   0.901   1.283   0.354
   22SOL    HW2  966   0.834   1.202   0.229
   23SOL     OW  967   6.322   4.974   0.539
   23SOL    HW1  968   6.422   4.975   0.538
   23SOL    HW2  969   6.289   4.919   0.463
   24SOL     OW  970   5.346   1.618   0.012
   24SOL    HW1  971   5.255   1.628   7.001
   24SOL    HW2  972   5.359   1.524   0.045
   25SOL     OW  973   1.488   0.782   4.072
   25SOL    HW1  974   1.528   0.861   4.119
   25SOL    HW2  975   1.539   0.765   3.987
   26SOL     OW  976   1.610   1.781   5.841
   26SOL    HW1  977   1.649   1.788   5.933
   26SOL    HW2  978   1.619   1.688   5.808
   27SOL     OW  979   0.857   6.988   2.665
   27SOL    HW1  980   0.814   0.021   2.731
   27SOL    HW2  981   0.832   7.016   2.572
   28SOL     OW  982   1.645   0.545   6.205
   28SOL    HW1  983   1.607   0.539   6.297
   28SOL    HW2  984   1.701   0.627   6.197
   29SOL     OW  985   5.758   0.257   1.252
   29SOL    HW1  986   5.729   0.349   1.230
   29SOL    HW2  987   5.729   0.194   1.180
   30SOL     OW  988   4.901   0.440   5.372
   30SOL    HW1  989   4.880   0.358   5.426
   30SOL    HW2  990   4.968   0.417   5.301
   31SOL     OW  991   6.931   4.790   4.019
   31SOL    HW1  992   6.955   4.854   4.092
   31SOL    HW2  993   6.893   4.706   4.060
   32SOL     OW  994   2.724   0.667   0.937
   32SOL    HW1  995   2.628   0.694   0.944
   32SOL    HW2  996   2.781   0.735   0.983
   33SOL     OW  997   2.077   4.896   5.552
   33SOL    HW1  998   2.121   4.869   5.637
   33SOL    HW2  999   2.119   4.980   5.518
   34SOL     OW 1000   2.429   5.702   5.489
   34SOL    HW1 1001   2.425   5.778   5.424
   34SOL    HW2 1002   2.362   5.717   5.561
   35SOL     OW 1003   1.024   3.327   5.593
   35SOL    HW1 1004   0.940   3.358   5.638
   35SOL    HW2 1005   1.102   3.352   5.650
   36SOL     OW 1006   6.060   0.910   3.460
   36SOL    HW1 1007   6.085   0.961   3.542
   36SOL    HW2 1008   6.128   0.837   3.444
   37SOL     OW 1009   2.316   6.047   4.590
   37SOL    HW1 1010   2.399   6.099   4.573
   37SOL    HW2 1011   2.302   5.981   4.517
   38SOL     OW 1012   1.438   4.308   2.606
   38SOL    HW1 1013   1.388   4.393   2.596
   38SOL    HW2 1014   1.522   4.323   2.659
   39SOL     OW 1015   6.803   4.729   1.063
   39SOL    HW1 1016   6.827   4.825   1.077
   39SOL    HW2 1017   6.871   4.671   1.109
   40SOL     OW 1018   3.957   1.199   0.169
   40SOL    HW1 1019   3.859   1.207   0.189
   40SOL    HW2 1020   4.002   1.151   0.245
   41SOL     OW 1021   5.223   3.699   1.717
   41SOL    HW1 1022   5.279   3.764   1.768
   41SOL    HW2 1023   5.131   3.737   1.706
   42SOL     OW 1024   2.666   4.629   6.527
   42SOL    HW1 1025   2.617   4.714   6.504
   42SOL    HW2 1026   2.700   4.586   6.443
   43SOL     OW 1027   5.561   0.040   4.635
   43SOL    HW1 1028   5.475   0.019   4.589
   43SOL    HW2 1029   5.632   0.058   4.567
   44SOL     OW 1030   6.626   1.268   6.331
   44SOL    HW1 1031   6.601   1.214   6.411
   44SOL    HW2 1032   6.695   1.336   6.356
   45SOL     OW 1033   2.324   4.760   6.131
   45SOL    HW1 1034   2.387   4.716   6.067
   45SOL    HW2 1035   2.258   4.692   6.164
   46SOL     OW 1036   1.441   4.362   4.799
   46SOL    HW1 1037   1.378   4.440   4.807
   46SOL    HW2 1038   1.414   4.292   4.865
   47SOL     OW 1039   5.786   3.627   0.340
   47SOL    HW1 1040   5.829   3.672   0.417
   47SOL    HW2 1041   5.769   3.693   0.267
   48SOL     OW 1042   6.475   4.024   1.012
   48SOL    HW1 1043   6.375   4.028   1.009
   48SOL    HW2 1044   6.511   4.116   1.031
   49SOL     OW 1045   3.013   2.830   6.414
   49SOL    HW1 1046   2.994   2.734   6.434
   49SOL    HW2 1047   3.089   2.837   6.349
   50SOL     OW 1048   5.086   2.244   6.913
   50SOL    HW1 1049   5.025   2.207   6.983
   50SOL    HW2 1050   5.138   2.169   6.872
   51SOL     OW 1051   1.064   6.198   2.001
   51SOL    HW1 1052   1.025   6.285   2.031
   51SOL    HW2 1053   1.130   6.214   1.927
   52SOL     OW 1054   5.705   2.188   2.079
   52SOL    HW1 1055   5.645   2.209   2.156
   52SOL    HW2 1056   5.658   2.127   2.015
   53SOL     OW 1057   3.683   1.088   0.932
   53SOL    HW1 1058   3.771   1.045   0.914
   53SOL    HW2 1059   3.610   1.036   0.887
   54SOL     OW 1060   6.489   0.388   6.203
   54SOL    HW1 1061   6.507   0.309   6.144
   54SOL    HW2 1062   6.480   0.470   6.146
   55SOL     OW 1063   1.551   3.753   6.459
   55SOL    HW1 1064   1.644   3.775   6.487
   55SOL    HW2 1065   1.550   3.667   6.409
   56SOL     OW 1066   0.748   2.269   6.526
   56SOL    HW1 1067   0.816   2.343   6.529
   56SOL    HW2 1068   0.658   2.306   6.550
   57SOL     OW 1069   4.397   6.064   0.649
   57SOL    HW1 1070   4.454   5.996   0.603
   57SOL    HW2 1071   4.456   6.127   0.699
   58SOL     OW 1072   1.571   1.051   6.713
   58SOL    HW1 1073   1.483   1.005   6.696
   58SOL    HW2 1074   1.583   1.125   6.646
   59SOL     OW 1075   4.294   2.769   6.294
   59SOL    HW1 1076   4.213   2.826   6.284
   59SOL    HW2 1077   4.269   2.681   6.334
   60SOL     OW 1078   6.812   3.073   2.545
   60SOL    HW1 1079   6.856   3.136   2.609
   60SOL    HW2 1080   6.759   3.006   2.596
   61SOL     OW 1081   1.138   5.913   3.098
   61SOL    HW1 1082   1.204   5.965   3.043
   61SOL    HW2 1083   1.103   5.836   3.044
   62SOL     OW 1084   6.115   2.465   3.103
   62SOL    HW1 1085   6.025   2.481   3.143
   62SOL    HW2 1086   6.154   2.382   3.140
   63SOL     OW 1087   3.909   6.609   5.858
   63SOL    HW1 1088   3.962   6.590   5.941
   63SOL    HW2 1089   3.834   6.544   5.851
   64SOL     OW 1090   1.295   1.993   5.878
   64SOL    HW1 1091   1.198   1.996   5.901
   64SOL    HW2 1092   1.333   1.906   5.909
   65SOL     OW 1093   0.923   5.131   4.680
   65SOL    HW1 1094   0.899   5.171   4.768
   65SOL    HW2 1095   0.879   5.042   4.670
   66SOL     OW 1096   4.367   1.783   1.428
   66SOL    HW1 1097   4.322   1.708   1.475
   66SOL    HW2 1098   4.418   1.838   1.494
   67SOL     OW 1099   6.923   3.547   1.564
   67SOL    HW1 1100   6.892   3.510   1.476
   67SOL    HW2 1101   7.022   3.533   1.573
   68SOL     OW 1102   0.191   1.177   7.013
   68SOL    HW1 1103   0.245   1.132   0.057
   68SOL    HW2 1104   0.248   1.246   6.967
   69SOL     OW 1105   1.460   5.751   6.884
   69SOL    HW1 1106   1.537   5.706   6.928
   69SOL    HW2 1107   1.386   5.763   6.950
   70SOL     OW 1108   4.465   4.916   3.720
   70SOL    HW1 1109   4.426   4.910   3.628
   70SOL    HW2 1110   4.392   4.911   3.788
   71SOL     OW 1111   5.042   1.392   5.280
   71SOL    HW1 1112   4.991   1.324   5.228
   71SOL    HW2 1113   5.139   1.366   5.282
   72SOL     OW 1114   6.938   0.674   2.783
   72SOL    HW1 1115   6.861   0.665   2.720
   72SOL    HW2 1116   6.940   0.767   2.819
   73SOL     OW 1117   2.658   0.887   1.450
   73SOL    HW1 1118   2.695   0.861   1.539
   73SOL    HW2 1119   2.602   0.969   1.460
   74SOL     OW 1120   2.957   1.886   0.087
   74SOL    HW1 1121   2.915   1.843   0.167
   74SOL    HW2 1122   2.967   1.818   0.014
   75SOL     OW 1123   2.195   3.001   0.369
   75SOL    HW1 1124   2.256   3.079   0.386
   75SOL    HW2 1125   2.247   2.916   0.377
   76SOL     OW 1126   3.905   4.831   5.729
   76SOL    HW1 1127   3.999   4.833   5.694
   76SOL    HW2 1128   3.901   4.880   5.816
   77SOL     OW 1129   1.029   5.757   4.726
   77SOL    HW1 1130   1.075   5.801   4.649
   77SOL    HW2 1131   1.026   5.821   4.804
   78SOL     OW 1132   5.176   1.777   1.521
   78SOL    HW1 1133   5.160   1.684   1.554
   78SOL    HW2 1134   5.272   1.801   1.534
   79SOL     OW 1135   1.636   4.292   4.036
   79SOL    HW1 1136   1.732   4.281   4.062
   79SOL    HW2 1137   1.616   4.389   4.024
   80SOL     OW 1138   3.573   2.148   5.250
   80SOL    HW1 1139   3.488   2.152   5.198
   80SOL    HW2 1140   3.648   2.117   5.191
   81SOL     OW 1141   3.269   5.120   2.398
   81SOL    HW1 1142   3.278   5.089   2.303
   81SOL    HW2 1143   3.306   5.212   2.407
   82SOL     OW 1144   2.950   0.294   2.212
   82SOL    HW1 1145   2.987   0.201   2.210
   82SOL    HW2 1146   3.013   0.355   2.260
   83SOL     OW 1147   5.547   1.232   4.492
   83SOL    HW1 1148   5.516   1.268   4.405
   83SOL    HW2 1149   5.476   1.175   4.533
   84SOL     OW 1150   5.776   3.068   3.036
   84SOL    HW1 1151   5.872   3.094   3.037
   84SOL    HW2 1152   5.747   3.042   3.129
   85SOL     OW 1153   2.435   5.917   3.264
   85SOL    HW1 1154   2.452   6.015   3.258
   85SOL    HW2 1155   2.483   5.870   3.190
   86SOL     OW 1156   4.907   0.350   0.959
   86SOL    HW1 1157   4.865   0.411   0.892
   86SOL    HW2 1158   4.934   0.402   1.040
   87SOL     OW 1159   2.745   3.304   6.568
   87SOL    HW1 1160   2.676   3.237   6.539
   87SOL    HW2 1161   2.704   3.395   6.569
   88SOL     OW 1162   2.005   3.056   1.464
   88SOL    HW1 1163   2.034   2.960   1.460
   88SOL    HW2 1164   2.037   3.103   1.382
   89SOL     OW 1165   3.157   3.502   4.908
   89SOL    HW1 1166   3.231   3.438   4.889
   89SOL    HW2 1167   3.195   3.590   4.939
   90SOL     OW 1168   6.238   4.316   2.475
   90SOL    HW1 1169   6.179   4.347   2.550
   90SOL    HW2 1170   6.221   4.371   2.394
   91SOL     OW 1171   4.565   5.860   0.590
   91SOL    HW1 1172   4.651   5.876   0.541
   91SOL    HW2 1173   4.542   5.763   0.586
   92SOL     OW 1174   6.060   5.027   6.984
   92SOL    HW1 1175   6.134   5.057   6.923
   92SOL    HW2 1176   6.089   5.037   0.052
   93SOL     OW 1177   3.012   3.821   1.576
   93SOL    HW1 1178   3.014   3.768   1.661
   93SOL    HW2 1179   3.069   3.776   1.507
   94SOL     OW 1180   3.329   1.699   4.136
   94SOL    HW1 1181   3.348   1.756   4.056
   94SOL    HW2 1182   3.254   1.740   4.188
   95SOL     OW 1183   0.879   6.890   4.376
   95SOL    HW1 1184   0.882   6.987   4.352
   95SOL    HW2 1185   0.936   6.873   4.457
   96SOL     OW 1186   0.220   5.250   6.732
   96SOL    HW1 1187   0.199   5.270   6.827
   96SOL    HW2 1188   0.316   5.268   6.713
   97SOL     OW 1189   3.155   4.400   5.472
   97SOL    HW1 1190   3.119   4.352   5.393
   97SOL    HW2 1191   3.080   4.424   5.534
   98SOL     OW 1192   0.289   1.976   4.994
   98SOL    HW1 1193   0.387   1.971   4.971
   98SOL    HW2 1194   0.241   1.901   4.948
   99SOL     OW 1195   4.032   4.281   5.326
   99SOL    HW1 1196   4.078   4.316   5.244
   99SOL    HW2 1197   3.975   4.202   5.301
  100SOL     OW 1198   0.986   0.833   5.354
  100SOL    HW1 1199   0.953   0.754   5.302
  100SOL    HW2 1200   0.910   0.896   5.370
  101SOL     OW 1201   5.215   3.373   2.688
  101SOL    HW1 1202   5.150   3.298   2.678
  101SOL    HW2 1203   5.235   3.412   2.597
  102SOL     OW 1204   3.692   0.403   7.006
  102SOL    HW1 1205   3.667   0.405   6.909
  102SOL    HW2 1206   3.625   0.454   0.032
  103SOL     OW 1207   1.233   1.375   1.857
  103SOL    HW1 1208   1.170   1.330   1.921
  103SOL    HW2 1209   1.253   1.313   1.781
  104SOL     OW 1210   6.157   4.467   2.243
  104SOL    HW1 1211   6.148   4.400   2.169
  104SOL    HW2 1212   6.074   4.522   2.249
  105SOL     OW 1213   0.550   0.185   4.778
  105SOL    HW1 1214   0.554   0.272   4.826
  105SOL    HW2 1215   0.484   0.190   4.704
  106SOL     OW 1216   4.431   3.110   1.698
  106SOL    HW1 1217   4.437   3.045   1.622
  106SOL    HW2 1218   4.472   3.071   1.780
  107SOL     OW 1219   4.999   0.064   1.300
  107SOL    HW1 1220   5.085   0.106   1.270
  107SOL    HW2 1221   4.922   0.121   1.271
  108SOL     OW 1222   3.770   1.805   4.805
  108SOL    HW1 1223   3.759   1.751   4.888
  108SOL    HW2 1224   3.868   1.812   4.783
  109SOL     OW 1225   1.944   1.035   5.684
  109SOL    HW1 1226   1.891   1.039   5.769
  109SOL    HW2 1227   1.952   0.940   5.654
  110SOL     OW 1228   4.021   4.263   5.746
  110SOL    HW1 1229   3.925   4.279   5.770
  110SOL    HW2 1230   4.080   4.314   5.809
  111SOL     OW 1231   5.798   3.393   1.132
  111SOL    HW1 1232   5.835   3.326   1.196
  111SOL    HW2 1233   5.723   3.443   1.175
  112SOL     OW 1234   4.651   6.869   5.242
  112SOL    HW1 1235   4.558   6.835   5.227
  112SOL    HW2 1236   4.714   6.792   5.251
  113SOL     OW 1237   0.558   4.582   2.843
  113SOL    HW1 1238   0.640   4.568   2.899
  113SOL    HW2 1239   0.479   4.542   2.889
  114SOL     OW 1240   0.144   2.158   1.864
  114SOL    HW1 1241   0.074   2.125   1.801
  114SOL    HW2 1242   0.222   2.095   1.864
  115SOL     OW 1243   4.217   0.586   2.661
  115SOL    HW1 1244   4.142   0.569   2.597
  115SOL    HW2 1245   4.246   0.499   2.702
  116SOL     OW 1246   6.657   5.280   1.174
  116SOL    HW1 1247   6.685   5.255   1.267
  116SOL    HW2 1248   6.692   5.211   1.110
  117SOL     OW 1249   3.262   2.293   0.106
  117SOL    HW1 1250   3.234   2.198   0.113
  117SOL    HW2 1251   3.245   2.340   0.192
  118SOL     OW 1252   0.066   1.961   2.255
  118SOL    HW1 1253   7.024   1.974   2.327
  118SOL    HW2 1254   0.107   2.049   2.232
  119SOL     OW 1255   6.364   6.771   5.208
  119SOL    HW1 1256   6.392   6.675   5.200
  119SOL    HW2 1257   6.278   6.785   5.159
  120SOL     OW 1258   4.450   1.266   4.595
  120SOL    HW1 1259   4.508   1.188   4.570
  120SOL    HW2 1260   4.493   1.318   4.669
  121SOL     OW 1261   0.207   5.536   6.682
  121SOL    HW1 1262   0.245   5.537   6.589
  121SOL    HW2 1263   0.171   5.444   6.702
  122SOL     OW 1264   6.423   4.974   6.067
  122SOL    HW1 1265   6.378   4.997   5.980
  122SOL    HW2 1266   6.495   4.906   6.050
  123SOL     OW 1267   0.499   2.555   1.796
  123SOL    HW1 1268   0.400   2.569   1.793
  123SOL    HW2 1269   0.538   2.610   1.870
  124SOL     OW 1270   1.394   3.817   0.716
  124SOL    HW1 1271   1.336   3.832   0.636
  124SOL    HW2 1272   1.347   3.755   0.780
  125SOL     OW 1273   4.364   2.453   0.773
  125SOL    HW1 1274   4.283   2.512   0.778
  125SOL    HW2 1275   4.444   2.508   0.749
  126SOL     OW 1276   3.785   2.924   4.315
  126SOL    HW1 1277   3.721   2.921   4.239
  126SOL    HW2 1278   3.873   2.960   4.284
  127SOL     OW 1279   0.249   4.925   5.729
  127SOL    HW1 1280   0.306   4.851   5.765
  127SOL    HW2 1281   0.274   4.942   5.634
  128SOL     OW 1282   4.396   3.913   6.007
  128SOL    HW1 1283   4.348   3.961   6.080
  128SOL    HW2 1284   4.491   3.896   6.036
  129SOL     OW 1285   0.586   5.424   2.579
  129SOL    HW1 1286   0.518   5.410   2.651
  129SOL    HW2 1287   0.539   5.426   2.490
  130SOL     OW 1288   6.280   3.431   4.583
  130SOL    HW1 1289   6.261   3.340   4.545
  130SOL    HW2 1290   6.196   3.471   4.619
  131SOL     OW 1291   0.543   3.313   3.476
  131SOL    HW1 1292   0.597   3.236   3.443
  131SOL    HW2 1293   0.446   3.290   3.474
  132SOL     OW 1294   4.688   2.409   1.338
  132SOL    HW1 1295   4.787   2.396   1.336
  132SOL    HW2 1296   4.665   2.482   1.403
  133SOL     OW 1297   4.530   4.984   6.262
  133SOL    HW1 1298   4.439   5.023   6.251
  133SOL    HW2 1299   4.574   4.974   6.173
  134SOL     OW 1300   5.812   2.018   0.920
  134SOL    HW1 1301   5.912   2.016   0.931
  134SOL    HW2 1302   5.789   2.061   0.833
  135SOL     OW 1303   4.604   4.792   3.980
  135SOL    HW1 1304   4.565   4.872   3.935
  135SOL    HW2 1305   4.703   4.801   3.986
  136SOL     OW 1306   3.796   6.879   6.046
  136SOL    HW1 1307   3.839   6.967   6.066
  136SOL    HW2 1308   3.788   6.867   5.947
  137SOL     OW 1309   2.251   4.084   6.064
  137SOL    HW1 1310   2.180   4.043   6.122
  137SOL    HW2 1311   2.231   4.181   6.052
  138SOL     OW 1312   0.762   5.349   6.565
  138SOL    HW1 1313   0.730   5.270   6.514
  138SOL    HW2 1314   0.847   5.326   6.612
  139SOL     OW 1315   0.553   0.100   1.417
  139SOL    HW1 1316   0.559   0.188   1.464
  139SOL    HW2 1317   0.463   0.059   1.435
  140SOL     OW 1318   3.989   1.161   1.634
  140SOL    HW1 1319   4.067   1.100   1.650
  140SOL    HW2 1320   3.986   1.231   1.706
  141SOL     OW 1321   0.243   1.773   7.005
  141SOL    HW1 1322   0.315   1.752   0.044
  141SOL    HW2 1323   0.285   1.784   6.914
  142SOL     OW 1324   2.036   4.106   0.598
  142SOL    HW1 1325   2.106   4.051   0.644
  142SOL    HW2 1326   2.035   4.198   0.637
  143SOL     OW 1327   4.978   5.914   1.430
  143SOL    HW1 1328   4.990   5.822   1.393
  143SOL    HW2 1329   4.941   5.909   1.522
  144SOL     OW 1330   3.724   5.231   2.935
  144SOL    HW1 1331   3.818   5.266   2.934
  144SOL    HW2 1332   3.705   5.184   2.849
  145SOL     OW 1333   0.139   5.302   3.930
  145SOL    HW1 1334   0.067   5.270   3.869
  145SOL    HW2 1335   0.226   5.260   3.904
  146SOL     OW 1336   6.483   0.648   6.085
  146SOL    HW1 1337   6.543   0.695   6.149
  146SOL    HW2 1338   6.502   0.680   5.992
  147SOL     OW 1339   6.058   1.383   5.610
  147SOL    HW1 1340   6.013   1.398   5.521
  147SOL    HW2 1341   6.129   1.452   5.623
  148SOL     OW 1342   2.082   6.496   1.973
  148SOL    HW1 1343   2.098   6.398   1.962
  148SOL    HW2 1344   2.166   6.541   2.003
  149SOL     OW 1345   1.477   3.254   5.217
  149SOL    HW1 1346   1.481   3.316   5.295
  149SOL    HW2 1347   1.504   3.162   5.245
  150SOL     OW 1348   4.108   1.786   5.635
  150SOL    HW1 1349   4.042   1.762   5.706
  150SOL    HW2 1350   4.114   1.886   5.628
  151SOL     OW 1351   6.411   2.876   1.323
  151SOL    HW1 1352   6.491   2.865   1.264
  151SOL    HW2 1353   6.400   2.972   1.348
  152SOL     OW 1354   0.096   2.868   1.242
  152SOL    HW1 1355   0.151   2.943   1.280
  152SOL    HW2 1356   0.067   2.807   1.316
  153SOL     OW 1357   1.973   1.814   3.606
  153SOL    HW1 1358   1.961   1.910   3.580
  153SOL    HW2 1359   2.070   1.796   3.621
  154SOL     OW 1360   6.863   1.571   3.154
  154SOL    HW1 1361   6.796   1.572   3.227
  154SOL    HW2 1362   6.934   1.639   3.173
  155SOL     OW 1363   6.110   4.354   4.042
  155SOL    HW1 1364   6.053   4.381   4.120
  155SOL    HW2 1365   6.205   4.378   4.061
  156SOL     OW 1366   5.071   1.768   0.865
  156SOL    HW1 1367   5.084   1.854   0.814
  156SOL    HW2 1368   5.005   1.710   0.817
  157SOL     OW 1369   4.965   0.478   1.214
  157SOL    HW1 1370   5.056   0.490   1.175
  157SOL    HW2 1371   4.936   0.562   1.260
  158SOL     OW 1372   0.559   3.145   4.770
  158SOL    HW1 1373   0.481   3.102   4.725
  158SOL    HW2 1374   0.565   3.112   4.864
  159SOL     OW 1375   6.118   5.235   0.279
  159SOL    HW1 1376   6.127   5.294   0.198
  159SOL    HW2 1377   6.195   5.251   0.341
  160SOL     OW 1378   5.067   0.976   0.707
  160SOL    HW1 1379   5.070   1.068   0.666
  160SOL    HW2 1380   4.998   0.975   0.779
  161SOL     OW 1381   6.823   6.250   0.623
  161SOL    HW1 1382   6.757   6.175   0.622
  161SOL    HW2 1383   6.837   6.281   0.717
  162SOL     OW 1384   4.384   6.857   5.733
  162SOL    HW1 1385   4.449   6.818   5.799
  162SOL    HW2 1386   4.297   6.875   5.779
  163SOL     OW 1387   0.541   3.273   2.799
  163SOL    HW1 1388   0.528   3.174   2.804
  163SOL    HW2 1389   0.605   3.295   2.725
  164SOL     OW 1390   2.064   2.213   2.812
  164SOL    HW1 1391   2.014   2.300   2.805
  164SOL    HW2 1392   2.089   2.197   2.907
  165SOL     OW 1393   0.375   6.836   3.698
  165SOL    HW1 1394   0.398   6.872   3.607
  165SOL    HW2 1395   0.304   6.766   3.688
  166SOL     OW 1396   0.131   4.630   4.301
  166SOL    HW1 1397   0.035   4.611   4.280
  166SOL    HW2 1398   0.174   4.547   4.337
  167SOL     OW 1399   1.757   1.242   4.591
  167SOL    HW1 1400   1.742   1.144   4.576
  167SOL    HW2 1401   1.734   1.292   4.508
  168SOL     OW 1402   3.321   3.901   2.608
  168SOL    HW1 1403   3.303   3.991   2.568
  168SOL    HW2 1404   3.404   3.862   2.569
  169SOL     OW 1405   5.378   2.467   0.408
  169SOL    HW1 1406   5.295   2.443   0.357
  169SOL    HW2 1407   5.390   2.402   0.483
  170SOL     OW 1408   6.318   5.331   1.617
  170SOL    HW1 1409   6.398   5.359   1.670
  170SOL    HW2 1410   6.326   5.235   1.592
  171SOL     OW 1411   3.370   3.109   1.224
  171SOL    HW1 1412   3.362   3.034   1.158
  171SOL    HW2 1413   3.284   3.120   1.273
  172SOL     OW 1414   1.356   0.888   6.627
  172SOL    HW1 1415   1.275   0.842   6.664
  172SOL    HW2 1416   1.369   0.862   6.531
  173SOL     OW 1417   5.548   1.493   4.583
  173SOL    HW1 1418   5.557   1.396   4.557
  173SOL    HW2 1419   5.454   1.522   4.568
  174SOL     OW 1420   5.573   4.140   4.359
  174SOL    HW1 1421   5.655   4.144   4.301
  174SOL    HW2 1422   5.526   4.228   4.355
  175SOL     OW 1423   0.649   6.598   2.528
  175SOL    HW1 1424   0.609   6.651   2.453
  175SOL    HW2 1425   0.577   6.574   2.593
  176SOL     OW 1426   6.591   3.986   1.572
  176SOL    HW1 1427   6.589   4.013   1.476
  176SOL    HW2 1428   6.527   4.042   1.625
  177SOL     OW 1429   6.446   1.973   3.992
  177SOL    HW1 1430   6.508   1.947   4.066
  177SOL    HW2 1431   6.478   2.057   3.950
  178SOL     OW 1432   2.464   5.388   4.175
  178SOL    HW1 1433   2.544   5.330   4.196
  178SOL    HW2 1434   2.410   5.344   4.104
  179SOL     OW 1435   3.535   3.991   1.543
  179SOL    HW1 1436   3.576   3.963   1.630
  179SOL    HW2 1437   3.437   4.008   1.556
  180SOL     OW 1438   4.536   1.215   6.378
  180SOL    HW1 1439   4.508   1.151   6.451
  180SOL    HW2 1440   4.492   1.303   6.393
  181SOL     OW 1441   3.447   1.144   6.244
  181SOL    HW1 1442   3.378   1.205   6.206
  181SOL    HW2 1443   3.402   1.069   6.292
  182SOL     OW 1444   2.732   3.067   5.634
  182SOL    HW1 1445   2.668   3.132   5.674
  182SOL    HW2 1446   2.705   3.046   5.540
  183SOL     OW 1447   3.238   0.560   3.009
  183SOL    HW1 1448   3.145   0.590   2.983
  183SOL    HW2 1449   3.304   0.598   2.944
  184SOL     OW 1450   5.550   5.700   3.345
  184SOL    HW1 1451   5.598   5.788   3.342
  184SOL    HW2 1452   5.547   5.661   3.253
  185SOL     OW 1453   0.372   6.784   4.983
  185SOL    HW1 1454   0.444   6.720   4.957
  185SOL    HW2 1455   0.390   6.820   5.075
  186SOL     OW 1456   3.285   6.133   5.373
  186SOL    HW1 1457   3.313   6.224   5.402
  186SOL    HW2 1458   3.365   6.074   5.363
  187SOL     OW 1459   4.308   5.837   0.931
  187SOL    HW1 1460   4.381   5.770   0.947
  187SOL    HW2 1461   4.250   5.806   0.856
  188SOL     OW 1462   1.268   3.518   3.147
  188SOL    HW1 1463   1.301   3.525   3.053
  188SOL    HW2 1464   1.313   3.588   3.203
  189SOL     OW 1465   5.743   4.339   5.588
  189SOL    HW1 1466   5.806   4.343   5.510
  189SOL    HW2 1467   5.764   4.258   5.642
  190SOL     OW 1468   6.499   6.409   0.550
  190SOL    HW1 1469   6.476   6.503   0.578
  190SOL    HW2 1470   6.471   6.346   0.622
  191SOL     OW 1471   1.867   2.283   4.954
  191SOL    HW1 1472   1.932   2.348   4.916
  191SOL    HW2 1473   1.865   2.201   4.898
  192SOL     OW 1474   6.803   5.954   1.664
  192SOL    HW1 1475   6.812   5.875   1.725
  192SOL    HW2 1476   6.856   5.937   1.580
  193SOL     OW 1477   2.321   0.216   1.676
  193SOL    HW1 1478   2.365   0.298   1.712
  193SOL    HW2 1479   2.391   0.151   1.646
  194SOL     OW 1480   3.884   6.082   2.852
  194SOL    HW1 1481   3.909   6.163   2.905
  194SOL    HW2 1482   3.824   6.109   2.776
  195SOL     OW 1483   3.306   0.042   0.862
  195SOL    HW1 1484   3.278   0.133   0.832
  195SOL    HW2 1485   3.404   0.042   0.880
  196SOL     OW 1486   3.903   2.820   0.944
  196SOL    HW1 1487   3.834   2.822   0.871
  196SOL    HW2 1488   3.857   2.818   1.033
  197SOL     OW 1489   2.021   6.071   6.978
  197SOL    HW1 1490   1.926   6.081   7.005
  197SOL    HW2 1491   2.032   6.099   6.883
  198SOL     OW 1492   4.374   6.935   6.721
  198SOL    HW1 1493   4.385   6.997   6.643
  198SOL    HW2 1494   4.395   6.841   6.693
  199SOL     OW 1495   1.186   0.559   2.819
  199SOL    HW1 1496   1.228   0.566   2.729
  199SOL    HW2 1497   1.125   0.480   2.822
  200SOL     OW 1498   1.242   3.560   3.820
  200SOL    HW1 1499   1.214   3.642   3.771
  200SOL    HW2 1500   1.300   3.504   3.761
  201SOL     OW 1501   4.387   1.638   6.166
  201SOL    HW1 1502   4.391   1.558   6.227
  201SOL    HW2 1503   4.349   1.610   6.078
  202SOL     OW 1504   3.852   0.762   2.592
  202SOL    HW1 1505   3.760   0.801   2.589
  202SOL    HW2 1506   3.919   0.835   2.578
  203SOL     OW 1507   6.055   2.902   0.111
  203SOL    HW1 1508   6.123   2.976   0.120
  203SOL    HW2 1509   6.038   2.884   0.014
  204SOL     OW 1510   1.974   6.997   1.183
  204SOL    HW1 1511   2.043   6.978   1.113
  204SOL    HW2 1512   1.886   6.960   1.154
  205SOL     OW 1513   5.984   0.276   1.402
  205SOL    HW1 1514   5.999   0.374   1.414
  205SOL    HW2 1515   5.886   0.260   1.391
  206SOL     OW 1516   6.988   6.246   1.448
  206SOL    HW1 1517   6.911   6.193   1.415
  206SOL    HW2 1518   6.969   6.281   1.540
  207SOL     OW 1519   5.515   1.718   5.625
  207SOL    HW1 1520   5.601   1.687   5.584
  207SOL    HW2 1521   5.455   1.754   5.553
  208SOL     OW 1522   3.969   4.225   6.613
  208SOL    HW1 1523   4.045   4.203   6.553
  208SOL    HW2 1524   3.995   4.300   6.674
  209SOL     OW 1525   7.012   5.594   4.341
  209SOL    HW1 1526   0.037   5.508   4.343
  209SOL    HW2 1527   7.014   5.631   4.249
  210SOL     OW 1528   4.121   1.961   0.638
  210SOL    HW1 1529   4.087   1.873   0.672
  210SOL    HW2 1530   4.059   1.995   0.567
  211SOL     OW 1531   1.083   2.906   1.716
  211SOL    HW1 1532   1.083   2.824   1.659
  211SOL    HW2 1533   1.107   2.882   1.810
  212SOL     OW 1534   0.305   5.257   4.601
  212SOL    HW1 1535   0.362   5.331   4.637
  212SOL    HW2 1536   0.349   5.219   4.519
  213SOL     OW 1537   3.486   2.221   6.631
  213SOL    HW1 1538   3.545   2.228   6.711
  213SOL    HW2 1539   3.395   2.257   6.654
  214SOL     OW 1540   1.963   6.903   3.522
  214SOL    HW1 1541   2.044   6.865   3.568
  214SOL    HW2 1542   1.910   6.958   3.587
  215SOL     OW 1543   3.730   3.976   2.824
  215SOL    HW1 1544   3.677   4.056   2.794
  215SOL    HW2 1545   3.708   3.957   2.919
  216SOL     OW 1546   2.097   0.021   5.866
  216SOL    HW1 1547   2.145   0.080   5.931
  216SOL    HW2 1548   2.164   6.998   5.811
  217SOL     OW 1549   6.942   2.674   4.847
  217SOL    HW1 1550   6.963   2.676   4.944
  217SOL    HW2 1551   6.873   2.744   4.826
  218SOL     OW 1552   2.038   3.872   5.480
  218SOL    HW1 1553   1.942   3.876   5.452
  218SOL    HW2 1554   2.086   3.803   5.426
  219SOL     OW 1555   3.318   5.555   6.815
  219SOL    HW1 1556   3.223   5.579   6.794
  219SOL    HW2 1557   3.335   5.568   6.913
  220SOL     OW 1558   1.530   4.497   0.805
  220SOL    HW1 1559   1.457   4.439   0.768
  220SOL    HW2 1560   1.568   4.554   0.732
  221SOL     OW 1561   5.974   2.900   4.228
  221SOL    HW1 1562   5.886   2.861   4.202
  221SOL    HW2 1563   5.962   2.997   4.253
  222SOL     OW 1564   1.443   6.294   4.490
  222SOL    HW1 1565   1.410   6.226   4.425
  222SOL    HW2 1566   1.543   6.286   4.498
  223SOL     OW 1567   6.218   5.036   2.549
  223SOL    HW1 1568   6.306   5.028   2.501
  223SOL    HW2 1569   6.221   4.980   2.631
  224SOL     OW 1570   4.050   2.092   2.192
  224SOL    HW1 1571   3.979   2.035   2.151
  224SOL    HW2 1572   4.103   2.136   2.120
  225SOL     OW 1573   5.900   6.967   1.394
  225SOL    HW1 1574   5.850   6.883   1.372
  225SOL    HW2 1575   5.996   6.944   1.411
  226SOL     OW 1576   6.878   5.701   2.079
  226SOL    HW1 1577   6.845   5.612   2.049
  226SOL    HW2 1578   6.970   5.692   2.116
  227SOL     OW 1579   0.812   3.208   2.963
  227SOL    HW1 1580   0.751   3.279   2.926
  227SOL    HW2 1581   0.888   3.252   3.010
  228SOL     OW 1582   3.870   6.309   2.465
  228SOL    HW1 1583   3.813   6.271   2.538
  228SOL    HW2 1584   3.836   6.399   2.439
  229SOL     OW 1585   6.211   5.047   3.391
  229SOL    HW1 1586   6.147   5.040   3.315
  229SOL    HW2 1587   6.195   4.972   3.455
  230SOL     OW 1588   0.914   4.140   6.146
  230SOL    HW1 1589   0.892   4.200   6.069
  230SOL    HW2 1590   0.883   4.183   6.231
  231SOL     OW 1591   0.820   1.999   6.459
  231SOL    HW1 1592   0.901   1.970   6.511
  231SOL    HW2 1593   0.802   2.096   6.476
  232SOL     OW 1594   1.152   4.436   6.822
  232SOL    HW1 1595   1.240   4.395   6.847
  232SOL    HW2 1596   1.134   4.420   6.725
  233SOL     OW 1597   3.232   6.994   6.704
  233SOL    HW1 1598   3.329   7.005   6.684
  233SOL    HW2 1599   3.222   6.952   6.795
  234SOL     OW 1600   2.890   5.050   5.737
  234SOL    HW1 1601   2.791   5.033   5.738
  234SOL    HW2 1602   2.919   5.066   5.643
  235SOL     OW 1603   3.468   3.562   5.655
  235SOL    HW1 1604   3.419   3.525   5.576
  235SOL    HW2 1605   3.410   3.629   5.702
  236SOL     OW 1606   6.943   2.503   5.927
  236SOL    HW1 1607   6.988   2.449   5.856
  236SOL    HW2 1608   6.870   2.449   5.969
  237SOL     OW 1609   6.892   6.446   1.615
  237SOL    HW1 1610   6.863   6.469   1.522
  237SOL    HW2 1611   6.831   6.375   1.652
  238SOL     OW 1612   6.896   1.675   2.509
  238SOL    HW1 1613   6.812   1.678   2.456
  238SOL    HW2 1614   6.875   1.681   2.607
  239SOL     OW 1615   6.965   5.228   1.337
  239SOL    HW1 1616   6.885   5.266   1.383
  239SOL    HW2 1617   6.936   5.157   1.273
  240SOL     OW 1618   6.920   2.500   5.423
  240SOL    HW1 1619   6.988   2.556   5.470
  240SOL    HW2 1620   6.904   2.416   5.474
  241SOL     OW 1621   6.088   1.904   4.111
  241SOL    HW1 1622   5.988   1.905   4.113
  241SOL    HW2 1623   6.119   1.898   4.016
  242SOL     OW 1624   2.967   2.250   4.038
  242SOL    HW1 1625   2.948   2.250   3.940
  242SOL    HW2 1626   2.881   2.261   4.088
  243SOL     OW 1627   4.385   1.451   6.366
  243SOL    HW1 1628   4.303   1.397   6.384
  243SOL    HW2 1629   4.396   1.521   6.436
  244SOL     OW 1630   0.154   1.099   5.960
  244SOL    HW1 1631   0.064   1.115   5.999
  244SOL    HW2 1632   0.161   1.145   5.872
  245SOL     OW 1633   5.037   2.406   3.617
  245SOL    HW1 1634   4.993   2.336   3.560
  245SOL    HW2 1635   5.027   2.381   3.713
  246SOL     OW 1636   4.897   3.066   3.438
  246SOL    HW1 1637   4.915   3.042   3.534
  246SOL    HW2 1638   4.900   3.166   3.429
  247SOL     OW 1639   2.760   0.577   3.184
  247SOL    HW1 1640   2.846   0.584   3.133
  247SOL    HW2 1641   2.718   0.667   3.190
  248SOL     OW 1642   6.883   1.557   1.982
  248SOL    HW1 1643   6.786   1.578   1.991
  248SOL    HW2 1644   6.900   1.463   2.014
  249SOL     OW 1645   2.224   6.123   5.090
  249SOL    HW1 1646   2.127   6.099   5.090
  249SOL    HW2 1647   2.234   6.221   5.072
  250SOL     OW 1648   4.985   2.709   6.869
  250SOL    HW1 1649   5.026   2.794   6.902
  250SOL    HW2 1650   4.927   2.670   6.941
  251SOL     OW 1651   1.879   2.052   0.359
  251SOL    HW1 1652   1.825   2.039   0.442
  251SOL    HW2 1653   1.914   1.964   0.327
  252SOL     OW 1654   0.354   1.634   0.418
  252SOL    HW1 1655   0.423   1.646   0.347
  252SOL    HW2 1656   0.288   1.565   0.389
  253SOL     OW 1657   1.542   3.994   6.122
  253SOL    HW1 1658   1.444   3.998   6.139
  253SOL    HW2 1659   1.577   4.087   6.110
  254SOL     OW 1660   4.916   3.850   6.262
  254SOL    HW1 1661   4.951   3.842   6.169
  254SOL    HW2 1662   4.965   3.786   6.322
  255SOL     OW 1663   3.628   1.618   2.475
  255SOL    HW1 1664   3.652   1.593   2.381
  255SOL    HW2 1665   3.599   1.714   2.477
  256SOL     OW 1666   6.202   5.447   1.916
  256SOL    HW1 1667   6.165   5.356   1.894
  256SOL    HW2 1668   6.130   5.515   1.907
  257SOL     OW 1669   2.524   5.832   6.694
  257SOL    HW1 1670   2.434   5.861   6.727
  257SOL    HW2 1671   2.591   5.902   6.717
  258SOL     OW 1672   4.695   4.758   4.337
  258SOL    HW1 1673   4.611   4.706   4.320
  258SOL    HW2 1674   4.774   4.702   4.314
  259SOL     OW 1675   1.059   2.251   2.672
  259SOL    HW1 1676   0.971   2.269   2.716
  259SOL    HW2 1677   1.133   2.284   2.730
  260SOL     OW 1678   6.841   6.938   5.546
  260SOL    HW1 1679   6.787   6.909   5.467
  260SOL    HW2 1680   6.881   6.858   5.590
  261SOL     OW 1681   0.522   1.085   3.579
  261SOL    HW1 1682   0.579   1.130   3.648
  261SOL    HW2 1683   0.467   1.154   3.531
  262SOL     OW 1684   1.730   4.805   2.572
  262SOL    HW1 1685   1.688   4.860   2.500
  262SOL    HW2 1686   1.698   4.837   2.661
  263SOL     OW 1687   0.135   3.592   4.703
  263SOL    HW1 1688   0.208   3.524   4.711
  263SOL    HW2 1689   0.119   3.611   4.606
  264SOL     OW 1690   3.383   4.258   0.007
  264SOL    HW1 1691   3.346   4.233   6.945
  264SOL    HW2 1692   3.312   4.303   0.061
  265SOL     OW 1693   4.811   5.316   4.381
  265SOL    HW1 1694   4.745   5.338   4.308
  265SOL    HW2 1695   4.881   5.254   4.344
  266SOL     OW 1696   3.889   2.904   6.687
  266SOL    HW1 1697   3.813   2.969   6.687
  266SOL    HW2 1698   3.935   2.907   6.776
  267SOL     OW 1699   2.445   2.186   5.569
  267SOL    HW1 1700   2.492   2.251   5.627
  267SOL    HW2 1701   2.389   2.125   5.625
  268SOL     OW 1702   2.769   4.821   3.905
  268SOL    HW1 1703   2.701   4.786   3.840
  268SOL    HW2 1704   2.861   4.800   3.872
  269SOL     OW 1705   1.827   1.588   4.621
  269SOL    HW1 1706   1.813   1.527   4.699
  269SOL    HW2 1707   1.738   1.617   4.585
  270SOL     OW 1708   5.083   6.618   4.941
  270SOL    HW1 1709   5.012   6.553   4.914
  270SOL    HW2 1710   5.142   6.637   4.863
  271SOL     OW 1711   1.736   1.749   0.312
  271SOL    HW1 1712   1.833   1.727   0.308
  271SOL    HW2 1713   1.684   1.680   0.261
  272SOL     OW 1714   4.488   5.594   0.968
  272SOL    HW1 1715   4.450   5.502   0.962
  272SOL    HW2 1716   4.586   5.591   0.950
  273SOL     OW 1717   2.051   6.498   4.106
  273SOL    HW1 1718   2.101   6.438   4.169
  273SOL    HW2 1719   1.962   6.458   4.084
  274SOL     OW 1720   5.435   2.313   1.050
  274SOL    HW1 1721   5.368   2.240   1.065
  274SOL    HW2 1722   5.424   2.350   0.958
  275SOL     OW 1723   5.651   5.849   6.021
  275SOL    HW1 1724   5.650   5.844   5.922
  275SOL    HW2 1725   5.700   5.771   6.058
  276SOL     OW 1726   0.301   6.759   4.617
  276SOL    HW1 1727   0.261   6.795   4.532
  276SOL    HW2 1728   0.229   6.716   4.672
  277SOL     OW 1729   4.295   2.982   5.695
  277SOL    HW1 1730   4.294   2.910   5.765
  277SOL    HW2 1731   4.360   2.958   5.624
  278SOL     OW 1732   5.439   4.062   3.140
  278SOL    HW1 1733   5.461   4.152   3.103
  278SOL    HW2 1734   5.445   3.994   3.067
  279SOL     OW 1735   6.834   3.491   3.403
  279SOL    HW1 1736   6.743   3.485   3.443
  279SOL    HW2 1737   6.904   3.478   3.473
  280SOL     OW 1738   4.566   1.466   3.718
  280SOL    HW1 1739   4.483   1.478   3.772
  280SOL    HW2 1740   4.564   1.528   3.640
  281SOL     OW 1741   5.260   6.579   5.191
  281SOL    HW1 1742   5.272   6.678   5.193
  281SOL    HW2 1743   5.179   6.556   5.137
  282SOL     OW 1744   0.812   2.723   0.695
  282SOL    HW1 1745   0.912   2.734   0.698
  282SOL    HW2 1746   0.776   2.728   0.789
  283SOL     OW 1747   6.290   4.045   4.156
  283SOL    HW1 1748   6.350   4.019   4.081
  283SOL    HW2 1749   6.247   4.133   4.137
  284SOL     OW 1750   4.759   6.419   2.530
  284SOL    HW1 1751   4.732   6.485   2.460
  284SOL    HW2 1752   4.796   6.468   2.609
  285SOL     OW 1753   4.032   6.337   5.713
  285SOL    HW1 1754   3.968   6.266   5.742
  285SOL    HW2 1755   3.981   6.418   5.685
  286SOL     OW 1756   2.699   4.691   5.324
  286SOL    HW1 1757   2.720   4.611   5.267
  286SOL    HW2 1758   2.686   4.771   5.264
  287SOL     OW 1759   3.601   6.383   6.848
  287SOL    HW1 1760   3.686   6.434   6.858
  287SOL    HW2 1761   3.601   6.333   6.761
  288SOL     OW 1762   4.678   1.627   0.297
  288SOL    HW1 1763   4.750   1.592   0.356
  288SOL    HW2 1764   4.589   1.613   0.341
  289SOL     OW 1765   5.652   4.437   4.513
  289SOL    HW1 1766   5.738   4.431   4.565
  289SOL    HW2 1767   5.602   4.352   4.524
  290SOL     OW 1768   3.274   0.423   5.896
  290SOL    HW1 1769   3.365   0.450   5.864
  290SOL    HW2 1770   3.243   0.343   5.844
  291SOL     OW 1771   4.148   0.596   5.286
  291SOL    HW1 1772   4.115   0.514   5.240
  291SOL    HW2 1773   4.235   0.577   5.331
  292SOL     OW 1774   3.464   0.300   3.966
  292SOL    HW1 1775   3.522   0.218   3.970
  292SOL    HW2 1776   3.424   0.316   4.056
  293SOL     OW 1777   4.912   6.893   2.784
  293SOL    HW1 1778   4.940   6.915   2.690
  293SOL    HW2 1779   4.828   6.838   2.780
  294SOL     OW 1780   6.661   1.244   6.972
  294SOL    HW1 1781   6.725   1.237   6.895
  294SOL    HW2 1782   6.683   1.325   7.026
  295SOL     OW 1783   1.033   0.817   4.833
  295SOL    HW1 1784   1.079   0.906   4.841
  295SOL    HW2 1785   0.985   0.796   4.917
  296SOL     OW 1786   1.073   2.366   1.771
  296SOL    HW1 1787   1.109   2.293   1.713
  296SOL    HW2 1788   0.973   2.368   1.764
  297SOL     OW 1789   5.414   3.201   3.360
  297SOL    HW1 1790   5.401   3.172   3.455
  297SOL    HW2 1791   5.422   3.300   3.355
  298SOL     OW 1792   4.239   1.159   5.943
  298SOL    HW1 1793   4.279   1.068   5.953
  298SOL    HW2 1794   4.140   1.151   5.930
  299SOL     OW 1795   0.385   1.440   6.587
  299SOL    HW1 1796   0.370   1.391   6.502
  299SOL    HW2 1797   0.458   1.508   6.574
  300SOL     OW 1798   5.017   6.845   3.455
  300SOL    HW1 1799   4.969   6.869   3.371
  300SOL    HW2 1800   5.115   6.843   3.438
  301SOL     OW 1801   6.575   5.423   5.874
  301SOL    HW1 1802   6.559   5.383   5.783
  301SOL    HW2 1803   6.673   5.421   5.894
  302SOL     OW 1804   0.415   6.796   2.940
  302SOL    HW1 1805   0.461   6.805   3.029
  302SOL    HW2 1806   0.483   6.773   2.870
  303SOL     OW 1807   5.656   6.294   2.784
  303SOL    HW1 1808   5.653   6.210   2.729
  303SOL    HW2 1809   5.592   6.361   2.747
  304SOL     OW 1810   1.981   6.754   4.720
  304SOL    HW1 1811   2.040   6.682   4.682
  304SOL    HW2 1812   1.907   6.774   4.656
  305SOL     OW 1813   0.585   2.175   1.503
  305SOL    HW1 1814   0.586   2.272   1.527
  305SOL    HW2 1815   0.525   2.160   1.424
  306SOL     OW 1816   0.628   6.786   2.791
  306SOL    HW1 1817   0.680   6.707   2.824
  306SOL    HW2 1818   0.686   6.841   2.731
  307SOL     OW 1819   3.638   3.778   3.530
  307SOL    HW1 1820   3.629   3.877   3.517
  307SOL    HW2 1821   3.547   3.739   3.546
  308SOL     OW 1822   6.611   1.759   2.518
  308SOL    HW1 1823   6.631   1.827   2.588
  308SOL    HW2 1824   6.587   1.672   2.563
  309SOL     OW 1825   1.928   5.228   0.016
  309SOL    HW1 1826   1.861   5.263   0.082
  309SOL    HW2 1827   1.933   5.128   0.024
  310SOL     OW 1828   5.622   6.524   5.038
  310SOL    HW1 1829   5.598   6.571   5.122
  310SOL    HW2 1830   5.721   6.532   5.022
  311SOL     OW 1831   1.311   5.979   1.718
  311SOL    HW1 1832   1.259   5.923   1.782
  311SOL    HW2 1833   1.306   6.075   1.746
  312SOL     OW 1834   3.420   0.561   4.234
  312SOL    HW1 1835   3.329   0.598   4.213
  312SOL    HW2 1836   3.475   0.631   4.279
  313SOL     OW 1837   3.215   3.044   2.880
  313SOL    HW1 1838   3.190   2.995   2.796
  313SOL    HW2 1839   3.310   3.022   2.905
  314SOL     OW 1840   2.566   5.443   6.472
  314SOL    HW1 1841   2.523   5.415   6.386
  314SOL    HW2 1842   2.652   5.392   6.484
  315SOL     OW 1843   5.205   0.402   4.879
  315SOL    HW1 1844   5.281   0.441   4.827
  315SOL    HW2 1845   5.119   0.433   4.839
  316SOL     OW 1846   3.511   0.928   6.781
  316SOL    HW1 1847   3.565   0.845   6.794
  316SOL    HW2 1848   3.572   1.007   6.782
  317SOL     OW 1849   0.092   2.408   1.199
  317SOL    HW1 1850   0.032   2.327   1.190
  317SOL    HW2 1851   0.039   2.490   1.180
  318SOL     OW 1852   1.158   0.359   4.275
  318SOL    HW1 1853   1.105   0.373   4.192
  318SOL    HW2 1854   1.183   0.262   4.282
  319SOL     OW 1855   0.281   0.795   3.883
  319SOL    HW1 1856   0.288   0.894   3.893
  319SOL    HW2 1857   0.333   0.765   3.802
  320SOL     OW 1858   5.171   1.927   0.154
  320SOL    HW1 1859   5.134   1.870   0.227
  320SOL    HW2 1860   5.222   2.004   0.193
  321SOL     OW 1861   4.291   3.084   0.977
  321SOL    HW1 1862   4.334   2.994   0.972
  321SOL    HW2 1863   4.245   3.104   0.890
  322SOL     OW 1864   3.541   2.729   6.617
  322SOL    HW1 1865   3.448   2.742   6.651
  322SOL    HW2 1866   3.594   2.676   6.683
  323SOL     OW 1867   1.472   3.765   2.114
  323SOL    HW1 1868   1.489   3.855   2.154
  323SOL    HW2 1869   1.468   3.697   2.187
  324SOL     OW 1870   0.867   0.019   3.323
  324SOL    HW1 1871   0.805   0.069   3.262
  324SOL    HW2 1872   0.917   6.977   3.271
  325SOL     OW 1873   6.733   3.983   0.579
  325SOL    HW1 1874   6.714   3.890   0.610
  325SOL    HW2 1875   6.814   3.984   0.521
  326SOL     OW 1876   0.284   5.989   0.209
  326SOL    HW1 1877   0.187   5.964   0.205
  326SOL    HW2 1878   0.294   6.075   0.259
  327SOL     OW 1879   4.007   5.603   5.650
  327SOL    HW1 1880   4.072   5.571   5.582
  327SOL    HW2 1881   4.050   5.671   5.709
  328SOL     OW 1882   1.398   4.707   3.304
  328SOL    HW1 1883   1.374   4.613   3.281
  328SOL    HW2 1884   1.492   4.725   3.275
  329SOL     OW 1885   3.400   3.326   1.847
  329SOL    HW1 1886   3.492   3.297   1.818
  329SOL    HW2 1887   3.373   3.274   1.928
  330SOL     OW 1888   3.237   3.804   0.368
  330SOL    HW1 1889   3.206   3.712   0.341
  330SOL    HW2 1890   3.256   3.858   0.287
  331SOL     OW 1891   5.631   5.403   4.922
  331SOL    HW1 1892   5.663   5.456   5.000
  331SOL    HW2 1893   5.619   5.308   4.949
  332SOL     OW 1894   5.355   2.064   2.761
  332SOL    HW1 1895   5.423   2.039   2.692
  332SOL    HW2 1896   5.358   2.163   2.777
  333SOL     OW 1897   3.235   0.044   4.384
  333SOL    HW1 1898   3.164   0.060   4.316
  333SOL    HW2 1899   3.233   0.116   4.453
  334SOL     OW 1900   3.644   3.585   3.282
  334SOL    HW1 1901   3.643   3.655   3.353
  334SOL    HW2 1902   3.603   3.622   3.198
  335SOL     OW 1903   3.528   1.437   1.037
  335SOL    HW1 1904   3.537   1.363   1.103
  335SOL    HW2 1905   3.619   1.470   1.011
  336SOL     OW 1906   4.218   1.824   4.545
  336SOL    HW1 1907   4.260   1.734   4.537
  336SOL    HW2 1908   4.136   1.818   4.602
  337SOL     OW 1909   0.224   0.873   5.322
  337SOL    HW1 1910   0.247   0.776   5.333
  337SOL    HW2 1911   0.166   0.902   5.398
  338SOL     OW 1912   4.296   1.538   1.564
  338SOL    HW1 1913   4.230   1.471   1.529
  338SOL    HW2 1914   4.262   1.576   1.650
  339SOL     OW 1915   3.851   5.510   5.849
  339SOL    HW1 1916   3.867   5.414   5.828
  339SOL    HW2 1917   3.907   5.567   5.789
  340SOL     OW 1918   5.784   2.854   4.492
  340SOL    HW1 1919   5.785   2.772   4.549
  340SOL    HW2 1920   5.707   2.849   4.429
  341SOL     OW 1921   0.176   6.924   2.989
  341SOL    HW1 1922   0.262   6.876   2.974
  341SOL    HW2 1923   0.194   7.011   3.035
  342SOL     OW 1924   4.817   1.929   2.394
  342SOL    HW1 1925   4.758   1.971   2.463
  342SOL    HW2 1926   4.783   1.837   2.373
  343SOL     OW 1927   6.370   6.974   1.428
  343SOL    HW1 1928   6.286   6.921   1.415
  343SOL    HW2 1929   6.378   0.014   1.354
  344SOL     OW 1930   6.871   3.097   1.817
  344SOL    HW1 1931   6.961   3.117   1.855
  344SOL    HW2 1932   6.880   3.029   1.744
  345SOL     OW 1933   6.533   2.476   4.992
  345SOL    HW1 1934   6.472   2.533   4.937
  345SOL    HW2 1935   6.539   2.515   5.084
  346SOL     OW 1936   2.513   6.181   3.284
  346SOL    HW1 1937   2.460   6.239   3.223
  346SOL    HW2 1938   2.576   6.236   3.337
  347SOL     OW 1939   2.281   4.686   0.899
  347SOL    HW1 1940   2.221   4.722   0.970
  347SOL    HW2 1941   2.299   4.590   0.917
  348SOL     OW 1942   3.839   5.076   1.882
  348SOL    HW1 1943   3.820   5.006   1.951
  348SOL    HW2 1944   3.763   5.081   1.818
  349SOL     OW 1945   5.308   4.272   0.333
  349SOL    HW1 1946   5.276   4.334   0.404
  349SOL    HW2 1947   5.235   4.256   0.266
  350SOL     OW 1948   2.815   1.953   6.803
  350SOL    HW1 1949   2.731   1.919   6.846
  350SOL    HW2 1950   2.885   1.882   6.807
  351SOL     OW 1951   3.424   4.149   0.793
  351SOL    HW1 1952   3.372   4.204   0.859
  351SOL    HW2 1953   3.391   4.055   0.795
  352SOL     OW 1954   4.367   0.223   2.165
  352SOL    HW1 1955   4.365   0.293   2.237
  352SOL    HW2 1956   4.430   0.150   2.192
  353SOL     OW 1957   1.472   7.005   0.714
  353SOL    HW1 1958   1.483   0.037   0.634
  353SOL    HW2 1959   1.557   6.958   0.734
  354SOL     OW 1960   0.947   2.701   0.430
  354SOL    HW1 1961   0.973   2.608   0.405
  354SOL    HW2 1962   0.869   2.698   0.493
  355SOL     OW 1963   0.987   2.805   2.765
  355SOL    HW1 1964   0.951   2.735   2.828
  355SOL    HW2 1965   1.077   2.834   2.795
  356SOL     OW 1966   2.728   0.347   5.514
  356SOL    HW1 1967   2.676   0.356   5.429
  356SOL    HW2 1968   2.717   0.430   5.569
  357SOL     OW 1969   6.463   6.962   4.336
  357SOL    HW1 1970   6.547   6.929   4.378
  357SOL    HW2 1971   6.466   0.035   4.329
  358SOL     OW 1972   3.235   6.167   6.171
  358SOL    HW1 1973   3.246   6.145   6.074
  358SOL    HW2 1974   3.311   6.223   6.202
  359SOL     OW 1975   1.296   1.731   2.128
  359SOL    HW1 1976   1.332   1.821   2.155
  359SOL    HW2 1977   1.198   1.739   2.111
  360SOL     OW 1978   2.058   4.462   3.551
  360SOL    HW1 1979   2.061   4.375   3.501
  360SOL    HW2 1980   2.047   4.444   3.648
  361SOL     OW 1981   0.115   1.592   2.409
  361SOL    HW1 1982   0.024   1.608   2.447
  361SOL    HW2 1983   0.180   1.654   2.452
  362SOL     OW 1984   3.562   3.400   1.495
  362SOL    HW1 1985   3.592   3.394   1.590
  362SOL    HW2 1986   3.576   3.312   1.450
  363SOL     OW 1987   4.870   5.644   1.951
  363SOL    HW1 1988   4.876   5.584   2.031
  363SOL    HW2 1989   4.780   5.635   1.909
  364SOL     OW 1990   0.908   6.688   0.206
  364SOL    HW1 1991   0.919   6.752   0.130
  364SOL    HW2 1992   0.960   6.720   0.285
  365SOL     OW 1993   5.492   1.342   3.901
  365SOL    HW1 1994   5.579   1.365   3.946
  365SOL    HW2 1995   5.500   1.359   3.803
  366SOL     OW 1996   5.770   1.686   6.762
  366SOL    HW1 1997   5.743   1.726   6.674
  366SOL    HW2 1998   5.690   1.642   6.804
  367SOL     OW 1999   5.543   1.291   6.819
  367SOL    HW1 2000   5.604   1.240   6.759
  367SOL    HW2 2001   5.570   1.387   6.821
  368SOL     OW 2002   0.627   1.632   5.714
  368SOL    HW1 2003   0.625   1.604   5.618
  368SOL    HW2 2004   0.594   1.726   5.722
  369SOL     OW 2005   6.199   4.035   0.953
  369SOL    HW1 2006   6.215   4.128   0.921
  369SOL    HW2 2007   6.110   4.031   1.000
  370SOL     OW 2008   2.292   2.684   3.673
  370SOL    HW1 2009   2.193   2.673   3.675
  370SOL    HW2 2010   2.316   2.765   3.619
  371SOL     OW 2011   1.022   5.420   6.694
  371SOL    HW1 2012   1.077   5.344   6.729
  371SOL    HW2 2013   0.949   5.441   6.758
  372SOL     OW 2014   2.590   5.853   5.650
  372SOL    HW1 2015   2.559   5.771   5.603
  372SOL    HW2 2016   2.655   5.903   5.593
  373SOL     OW 2017   6.387   4.729   3.201
  373SOL    HW1 2018   6.398   4.750   3.299
  373SOL    HW2 2019   6.354   4.636   3.190
  374SOL     OW 2020   2.828   1.671   2.606
  374SOL    HW1 2021   2.815   1.583   2.651
  374SOL    HW2 2022   2.926   1.689   2.596
  375SOL     OW 2023   1.165   5.885   4.533
  375SOL    HW1 2024   1.126   5.973   4.561
  375SOL    HW2 2025   1.168   5.881   4.433
  376SOL     OW 2026   4.043   0.663   3.739
  376SOL    HW1 2027   4.089   0.745   3.705
  376SOL    HW2 2028   3.984   0.687   3.816
  377SOL     OW 2029   1.879   1.964   6.964
  377SOL    HW1 2030   1.790   1.961   7.011
  377SOL    HW2 2031   1.950   1.990   0.003
  378SOL     OW 2032   4.103   1.495   2.735
  378SOL    HW1 2033   4.167   1.561   2.697
  378SOL    HW2 2034   4.012   1.511   2.698
  379SOL     OW 2035   4.322   1.896   5.874
  379SOL    HW1 2036   4.339   1.956   5.953
  379SOL    HW2 2037   4.335   1.947   5.789
  380SOL     OW 2038   4.350   2.459   0.369
  380SOL    HW1 2039   4.448   2.462   0.388
  380SOL    HW2 2040   4.308   2.385   0.421
  381SOL     OW 2041   2.150   3.717   2.724
  381SOL    HW1 2042   2.100   3.679   2.647
  381SOL    HW2 2043   2.196   3.802   2.695
  382SOL     OW 2044   6.017   0.854   6.272
  382SOL    HW1 2045   6.111   0.835   6.243
  382SOL    HW2 2046   5.959   0.864   6.191
  383SOL     OW 2047   4.960   2.788   0.246
  383SOL    HW1 2048   4.948   2.737   0.331
  383SOL    HW2 2049   4.911   2.743   0.172
  384SOL     OW 2050   6.509   3.874   5.075
  384SOL    HW1 2051   6.468   3.874   5.166
  384SOL    HW2 2052   6.597   3.827   5.078
  385SOL     OW 2053   4.719   3.529   0.451
  385SOL    HW1 2054   4.672   3.451   0.408
  385SOL    HW2 2055   4.655   3.604   0.462
  386SOL     OW 2056   4.218   6.672   4.411
  386SOL    HW1 2057   4.179   6.589   4.371
  386SOL    HW2 2058   4.306   6.649   4.453
  387SOL     OW 2059   2.633   5.687   4.135
  387SOL    HW1 2060   2.670   5.737   4.213
  387SOL    HW2 2061   2.537   5.712   4.122
  388SOL     OW 2062   0.832   4.524   6.680
  388SOL    HW1 2063   0.838   4.463   6.759
  388SOL    HW2 2064   0.839   4.619   6.712
  389SOL     OW 2065   3.024   3.106   1.781
  389SOL    HW1 2066   3.079   3.022   1.784
  389SOL    HW2 2067   3.085   3.185   1.775
  390SOL     OW 2068   2.509   1.138   4.453
  390SOL    HW1 2069   2.475   1.214   4.509
  390SOL    HW2 2070   2.547   1.068   4.513
  391SOL     OW 2071   1.607   2.511   6.745
  391SOL    HW1 2072   1.520   2.544   6.782
  391SOL    HW2 2073   1.616   2.413   6.765
  392SOL     OW 2074   3.221   5.673   3.784
  392SOL    HW1 2075   3.197   5.620   3.702
  392SOL    HW2 2076   3.280   5.618   3.843
  393SOL     OW 2077   6.098   3.737   4.822
  393SOL    HW1 2078   6.034   3.763   4.895
  393SOL    HW2 2079   6.153   3.815   4.796
  394SOL     OW 2080   1.907   1.105   6.570
  394SOL    HW1 2081   1.875   1.019   6.529
  394SOL    HW2 2082   1.870   1.113   6.663
  395SOL     OW 2083   6.261   3.216   1.299
  395SOL    HW1 2084   6.310   3.296   1.263
  395SOL    HW2 2085   6.325   3.160   1.352
  396SOL     OW 2086   3.548   2.992   5.169
  396SOL    HW1 2087   3.492   3.015   5.249
  396SOL    HW2 2088   3.601   2.909   5.189
  397SOL     OW 2089   4.090   2.033   6.894
  397SOL    HW1 2090   4.168   2.067   6.841
  397SOL    HW2 2091   4.005   2.058   6.847
  398SOL     OW 2092   1.300   4.778   2.796
  398SOL    HW1 2093   1.220   4.837   2.810
  398SOL    HW2 2094   1.312   4.760   2.699
  399SOL     OW 2095   5.221   4.831   2.985
  399SOL    HW1 2096   5.124   4.823   2.959
  399SOL    HW2 2097   5.235   4.784   3.073
  400SOL     OW 2098   1.687   4.666   4.509
  400SOL    HW1 2099   1.610   4.716   4.469
  400SOL    HW2 2100   1.734   4.724   4.575
  401SOL     OW 2101   5.457   1.371   0.085
  401SOL    HW1 2102   5.490   1.341   7.023
  401SOL    HW2 2103   5.408   1.297   0.130
  402SOL     OW 2104   6.445   4.701   1.578
  402SOL    HW1 2105   6.519   4.754   1.537
  402SOL    HW2 2106   6.421   4.740   1.667
  403SOL     OW 2107   5.263   3.834   0.191
  403SOL    HW1 2108   5.331   3.905   0.172
  403SOL    HW2 2109   5.215   3.857   0.275
  404SOL     OW 2110   0.104   6.840   4.892
  404SOL    HW1 2111   0.188   6.804   4.932
  404SOL    HW2 2112   0.110   6.940   4.887
  405SOL     OW 2113   1.080   2.800   0.685
  405SOL    HW1 2114   1.148   2.800   0.759
  405SOL    HW2 2115   1.105   2.731   0.617
  406SOL     OW 2116   1.354   3.150   2.701
  406SOL    HW1 2117   1.297   3.104   2.769
  406SOL    HW2 2118   1.411   3.219   2.745
  407SOL     OW 2119   2.644   1.649   3.495
  407SOL    HW1 2120   2.557   1.623   3.538
  407SOL    HW2 2121   2.715   1.656   3.565
  408SOL     OW 2122   2.235   0.840   3.240
  408SOL    HW1 2123   2.307   0.884   3.186
  408SOL    HW2 2124   2.276   0.778   3.306
  409SOL     OW 2125   5.996   3.089   3.965
  409SOL    HW1 2126   5.971   3.084   4.062
  409SOL    HW2 2127   6.034   3.179   3.945
  410SOL     OW 2128   3.013   0.518   6.393
  410SOL    HW1 2129   3.061   0.433   6.414
  410SOL    HW2 2130   3.047   0.557   6.308
  411SOL     OW 2131   0.078   3.690   5.204
  411SOL    HW1 2132   0.028   3.758   5.257
  411SOL    HW2 2133   0.175   3.692   5.231
  412SOL     OW 2134   4.261   0.526   2.014
  412SOL    HW1 2135   4.356   0.515   2.042
  412SOL    HW2 2136   4.229   0.443   1.970
  413SOL     OW 2137   2.566   0.686   2.445
  413SOL    HW1 2138   2.662   0.695   2.418
  413SOL    HW2 2139   2.545   0.590   2.464
  414SOL     OW 2140   4.305   3.893   0.025
  414SOL    HW1 2141   4.244   3.814   0.038
  414SOL    HW2 2142   4.266   3.954   6.984
  415SOL     OW 2143   3.514   6.439   2.059
  415SOL    HW1 2144   3.427   6.393   2.075
  415SOL    HW2 2145   3.528   6.450   1.961
  416SOL     OW 2146   3.489   5.799   6.018
  416SOL    HW1 2147   3.422   5.859   6.062
  416SOL    HW2 2148   3.471   5.704   6.044
  417SOL     OW 2149   4.594   5.245   0.859
  417SOL    HW1 2150   4.504   5.286   0.877
  417SOL    HW2 2151   4.656   5.267   0.934
  418SOL     OW 2152   5.715   4.614   0.539
  418SOL    HW1 2153   5.747   4.555   0.465
  418SOL    HW2 2154   5.662   4.690   0.501
  419SOL     OW 2155   6.011   6.558   1.356
  419SOL    HW1 2156   6.027   6.549   1.257
  419SOL    HW2 2157   6.026   6.470   1.400
  420SOL     OW 2158   4.443   4.310   0.055
  420SOL    HW1 2159   4.387   4.238   0.096
  420SOL    HW2 2160   4.476   4.371   0.127
  421SOL     OW 2161   1.185   5.900   6.543
  421SOL    HW1 2162   1.132   5.849   6.475
  421SOL    HW2 2163   1.213   5.839   6.617
  422SOL     OW 2164   5.775   3.246   6.442
  422SOL    HW1 2165   5.819   3.331   6.472
  422SOL    HW2 2166   5.824   3.168   6.480
  423SOL     OW 2167   0.619   3.204   5.625
  423SOL    HW1 2168   0.659   3.236   5.711
  423SOL    HW2 2169   0.626   3.104   5.622
  424SOL     OW 2170   2.326   3.965   0.385
  424SOL    HW1 2171   2.242   4.010   0.416
  424SOL    HW2 2172   2.338   3.879   0.434
  425SOL     OW 2173   3.455   0.538   1.184
  425SOL    HW1 2174   3.383   0.607   1.193
  425SOL    HW2 2175   3.422   0.462   1.129
  426SOL     OW 2176   5.782   4.003   5.042
  426SOL    HW1 2177   5.805   4.049   5.128
  426SOL    HW2 2178   5.785   4.069   4.967
  427SOL     OW 2179   4.460   3.537   1.128
  427SOL    HW1 2180   4.439   3.440   1.115
  427SOL    HW2 2181   4.459   3.558   1.226
  428SOL     OW 2182   3.496   1.177   5.432
  428SOL    HW1 2183   3.475   1.164   5.529
  428SOL    HW2 2184   3.511   1.089   5.389
  429SOL     OW 2185   2.617   5.225   0.134
  429SOL    HW1 2186   2.687   5.156   0.115
  429SOL    HW2 2187   2.654   5.295   0.195
  430SOL     OW 2188   1.833   6.921   4.900
  430SOL    HW1 2189   1.883   6.868   4.832
  430SOL    HW2 2190   1.873   6.907   4.990
  431SOL     OW 2191   3.353   1.667   6.544
  431SOL    HW1 2192   3.409   1.700   6.620
  431SOL    HW2 2193   3.262   1.709   6.549
  432SOL     OW 2194   0.151   1.660   1.524
  432SOL    HW1 2195   0.224   1.699   1.468
  432SOL    HW2 2196   0.068   1.714   1.513
  433SOL     OW 2197   2.831   5.754   4.640
  433SOL    HW1 2198   2.783   5.841   4.642
  433SOL    HW2 2199   2.765   5.679   4.645
  434SOL     OW 2200   6.778   3.465   1.364
  434SOL    HW1 2201   6.703   3.401   1.379
  434SOL    HW2 2202   6.748   3.537   1.300
  435SOL     OW 2203   3.810   3.949   0.499
  435SOL    HW1 2204   3.753   3.893   0.559
  435SOL    HW2 2205   3.904   3.917   0.503
  436SOL     OW 2206   2.651   0.917   0.280
  436SOL    HW1 2207   2.591   0.985   0.320
  436SOL    HW2 2208   2.710   0.960   0.211
  437SOL     OW 2209   6.796   6.585   6.148
  437SOL    HW1 2210   6.867   6.533   6.100
  437SOL    HW2 2211   6.753   6.650   6.085
  438SOL     OW 2212   2.144   2.980   1.981
  438SOL    HW1 2213   2.193   2.910   2.033
  438SOL    HW2 2214   2.046   2.968   1.994
  439SOL     OW 2215   5.985   4.942   2.372
  439SOL    HW1 2216   5.896   4.988   2.368
  439SOL    HW2 2217   6.057   5.009   2.388
  440SOL     OW 2218   0.878   2.909   3.539
  440SOL    HW1 2219   0.914   2.965   3.614
  440SOL    HW2 2220   0.809   2.847   3.575
  441SOL     OW 2221   1.181   0.490   3.681
  441SOL    HW1 2222   1.277   0.516   3.682
  441SOL    HW2 2223   1.129   0.552   3.741
  442SOL     OW 2224   0.184   4.832   0.033
  442SOL    HW1 2225   0.273   4.850   0.076
  442SOL    HW2 2226   0.195   4.761   6.991
  443SOL     OW 2227   0.893   4.455   6.020
  443SOL    HW1 2228   0.872   4.417   5.930
  443SOL    HW2 2229   0.992   4.458   6.032
  444SOL     OW 2230   4.560   3.082   6.221
  444SOL    HW1 2231   4.537   3.006   6.161
  444SOL    HW2 2232   4.643   3.127   6.187
  445SOL     OW 2233   1.650   4.452   3.302
  445SOL    HW1 2234   1.636   4.514   3.379
  445SOL    HW2 2235   1.707   4.375   3.332
  446SOL     OW 2236   4.280   5.239   3.970
  446SOL    HW1 2237   4.248   5.209   3.880
  446SOL    HW2 2238   4.341   5.169   4.008
  447SOL     OW 2239   0.123   5.927   0.514
  447SOL    HW1 2240   0.169   5.972   0.590
  447SOL    HW2 2241   0.158   5.834   0.504
  448SOL     OW 2242   4.349   0.588   5.625
  448SOL    HW1 2243   4.335   0.582   5.526
  448SOL    HW2 2244   4.403   0.509   5.656
  449SOL     OW 2245   6.197   0.640   4.618
  449SOL    HW1 2246   6.224   0.733   4.591
  449SOL    HW2 2247   6.097   0.632   4.615
  450SOL     OW 2248   6.849   6.394   3.458
  450SOL    HW1 2249   6.831   6.316   3.398
  450SOL    HW2 2250   6.893   6.467   3.406
  451SOL     OW 2251   0.006   2.222   3.713
  451SOL    HW1 2252   0.010   2.301   3.774
  451SOL    HW2 2253   6.949   2.225   3.660
  452SOL     OW 2254   0.062   4.609   6.409
  452SOL    HW1 2255   7.007   4.658   6.379
  452SOL    HW2 2256   0.142   4.668   6.398
  453SOL     OW 2257   2.725   0.995   5.721
  453SOL    HW1 2258   2.788   0.954   5.786
  453SOL    HW2 2259   2.737   1.094   5.720
  454SOL     OW 2260   1.136   6.221   0.196
  454SOL    HW1 2261   1.223   6.245   0.153
  454SOL    HW2 2262   1.065   6.215   0.126
  455SOL     OW 2263   5.312   1.238   5.729
  455SOL    HW1 2264   5.364   1.322   5.743
  455SOL    HW2 2265   5.317   1.211   5.633
  456SOL     OW 2266   4.756   5.766   6.682
  456SOL    HW1 2267   4.822   5.765   6.606
  456SOL    HW2 2268   4.805   5.751   6.768
  457SOL     OW 2269   1.266   5.130   2.129
  457SOL    HW1 2270   1.264   5.038   2.168
  457SOL    HW2 2271   1.172   5.162   2.115
  458SOL     OW 2272   6.318   6.307   6.466
  458SOL    HW1 2273   6.291   6.329   6.372
  458SOL    HW2 2274   6.329   6.391   6.518
  459SOL     OW 2275   2.284   0.512   2.691
  459SOL    HW1 2276   2.198   0.491   2.737
  459SOL    HW2 2277   2.341   0.569   2.751
  460SOL     OW 2278   6.676   1.699   3.474
  460SOL    HW1 2279   6.585   1.719   3.512
  460SOL    HW2 2280   6.678   1.726   3.378
  461SOL     OW 2281   4.880   6.114   5.856
  461SOL    HW1 2282   4.895   6.046   5.928
  461SOL    HW2 2283   4.805   6.084   5.797
  462SOL     OW 2284   2.951   3.535   6.921
  462SOL    HW1 2285   2.995   3.449   6.896
  462SOL    HW2 2286   2.853   3.529   6.901
  463SOL     OW 2287   6.587   5.511   1.522
  463SOL    HW1 2288   6.529   5.562   1.585
  463SOL    HW2 2289   6.629   5.573   1.456
  464SOL     OW 2290   1.555   1.098   6.059
  464SOL    HW1 2291   1.512   1.137   5.978
  464SOL    HW2 2292   1.527   1.003   6.070
  465SOL     OW 2293   6.742   2.830   4.931
  465SOL    HW1 2294   6.658   2.782   4.958
  465SOL    HW2 2295   6.718   2.908   4.873
  466SOL     OW 2296   1.939   0.178   3.298
  466SOL    HW1 2297   2.024   0.130   3.276
  466SOL    HW2 2298   1.955   0.276   3.296
  467SOL     OW 2299   2.064   0.783   4.947
  467SOL    HW1 2300   2.093   0.877   4.959
  467SOL    HW2 2301   2.118   0.740   4.875
  468SOL     OW 2302   3.294   4.305   0.993
  468SOL    HW1 2303   3.249   4.254   1.066
  468SOL    HW2 2304   3.225   4.350   0.936
  469SOL     OW 2305   2.253   4.889   0.065
  469SOL    HW1 2306   2.271   4.820   7.022
  469SOL    HW2 2307   2.155   4.911   0.065
  470SOL     OW 2308   3.462   1.288   2.593
  470SOL    HW1 2309   3.529   1.252   2.657
  470SOL    HW2 2310   3.411   1.213   2.551
  471SOL     OW 2311   2.740   2.153   4.735
  471SOL    HW1 2312   2.793   2.156   4.650
  471SOL    HW2 2313   2.698   2.063   4.745
  472SOL     OW 2314   3.835   4.023   5.659
  472SOL    HW1 2315   3.779   4.096   5.622
  472SOL    HW2 2316   3.927   4.057   5.677
  473SOL     OW 2317   1.234   4.185   2.758
  473SOL    HW1 2318   1.283   4.240   2.690
  473SOL    HW2 2319   1.172   4.244   2.810
  474SOL     OW 2320   4.087   5.089   4.905
  474SOL    HW1 2321   4.147   5.165   4.879
  474SOL    HW2 2322   4.125   5.003   4.871
  475SOL     OW 2323   0.516   6.494   5.987
  475SOL    HW1 2324   0.559   6.442   5.913
  475SOL    HW2 2325   0.417   6.479   5.986
  476SOL     OW 2326   7.001   4.751   2.482
  476SOL    HW1 2327   0.048   4.782   2.422
  476SOL    HW2 2328   6.949   4.679   2.436
  477SOL     OW 2329   1.401   5.142   4.480
  477SOL    HW1 2330   1.408   5.106   4.573
  477SOL    HW2 2331   1.329   5.093   4.430
  478SOL     OW 2332   1.976   4.862   3.155
  478SOL    HW1 2333   1.969   4.841   3.057
  478SOL    HW2 2334   1.896   4.916   3.183
  479SOL     OW 2335   3.656   1.837   1.064
  479SOL    HW1 2336   3.695   1.837   0.972
  479SOL    HW2 2337   3.689   1.757   1.115
  480SOL     OW 2338   1.748   0.014   2.875
  480SOL    HW1 2339   1.661   7.014   2.834
  480SOL    HW2 2340   1.820   6.978   2.846
  481SOL     OW 2341   3.667   7.005   1.580
  481SOL    HW1 2342   3.647   7.000   1.482
  481SOL    HW2 2343   3.602   0.039   1.625
  482SOL     OW 2344   5.839   4.488   1.690
  482SOL    HW1 2345   5.809   4.542   1.769
  482SOL    HW2 2346   5.821   4.391   1.706
  483SOL     OW 2347   5.668   1.711   1.191
  483SOL    HW1 2348   5.577   1.748   1.172
  483SOL    HW2 2349   5.704   1.666   1.109
  484SOL     OW 2350   6.640   2.396   5.337
  484SOL    HW1 2351   6.616   2.477   5.284
  484SOL    HW2 2352   6.731   2.365   5.311
  485SOL     OW 2353   3.651   5.301   2.313
  485SOL    HW1 2354   3.628   5.230   2.246
  485SOL    HW2 2355   3.632   5.267   2.406
  486SOL     OW 2356   0.444   0.405   0.648
  486SOL    HW1 2357   0.443   0.415   0.548
  486SOL    HW2 2358   0.533   0.434   0.683
  487SOL     OW 2359   6.386   2.669   6.356
  487SOL    HW1 2360   6.345   2.750   6.316
  487SOL    HW2 2361   6.381   2.674   6.456
  488SOL     OW 2362   0.537   2.394   2.777
  488SOL    HW1 2363   0.609   2.463   2.778
  488SOL    HW2 2364   0.470   2.416   2.706
  489SOL     OW 2365   3.366   6.070   6.441
  489SOL    HW1 2366   3.424   6.002   6.484
  489SOL    HW2 2367   3.422   6.149   6.415
  490SOL     OW 2368   5.131   6.371   4.566
  490SOL    HW1 2369   5.188   6.376   4.648
  490SOL    HW2 2370   5.111   6.275   4.545
  491SOL     OW 2371   6.886   2.750   3.181
  491SOL    HW1 2372   6.862   2.776   3.274
  491SOL    HW2 2373   6.963   2.686   3.182
  492SOL     OW 2374   2.055   0.873   5.325
  492SOL    HW1 2375   1.977   0.889   5.265
  492SOL    HW2 2376   2.140   0.897   5.278
  493SOL     OW 2377   6.587   4.153   4.237
  493SOL    HW1 2378   6.493   4.122   4.223
  493SOL    HW2 2379   6.650   4.078   4.219
  494SOL     OW 2380   6.588   0.593   0.772
  494SOL    HW1 2381   6.588   0.693   0.778
  494SOL    HW2 2382   6.605   0.565   0.678
  495SOL     OW 2383   4.465   4.600   1.391
  495SOL    HW1 2384   4.552   4.558   1.417
  495SOL    HW2 2385   4.390   4.539   1.413
  496SOL     OW 2386   5.730   2.962   3.758
  496SOL    HW1 2387   5.728   2.862   3.761
  496SOL    HW2 2388   5.824   2.993   3.769
  497SOL     OW 2389   4.434   0.754   4.189
  497SOL    HW1 2390   4.441   0.844   4.146
  497SOL    HW2 2391   4.356   0.705   4.150
  498SOL     OW 2392   1.736   3.197   2.469
  498SOL    HW1 2393   1.657   3.137   2.463
  498SOL    HW2 2394   1.740   3.256   2.388
  499SOL     OW 2395   3.366   1.664   4.826
  499SOL    HW1 2396   3.416   1.747   4.848
  499SOL    HW2 2397   3.288   1.655   4.888
  500SOL     OW 2398   1.010   4.096   2.590
  500SOL    HW1 2399   1.030   4.053   2.502
  500SOL    HW2 2400   1.093   4.098   2.646
  501SOL     OW 2401   0.293   4.509   5.993
  501SOL    HW1 2402   0.299   4.410   5.979
  501SOL    HW2 2403   0.203   4.542   5.963
  502SOL     OW 2404   3.062   5.604   6.772
  502SOL    HW1 2405   3.076   5.650   6.685
  502SOL    HW2 2406   2.997   5.528   6.760
  503SOL     OW 2407   5.322   5.338   4.847
  503SOL    HW1 2408   5.421   5.346   4.839
  503SOL    HW2 2409   5.294   5.245   4.821
  504SOL     OW 2410   2.259   5.918   4.350
  504SOL    HW1 2411   2.259   5.821   4.376
  504SOL    HW2 2412   2.271   5.925   4.251
  505SOL     OW 2413   4.374   6.542   5.655
  505SOL    HW1 2414   4.363   6.492   5.569
  505SOL    HW2 2415   4.410   6.633   5.636
  506SOL     OW 2416   2.255   4.027   6.474
  506SOL    HW1 2417   2.180   3.981   6.521
  506SOL    HW2 2418   2.311   4.076   6.541
  507SOL     OW 2419   3.262   1.448   4.027
  507SOL    HW1 2420   3.288   1.531   4.076
  507SOL    HW2 2421   3.303   1.449   3.936
  508SOL     OW 2422   6.371   4.232   3.493
  508SOL    HW1 2423   6.327   4.294   3.558
  508SOL    HW2 2424   6.318   4.148   3.487
  509SOL     OW 2425   4.478   2.459   1.978
  509SOL    HW1 2426   4.536   2.539   1.997
  509SOL    HW2 2427   4.533   2.376   1.986
  510SOL     OW 2428   0.766   3.796   4.246
  510SOL    HW1 2429   0.818   3.756   4.171
  510SOL    HW2 2430   0.829   3.824   4.319
  511SOL     OW 2431   0.204   6.476   0.671
  511SOL    HW1 2432   0.266   6.500   0.746
  511SOL    HW2 2433   0.246   6.501   0.584
  512SOL     OW 2434   0.476   3.760   6.803
  512SOL    HW1 2435   0.535   3.835   6.773
  512SOL    HW2 2436   0.515   3.673   6.773
  513SOL     OW 2437   6.574   5.948   4.222
  513SOL    HW1 2438   6.653   5.921   4.277
  513SOL    HW2 2439   6.542   6.038   4.252
  514SOL     OW 2440   5.624   2.051   3.523
  514SOL    HW1 2441   5.572   2.125   3.565
  514SOL    HW2 2442   5.722   2.069   3.534
  515SOL     OW 2443   1.752   6.058   0.013
  515SOL    HW1 2444   1.712   6.076   0.103
  515SOL    HW2 2445   1.714   6.123   6.974
  516SOL     OW 2446   1.940   4.929   2.072
  516SOL    HW1 2447   1.887   4.846   2.057
  516SOL    HW2 2448   2.022   4.907   2.126
  517SOL     OW 2449   5.049   0.851   0.448
  517SOL    HW1 2450   5.070   0.902   0.531
  517SOL    HW2 2451   5.012   0.761   0.471
  518SOL     OW 2452   2.676   2.403   0.650
  518SOL    HW1 2453   2.579   2.394   0.631
  518SOL    HW2 2454   2.690   2.470   0.724
  519SOL     OW 2455   0.609   6.304   0.798
  519SOL    HW1 2456   0.625   6.205   0.805
  519SOL    HW2 2457   0.684   6.352   0.843
  520SOL     OW 2458   5.625   4.610   5.138
  520SOL    HW1 2459   5.720   4.597   5.113
  520SOL    HW2 2460   5.573   4.644   5.059
  521SOL     OW 2461   6.522   1.355   1.003
  521SOL    HW1 2462   6.508   1.280   1.067
  521SOL    HW2 2463   6.559   1.434   1.052
  522SOL     OW 2464   4.109   3.327   4.767
  522SOL    HW1 2465   4.105   3.392   4.691
  522SOL    HW2 2466   4.091   3.235   4.732
  523SOL     OW 2467   6.704   6.807   5.350
  523SOL    HW1 2468   6.645   6.737   5.391
  523SOL    HW2 2469   6.673   6.828   5.258
  524SOL     OW 2470   3.056   1.007   5.672
  524SOL    HW1 2471   3.153   0.992   5.689
  524SOL    HW2 2472   3.002   0.946   5.731
  525SOL     OW 2473   2.238   3.447   6.854
  525SOL    HW1 2474   2.301   3.468   6.778
  525SOL    HW2 2475   2.290   3.421   6.934
  526SOL     OW 2476   3.780   5.808   4.800
  526SOL    HW1 2477   3.832   5.756   4.733
  526SOL    HW2 2478   3.693   5.835   4.760
  527SOL     OW 2479   0.657   2.006   6.101
  527SOL    HW1 2480   0.740   1.950   6.103
  527SOL    HW2 2481   0.596   1.978   6.174
  528SOL     OW 2482   2.538   0.394   5.320
  528SOL    HW1 2483   2.452   0.353   5.350
  528SOL    HW2 2484   2.526   0.493   5.311
  529SOL     OW 2485   0.164   4.867   4.209
  529SOL    HW1 2486   0.150   4.773   4.239
  529SOL    HW2 2487   0.236   4.870   4.141
  530SOL     OW 2488   1.805   2.971   5.808
  530SOL    HW1 2489   1.798   2.904   5.734
  530SOL    HW2 2490   1.882   2.945   5.868
  531SOL     OW 2491   6.847   0.116   1.030
  531SOL    HW1 2492   6.934   0.165   1.028
  531SOL    HW2 2493   6.834   0.067   0.943
  532SOL     OW 2494   1.685   0.862   5.504
  532SOL    HW1 2495   1.688   0.960   5.526
  532SOL    HW2 2496   1.590   0.835   5.488
  533SOL     OW 2497   5.273   6.593   4.110
  533SOL    HW1 2498   5.320   6.648   4.179
  533SOL    HW2 2499   5.288   6.633   4.019
  534SOL     OW 2500   3.886   6.025   1.564
  534SOL    HW1 2501   3.893   5.978   1.476
  534SOL    HW2 2502   3.958   5.991   1.625
  535SOL     OW 2503   0.263   3.650   3.292
  535SOL    HW1 2504   0.268   3.689   3.384
  535SOL    HW2 2505   0.322   3.570   3.286
  536SOL     OW 2506   0.762   5.370   0.710
  536SOL    HW1 2507   0.716   5.354   0.622
  536SOL    HW2 2508   0.734   5.459   0.746
  537SOL     OW 2509   2.577   0.428   2.468
  537SOL    HW1 2510   2.647   0.397   2.532
  537SOL    HW2 2511   2.511   0.355   2.453
  538SOL     OW 2512   1.214   5.379   3.635
  538SOL    HW1 2513   1.276   5.344   3.564
  538SOL    HW2 2514   1.136   5.424   3.592
  539SOL     OW 2515   1.490   4.623   1.744
  539SOL    HW1 2516   1.566   4.687   1.739
  539SOL    HW2 2517   1.460   4.599   1.651
  540SOL     OW 2518   1.273   2.103   2.032
  540SOL    HW1 2519   1.332   2.181   2.012
  540SOL    HW2 2520   1.230   2.072   1.947
  541SOL     OW 2521   3.435   5.434   5.286
  541SOL    HW1 2522   3.344   5.465   5.260
  541SOL    HW2 2523   3.444   5.337   5.267
  542SOL     OW 2524   6.195   5.416   0.030
  542SOL    HW1 2525   6.252   5.498   0.039
  542SOL    HW2 2526   6.121   5.434   6.992
  543SOL     OW 2527   0.028   6.132   7.019
  543SOL    HW1 2528   0.044   6.086   6.931
  543SOL    HW2 2529   6.959   6.158   7.026
  544SOL     OW 2530   0.740   5.377   0.382
  544SOL    HW1 2531   0.668   5.438   0.351
  544SOL    HW2 2532   0.719   5.283   0.356
  545SOL     OW 2533   3.568   1.992   3.601
  545SOL    HW1 2534   3.487   2.003   3.543
  545SOL    HW2 2535   3.571   2.064   3.670
  546SOL     OW 2536   0.850   3.863   0.402
  546SOL    HW1 2537   0.814   3.805   0.475
  546SOL    HW2 2538   0.784   3.868   0.328
  547SOL     OW 2539   2.807   3.174   0.250
  547SOL    HW1 2540   2.795   3.074   0.249
  547SOL    HW2 2541   2.814   3.207   0.156
  548SOL     OW 2542   3.519   3.169   4.476
  548SOL    HW1 2543   3.551   3.074   4.475
  548SOL    HW2 2544   3.455   3.182   4.551
  549SOL     OW 2545   6.791   3.363   1.796
  549SOL    HW1 2546   6.853   3.414   1.737
  549SOL    HW2 2547   6.804   3.265   1.780
  550SOL     OW 2548   6.962   3.968   1.885
  550SOL    HW1 2549   6.925   3.894   1.828
  550SOL    HW2 2550   6.889   4.005   1.943
  551SOL     OW 2551   6.551   1.527   6.913
  551SOL    HW1 2552   6.523   1.491   7.002
  551SOL    HW2 2553   6.651   1.529   6.908
  552SOL     OW 2554   4.917   5.857   0.813
  552SOL    HW1 2555   4.942   5.831   0.720
  552SOL    HW2 2556   4.957   5.792   0.878
  553SOL     OW 2557   1.531   1.743   1.641
  553SOL    HW1 2558   1.490   1.802   1.711
  553SOL    HW2 2559   1.621   1.713   1.673
  554SOL     OW 2560   5.474   5.942   5.298
  554SOL    HW1 2561   5.503   5.958   5.204
  554SOL    HW2 2562   5.448   5.846   5.308
  555SOL     OW 2563   1.977   4.500   4.473
  555SOL    HW1 2564   1.880   4.517   4.495
  555SOL    HW2 2565   1.992   4.402   4.464
  556SOL     OW 2566   5.608   3.649   3.008
  556SOL    HW1 2567   5.521   3.694   3.026
  556SOL    HW2 2568   5.615   3.628   2.910
  557SOL     OW 2569   0.288   5.889   6.213
  557SOL    HW1 2570   0.305   5.800   6.257
  557SOL    HW2 2571   0.311   5.962   6.277
  558SOL     OW 2572   4.249   3.951   5.355
  558SOL    HW1 2573   4.193   3.963   5.437
  558SOL    HW2 2574   4.294   3.862   5.357
  559SOL     OW 2575   6.324   5.887   6.325
  559SOL    HW1 2576   6.262   5.892   6.247
  559SOL    HW2 2577   6.300   5.958   6.391
  560SOL     OW 2578   4.082   6.585   6.942
  560SOL    HW1 2579   4.051   6.662   6.998
  560SOL    HW2 2580   4.146   6.618   6.872
  561SOL     OW 2581   5.629   6.827   1.091
  561SOL    HW1 2582   5.612   6.917   1.130
  561SOL    HW2 2583   5.551   6.767   1.110
  562SOL     OW 2584   6.729   1.118   5.966
  562SOL    HW1 2585   6.702   1.180   5.892
  562SOL    HW2 2586   6.746   1.027   5.928
  563SOL     OW 2587   3.458   6.239   4.732
  563SOL    HW1 2588   3.435   6.148   4.768
  563SOL    HW2 2589   3.387   6.268   4.667
  564SOL     OW 2590   0.419   1.791   6.785
  564SOL    HW1 2591   0.487   1.824   6.720
  564SOL    HW2 2592   0.453   1.708   6.829
  565SOL     OW 2593   4.746   4.066   5.025
  565SOL    HW1 2594   4.798   4.039   4.944
  565SOL    HW2 2595   4.706   4.156   5.011
  566SOL     OW 2596   5.385   5.231   2.721
  566SOL    HW1 2597   5.317   5.239   2.793
  566SOL    HW2 2598   5.372   5.146   2.671
  567SOL     OW 2599   4.131   3.462   5.021
  567SOL    HW1 2600   4.185   3.382   4.995
  567SOL    HW2 2601   4.036   3.447   4.996
  568SOL     OW 2602   2.099   1.810   6.394
  568SOL    HW1 2603   2.107   1.711   6.378
  568SOL    HW2 2604   2.164   1.838   6.464
  569SOL     OW 2605   2.614   3.801   0.258
  569SOL    HW1 2606   2.676   3.724   0.274
  569SOL    HW2 2607   2.656   3.885   0.293
  570SOL     OW 2608   0.284   6.327   1.123
  570SOL    HW1 2609   0.232   6.345   1.038
  570SOL    HW2 2610   0.274   6.231   1.148
  571SOL     OW 2611   4.226   5.599   2.924
  571SOL    HW1 2612   4.229   5.666   2.998
  571SOL    HW2 2613   4.139   5.551   2.926
  572SOL     OW 2614   1.800   4.221   4.848
  572SOL    HW1 2615   1.751   4.266   4.773
  572SOL    HW2 2616   1.769   4.258   4.935
  573SOL     OW 2617   3.824   2.505   6.138
  573SOL    HW1 2618   3.875   2.523   6.222
  573SOL    HW2 2619   3.727   2.496   6.159
  574SOL     OW 2620   2.789   1.570   4.574
  574SOL    HW1 2621   2.778   1.558   4.475
  574SOL    HW2 2622   2.699   1.577   4.617
  575SOL     OW 2623   4.961   2.379   6.591
  575SOL    HW1 2624   5.029   2.439   6.632
  575SOL    HW2 2625   4.983   2.364   6.495
  576SOL     OW 2626   0.536   2.152   2.439
  576SOL    HW1 2627   0.554   2.056   2.420
  576SOL    HW2 2628   0.444   2.176   2.408
  577SOL     OW 2629   3.450   2.137   3.814
  577SOL    HW1 2630   3.378   2.164   3.749
  577SOL    HW2 2631   3.443   2.194   3.896
  578SOL     OW 2632   0.568   3.246   4.293
  578SOL    HW1 2633   0.556   3.162   4.240
  578SOL    HW2 2634   0.653   3.291   4.266
  579SOL     OW 2635   3.760   3.209   0.190
  579SOL    HW1 2636   3.856   3.197   0.165
  579SOL    HW2 2637   3.753   3.270   0.269
  580SOL     OW 2638   0.040   5.876   0.129
  580SOL    HW1 2639   7.000   5.898   0.199
  580SOL    HW2 2640   0.057   5.956   0.072
  581SOL     OW 2641   3.946   3.811   2.869
  581SOL    HW1 2642   3.883   3.877   2.828
  581SOL    HW2 2643   3.921   3.797   2.965
  582SOL     OW 2644   6.217   3.669   2.767
  582SOL    HW1 2645   6.143   3.727   2.732
  582SOL    HW2 2646   6.258   3.713   2.847
  583SOL     OW 2647   2.449   5.206   6.767
  583SOL    HW1 2648   2.402   5.292   6.746
  583SOL    HW2 2649   2.408   5.166   6.849
  584SOL     OW 2650   1.093   5.220   4.481
  584SOL    HW1 2651   1.039   5.192   4.560
  584SOL    HW2 2652   1.043   5.200   4.397
  585SOL     OW 2653   0.105   1.478   5.912
  585SOL    HW1 2654   0.117   1.482   6.011
  585SOL    HW2 2655   0.119   1.384   5.880
  586SOL     OW 2656   2.070   6.041   0.327
  586SOL    HW1 2657   2.048   5.961   0.272
  586SOL    HW2 2658   2.170   6.049   0.336
  587SOL     OW 2659   1.101   3.625   5.526
  587SOL    HW1 2660   1.153   3.540   5.514
  587SOL    HW2 2661   1.143   3.679   5.599
  588SOL     OW 2662   2.497   7.025   1.356
  588SOL    HW1 2663   2.585   6.996   1.318
  588SOL    HW2 2664   2.512   0.054   1.437
  589SOL     OW 2665   4.567   5.244   2.580
  589SOL    HW1 2666   4.527   5.261   2.670
  589SOL    HW2 2667   4.625   5.321   2.554
  590SOL     OW 2668   6.699   2.157   1.546
  590SOL    HW1 2669   6.604   2.188   1.545
  590SOL    HW2 2670   6.743   2.187   1.630
  591SOL     OW 2671   3.390   6.768   3.097
  591SOL    HW1 2672   3.437   6.792   3.013
  591SOL    HW2 2673   3.377   6.669   3.101
  592SOL     OW 2674   5.419   0.881   0.052
  592SOL    HW1 2675   5.411   0.981   0.050
  592SOL    HW2 2676   5.335   0.842   0.090
  593SOL     OW 2677   5.917   1.840   3.803
  593SOL    HW1 2678   5.946   1.923   3.757
  593SOL    HW2 2679   5.867   1.782   3.738
  594SOL     OW 2680   5.140   3.268   1.581
  594SOL    HW1 2681   5.044   3.278   1.607
  594SOL    HW2 2682   5.159   3.171   1.561
  595SOL     OW 2683   3.632   0.138   4.241
  595SOL    HW1 2684   3.726   0.151   4.270
  595SOL    HW2 2685   3.628   0.125   4.142
  596SOL     OW 2686   1.082   4.382   2.451
  596SOL    HW1 2687   0.984   4.368   2.461
  596SOL    HW2 2688   1.126   4.296   2.424
  597SOL     OW 2689   3.918   1.937   5.787
  597SOL    HW1 2690   3.965   1.939   5.875
  597SOL    HW2 2691   3.931   2.025   5.741
  598SOL     OW 2692   3.317   3.904   0.810
  598SOL    HW1 2693   3.256   3.897   0.731
  598SOL    HW2 2694   3.312   3.820   0.863
  599SOL     OW 2695   6.926   6.547   2.950
  599SOL    HW1 2696   7.004   6.492   2.979
  599SOL    HW2 2697   6.930   6.636   2.994
  600SOL     OW 2698   2.272   0.781   0.861
  600SOL    HW1 2699   2.311   0.859   0.910
  600SOL    HW2 2700   2.341   0.709   0.852
  601SOL     OW 2701   3.122   5.026   3.948
  601SOL    HW1 2702   3.075   5.097   4.001
  601SOL    HW2 2703   3.071   5.008   3.864
  602SOL     OW 2704   0.530   0.545   1.386
  602SOL    HW1 2705   0.565   0.593   1.305
  602SOL    HW2 2706   0.584   0.572   1.466
  603SOL     OW 2707   4.122   2.256   2.964
  603SOL    HW1 2708   4.144   2.235   2.869
  603SOL    HW2 2709   4.034   2.216   2.988
  604SOL     OW 2710   0.566   4.072   5.695
  604SOL    HW1 2711   0.634   4.017   5.743
  604SOL    HW2 2712   0.587   4.169   5.708
  605SOL     OW 2713   5.966   0.159   4.600
  605SOL    HW1 2714   5.924   0.222   4.665
  605SOL    HW2 2715   5.897   0.128   4.534
  606SOL     OW 2716   3.786   0.089   2.981
  606SOL    HW1 2717   3.762   0.069   2.885
  606SOL    HW2 2718   3.838   0.012   3.019
  607SOL     OW 2719   4.877   1.051   3.478
  607SOL    HW1 2720   4.891   1.017   3.385
  607SOL    HW2 2721   4.838   1.143   3.475
  608SOL     OW 2722   4.597   1.970   1.529
  608SOL    HW1 2723   4.641   2.004   1.446
  608SOL    HW2 2724   4.498   1.986   1.524
  609SOL     OW 2725   2.895   3.665   3.990
  609SOL    HW1 2726   2.807   3.641   4.030
  609SOL    HW2 2727   2.933   3.585   3.944
  610SOL     OW 2728   5.272   1.615   4.239
  610SOL    HW1 2729   5.305   1.604   4.333
  610SOL    HW2 2730   5.274   1.526   4.192
  611SOL     OW 2731   6.405   0.088   0.876
  611SOL    HW1 2732   6.443   7.023   0.872
  611SOL    HW2 2733   6.332   0.097   0.808
  612SOL     OW 2734   2.976   5.433   5.836
  612SOL    HW1 2735   2.911   5.473   5.771
  612SOL    HW2 2736   3.038   5.504   5.869
  613SOL     OW 2737   3.464   2.411   6.976
  613SOL    HW1 2738   3.387   2.372   0.001
  613SOL    HW2 2739   3.495   2.494   7.021
  614SOL     OW 2740   5.142   3.804   0.987
  614SOL    HW1 2741   5.241   3.816   0.986
  614SOL    HW2 2742   5.103   3.854   1.065
  615SOL     OW 2743   6.009   6.702   1.810
  615SOL    HW1 2744   5.951   6.783   1.810
  615SOL    HW2 2745   6.096   6.723   1.767
  616SOL     OW 2746   5.913   0.628   5.006
  616SOL    HW1 2747   6.012   0.631   5.004
  616SOL    HW2 2748   5.883   0.555   5.067
  617SOL     OW 2749   6.905   5.735   5.737
  617SOL    HW1 2750   6.947   5.819   5.704
  617SOL    HW2 2751   6.970   5.659   5.728
  618SOL     OW 2752   5.842   4.031   0.251
  618SOL    HW1 2753   5.836   4.128   0.226
  618SOL    HW2 2754   5.925   4.015   0.303
  619SOL     OW 2755   2.443   6.924   6.326
  619SOL    HW1 2756   2.480   6.953   6.237
  619SOL    HW2 2757   2.473   6.831   6.346
  620SOL     OW 2758   5.584   1.685   2.195
  620SOL    HW1 2759   5.529   1.731   2.124
  620SOL    HW2 2760   5.527   1.619   2.244
  621SOL     OW 2761   3.024   0.372   6.760
  621SOL    HW1 2762   3.042   0.470   6.759
  621SOL    HW2 2763   2.925   0.356   6.755
  622SOL     OW 2764   0.813   2.537   5.182
  622SOL    HW1 2765   0.893   2.552   5.123
  622SOL    HW2 2766   0.730   2.542   5.127
  623SOL     OW 2767   6.044   0.158   4.018
  623SOL    HW1 2768   6.111   0.215   3.971
  623SOL    HW2 2769   6.055   0.168   4.117
  624SOL     OW 2770   6.882   0.383   6.434
  624SOL    HW1 2771   6.817   0.458   6.425
  624SOL    HW2 2772   6.914   0.356   6.343
  625SOL     OW 2773   3.453   1.646   0.857
  625SOL    HW1 2774   3.418   1.726   0.907
  625SOL    HW2 2775   3.458   1.568   0.920
  626SOL     OW 2776   6.616   6.250   3.893
  626SOL    HW1 2777   6.702   6.274   3.847
  626SOL    HW2 2778   6.607   6.302   3.977
  627SOL     OW 2779   6.334   6.811   0.172
  627SOL    HW1 2780   6.356   6.732   0.116
  627SOL    HW2 2781   6.290   6.881   0.115
  628SOL     OW 2782   4.275   4.329   6.320
  628SOL    HW1 2783   4.199   4.393   6.329
  628SOL    HW2 2784   4.335   4.357   6.245
  629SOL     OW 2785   1.517   6.946   0.057
  629SOL    HW1 2786   1.433   7.000   0.053
  629SOL    HW2 2787   1.585   6.986   7.022
  630SOL     OW 2788   6.044   1.426   0.974
  630SOL    HW1 2789   5.948   1.406   0.993
  630SOL    HW2 2790   6.054   1.523   0.953
  631SOL     OW 2791   1.385   2.229   4.129
  631SOL    HW1 2792   1.412   2.152   4.072
  631SOL    HW2 2793   1.447   2.237   4.207
  632SOL     OW 2794   2.912   4.162   0.430
  632SOL    HW1 2795   2.949   4.165   0.523
  632SOL    HW2 2796   2.927   4.071   0.391
  633SOL     OW 2797   1.251   5.411   0.826
  633SOL    HW1 2798   1.175   5.416   0.762
  633SOL    HW2 2799   1.231   5.466   0.907
  634SOL     OW 2800   3.159   3.324   4.471
  634SOL    HW1 2801   3.069   3.356   4.502
  634SOL    HW2 2802   3.157   3.224   4.463
  635SOL     OW 2803   5.944   0.282   6.595
  635SOL    HW1 2804   6.004   0.362   6.591
  635SOL    HW2 2805   5.999   0.199   6.607
  636SOL     OW 2806   2.711   0.874   5.476
  636SOL    HW1 2807   2.719   0.933   5.557
  636SOL    HW2 2808   2.771   0.908   5.404
  637SOL     OW 2809   0.160   0.915   2.556
  637SOL    HW1 2810   0.236   0.888   2.497
  637SOL    HW2 2811   0.077   0.867   2.528
  638SOL     OW 2812   6.886   3.155   5.118
  638SOL    HW1 2813   6.820   3.080   5.113
  638SOL    HW2 2814   6.905   3.177   5.213
  639SOL     OW 2815   5.638   4.269   1.966
  639SOL    HW1 2816   5.621   4.274   2.064
  639SOL    HW2 2817   5.578   4.334   1.919
  640SOL     OW 2818   0.331   2.697   2.441
  640SOL    HW1 2819   0.416   2.748   2.430
  640SOL    HW2 2820   0.334   2.647   2.528
  641SOL     OW 2821   2.130   4.963   4.145
  641SOL    HW1 2822   2.210   4.935   4.093
  641SOL    HW2 2823   2.154   4.972   4.242
  642SOL     OW 2824   1.087   4.625   4.655
  642SOL    HW1 2825   1.016   4.665   4.597
  642SOL    HW2 2826   1.046   4.585   4.736
  643SOL     OW 2827   3.872   5.053   0.615
  643SOL    HW1 2828   3.824   5.130   0.572
  643SOL    HW2 2829   3.969   5.059   0.593
  644SOL     OW 2830   0.186   6.856   5.301
  644SOL    HW1 2831   0.147   6.941   5.264
  644SOL    HW2 2832   0.285   6.855   5.285
  645SOL     OW 2833   4.000   5.440   2.566
  645SOL    HW1 2834   4.051   5.525   2.552
  645SOL    HW2 2835   3.904   5.455   2.545
  646SOL     OW 2836   3.768   2.187   4.321
  646SOL    HW1 2837   3.855   2.143   4.344
  646SOL    HW2 2838   3.698   2.159   4.387
  647SOL     OW 2839   3.526   2.418   6.168
  647SOL    HW1 2840   3.515   2.391   6.073
  647SOL    HW2 2841   3.528   2.518   6.175
  648SOL     OW 2842   5.905   1.282   2.995
  648SOL    HW1 2843   5.950   1.205   2.950
  648SOL    HW2 2844   5.973   1.333   3.048
  649SOL     OW 2845   2.270   4.761   0.312
  649SOL    HW1 2846   2.351   4.799   0.356
  649SOL    HW2 2847   2.264   4.797   0.218
  650SOL     OW 2848   6.932   3.522   1.074
  650SOL    HW1 2849   7.017   3.477   1.102
  650SOL    HW2 2850   6.854   3.465   1.101
  651SOL     OW 2851   0.993   0.719   4.126
  651SOL    HW1 2852   1.006   0.638   4.069
  651SOL    HW2 2853   0.968   0.691   4.218
  652SOL     OW 2854   4.275   6.070   1.268
  652SOL    HW1 2855   4.240   6.113   1.352
  652SOL    HW2 2856   4.248   6.124   1.189
  653SOL     OW 2857   1.977   6.718   2.474
  653SOL    HW1 2858   2.026   6.634   2.452
  653SOL    HW2 2859   2.040   6.796   2.473
  654SOL     OW 2860   1.113   0.161   6.101
  654SOL    HW1 2861   1.170   0.240   6.080
  654SOL    HW2 2862   1.139   0.124   6.190
  655SOL     OW 2863   0.649   3.766   1.562
  655SOL    HW1 2864   0.578   3.799   1.623
  655SOL    HW2 2865   0.614   3.760   1.469
  656SOL     OW 2866   3.070   5.984   0.097
  656SOL    HW1 2867   3.067   6.060   0.033
  656SOL    HW2 2868   3.054   5.898   0.049
  657SOL     OW 2869   4.116   3.721   3.512
  657SOL    HW1 2870   4.030   3.749   3.555
  657SOL    HW2 2871   4.192   3.743   3.573
  658SOL     OW 2872   1.276   1.386   4.254
  658SOL    HW1 2873   1.320   1.457   4.309
  658SOL    HW2 2874   1.260   1.306   4.311
  659SOL     OW 2875   1.918   5.372   6.398
  659SOL    HW1 2876   1.950   5.384   6.304
  659SOL    HW2 2877   1.857   5.448   6.422
  660SOL     OW 2878   4.647   4.967   3.085
  660SOL    HW1 2879   4.653   4.869   3.104
  660SOL    HW2 2880   4.711   5.017   3.144
  661SOL     OW 2881   4.516   5.084   4.049
  661SOL    HW1 2882   4.571   5.116   3.971
  661SOL    HW2 2883   4.575   5.075   4.129
  662SOL     OW 2884   4.678   3.617   0.074
  662SOL    HW1 2885   4.754   3.606   0.138
  662SOL    HW2 2886   4.656   3.714   0.064
  663SOL     OW 2887   6.878   4.372   0.092
  663SOL    HW1 2888   6.873   4.425   0.176
  663SOL    HW2 2889   6.970   4.379   0.054
  664SOL     OW 2890   1.850   0.061   6.372
  664SOL    HW1 2891   1.863   6.997   6.410
  664SOL    HW2 2892   1.773   0.106   6.418
  665SOL     OW 2893   3.560   4.894   2.448
  665SOL    HW1 2894   3.546   4.880   2.351
  665SOL    HW2 2895   3.473   4.886   2.497
  666SOL     OW 2896   2.963   0.817   0.150
  666SOL    HW1 2897   2.950   0.916   0.148
  666SOL    HW2 2898   2.900   0.776   0.217
  667SOL     OW 2899   1.131   3.641   2.268
  667SOL    HW1 2900   1.160   3.595   2.184
  667SOL    HW2 2901   1.208   3.646   2.331
  668SOL     OW 2902   5.275   6.632   0.253
  668SOL    HW1 2903   5.228   6.688   0.186
  668SOL    HW2 2904   5.332   6.690   0.312
  669SOL     OW 2905   1.576   5.576   2.458
  669SOL    HW1 2906   1.565   5.502   2.523
  669SOL    HW2 2907   1.667   5.572   2.417
  670SOL     OW 2908   3.269   3.482   3.040
  670SOL    HW1 2909   3.191   3.441   2.992
  670SOL    HW2 2910   3.283   3.434   3.126
  671SOL     OW 2911   2.006   0.574   6.777
  671SOL    HW1 2912   2.095   0.543   6.745
  671SOL    HW2 2913   2.009   0.673   6.794
  672SOL     OW 2914   1.235   2.041   2.864
  672SOL    HW1 2915   1.169   2.113   2.888
  672SOL    HW2 2916   1.301   2.076   2.798
  673SOL     OW 2917   4.847   0.243   0.134
  673SOL    HW1 2918   4.859   0.153   0.175
  673SOL    HW2 2919   4.903   0.310   0.182
  674SOL     OW 2920   6.935   1.662   4.437
  674SOL    HW1 2921   6.937   1.562   4.448
  674SOL    HW2 2922   6.975   1.687   4.349
  675SOL     OW 2923   5.756   0.255   4.224
  675SOL    HW1 2924   5.764   0.340   4.173
  675SOL    HW2 2925   5.714   0.185   4.166
  676SOL     OW 2926   2.158   4.613   3.975
  676SOL    HW1 2927   2.188   4.664   4.055
  676SOL    HW2 2928   2.135   4.678   3.902
  677SOL     OW 2929   5.393   0.428   0.775
  677SOL    HW1 2930   5.408   0.495   0.847
  677SOL    HW2 2931   5.351   0.346   0.814
  678SOL     OW 2932   2.496   1.265   5.983
  678SOL    HW1 2933   2.593   1.273   6.005
  678SOL    HW2 2934   2.442   1.309   6.055
  679SOL     OW 2935   6.732   0.851   2.011
  679SOL    HW1 2936   6.716   0.932   2.068
  679SOL    HW2 2937   6.810   0.868   1.951
  680SOL     OW 2938   5.568   4.374   4.972
  680SOL    HW1 2939   5.601   4.353   5.064
  680SOL    HW2 2940   5.468   4.374   4.971
  681SOL     OW 2941   1.586   0.026   2.139
  681SOL    HW1 2942   1.565   0.120   2.164
  681SOL    HW2 2943   1.565   0.011   2.043
  682SOL     OW 2944   0.486   6.683   6.441
  682SOL    HW1 2945   0.483   6.711   6.537
  682SOL    HW2 2946   0.521   6.758   6.386
  683SOL     OW 2947   5.542   1.932   6.892
  683SOL    HW1 2948   5.591   1.852   6.858
  683SOL    HW2 2949   5.575   2.014   6.844
  684SOL     OW 2950   0.326   5.977   6.528
  684SOL    HW1 2951   0.400   5.931   6.578
  684SOL    HW2 2952   0.365   6.051   6.473
  685SOL     OW 2953   6.073   1.307   6.579
  685SOL    HW1 2954   6.097   1.251   6.499
  685SOL    HW2 2955   6.092   1.255   6.662
  686SOL     OW 2956   5.515   4.642   3.330
  686SOL    HW1 2957   5.569   4.672   3.408
  686SOL    HW2 2958   5.525   4.543   3.318
  687SOL     OW 2959   6.146   2.251   5.289
  687SOL    HW1 2960   6.212   2.183   5.323
  687SOL    HW2 2961   6.079   2.206   5.230
  688SOL     OW 2962   0.521   3.351   4.566
  688SOL    HW1 2963   0.522   3.280   4.636
  688SOL    HW2 2964   0.546   3.312   4.478
  689SOL     OW 2965   5.928   4.315   4.890
  689SOL    HW1 2966   5.840   4.272   4.869
  689SOL    HW2 2967   5.914   4.390   4.953
  690SOL     OW 2968   0.611   3.016   3.895
  690SOL    HW1 2969   0.667   2.990   3.973
  690SOL    HW2 2970   0.553   2.938   3.868
  691SOL     OW 2971   6.801   3.110   6.936
  691SOL    HW1 2972   6.715   3.161   6.940
  691SOL    HW2 2973   6.875   3.167   6.971
  692SOL     OW 2974   2.630   0.160   3.167
  692SOL    HW1 2975   2.711   0.104   3.182
  692SOL    HW2 2976   2.565   0.146   3.242
  693SOL     OW 2977   6.570   1.534   2.673
  693SOL    HW1 2978   6.605   1.544   2.766
  693SOL    HW2 2979   6.638   1.487   2.617
  694SOL     OW 2980   1.588   0.320   2.326
  694SOL    HW1 2981   1.547   0.319   2.234
  694SOL    HW2 2982   1.521   0.356   2.391
  695SOL     OW 2983   4.369   5.577   6.589
  695SOL    HW1 2984   4.451   5.532   6.623
  695SOL    HW2 2985   4.387   5.675   6.578
  696SOL     OW 2986   4.689   6.125   2.790
  696SOL    HW1 2987   4.782   6.136   2.755
  696SOL    HW2 2988   4.641   6.056   2.735
  697SOL     OW 2989   1.553   4.102   3.737
  697SOL    HW1 2990   1.518   4.195   3.751
  697SOL    HW2 2991   1.638   4.090   3.788
  698SOL     OW 2992   4.535   6.385   4.053
  698SOL    HW1 2993   4.509   6.447   3.978
  698SOL    HW2 2994   4.622   6.416   4.092
  699SOL     OW 2995   0.905   4.581   0.028
  699SOL    HW1 2996   0.987   4.564   7.001
  699SOL    HW2 2997   0.842   4.504   0.019
  700SOL     OW 2998   2.259   1.456   4.128
  700SOL    HW1 2999   2.323   1.382   4.147
  700SOL    HW2 3000   2.269   1.528   4.196
  701SOL     OW 3001   0.958   4.774   6.128
  701SOL    HW1 3002   0.985   4.751   6.035
  701SOL    HW2 3003   0.999   4.710   6.193
  702SOL     OW 3004   5.341   5.737   4.728
  702SOL    HW1 3005   5.305   5.663   4.671
  702SOL    HW2 3006   5.288   5.820   4.714
  703SOL     OW 3007   4.192   4.062   6.891
  703SOL    HW1 3008   4.231   4.151   6.866
  703SOL    HW2 3009   4.208   3.997   6.818
  704SOL     OW 3010   2.788   0.238   1.412
  704SOL    HW1 3011   2.744   0.245   1.501
  704SOL    HW2 3012   2.731   0.186   1.349
  705SOL     OW 3013   6.518   2.101   3.582
  705SOL    HW1 3014   6.610   2.134   3.562
  705SOL    HW2 3015   6.494   2.120   3.677
  706SOL     OW 3016   4.816   2.003   3.829
  706SOL    HW1 3017   4.819   1.946   3.747
  706SOL    HW2 3018   4.734   1.983   3.881
  707SOL     OW 3019   4.603   2.183   1.768
  707SOL    HW1 3020   4.660   2.102   1.779
  707SOL    HW2 3021   4.514   2.168   1.813
  708SOL     OW 3022   4.102   0.646   1.799
  708SOL    HW1 3023   4.171   0.610   1.862
  708SOL    HW2 3024   4.099   0.746   1.808
  709SOL     OW 3025   0.485   5.164   0.108
  709SOL    HW1 3026   0.492   5.187   0.205
  709SOL    HW2 3027   0.392   5.181   0.076
  710SOL     OW 3028   3.220   3.382   2.487
  710SOL    HW1 3029   3.158   3.321   2.439
  710SOL    HW2 3030   3.171   3.466   2.514
  711SOL     OW 3031   1.845   0.363   4.378
  711SOL    HW1 3032   1.786   0.336   4.302
  711SOL    HW2 3033   1.789   0.376   4.460
  712SOL     OW 3034   1.116   4.027   1.585
  712SOL    HW1 3035   1.183   3.974   1.533
  712SOL    HW2 3036   1.145   4.033   1.681
  713SOL     OW 3037   3.948   3.896   3.369
  713SOL    HW1 3038   3.921   3.934   3.458
  713SOL    HW2 3039   4.026   3.835   3.382
  714SOL     OW 3040   4.923   4.951   5.667
  714SOL    HW1 3041   4.867   4.892   5.725
  714SOL    HW2 3042   4.941   4.905   5.580
  715SOL     OW 3043   4.163   1.049   6.358
  715SOL    HW1 3044   4.169   0.990   6.438
  715SOL    HW2 3045   4.161   1.144   6.387
  716SOL     OW 3046   6.910   5.068   1.995
  716SOL    HW1 3047   6.830   5.106   2.041
  716SOL    HW2 3048   6.930   5.121   1.913
  717SOL     OW 3049   5.386   3.168   0.219
  717SOL    HW1 3050   5.359   3.263   0.232
  717SOL    HW2 3051   5.439   3.136   0.298
  718SOL     OW 3052   3.158   3.698   6.924
  718SOL    HW1 3053   3.172   3.702   6.825
  718SOL    HW2 3054   3.082   3.636   6.944
  719SOL     OW 3055   5.391   4.996   0.153
  719SOL    HW1 3056   5.474   5.052   0.159
  719SOL    HW2 3057   5.387   4.951   0.064
  720SOL     OW 3058   2.370   0.647   6.583
  720SOL    HW1 3059   2.338   0.592   6.506
  720SOL    HW2 3060   2.464   0.676   6.567
  721SOL     OW 3061   1.496   6.557   5.594
  721SOL    HW1 3062   1.511   6.652   5.619
  721SOL    HW2 3063   1.517   6.544   5.497
  722SOL     OW 3064   4.502   6.530   6.115
  722SOL    HW1 3065   4.432   6.481   6.062
  722SOL    HW2 3066   4.559   6.464   6.163
  723SOL     OW 3067   1.893   3.387   1.697
  723SOL    HW1 3068   1.821   3.444   1.657
  723SOL    HW2 3069   1.863   3.292   1.700
  724SOL     OW 3070   6.627   0.599   4.527
  724SOL    HW1 3071   6.693   0.674   4.529
  724SOL    HW2 3072   6.614   0.564   4.620
  725SOL     OW 3073   2.706   4.503   0.896
  725SOL    HW1 3074   2.717   4.546   0.806
  725SOL    HW2 3075   2.687   4.406   0.885
  726SOL     OW 3076   4.176   6.835   6.273
  726SOL    HW1 3077   4.220   6.771   6.336
  726SOL    HW2 3078   4.166   6.792   6.183
  727SOL     OW 3079   2.627   4.628   3.741
  727SOL    HW1 3080   2.697   4.597   3.676
  727SOL    HW2 3081   2.540   4.583   3.720
  728SOL     OW 3082   0.109   2.867   5.354
  728SOL    HW1 3083   0.110   2.966   5.365
  728SOL    HW2 3084   0.103   2.844   5.257
  729SOL     OW 3085   2.851   0.611   0.676
  729SOL    HW1 3086   2.788   0.630   0.601
  729SOL    HW2 3087   2.809   0.638   0.762
  730SOL     OW 3088   6.093   0.524   5.213
  730SOL    HW1 3089   6.103   0.618   5.246
  730SOL    HW2 3090   6.002   0.489   5.236
  731SOL     OW 3091   6.340   3.142   4.071
  731SOL    HW1 3092   6.308   3.053   4.040
  731SOL    HW2 3093   6.262   3.201   4.090
  732SOL     OW 3094   6.642   2.976   2.350
  732SOL    HW1 3095   6.670   2.887   2.383
  732SOL    HW2 3096   6.695   3.048   2.395
  733SOL     OW 3097   4.229   4.858   3.885
  733SOL    HW1 3098   4.284   4.796   3.940
  733SOL    HW2 3099   4.137   4.865   3.925
  734SOL     OW 3100   0.061   4.795   0.778
  734SOL    HW1 3101   0.139   4.849   0.747
  734SOL    HW2 3102   0.047   4.717   0.717
  735SOL     OW 3103   2.105   4.733   6.437
  735SOL    HW1 3104   2.157   4.811   6.400
  735SOL    HW2 3105   2.118   4.654   6.378
  736SOL     OW 3106   6.045   1.036   2.931
  736SOL    HW1 3107   6.019   0.959   2.989
  736SOL    HW2 3108   6.056   1.004   2.837
  737SOL     OW 3109   5.757   4.238   0.510
  737SOL    HW1 3110   5.719   4.263   0.421
  737SOL    HW2 3111   5.718   4.151   0.540
  738SOL     OW 3112   1.075   4.345   2.935
  738SOL    HW1 3113   1.103   4.440   2.948
  738SOL    HW2 3114   0.991   4.343   2.880
  739SOL     OW 3115   4.620   6.044   6.726
  739SOL    HW1 3116   4.714   6.032   6.694
  739SOL    HW2 3117   4.558   6.044   6.648
  740SOL     OW 3118   5.629   0.106   1.001
  740SOL    HW1 3119   5.644   0.197   0.964
  740SOL    HW2 3120   5.698   0.043   0.966
  741SOL     OW 3121   2.671   0.709   3.727
  741SOL    HW1 3122   2.726   0.791   3.709
  741SOL    HW2 3123   2.702   0.668   3.813
  742SOL     OW 3124   1.924   0.161   2.691
  742SOL    HW1 3125   1.862   0.170   2.613
  742SOL    HW2 3126   1.872   0.134   2.772
  743SOL     OW 3127   2.117   3.617   4.081
  743SOL    HW1 3128   2.124   3.518   4.092
  743SOL    HW2 3129   2.127   3.662   4.169
  744SOL     OW 3130   0.319   6.550   1.280
  744SOL    HW1 3131   0.236   6.523   1.329
  744SOL    HW2 3132   0.344   6.480   1.214
  745SOL     OW 3133   1.618   6.442   3.077
  745SOL    HW1 3134   1.530   6.396   3.090
  745SOL    HW2 3135   1.683   6.410   3.145
  746SOL     OW 3136   3.137   0.638   4.719
  746SOL    HW1 3137   3.135   0.641   4.619
  746SOL    HW2 3138   3.202   0.706   4.753
  747SOL     OW 3139   6.078   4.835   2.063
  747SOL    HW1 3140   6.016   4.879   1.998
  747SOL    HW2 3141   6.046   4.851   2.156
  748SOL     OW 3142   3.899   2.946   2.029
  748SOL    HW1 3143   3.917   2.922   2.124
  748SOL    HW2 3144   3.951   2.886   1.968
  749SOL     OW 3145   6.896   1.325   5.205
  749SOL    HW1 3146   6.907   1.423   5.189
  749SOL    HW2 3147   6.874   1.279   5.119
  750SOL     OW 3148   2.627   4.265   0.707
  750SOL    HW1 3149   2.544   4.244   0.657
  750SOL    HW2 3150   2.686   4.323   0.652
  751SOL     OW 3151   4.623   1.364   0.342
  751SOL    HW1 3152   4.637   1.291   0.274
  751SOL    HW2 3153   4.670   1.447   0.311
  752SOL     OW 3154   4.932   1.259   1.490
  752SOL    HW1 3155   4.941   1.299   1.399
  752SOL    HW2 3156   4.978   1.316   1.557
  753SOL     OW 3157   2.166   1.914   2.746
  753SOL    HW1 3158   2.266   1.910   2.741
  753SOL    HW2 3159   2.135   2.004   2.714
  754SOL     OW 3160   4.977   5.469   6.950
  754SOL    HW1 3161   4.922   5.389   6.926
  754SOL    HW2 3162   5.070   5.441   6.970
  755SOL     OW 3163   0.476   6.391   2.735
  755SOL    HW1 3164   0.393   6.376   2.680
  755SOL    HW2 3165   0.452   6.445   2.816
  756SOL     OW 3166   3.932   6.917   3.484
  756SOL    HW1 3167   3.880   6.990   3.528
  756SOL    HW2 3168   4.010   6.956   3.436
  757SOL     OW 3169   6.832   0.813   4.557
  757SOL    HW1 3170   6.916   0.786   4.511
  757SOL    HW2 3171   6.844   0.807   4.656
  758SOL     OW 3172   4.313   2.512   1.784
  758SOL    HW1 3173   4.365   2.468   1.711
  758SOL    HW2 3174   4.367   2.511   1.868
  759SOL     OW 3175   1.464   1.268   0.166
  759SOL    HW1 3176   1.529   1.335   0.202
  759SOL    HW2 3177   1.505   1.220   0.089
  760SOL     OW 3178   4.251   1.419   6.061
  760SOL    HW1 3179   4.248   1.321   6.044
  760SOL    HW2 3180   4.261   1.468   5.974
  761SOL     OW 3181   5.855   2.599   6.640
  761SOL    HW1 3182   5.925   2.535   6.672
  761SOL    HW2 3183   5.766   2.555   6.641
  762SOL     OW 3184   1.976   5.250   3.973
  762SOL    HW1 3185   1.992   5.268   4.070
  762SOL    HW2 3186   2.012   5.325   3.918
  763SOL     OW 3187   5.739   5.022   6.313
  763SOL    HW1 3188   5.678   4.970   6.372
  763SOL    HW2 3189   5.821   5.048   6.365
  764SOL     OW 3190   4.432   1.131   2.655
  764SOL    HW1 3191   4.461   1.174   2.569
  764SOL    HW2 3192   4.406   1.036   2.638
  765SOL     OW 3193   0.407   6.913   3.432
  765SOL    HW1 3194   0.328   6.854   3.414
  765SOL    HW2 3195   0.420   6.975   3.355
  766SOL     OW 3196   0.251   6.195   0.387
  766SOL    HW1 3197   0.153   6.209   0.381
  766SOL    HW2 3198   0.289   6.257   0.457
  767SOL     OW 3199   6.436   6.674   1.875
  767SOL    HW1 3200   6.379   6.754   1.895
  767SOL    HW2 3201   6.516   6.675   1.934
  768SOL     OW 3202   3.459   6.484   3.416
  768SOL    HW1 3203   3.535   6.496   3.352
  768SOL    HW2 3204   3.491   6.440   3.499
  769SOL     OW 3205   3.308   0.810   6.623
  769SOL    HW1 3206   3.310   0.712   6.640
  769SOL    HW2 3207   3.393   0.852   6.656
  770SOL     OW 3208   3.832   4.934   3.591
  770SOL    HW1 3209   3.927   4.921   3.618
  770SOL    HW2 3210   3.775   4.942   3.673
  771SOL     OW 3211   0.472   5.984   3.628
  771SOL    HW1 3212   0.544   6.045   3.594
  771SOL    HW2 3213   0.474   5.899   3.575
  772SOL     OW 3214   6.681   4.478   4.969
  772SOL    HW1 3215   6.692   4.549   4.899
  772SOL    HW2 3216   6.768   4.462   5.015
  773SOL     OW 3217   0.334   4.034   1.903
  773SOL    HW1 3218   0.281   4.094   1.843
  773SOL    HW2 3219   0.272   3.979   1.959
  774SOL     OW 3220   1.698   0.808   1.405
  774SOL    HW1 3221   1.758   0.770   1.476
  774SOL    HW2 3222   1.641   0.880   1.444
  775SOL     OW 3223   1.348   1.900   4.210
  775SOL    HW1 3224   1.383   1.949   4.290
  775SOL    HW2 3225   1.249   1.894   4.216
  776SOL     OW 3226   2.333   0.700   6.097
  776SOL    HW1 3227   2.281   0.614   6.099
  776SOL    HW2 3228   2.290   0.763   6.032
  777SOL     OW 3229   4.644   0.358   0.427
  777SOL    HW1 3230   4.737   0.363   0.463
  777SOL    HW2 3231   4.610   0.451   0.408
  778SOL     OW 3232   4.504   6.630   3.854
  778SOL    HW1 3233   4.488   6.728   3.848
  778SOL    HW2 3234   4.424   6.581   3.820
  779SOL     OW 3235   0.806   0.950   2.202
  779SOL    HW1 3236   0.777   0.863   2.161
  779SOL    HW2 3237   0.837   0.933   2.296
  780SOL     OW 3238   5.153   3.421   5.216
  780SOL    HW1 3239   5.178   3.435   5.120
  780SOL    HW2 3240   5.053   3.416   5.223
  781SOL     OW 3241   0.739   1.715   5.979
  781SOL    HW1 3242   0.836   1.700   5.998
  781SOL    HW2 3243   0.718   1.682   5.887
  782SOL     OW 3244   0.531   3.900   0.865
  782SOL    HW1 3245   0.495   3.973   0.807
  782SOL    HW2 3246   0.490   3.813   0.839
  783SOL     OW 3247   2.660   4.016   0.494
  783SOL    HW1 3248   2.728   4.088   0.493
  783SOL    HW2 3249   2.569   4.055   0.478
  784SOL     OW 3250   5.496   6.929   3.898
  784SOL    HW1 3251   5.493   6.835   3.931
  784SOL    HW2 3252   5.591   6.958   3.888
  785SOL     OW 3253   6.667   2.289   4.236
  785SOL    HW1 3254   6.654   2.324   4.329
  785SOL    HW2 3255   6.748   2.231   4.234
  786SOL     OW 3256   6.166   7.026   0.079
  786SOL    HW1 3257   6.152   0.063   0.003
  786SOL    HW2 3258   6.181   0.050   0.163
  787SOL     OW 3259   3.690   1.405   6.743
  787SOL    HW1 3260   3.625   1.451   6.682
  787SOL    HW2 3261   3.761   1.470   6.770
  788SOL     OW 3262   0.939   4.397   3.809
  788SOL    HW1 3263   0.954   4.495   3.796
  788SOL    HW2 3264   1.017   4.358   3.858
  789SOL     OW 3265   5.922   3.810   0.767
  789SOL    HW1 3266   6.013   3.786   0.802
  789SOL    HW2 3267   5.875   3.727   0.737
  790SOL     OW 3268   3.432   1.319   4.225
  790SOL    HW1 3269   3.359   1.369   4.177
  790SOL    HW2 3270   3.514   1.318   4.168
  791SOL     OW 3271   4.176   1.976   4.109
  791SOL    HW1 3272   4.216   1.968   4.200
  791SOL    HW2 3273   4.158   2.073   4.090
  792SOL     OW 3274   6.007   0.645   3.162
  792SOL    HW1 3275   5.958   0.567   3.124
  792SOL    HW2 3276   6.093   0.615   3.202
  793SOL     OW 3277   6.543   6.973   6.235
  793SOL    HW1 3278   6.537   0.005   6.315
  793SOL    HW2 3279   6.639   6.951   6.217
  794SOL     OW 3280   2.654   5.092   5.366
  794SOL    HW1 3281   2.664   5.038   5.283
  794SOL    HW2 3282   2.719   5.060   5.435
  795SOL     OW 3283   4.898   4.621   6.167
  795SOL    HW1 3284   4.803   4.653   6.169
  795SOL    HW2 3285   4.945   4.649   6.251
  796SOL     OW 3286   1.120   2.236   5.770
  796SOL    HW1 3287   1.075   2.155   5.809
  796SOL    HW2 3288   1.160   2.290   5.844
  797SOL     OW 3289   6.078   2.446   5.001
  797SOL    HW1 3290   6.125   2.459   5.088
  797SOL    HW2 3291   6.025   2.361   5.004
  798SOL     OW 3292   6.188   0.575   5.625
  798SOL    HW1 3293   6.106   0.529   5.591
  798SOL    HW2 3294   6.247   0.599   5.548
  799SOL     OW 3295   6.815   3.402   3.121
  799SOL    HW1 3296   6.817   3.311   3.163
  799SOL    HW2 3297   6.869   3.465   3.176
  800SOL     OW 3298   0.023   1.780   1.995
  800SOL    HW1 3299   0.013   1.832   2.080
  800SOL    HW2 3300   6.991   1.699   1.999
  801SOL     OW 3301   7.027   2.289   4.112
  801SOL    HW1 3302   7.001   2.347   4.190
  801SOL    HW2 3303   6.967   2.209   4.109
  802SOL     OW 3304   6.037   1.127   0.786
  802SOL    HW1 3305   5.994   1.175   0.863
  802SOL    HW2 3306   6.085   1.046   0.819
  803SOL     OW 3307   1.052   6.783   4.891
  803SOL    HW1 3308   1.018   6.789   4.985
  803SOL    HW2 3309   1.145   6.817   4.888
  804SOL     OW 3310   6.515   0.252   0.436
  804SOL    HW1 3311   6.546   0.280   0.526
  804SOL    HW2 3312   6.433   0.304   0.411
  805SOL     OW 3313   1.111   3.292   6.140
  805SOL    HW1 3314   1.199   3.339   6.137
  805SOL    HW2 3315   1.119   3.202   6.097
  806SOL     OW 3316   5.608   1.089   0.784
  806SOL    HW1 3317   5.617   1.097   0.685
  806SOL    HW2 3318   5.514   1.108   0.812
  807SOL     OW 3319   1.764   0.301   2.965
  807SOL    HW1 3320   1.839   0.354   3.003
  807SOL    HW2 3321   1.689   0.298   3.031
  808SOL     OW 3322   5.640   3.289   4.800
  808SOL    HW1 3323   5.581   3.264   4.724
  808SOL    HW2 3324   5.734   3.302   4.767
  809SOL     OW 3325   0.729   4.737   6.445
  809SOL    HW1 3326   0.744   4.649   6.401
  809SOL    HW2 3327   0.633   4.763   6.435
  810SOL     OW 3328   6.199   4.869   6.716
  810SOL    HW1 3329   6.129   4.845   6.649
  810SOL    HW2 3330   6.284   4.820   6.695
  811SOL     OW 3331   4.979   5.142   3.623
  811SOL    HW1 3332   4.895   5.109   3.581
  811SOL    HW2 3333   5.046   5.165   3.553
  812SOL     OW 3334   1.077   0.378   2.507
  812SOL    HW1 3335   1.061   0.287   2.543
  812SOL    HW2 3336   1.064   0.377   2.407
  813SOL     OW 3337   5.995   5.531   2.214
  813SOL    HW1 3338   6.022   5.436   2.204
  813SOL    HW2 3339   5.919   5.537   2.279
  814SOL     OW 3340   5.524   5.559   1.484
  814SOL    HW1 3341   5.494   5.652   1.461
  814SOL    HW2 3342   5.618   5.561   1.518
  815SOL     OW 3343   0.426   2.387   0.571
  815SOL    HW1 3344   0.511   2.400   0.621
  815SOL    HW2 3345   0.421   2.293   0.537
  816SOL     OW 3346   6.471   0.669   1.317
  816SOL    HW1 3347   6.496   0.580   1.278
  816SOL    HW2 3348   6.384   0.661   1.364
  817SOL     OW 3349   1.529   1.984   2.439
  817SOL    HW1 3350   1.583   1.903   2.416
  817SOL    HW2 3351   1.459   1.997   2.369
  818SOL     OW 3352   6.913   1.771   1.529
  818SOL    HW1 3353   6.855   1.755   1.449
  818SOL    HW2 3354   6.879   1.717   1.606
  819SOL     OW 3355   0.332   4.532   3.431
  819SOL    HW1 3356   0.301   4.592   3.356
  819SOL    HW2 3357   0.253   4.505   3.485
  820SOL     OW 3358   1.005   3.452   5.170
  820SOL    HW1 3359   1.031   3.450   5.074
  820SOL    HW2 3360   1.066   3.394   5.223
  821SOL     OW 3361   1.171   3.707   0.433
  821SOL    HW1 3362   1.227   3.767   0.376
  821SOL    HW2 3363   1.161   3.746   0.524
  822SOL     OW 3364   1.744   3.675   4.604
  822SOL    HW1 3365   1.830   3.637   4.636
  822SOL    HW2 3366   1.701   3.611   4.539
  823SOL     OW 3367   3.090   3.141   1.082
  823SOL    HW1 3368   3.077   3.043   1.066
  823SOL    HW2 3369   3.032   3.192   1.019
  824SOL     OW 3370   6.160   2.165   5.830
  824SOL    HW1 3371   6.185   2.248   5.881
  824SOL    HW2 3372   6.061   2.163   5.817
  825SOL     OW 3373   1.339   4.254   2.017
  825SOL    HW1 3374   1.391   4.337   2.038
  825SOL    HW2 3375   1.275   4.235   2.092
  826SOL     OW 3376   0.233   4.121   6.108
  826SOL    HW1 3377   0.216   4.179   6.188
  826SOL    HW2 3378   0.291   4.170   6.043
  827SOL     OW 3379   4.292   5.893   0.250
  827SOL    HW1 3380   4.281   5.816   0.313
  827SOL    HW2 3381   4.389   5.908   0.233
  828SOL     OW 3382   5.866   6.935   6.435
  828SOL    HW1 3383   5.880   6.848   6.389
  828SOL    HW2 3384   5.773   6.968   6.418
  829SOL     OW 3385   3.863   3.034   4.775
  829SOL    HW1 3386   3.844   3.109   4.838
  829SOL    HW2 3387   3.802   2.957   4.796
  830SOL     OW 3388   4.552   3.954   5.440
  830SOL    HW1 3389   4.524   4.006   5.521
  830SOL    HW2 3390   4.473   3.937   5.382
  831SOL     OW 3391   6.120   0.139   5.019
  831SOL    HW1 3392   6.195   0.133   4.953
  831SOL    HW2 3393   6.152   0.190   5.099
  832SOL     OW 3394   2.142   1.496   5.773
  832SOL    HW1 3395   2.098   1.412   5.805
  832SOL    HW2 3396   2.206   1.528   5.842
  833SOL     OW 3397   1.028   0.111   5.819
  833SOL    HW1 3398   1.049   0.126   5.915
  833SOL    HW2 3399   1.023   0.013   5.801
  834SOL     OW 3400   3.349   4.215   5.622
  834SOL    HW1 3401   3.301   4.295   5.587
  834SOL    HW2 3402   3.286   4.160   5.676
  835SOL     OW 3403   4.468   0.782   3.041
  835SOL    HW1 3404   4.568   0.779   3.046
  835SOL    HW2 3405   4.438   0.874   3.016
  836SOL     OW 3406   2.423   0.732   0.382
  836SOL    HW1 3407   2.407   0.819   0.336
  836SOL    HW2 3408   2.445   0.662   0.313
  837SOL     OW 3409   3.790   0.100   5.614
  837SOL    HW1 3410   3.725   0.076   5.685
  837SOL    HW2 3411   3.771   0.192   5.580
  838SOL     OW 3412   2.051   4.375   2.493
  838SOL    HW1 3413   1.976   4.441   2.488
  838SOL    HW2 3414   2.067   4.351   2.589
  839SOL     OW 3415   3.476   0.968   1.756
  839SOL    HW1 3416   3.567   0.981   1.718
  839SOL    HW2 3417   3.409   1.014   1.698
  840SOL     OW 3418   0.805   1.748   6.304
  840SOL    HW1 3419   0.833   1.816   6.235
  840SOL    HW2 3420   0.825   1.784   6.395
  841SOL     OW 3421   7.007   4.005   0.457
  841SOL    HW1 3422   6.974   4.044   0.371
  841SOL    HW2 3423   0.032   3.921   0.438
  842SOL     OW 3424   3.643   5.124   4.002
  842SOL    HW1 3425   3.584   5.062   4.054
  842SOL    HW2 3426   3.722   5.149   4.058
  843SOL     OW 3427   6.760   3.520   2.555
  843SOL    HW1 3428   6.827   3.561   2.492
  843SOL    HW2 3429   6.783   3.547   2.648
  844SOL     OW 3430   5.314   5.752   0.972
  844SOL    HW1 3431   5.334   5.745   0.874
  844SOL    HW2 3432   5.396   5.729   1.025
  845SOL     OW 3433   1.301   5.104   4.860
  845SOL    HW1 3434   1.382   5.095   4.802
  845SOL    HW2 3435   1.232   5.158   4.814
  846SOL     OW 3436   5.606   2.345   0.122
  846SOL    HW1 3437   5.642   2.404   0.194
  846SOL    HW2 3438   5.523   2.386   0.083
  847SOL     OW 3439   5.444   3.555   2.242
  847SOL    HW1 3440   5.517   3.620   2.224
  847SOL    HW2 3441   5.450   3.479   2.177
  848SOL     OW 3442   6.600   0.158   5.416
  848SOL    HW1 3443   6.549   0.076   5.389
  848SOL    HW2 3444   6.574   0.184   5.509
  849SOL     OW 3445   0.964   5.591   4.446
  849SOL    HW1 3446   0.878   5.560   4.405
  849SOL    HW2 3447   0.998   5.519   4.507
  850SOL     OW 3448   3.738   0.825   2.937
  850SOL    HW1 3449   3.799   0.852   2.862
  850SOL    HW2 3450   3.683   0.904   2.965
  851SOL     OW 3451   0.965   0.299   5.391
  851SOL    HW1 3452   0.936   0.221   5.448
  851SOL    HW2 3453   0.942   0.384   5.437
  852SOL     OW 3454   2.815   4.269   6.165
  852SOL    HW1 3455   2.733   4.222   6.134
  852SOL    HW2 3456   2.893   4.241   6.110
  853SOL     OW 3457   1.165   3.367   1.111
  853SOL    HW1 3458   1.215   3.431   1.170
  853SOL    HW2 3459   1.229   3.325   1.047
  854SOL     OW 3460   5.911   4.968   1.911
  854SOL    HW1 3461   5.822   4.928   1.888
  854SOL    HW2 3462   5.898   5.062   1.944
  855SOL     OW 3463   5.665   0.525   1.250
  855SOL    HW1 3464   5.648   0.616   1.211
  855SOL    HW2 3465   5.633   0.523   1.344
  856SOL     OW 3466   2.076   0.363   4.740
  856SOL    HW1 3467   1.999   0.417   4.707
  856SOL    HW2 3468   2.047   0.269   4.758
  857SOL     OW 3469   6.534   3.736   1.721
  857SOL    HW1 3470   6.519   3.694   1.631
  857SOL    HW2 3471   6.546   3.835   1.709
  858SOL     OW 3472   3.238   4.051   1.141
  858SOL    HW1 3473   3.158   4.094   1.183
  858SOL    HW2 3474   3.213   3.961   1.106
  859SOL     OW 3475   0.200   5.095   0.621
  859SOL    HW1 3476   0.257   5.013   0.622
  859SOL    HW2 3477   0.247   5.170   0.668
  860SOL     OW 3478   1.943   5.250   1.229
  860SOL    HW1 3479   1.871   5.308   1.267
  860SOL    HW2 3480   1.948   5.165   1.282
  861SOL     OW 3481   3.918   5.139   6.287
  861SOL    HW1 3482   3.828   5.175   6.262
  861SOL    HW2 3483   3.907   5.068   6.357
  862SOL     OW 3484   4.762   4.291   4.311
  862SOL    HW1 3485   4.839   4.354   4.298
  862SOL    HW2 3486   4.686   4.318   4.252
  863SOL     OW 3487   5.807   1.230   0.921
  863SOL    HW1 3488   5.752   1.170   0.863
  863SOL    HW2 3489   5.758   1.317   0.934
  864SOL     OW 3490   6.131   4.443   2.719
  864SOL    HW1 3491   6.164   4.518   2.776
  864SOL    HW2 3492   6.137   4.357   2.770
  865SOL     OW 3493   1.697   0.547   3.849
  865SOL    HW1 3494   1.690   0.646   3.838
  865SOL    HW2 3495   1.777   0.513   3.799
  866SOL     OW 3496   3.929   1.307   1.386
  866SOL    HW1 3497   3.864   1.250   1.336
  866SOL    HW2 3498   3.939   1.273   1.480
  867SOL     OW 3499   1.747   2.124   6.332
  867SOL    HW1 3500   1.778   2.038   6.372
  867SOL    HW2 3501   1.792   2.138   6.244
  868SOL     OW 3502   5.670   2.805   3.354
  868SOL    HW1 3503   5.721   2.778   3.436
  868SOL    HW2 3504   5.717   2.770   3.273
  869SOL     OW 3505   6.455   4.149   2.415
  869SOL    HW1 3506   6.524   4.147   2.488
  869SOL    HW2 3507   6.379   4.207   2.443
  870SOL     OW 3508   0.279   2.901   0.473
  870SOL    HW1 3509   0.188   2.940   0.486
  870SOL    HW2 3510   0.334   2.962   0.416
  871SOL     OW 3511   5.819   4.394   0.887
  871SOL    HW1 3512   5.851   4.375   0.794
  871SOL    HW2 3513   5.720   4.385   0.890
  872SOL     OW 3514   5.769   2.600   2.596
  872SOL    HW1 3515   5.756   2.637   2.504
  872SOL    HW2 3516   5.686   2.615   2.650
  873SOL     OW 3517   4.867   6.840   5.552
  873SOL    HW1 3518   4.953   6.889   5.535
  873SOL    HW2 3519   4.886   6.742   5.559
  874SOL     OW 3520   0.155   3.732   6.483
  874SOL    HW1 3521   0.153   3.806   6.417
  874SOL    HW2 3522   0.076   3.672   6.469
  875SOL     OW 3523   6.067   4.863   6.470
  875SOL    HW1 3524   6.155   4.885   6.429
  875SOL    HW2 3525   6.015   4.947   6.487
  876SOL     OW 3526   0.802   2.581   1.375
  876SOL    HW1 3527   0.767   2.642   1.446
  876SOL    HW2 3528   0.901   2.589   1.370
  877SOL     OW 3529   5.739   5.776   0.592
  877SOL    HW1 3530   5.772   5.748   0.682
  877SOL    HW2 3531   5.650   5.821   0.602
  878SOL     OW 3532   3.339   2.667   0.419
  878SOL    HW1 3533   3.392   2.583   0.430
  878SOL    HW2 3534   3.400   2.746   0.421
  879SOL     OW 3535   3.807   2.053   2.640
  879SOL    HW1 3536   3.848   2.103   2.564
  879SOL    HW2 3537   3.875   1.993   2.682
  880SOL     OW 3538   3.905   5.345   1.155
  880SOL    HW1 3539   3.937   5.326   1.247
  880SOL    HW2 3540   3.925   5.267   1.095
  881SOL     OW 3541   4.401   5.417   4.153
  881SOL    HW1 3542   4.384   5.395   4.249
  881SOL    HW2 3543   4.375   5.338   4.096
  882SOL     OW 3544   0.921   1.727   4.137
  882SOL    HW1 3545   0.936   1.779   4.053
  882SOL    HW2 3546   0.938   1.630   4.119
  883SOL     OW 3547   3.360   4.516   0.207
  883SOL    HW1 3548   3.439   4.493   0.264
  883SOL    HW2 3549   3.288   4.448   0.222
  884SOL     OW 3550   4.498   3.755   1.710
  884SOL    HW1 3551   4.471   3.832   1.653
  884SOL    HW2 3552   4.419   3.721   1.760
  885SOL     OW 3553   4.406   6.439   6.747
  885SOL    HW1 3554   4.316   6.397   6.756
  885SOL    HW2 3555   4.467   6.403   6.818
  886SOL     OW 3556   4.053   1.469   6.247
  886SOL    HW1 3557   3.992   1.411   6.193
  886SOL    HW2 3558   4.140   1.479   6.199
  887SOL     OW 3559   5.594   6.980   6.460
  887SOL    HW1 3560   5.502   6.962   6.426
  887SOL    HW2 3561   5.602   0.050   6.483
  888SOL     OW 3562   6.999   6.513   3.677
  888SOL    HW1 3563   6.942   6.564   3.613
  888SOL    HW2 3564   6.941   6.454   3.734
  889SOL     OW 3565   1.270   6.936   4.814
  889SOL    HW1 3566   1.252   7.027   4.775
  889SOL    HW2 3567   1.316   6.946   4.902
  890SOL     OW 3568   2.099   4.647   2.720
  890SOL    HW1 3569   2.075   4.712   2.648
  890SOL    HW2 3570   2.021   4.635   2.782
  891SOL     OW 3571   5.770   3.507   6.174
  891SOL    HW1 3572   5.765   3.583   6.109
  891SOL    HW2 3573   5.761   3.420   6.124
  892SOL     OW 3574   2.539   5.447   1.554
  892SOL    HW1 3575   2.534   5.406   1.463
  892SOL    HW2 3576   2.484   5.531   1.556
  893SOL     OW 3577   1.849   6.516   0.713
  893SOL    HW1 3578   1.914   6.444   0.737
  893SOL    HW2 3579   1.876   6.557   0.626
  894SOL     OW 3580   1.093   5.090   3.925
  894SOL    HW1 3581   1.179   5.114   3.880
  894SOL    HW2 3582   1.089   4.991   3.939
  895SOL     OW 3583   2.206   0.653   4.730
  895SOL    HW1 3584   2.218   0.660   4.631
  895SOL    HW2 3585   2.188   0.557   4.754
  896SOL     OW 3586   5.599   6.784   3.309
  896SOL    HW1 3587   5.520   6.767   3.369
  896SOL    HW2 3588   5.682   6.792   3.365
  897SOL     OW 3589   5.090   1.696   6.066
  897SOL    HW1 3590   5.152   1.683   5.988
  897SOL    HW2 3591   5.033   1.615   6.077
  898SOL     OW 3592   6.135   5.764   3.781
  898SOL    HW1 3593   6.089   5.699   3.722
  898SOL    HW2 3594   6.206   5.717   3.834
  899SOL     OW 3595   1.562   4.426   6.847
  899SOL    HW1 3596   1.510   4.482   6.782
  899SOL    HW2 3597   1.570   4.333   6.810
  900SOL     OW 3598   0.369   5.614   4.099
  900SOL    HW1 3599   0.323   5.604   4.011
  900SOL    HW2 3600   0.416   5.703   4.102
  901SOL     OW 3601   5.952   2.191   3.326
  901SOL    HW1 3602   5.922   2.266   3.266
  901SOL    HW2 3603   6.039   2.155   3.293
  902SOL     OW 3604   0.768   6.293   0.493
  902SOL    HW1 3605   0.774   6.283   0.592
  902SOL    HW2 3606   0.779   6.203   0.449
  903SOL     OW 3607   0.374   4.968   6.869
  903SOL    HW1 3608   0.331   5.049   6.908
  903SOL    HW2 3609   0.382   4.978   6.770
  904SOL     OW 3610   1.708   1.214   3.661
  904SOL    HW1 3611   1.679   1.307   3.637
  904SOL    HW2 3612   1.644   1.177   3.728
  905SOL     OW 3613   6.621   1.890   5.704
  905SOL    HW1 3614   6.666   1.900   5.615
  905SOL    HW2 3615   6.573   1.802   5.707
  906SOL     OW 3616   6.430   3.616   5.273
  906SOL    HW1 3617   6.350   3.558   5.256
  906SOL    HW2 3618   6.402   3.697   5.325
  907SOL     OW 3619   0.354   3.261   1.697
  907SOL    HW1 3620   0.329   3.316   1.776
  907SOL    HW2 3621   0.448   3.283   1.670
  908SOL     OW 3622   2.372   0.978   3.057
  908SOL    HW1 3623   2.387   0.987   2.958
  908SOL    HW2 3624   2.306   1.046   3.087
  909SOL     OW 3625   4.179   0.420   1.009
  909SOL    HW1 3626   4.196   0.372   0.923
  909SOL    HW2 3627   4.255   0.403   1.072
  910SOL     OW 3628   1.796   1.694   1.709
  910SOL    HW1 3629   1.828   1.599   1.710
  910SOL    HW2 3630   1.850   1.748   1.774
  911SOL     OW 3631   0.244   3.764   1.326
  911SOL    HW1 3632   0.209   3.831   1.260
  911SOL    HW2 3633   0.243   3.804   1.418
  912SOL     OW 3634   0.976   0.405   6.289
  912SOL    HW1 3635   1.011   0.364   6.373
  912SOL    HW2 3636   1.045   0.467   6.251
  913SOL     OW 3637   1.843   1.173   1.826
  913SOL    HW1 3638   1.814   1.257   1.781
  913SOL    HW2 3639   1.801   1.167   1.916
  914SOL     OW 3640   2.409   5.777   2.680
  914SOL    HW1 3641   2.378   5.689   2.644
  914SOL    HW2 3642   2.345   5.807   2.751
  915SOL     OW 3643   1.226   2.855   0.394
  915SOL    HW1 3644   1.208   2.954   0.392
  915SOL    HW2 3645   1.140   2.806   0.405
  916SOL     OW 3646   1.251   3.306   2.433
  916SOL    HW1 3647   1.310   3.295   2.513
  916SOL    HW2 3648   1.243   3.403   2.410
  917SOL     OW 3649   3.207   2.024   6.813
  917SOL    HW1 3650   3.119   2.033   6.861
  917SOL    HW2 3651   3.230   2.111   6.769
  918SOL     OW 3652   0.928   0.732   5.781
  918SOL    HW1 3653   0.908   0.667   5.854
  918SOL    HW2 3654   0.842   0.771   5.747
  919SOL     OW 3655   1.817   0.231   0.701
  919SOL    HW1 3656   1.849   0.194   0.788
  919SOL    HW2 3657   1.791   0.327   0.713
  920SOL     OW 3658   2.202   0.859   3.771
  920SOL    HW1 3659   2.108   0.884   3.750
  920SOL    HW2 3660   2.216   0.860   3.870
  921SOL     OW 3661   4.400   4.524   6.892
  921SOL    HW1 3662   4.404   4.578   6.976
  921SOL    HW2 3663   4.430   4.431   6.911
  922SOL     OW 3664   1.957   4.213   6.314
  922SOL    HW1 3665   1.875   4.261   6.284
  922SOL    HW2 3666   1.969   4.131   6.259
  923SOL     OW 3667   3.559   1.504   6.536
  923SOL    HW1 3668   3.475   1.556   6.516
  923SOL    HW2 3669   3.636   1.549   6.492
  924SOL     OW 3670   6.526   4.781   2.955
  924SOL    HW1 3671   6.478   4.758   3.040
  924SOL    HW2 3672   6.613   4.825   2.978
  925SOL     OW 3673   6.807   2.279   2.984
  925SOL    HW1 3674   6.821   2.195   3.037
  925SOL    HW2 3675   6.803   2.257   2.887
  926SOL     OW 3676   5.597   6.459   0.772
  926SOL    HW1 3677   5.585   6.450   0.871
  926SOL    HW2 3678   5.638   6.376   0.736
  927SOL     OW 3679   5.006   5.182   4.864
  927SOL    HW1 3680   4.909   5.203   4.872
  927SOL    HW2 3681   5.060   5.263   4.889
  928SOL     OW 3682   0.448   1.529   1.421
  928SOL    HW1 3683   0.400   1.615   1.404
  928SOL    HW2 3684   0.478   1.489   1.334
  929SOL     OW 3685   0.564   2.531   2.476
  929SOL    HW1 3686   0.472   2.494   2.490
  929SOL    HW2 3687   0.626   2.456   2.454
  930SOL     OW 3688   5.284   5.487   2.644
  930SOL    HW1 3689   5.211   5.511   2.708
  930SOL    HW2 3690   5.317   5.395   2.663
  931SOL     OW 3691   1.812   3.058   2.216
  931SOL    HW1 3692   1.820   3.003   2.133
  931SOL    HW2 3693   1.716   3.081   2.231
  932SOL     OW 3694   4.718   6.701   1.073
  932SOL    HW1 3695   4.622   6.699   1.099
  932SOL    HW2 3696   4.775   6.693   1.155
  933SOL     OW 3697   1.382   5.816   4.080
  933SOL    HW1 3698   1.397   5.825   4.178
  933SOL    HW2 3699   1.295   5.859   4.056
  934SOL     OW 3700   3.103   0.645   5.830
  934SOL    HW1 3701   3.160   0.564   5.828
  934SOL    HW2 3702   3.105   0.690   5.740
  935SOL     OW 3703   2.108   3.521   5.845
  935SOL    HW1 3704   2.164   3.443   5.873
  935SOL    HW2 3705   2.012   3.493   5.841
  936SOL     OW 3706   0.382   2.013   1.909
  936SOL    HW1 3707   0.409   1.942   1.974
  936SOL    HW2 3708   0.410   1.986   1.817
  937SOL     OW 3709   4.991   2.205   3.444
  937SOL    HW1 3710   5.057   2.131   3.430
  937SOL    HW2 3711   4.924   2.204   3.370
  938SOL     OW 3712   6.266   1.551   0.372
  938SOL    HW1 3713   6.287   1.600   0.288
  938SOL    HW2 3714   6.349   1.512   0.411
  939SOL     OW 3715   6.443   0.654   5.439
  939SOL    HW1 3716   6.452   0.745   5.400
  939SOL    HW2 3717   6.513   0.640   5.509
  940SOL     OW 3718   0.633   0.668   4.196
  940SOL    HW1 3719   0.632   0.609   4.277
  940SOL    HW2 3720   0.543   0.669   4.154
  941SOL     OW 3721   5.824   2.914   5.354
  941SOL    HW1 3722   5.894   2.858   5.398
  941SOL    HW2 3723   5.833   2.907   5.254
  942SOL     OW 3724   4.432   0.582   5.364
  942SOL    HW1 3725   4.518   0.561   5.410
  942SOL    HW2 3726   4.439   0.669   5.315
  943SOL     OW 3727   5.634   2.116   6.736
  943SOL    HW1 3728   5.688   2.092   6.655
  943SOL    HW2 3729   5.675   2.196   6.781
  944SOL     OW 3730   5.440   3.696   4.819
  944SOL    HW1 3731   5.425   3.795   4.820
  944SOL    HW2 3732   5.441   3.663   4.725
  945SOL     OW 3733   5.550   3.522   5.154
  945SOL    HW1 3734   5.538   3.618   5.127
  945SOL    HW2 3735   5.490   3.464   5.098
  946SOL     OW 3736   5.625   3.216   6.218
  946SOL    HW1 3737   5.699   3.222   6.152
  946SOL    HW2 3738   5.661   3.233   6.310
  947SOL     OW 3739   1.245   2.387   5.208
  947SOL    HW1 3740   1.244   2.387   5.108
  947SOL    HW2 3741   1.331   2.425   5.241
  948SOL     OW 3742   4.050   1.583   0.596
  948SOL    HW1 3743   4.003   1.495   0.595
  948SOL    HW2 3744   4.076   1.606   0.690
  949SOL     OW 3745   5.663   5.825   6.854
  949SOL    HW1 3746   5.759   5.847   6.838
  949SOL    HW2 3747   5.605   5.892   6.807
  950SOL     OW 3748   3.419   5.470   0.679
  950SOL    HW1 3749   3.491   5.407   0.708
  950SOL    HW2 3750   3.379   5.515   0.759
  951SOL     OW 3751   0.320   2.611   3.890
  951SOL    HW1 3752   0.232   2.563   3.894
  951SOL    HW2 3753   0.379   2.580   3.964
  952SOL     OW 3754   5.031   1.005   1.534
  952SOL    HW1 3755   4.966   0.965   1.470
  952SOL    HW2 3756   5.005   1.101   1.551
  953SOL     OW 3757   3.478   6.584   6.175
  953SOL    HW1 3758   3.505   6.677   6.199
  953SOL    HW2 3759   3.386   6.585   6.136
  954SOL     OW 3760   6.989   6.922   1.530
  954SOL    HW1 3761   6.935   6.890   1.452
  954SOL    HW2 3762   6.969   7.019   1.546
  955SOL     OW 3763   0.095   0.070   2.579
  955SOL    HW1 3764   0.017   0.106   2.527
  955SOL    HW2 3765   0.061   0.010   2.651
  956SOL     OW 3766   1.145   2.469   0.322
  956SOL    HW1 3767   1.101   2.384   0.294
  956SOL    HW2 3768   1.173   2.520   0.241
  957SOL     OW 3769   2.233   6.547   4.954
  957SOL    HW1 3770   2.316   6.491   4.950
  957SOL    HW2 3771   2.257   6.644   4.945
  958SOL     OW 3772   4.909   2.158   0.479
  958SOL    HW1 3773   4.823   2.150   0.429
  958SOL    HW2 3774   4.890   2.158   0.577
  959SOL     OW 3775   1.675   3.916   1.826
  959SOL    HW1 3776   1.732   3.984   1.872
  959SOL    HW2 3777   1.641   3.850   1.893
  960SOL     OW 3778   1.585   5.566   5.560
  960SOL    HW1 3779   1.493   5.526   5.566
  960SOL    HW2 3780   1.652   5.499   5.591
  961SOL     OW 3781   3.639   6.745   0.879
  961SOL    HW1 3782   3.668   6.673   0.943
  961SOL    HW2 3783   3.551   6.720   0.838
  962SOL     OW 3784   1.186   5.974   3.967
  962SOL    HW1 3785   1.134   5.910   3.910
  962SOL    HW2 3786   1.225   6.045   3.910
  963SOL     OW 3787   6.100   6.915   2.423
  963SOL    HW1 3788   6.138   7.006   2.436
  963SOL    HW2 3789   6.021   6.903   2.483
  964SOL     OW 3790   5.365   3.462   0.850
  964SOL    HW1 3791   5.413   3.400   0.788
  964SOL    HW2 3792   5.298   3.516   0.799
  965SOL     OW 3793   1.410   2.079   0.437
  965SOL    HW1 3794   1.458   1.992   0.436
  965SOL    HW2 3795   1.333   2.075   0.373
  966SOL     OW 3796   6.740   2.496   1.772
  966SOL    HW1 3797   6.792   2.534   1.848
  966SOL    HW2 3798   6.765   2.401   1.757
  967SOL     OW 3799   0.857   6.183   2.303
  967SOL    HW1 3800   0.953   6.153   2.299
  967SOL    HW2 3801   0.850   6.265   2.359
  968SOL     OW 3802   6.949   4.337   1.654
  968SOL    HW1 3803   6.888   4.307   1.728
  968SOL    HW2 3804   6.908   4.316   1.566
  969SOL     OW 3805   3.915   6.101   6.770
  969SOL    HW1 3806   3.995   6.043   6.760
  969SOL    HW2 3807   3.916   6.146   6.860
  970SOL     OW 3808   4.445   2.267   5.182
  970SOL    HW1 3809   4.489   2.181   5.205
  970SOL    HW2 3810   4.494   2.311   5.106
  971SOL     OW 3811   0.487   2.741   0.582
  971SOL    HW1 3812   0.406   2.784   0.543
  971SOL    HW2 3813   0.560   2.740   0.514
  972SOL     OW 3814   6.192   5.776   1.105
  972SOL    HW1 3815   6.202   5.715   1.184
  972SOL    HW2 3816   6.135   5.732   1.036
  973SOL     OW 3817   5.604   3.768   5.044
  973SOL    HW1 3818   5.536   3.746   4.973
  973SOL    HW2 3819   5.657   3.848   5.015
  974SOL     OW 3820   3.038   1.709   4.674
  974SOL    HW1 3821   2.964   1.646   4.648
  974SOL    HW2 3822   3.024   1.796   4.627
  975SOL     OW 3823   3.393   6.382   5.493
  975SOL    HW1 3824   3.416   6.473   5.459
  975SOL    HW2 3825   3.317   6.388   5.558
  976SOL     OW 3826   6.794   6.248   3.681
  976SOL    HW1 3827   6.856   6.180   3.643
  976SOL    HW2 3828   6.787   6.326   3.619
  977SOL     OW 3829   1.692   2.617   2.123
  977SOL    HW1 3830   1.678   2.521   2.146
  977SOL    HW2 3831   1.636   2.675   2.183
  978SOL     OW 3832   5.529   3.289   4.544
  978SOL    HW1 3833   5.477   3.206   4.523
  978SOL    HW2 3834   5.598   3.304   4.474
  979SOL     OW 3835   5.990   1.691   3.427
  979SOL    HW1 3836   5.991   1.778   3.378
  979SOL    HW2 3837   6.084   1.665   3.451
  980SOL     OW 3838   6.663   0.382   4.364
  980SOL    HW1 3839   6.694   0.298   4.409
  980SOL    HW2 3840   6.635   0.448   4.434
  981SOL     OW 3841   6.698   3.650   5.162
  981SOL    HW1 3842   6.762   3.573   5.156
  981SOL    HW2 3843   6.623   3.626   5.223
  982SOL     OW 3844   1.660   2.604   1.346
  982SOL    HW1 3845   1.717   2.614   1.428
  982SOL    HW2 3846   1.706   2.544   1.281
  983SOL     OW 3847   5.984   1.955   2.692
  983SOL    HW1 3848   6.054   1.911   2.749
  983SOL    HW2 3849   5.993   1.921   2.598
  984SOL     OW 3850   4.879   1.719   4.930
  984SOL    HW1 3851   4.866   1.705   4.832
  984SOL    HW2 3852   4.973   1.749   4.947
  985SOL     OW 3853   2.808   5.084   1.060
  985SOL    HW1 3854   2.848   5.063   1.150
  985SOL    HW2 3855   2.722   5.035   1.050
  986SOL     OW 3856   3.951   4.802   6.813
  986SOL    HW1 3857   3.927   4.705   6.821
  986SOL    HW2 3858   3.868   4.857   6.821
  987SOL     OW 3859   3.678   6.939   2.381
  987SOL    HW1 3860   3.748   6.955   2.311
  987SOL    HW2 3861   3.649   7.026   2.419
  988SOL     OW 3862   3.378   3.811   1.987
  988SOL    HW1 3863   3.423   3.853   2.066
  988SOL    HW2 3864   3.366   3.713   2.004
  989SOL     OW 3865   0.570   6.741   4.685
  989SOL    HW1 3866   0.475   6.758   4.660
  989SOL    HW2 3867   0.582   6.644   4.707
  990SOL     OW 3868   4.976   6.100   2.728
  990SOL    HW1 3869   4.961   6.024   2.792
  990SOL    HW2 3870   5.011   6.065   2.641
  991SOL     OW 3871   6.652   1.481   5.089
  991SOL    HW1 3872   6.706   1.454   5.009
  991SOL    HW2 3873   6.714   1.506   5.164
  992SOL     OW 3874   0.176   3.060   1.417
  992SOL    HW1 3875   0.240   3.026   1.486
  992SOL    HW2 3876   0.114   3.126   1.460
  993SOL     OW 3877   3.613   5.483   4.309
  993SOL    HW1 3878   3.598   5.518   4.401
  993SOL    HW2 3879   3.706   5.447   4.301
  994SOL     OW 3880   3.074   3.729   2.044
  994SOL    HW1 3881   3.033   3.692   1.961
  994SOL    HW2 3882   3.156   3.676   2.067
  995SOL     OW 3883   0.292   0.961   4.824
  995SOL    HW1 3884   0.236   0.943   4.904
  995SOL    HW2 3885   0.266   1.049   4.783
  996SOL     OW 3886   1.241   3.689   1.068
  996SOL    HW1 3887   1.158   3.727   1.108
  996SOL    HW2 3888   1.292   3.638   1.138
  997SOL     OW 3889   0.354   0.926   1.057
  997SOL    HW1 3890   0.384   0.954   1.148
  997SOL    HW2 3891   0.269   0.872   1.065
  998SOL     OW 3892   4.883   0.175   3.469
  998SOL    HW1 3893   4.847   0.178   3.376
  998SOL    HW2 3894   4.983   0.179   3.467
  999SOL     OW 3895   6.838   5.437   1.745
  999SOL    HW1 3896   6.761   5.450   1.683
  999SOL    HW2 3897   6.899   5.516   1.740
 1000SOL     OW 3898   4.144   2.252   4.191
 1000SOL    HW1 3899   4.239   2.264   4.161
 1000SOL    HW2 3900   4.082   2.279   4.118
 1001SOL     OW 3901   3.941   0.653   5.782
 1001SOL    HW1 3902   4.038   0.677   5.781
 1001SOL    HW2 3903   3.901   0.679   5.871
 1002SOL     OW 3904   0.024   1.166   0.421
 1002SOL    HW1 3905   6.978   1.204   0.478
 1002SOL    HW2 3906   7.012   1.133   0.335
 1003SOL     OW 3907   4.760   4.545   3.213
 1003SOL    HW1 3908   4.673   4.500   3.234
 1003SOL    HW2 3909   4.765   4.564   3.115
 1004SOL     OW 3910   5.626   5.562   0.475
 1004SOL    HW1 3911   5.679   5.635   0.518
 1004SOL    HW2 3912   5.637   5.478   0.527
 1005SOL     OW 3913   6.532   5.791   3.731
 1005SOL    HW1 3914   6.490   5.800   3.822
 1005SOL    HW2 3915   6.540   5.881   3.688
 1006SOL     OW 3916   2.402   4.438   0.963
 1006SOL    HW1 3917   2.466   4.364   0.986
 1006SOL    HW2 3918   2.371   4.482   1.048
 1007SOL     OW 3919   1.361   0.560   3.343
 1007SOL    HW1 3920   1.445   0.600   3.380
 1007SOL    HW2 3921   1.361   0.569   3.243
 1008SOL     OW 3922   2.766   2.311   4.207
 1008SOL    HW1 3923   2.790   2.294   4.303
 1008SOL    HW2 3924   2.730   2.404   4.198
 1009SOL     OW 3925   2.165   5.666   5.274
 1009SOL    HW1 3926   2.204   5.597   5.214
 1009SOL    HW2 3927   2.143   5.625   5.363
 1010SOL     OW 3928   3.878   0.752   6.729
 1010SOL    HW1 3929   3.894   0.667   6.679
 1010SOL    HW2 3930   3.898   0.830   6.670
 1011SOL     OW 3931   3.264   5.878   4.124
 1011SOL    HW1 3932   3.166   5.884   4.139
 1011SOL    HW2 3933   3.291   5.783   4.110
 1012SOL     OW 3934   3.973   5.702   6.867
 1012SOL    HW1 3935   4.037   5.773   6.837
 1012SOL    HW2 3936   3.921   5.736   6.946
 1013SOL     OW 3937   6.980   1.272   1.221
 1013SOL    HW1 3938   6.941   1.187   1.185
 1013SOL    HW2 3939   6.996   1.262   1.319
 1014SOL     OW 3940   4.854   0.727   6.478
 1014SOL    HW1 3941   4.828   0.775   6.394
 1014SOL    HW2 3942   4.888   0.636   6.454
 1015SOL     OW 3943   3.110   6.351   4.486
 1015SOL    HW1 3944   3.101   6.270   4.545
 1015SOL    HW2 3945   3.206   6.362   4.460
 1016SOL     OW 3946   4.838   2.615   1.699
 1016SOL    HW1 3947   4.844   2.684   1.771
 1016SOL    HW2 3948   4.743   2.608   1.667
 1017SOL     OW 3949   4.831   1.819   6.873
 1017SOL    HW1 3950   4.759   1.752   6.888
 1017SOL    HW2 3951   4.837   1.841   6.776
 1018SOL     OW 3952   1.545   3.045   1.921
 1018SOL    HW1 3953   1.546   3.136   1.881
 1018SOL    HW2 3954   1.541   3.051   2.020
 1019SOL     OW 3955   6.160   0.658   0.471
 1019SOL    HW1 3956   6.130   0.730   0.408
 1019SOL    HW2 3957   6.158   0.693   0.564
 1020SOL     OW 3958   3.455   2.121   1.354
 1020SOL    HW1 3959   3.551   2.132   1.379
 1020SOL    HW2 3960   3.431   2.024   1.354
 1021SOL     OW 3961   6.545   1.881   0.872
 1021SOL    HW1 3962   6.642   1.863   0.858
 1021SOL    HW2 3963   6.503   1.913   0.787
 1022SOL     OW 3964   3.575   2.631   0.070
 1022SOL    HW1 3965   3.631   2.623   0.152
 1022SOL    HW2 3966   3.632   2.659   7.020
 1023SOL     OW 3967   5.839   1.333   4.241
 1023SOL    HW1 3968   5.903   1.407   4.224
 1023SOL    HW2 3969   5.791   1.349   4.327
 1024SOL     OW 3970   6.241   1.582   3.507
 1024SOL    HW1 3971   6.325   1.593   3.454
 1024SOL    HW2 3972   6.264   1.555   3.601
 1025SOL     OW 3973   3.065   4.393   0.836
 1025SOL    HW1 3974   3.035   4.484   0.866
 1025SOL    HW2 3975   3.014   4.323   0.886
 1026SOL     OW 3976   0.739   3.143   6.500
 1026SOL    HW1 3977   0.714   3.235   6.469
 1026SOL    HW2 3978   0.786   3.149   6.588
 1027SOL     OW 3979   2.548   5.369   2.232
 1027SOL    HW1 3980   2.496   5.432   2.175
 1027SOL    HW2 3981   2.504   5.279   2.231
 1028SOL     OW 3982   1.258   5.987   0.997
 1028SOL    HW1 3983   1.198   5.999   0.918
 1028SOL    HW2 3984   1.353   5.984   0.967
 1029SOL     OW 3985   3.222   0.255   5.320
 1029SOL    HW1 3986   3.277   0.313   5.260
 1029SOL    HW2 3987   3.189   0.309   5.398
 1030SOL     OW 3988   3.458   4.204   5.229
 1030SOL    HW1 3989   3.360   4.182   5.230
 1030SOL    HW2 3990   3.507   4.131   5.181
 1031SOL     OW 3991   1.999   5.408   1.533
 1031SOL    HW1 3992   2.075   5.399   1.469
 1031SOL    HW2 3993   2.003   5.333   1.600
 1032SOL     OW 3994   1.711   0.956   4.518
 1032SOL    HW1 3995   1.797   0.911   4.543
 1032SOL    HW2 3996   1.697   0.949   4.419
 1033SOL     OW 3997   2.549   5.774   3.521
 1033SOL    HW1 3998   2.497   5.842   3.469
 1033SOL    HW2 3999   2.542   5.795   3.619
 1034SOL     OW 4000   1.754   6.618   2.592
 1034SOL    HW1 4001   1.827   6.649   2.531
 1034SOL    HW2 4002   1.779   6.530   2.632
 1035SOL     OW 4003   3.004   0.718   4.000
 1035SOL    HW1 4004   2.919   0.720   3.947
 1035SOL    HW2 4005   2.995   0.777   4.080
 1036SOL     OW 4006   3.920   6.881   6.326
 1036SOL    HW1 4007   4.019   6.876   6.311
 1036SOL    HW2 4008   3.874   6.813   6.269
 1037SOL     OW 4009   2.812   1.831   6.319
 1037SOL    HW1 4010   2.738   1.768   6.343
 1037SOL    HW2 4011   2.849   1.873   6.402
 1038SOL     OW 4012   2.949   1.483   5.122
 1038SOL    HW1 4013   2.971   1.556   5.058
 1038SOL    HW2 4014   2.871   1.510   5.179
 1039SOL     OW 4015   4.280   1.548   3.789
 1039SOL    HW1 4016   4.271   1.647   3.802
 1039SOL    HW2 4017   4.261   1.525   3.694
 1040SOL     OW 4018   5.985   3.506   4.328
 1040SOL    HW1 4019   5.989   3.573   4.254
 1040SOL    HW2 4020   6.057   3.438   4.316
 1041SOL     OW 4021   1.675   6.827   4.191
 1041SOL    HW1 4022   1.708   6.759   4.257
 1041SOL    HW2 4023   1.752   6.881   4.157
 1042SOL     OW 4024   4.622   3.943   1.110
 1042SOL    HW1 4025   4.621   3.843   1.110
 1042SOL    HW2 4026   4.619   3.976   1.205
 1043SOL     OW 4027   3.504   6.956   6.617
 1043SOL    HW1 4028   3.511   6.899   6.535
 1043SOL    HW2 4029   3.570   6.924   6.685
 1044SOL     OW 4030   3.534   4.164   1.955
 1044SOL    HW1 4031   3.536   4.226   2.033
 1044SOL    HW2 4032   3.560   4.214   1.872
 1045SOL     OW 4033   4.001   1.539   3.395
 1045SOL    HW1 4034   3.935   1.586   3.453
 1045SOL    HW2 4035   3.952   1.477   3.333
 1046SOL     OW 4036   3.946   1.191   2.154
 1046SOL    HW1 4037   4.041   1.218   2.135
 1046SOL    HW2 4038   3.887   1.271   2.149
 1047SOL     OW 4039   0.164   5.281   1.946
 1047SOL    HW1 4040   0.210   5.354   1.894
 1047SOL    HW2 4041   0.088   5.246   1.892
 1048SOL     OW 4042   6.403   4.721   5.383
 1048SOL    HW1 4043   6.405   4.717   5.483
 1048SOL    HW2 4044   6.322   4.771   5.353
 1049SOL     OW 4045   0.488   3.401   5.003
 1049SOL    HW1 4046   0.550   3.365   5.073
 1049SOL    HW2 4047   0.484   3.501   5.012
 1050SOL     OW 4048   3.338   0.525   7.021
 1050SOL    HW1 4049   3.343   0.625   7.010
 1050SOL    HW2 4050   3.379   0.500   0.081
 1051SOL     OW 4051   4.683   5.107   2.269
 1051SOL    HW1 4052   4.667   5.204   2.288
 1051SOL    HW2 4053   4.711   5.061   2.353
 1052SOL     OW 4054   3.453   6.974   4.244
 1052SOL    HW1 4055   3.507   0.031   4.245
 1052SOL    HW2 4056   3.367   6.989   4.293
 1053SOL     OW 4057   3.907   4.875   3.346
 1053SOL    HW1 4058   3.863   4.910   3.428
 1053SOL    HW2 4059   3.881   4.932   3.267
 1054SOL     OW 4060   3.624   6.268   4.088
 1054SOL    HW1 4061   3.633   6.222   4.177
 1054SOL    HW2 4062   3.594   6.202   4.019
 1055SOL     OW 4063   4.674   5.394   4.159
 1055SOL    HW1 4064   4.579   5.422   4.153
 1055SOL    HW2 4065   4.704   5.358   4.070
 1056SOL     OW 4066   1.719   5.802   5.591
 1056SOL    HW1 4067   1.660   5.730   5.552
 1056SOL    HW2 4068   1.800   5.813   5.533
 1057SOL     OW 4069   3.765   4.185   1.126
 1057SOL    HW1 4070   3.773   4.109   1.190
 1057SOL    HW2 4071   3.855   4.224   1.108
 1058SOL     OW 4072   3.467   0.224   1.635
 1058SOL    HW1 4073   3.424   0.302   1.589
 1058SOL    HW2 4074   3.434   0.139   1.594
 1059SOL     OW 4075   3.354   1.147   0.841
 1059SOL    HW1 4076   3.261   1.181   0.827
 1059SOL    HW2 4077   3.365   1.060   0.792
 1060SOL     OW 4078   2.322   2.233   4.376
 1060SOL    HW1 4079   2.289   2.249   4.283
 1060SOL    HW2 4080   2.268   2.161   4.419
 1061SOL     OW 4081   3.012   6.134   1.419
 1061SOL    HW1 4082   3.101   6.171   1.394
 1061SOL    HW2 4083   2.962   6.107   1.336
 1062SOL     OW 4084   4.856   4.392   5.257
 1062SOL    HW1 4085   4.766   4.350   5.246
 1062SOL    HW2 4086   4.848   4.491   5.248
 1063SOL     OW 4087   1.680   3.312   5.542
 1063SOL    HW1 4088   1.664   3.249   5.618
 1063SOL    HW2 4089   1.731   3.265   5.470
 1064SOL     OW 4090   0.421   3.550   1.869
 1064SOL    HW1 4091   0.434   3.575   1.965
 1064SOL    HW2 4092   0.415   3.634   1.814
 1065SOL     OW 4093   4.695   5.152   5.456
 1065SOL    HW1 4094   4.788   5.188   5.445
 1065SOL    HW2 4095   4.643   5.213   5.516
 1066SOL     OW 4096   4.163   0.229   3.571
 1066SOL    HW1 4097   4.086   0.267   3.519
 1066SOL    HW2 4098   4.247   0.275   3.543
 1067SOL     OW 4099   2.430   3.614   0.781
 1067SOL    HW1 4100   2.356   3.627   0.716
 1067SOL    HW2 4101   2.395   3.570   0.863
 1068SOL     OW 4102   0.610   4.218   0.807
 1068SOL    HW1 4103   0.546   4.176   0.743
 1068SOL    HW2 4104   0.683   4.154   0.828
 1069SOL     OW 4105   3.782   3.757   1.603
 1069SOL    HW1 4106   3.740   3.842   1.634
 1069SOL    HW2 4107   3.741   3.729   1.516
 1070SOL     OW 4108   2.273   0.244   0.554
 1070SOL    HW1 4109   2.242   0.167   0.610
 1070SOL    HW2 4110   2.262   0.329   0.606
 1071SOL     OW 4111   4.382   6.204   3.699
 1071SOL    HW1 4112   4.338   6.187   3.611
 1071SOL    HW2 4113   4.314   6.196   3.772
 1072SOL     OW 4114   3.777   5.575   2.834
 1072SOL    HW1 4115   3.712   5.525   2.777
 1072SOL    HW2 4116   3.749   5.670   2.841
 1073SOL     OW 4117   2.932   5.336   3.250
 1073SOL    HW1 4118   2.989   5.265   3.207
 1073SOL    HW2 4119   2.913   5.408   3.184
 1074SOL     OW 4120   1.705   5.078   2.090
 1074SOL    HW1 4121   1.779   5.011   2.083
 1074SOL    HW2 4122   1.621   5.039   2.052
 1075SOL     OW 4123   0.584   3.924   3.013
 1075SOL    HW1 4124   0.649   3.929   2.937
 1075SOL    HW2 4125   0.604   3.844   3.069
 1076SOL     OW 4126   0.363   4.173   2.826
 1076SOL    HW1 4127   0.320   4.243   2.884
 1076SOL    HW2 4128   0.400   4.217   2.744
 1077SOL     OW 4129   5.184   1.333   1.070
 1077SOL    HW1 4130   5.109   1.272   1.043
 1077SOL    HW2 4131   5.234   1.292   1.146
 1078SOL     OW 4132   0.890   3.453   1.224
 1078SOL    HW1 4133   0.984   3.468   1.194
 1078SOL    HW2 4134   0.884   3.468   1.323
 1079SOL     OW 4135   2.479   5.626   3.125
 1079SOL    HW1 4136   2.514   5.562   3.193
 1079SOL    HW2 4137   2.384   5.601   3.101
 1080SOL     OW 4138   1.431   5.876   4.355
 1080SOL    HW1 4139   1.453   5.958   4.407
 1080SOL    HW2 4140   1.493   5.802   4.381
 1081SOL     OW 4141   1.281   1.678   0.507
 1081SOL    HW1 4142   1.364   1.729   0.483
 1081SOL    HW2 4143   1.204   1.740   0.511
 1082SOL     OW 4144   2.317   6.462   0.279
 1082SOL    HW1 4145   2.317   6.523   0.358
 1082SOL    HW2 4146   2.224   6.454   0.243
 1083SOL     OW 4147   3.809   2.336   1.625
 1083SOL    HW1 4148   3.762   2.329   1.713
 1083SOL    HW2 4149   3.802   2.430   1.591
 1084SOL     OW 4150   6.512   3.612   0.403
 1084SOL    HW1 4151   6.611   3.606   0.408
 1084SOL    HW2 4152   6.472   3.556   0.476
 1085SOL     OW 4153   1.405   4.335   2.950
 1085SOL    HW1 4154   1.348   4.317   2.870
 1085SOL    HW2 4155   1.422   4.250   2.999
 1086SOL     OW 4156   4.449   4.933   2.362
 1086SOL    HW1 4157   4.353   4.945   2.335
 1086SOL    HW2 4158   4.504   4.920   2.279
 1087SOL     OW 4159   3.649   3.527   5.053
 1087SOL    HW1 4160   3.635   3.522   5.152
 1087SOL    HW2 4161   3.659   3.435   5.015
 1088SOL     OW 4162   5.893   4.735   3.076
 1088SOL    HW1 4163   5.899   4.643   3.036
 1088SOL    HW2 4164   5.798   4.766   3.072
 1089SOL     OW 4165   6.207   0.052   3.284
 1089SOL    HW1 4166   6.139   7.008   3.266
 1089SOL    HW2 4167   6.266   0.062   3.204
 1090SOL     OW 4168   1.449   1.883   5.583
 1090SOL    HW1 4169   1.469   1.864   5.679
 1090SOL    HW2 4170   1.368   1.942   5.577
 1091SOL     OW 4171   0.969   2.648   5.595
 1091SOL    HW1 4172   1.033   2.591   5.543
 1091SOL    HW2 4173   0.876   2.618   5.578
 1092SOL     OW 4174   1.985   4.603   1.228
 1092SOL    HW1 4175   1.931   4.600   1.143
 1092SOL    HW2 4176   1.924   4.618   1.306
 1093SOL     OW 4177   0.273   2.242   2.406
 1093SOL    HW1 4178   0.188   2.198   2.436
 1093SOL    HW2 4179   0.251   2.329   2.362
 1094SOL     OW 4180   0.573   6.449   2.261
 1094SOL    HW1 4181   0.604   6.354   2.251
 1094SOL    HW2 4182   0.480   6.449   2.298
 1095SOL     OW 4183   5.985   3.539   5.860
 1095SOL    HW1 4184   6.019   3.447   5.880
 1095SOL    HW2 4185   5.976   3.550   5.761
 1096SOL     OW 4186   3.582   3.915   1.799
 1096SOL    HW1 4187   3.530   3.845   1.847
 1096SOL    HW2 4188   3.575   4.002   1.849
 1097SOL     OW 4189   1.734   4.726   5.244
 1097SOL    HW1 4190   1.815   4.708   5.189
 1097SOL    HW2 4191   1.714   4.824   5.245
 1098SOL     OW 4192   4.235   1.193   3.097
 1098SOL    HW1 4193   4.231   1.132   3.176
 1098SOL    HW2 4194   4.292   1.152   3.026
 1099SOL     OW 4195   3.704   1.265   2.760
 1099SOL    HW1 4196   3.786   1.261   2.703
 1099SOL    HW2 4197   3.722   1.223   2.848
 1100SOL     OW 4198   0.021   0.776   0.183
 1100SOL    HW1 4199   0.085   0.769   0.259
 1100SOL    HW2 4200   0.068   0.810   0.102
 1101SOL     OW 4201   5.835   3.030   0.886
 1101SOL    HW1 4202   5.776   3.110   0.893
 1101SOL    HW2 4203   5.902   3.031   0.961
 1102SOL     OW 4204   0.270   4.166   3.857
 1102SOL    HW1 4205   0.257   4.262   3.833
 1102SOL    HW2 4206   0.180   4.122   3.869
 1103SOL     OW 4207   0.547   3.310   1.043
 1103SOL    HW1 4208   0.449   3.294   1.061
 1103SOL    HW2 4209   0.586   3.229   1.000
 1104SOL     OW 4210   2.631   5.226   5.947
 1104SOL    HW1 4211   2.696   5.271   6.008
 1104SOL    HW2 4212   2.538   5.242   5.978
 1105SOL     OW 4213   4.122   5.228   0.504
 1105SOL    HW1 4214   4.165   5.270   0.425
 1105SOL    HW2 4215   4.104   5.298   0.573
 1106SOL     OW 4216   1.410   0.643   5.889
 1106SOL    HW1 4217   1.338   0.615   5.825
 1106SOL    HW2 4218   1.468   0.565   5.911
 1107SOL     OW 4219   0.737   6.672   1.423
 1107SOL    HW1 4220   0.737   6.771   1.434
 1107SOL    HW2 4221   0.651   6.634   1.459
 1108SOL     OW 4222   0.936   0.976   6.515
 1108SOL    HW1 4223   0.874   1.009   6.444
 1108SOL    HW2 4224   0.965   1.052   6.574
 1109SOL     OW 4225   5.060   1.183   3.635
 1109SOL    HW1 4226   5.006   1.125   3.575
 1109SOL    HW2 4227   5.035   1.164   3.730
 1110SOL     OW 4228   3.128   2.853   1.776
 1110SOL    HW1 4229   3.069   2.782   1.738
 1110SOL    HW2 4230   3.216   2.813   1.801
 1111SOL     OW 4231   5.339   7.018   6.647
 1111SOL    HW1 4232   5.358   6.971   6.560
 1111SOL    HW2 4233   5.383   0.080   6.647
 1112SOL     OW 4234   0.690   1.302   3.100
 1112SOL    HW1 4235   0.636   1.219   3.116
 1112SOL    HW2 4236   0.786   1.283   3.121
 1113SOL     OW 4237   5.834   3.985   2.053
 1113SOL    HW1 4238   5.860   3.904   2.106
 1113SOL    HW2 4239   5.735   3.996   2.055
 1114SOL     OW 4240   6.247   1.441   5.790
 1114SOL    HW1 4241   6.228   1.491   5.875
 1114SOL    HW2 4242   6.201   1.352   5.793
 1115SOL     OW 4243   3.200   4.144   0.506
 1115SOL    HW1 4244   3.160   4.055   0.526
 1115SOL    HW2 4245   3.291   4.132   0.467
 1116SOL     OW 4246   3.707   6.243   6.046
 1116SOL    HW1 4247   3.717   6.145   6.027
 1116SOL    HW2 4248   3.751   6.296   5.973
 1117SOL     OW 4249   2.405   3.163   0.446
 1117SOL    HW1 4250   2.389   3.154   0.544
 1117SOL    HW2 4251   2.371   3.252   0.415
 1118SOL     OW 4252   1.517   3.368   2.785
 1118SOL    HW1 4253   1.522   3.373   2.885
 1118SOL    HW2 4254   1.608   3.346   2.749
 1119SOL     OW 4255   2.849   3.505   2.546
 1119SOL    HW1 4256   2.930   3.562   2.531
 1119SOL    HW2 4257   2.777   3.533   2.482
 1120SOL     OW 4258   5.158   0.869   4.877
 1120SOL    HW1 4259   5.237   0.862   4.938
 1120SOL    HW2 4260   5.180   0.826   4.789
 1121SOL     OW 4261   4.899   3.176   2.352
 1121SOL    HW1 4262   4.873   3.270   2.371
 1121SOL    HW2 4263   4.924   3.166   2.256
 1122SOL     OW 4264   4.628   5.162   0.581
 1122SOL    HW1 4265   4.602   5.143   0.676
 1122SOL    HW2 4266   4.567   5.232   0.543
 1123SOL     OW 4267   3.837   0.707   2.120
 1123SOL    HW1 4268   3.829   0.625   2.064
 1123SOL    HW2 4269   3.863   0.785   2.063
 1124SOL     OW 4270   0.772   4.901   4.673
 1124SOL    HW1 4271   0.779   4.859   4.764
 1124SOL    HW2 4272   0.772   4.829   4.603
 1125SOL     OW 4273   3.420   3.358   4.881
 1125SOL    HW1 4274   3.388   3.300   4.806
 1125SOL    HW2 4275   3.498   3.314   4.926
 1126SOL     OW 4276   6.279   0.105   2.492
 1126SOL    HW1 4277   6.332   0.155   2.423
 1126SOL    HW2 4278   6.342   0.063   2.558
 1127SOL     OW 4279   1.387   5.264   6.289
 1127SOL    HW1 4280   1.296   5.222   6.300
 1127SOL    HW2 4281   1.446   5.232   6.363
 1128SOL     OW 4282   2.450   1.790   3.969
 1128SOL    HW1 4283   2.526   1.725   3.964
 1128SOL    HW2 4284   2.451   1.835   4.059
 1129SOL     OW 4285   4.929   0.030   6.631
 1129SOL    HW1 4286   4.917   0.127   6.653
 1129SOL    HW2 4287   4.970   7.010   6.710
 1130SOL     OW 4288   6.873   5.000   5.965
 1130SOL    HW1 4289   6.915   4.927   6.019
 1130SOL    HW2 4290   6.840   5.072   6.026
 1131SOL     OW 4291   0.622   5.353   5.724
 1131SOL    HW1 4292   0.625   5.313   5.633
 1131SOL    HW2 4293   0.528   5.351   5.758
 1132SOL     OW 4294   4.981   0.677   5.026
 1132SOL    HW1 4295   5.027   0.738   4.961
 1132SOL    HW2 4296   4.926   0.610   4.976
 1133SOL     OW 4297   6.925   2.629   0.631
 1133SOL    HW1 4298   7.001   2.594   0.687
 1133SOL    HW2 4299   6.846   2.646   0.690
 1134SOL     OW 4300   6.665   2.218   6.229
 1134SOL    HW1 4301   6.627   2.150   6.293
 1134SOL    HW2 4302   6.705   2.293   6.281
 1135SOL     OW 4303   5.650   1.754   3.655
 1135SOL    HW1 4304   5.611   1.845   3.641
 1135SOL    HW2 4305   5.611   1.714   3.738
 1136SOL     OW 4306   3.876   5.409   4.349
 1136SOL    HW1 4307   3.873   5.390   4.447
 1136SOL    HW2 4308   3.910   5.328   4.301
 1137SOL     OW 4309   1.504   0.834   6.073
 1137SOL    HW1 4310   1.439   0.816   6.148
 1137SOL    HW2 4311   1.486   0.770   5.999
 1138SOL     OW 4312   0.318   4.268   5.890
 1138SOL    HW1 4313   0.235   4.244   5.839
 1138SOL    HW2 4314   0.383   4.312   5.828
 1139SOL     OW 4315   0.952   6.338   1.350
 1139SOL    HW1 4316   0.959   6.435   1.328
 1139SOL    HW2 4317   0.998   6.284   1.279
 1140SOL     OW 4318   3.716   1.459   3.662
 1140SOL    HW1 4319   3.792   1.451   3.726
 1140SOL    HW2 4320   3.743   1.518   3.586
 1141SOL     OW 4321   6.407   5.860   5.746
 1141SOL    HW1 4322   6.478   5.834   5.682
 1141SOL    HW2 4323   6.445   5.868   5.838
 1142SOL     OW 4324   5.851   1.051   4.162
 1142SOL    HW1 4325   5.782   1.048   4.089
 1142SOL    HW2 4326   5.861   1.145   4.195
 1143SOL     OW 4327   3.944   1.856   2.447
 1143SOL    HW1 4328   3.849   1.842   2.475
 1143SOL    HW2 4329   3.948   1.865   2.347
 1144SOL     OW 4330   1.663   0.097   5.787
 1144SOL    HW1 4331   1.717   0.155   5.848
 1144SOL    HW2 4332   1.719   0.021   5.755
 1145SOL     OW 4333   1.698   4.950   5.110
 1145SOL    HW1 4334   1.616   4.901   5.083
 1145SOL    HW2 4335   1.774   4.925   5.050
 1146SOL     OW 4336   6.370   2.204   0.821
 1146SOL    HW1 4337   6.397   2.123   0.769
 1146SOL    HW2 4338   6.423   2.208   0.906
 1147SOL     OW 4339   6.581   2.741   1.900
 1147SOL    HW1 4340   6.589   2.737   1.800
 1147SOL    HW2 4341   6.485   2.741   1.926
 1148SOL     OW 4342   4.531   0.800   6.840
 1148SOL    HW1 4343   4.614   0.829   6.792
 1148SOL    HW2 4344   4.512   0.704   6.820
 1149SOL     OW 4345   6.723   2.860   2.986
 1149SOL    HW1 4346   6.790   2.846   3.059
 1149SOL    HW2 4347   6.770   2.865   2.898
 1150SOL     OW 4348   0.672   4.991   5.709
 1150SOL    HW1 4349   0.689   5.030   5.619
 1150SOL    HW2 4350   0.751   4.938   5.738
 1151SOL     OW 4351   4.212   5.624   0.037
 1151SOL    HW1 4352   4.299   5.641   7.018
 1151SOL    HW2 4353   4.137   5.640   7.000
 1152SOL     OW 4354   0.266   1.048   4.516
 1152SOL    HW1 4355   0.347   1.047   4.574
 1152SOL    HW2 4356   0.209   1.126   4.541
 1153SOL     OW 4357   2.622   5.008   2.531
 1153SOL    HW1 4358   2.707   5.049   2.565
 1153SOL    HW2 4359   2.643   4.918   2.492
 1154SOL     OW 4360   1.743   4.450   1.687
 1154SOL    HW1 4361   1.678   4.426   1.759
 1154SOL    HW2 4362   1.707   4.525   1.632
 1155SOL     OW 4363   4.021   6.242   2.123
 1155SOL    HW1 4364   4.032   6.217   2.027
 1155SOL    HW2 4365   3.935   6.206   2.158
 1156SOL     OW 4366   1.523   1.192   4.173
 1156SOL    HW1 4367   1.587   1.206   4.097
 1156SOL    HW2 4368   1.434   1.232   4.150
 1157SOL     OW 4369   0.734   3.067   4.555
 1157SOL    HW1 4370   0.665   3.082   4.484
 1157SOL    HW2 4371   0.698   3.099   4.643
 1158SOL     OW 4372   4.506   5.833   6.541
 1158SOL    HW1 4373   4.593   5.826   6.589
 1158SOL    HW2 4374   4.521   5.865   6.448
 1159SOL     OW 4375   5.161   5.276   2.964
 1159SOL    HW1 4376   5.225   5.314   3.030
 1159SOL    HW2 4377   5.126   5.349   2.906
 1160SOL     OW 4378   2.336   2.777   0.466
 1160SOL    HW1 4379   2.429   2.812   0.467
 1160SOL    HW2 4380   2.322   2.717   0.545
 1161SOL     OW 4381   4.115   0.362   4.599
 1161SOL    HW1 4382   4.061   0.391   4.520
 1161SOL    HW2 4383   4.055   0.342   4.675
 1162SOL     OW 4384   3.903   4.632   1.750
 1162SOL    HW1 4385   3.934   4.540   1.726
 1162SOL    HW2 4386   3.950   4.662   1.833
 1163SOL     OW 4387   4.682   1.763   2.169
 1163SOL    HW1 4388   4.590   1.750   2.207
 1163SOL    HW2 4389   4.689   1.856   2.132
 1164SOL     OW 4390   5.665   3.469   4.140
 1164SOL    HW1 4391   5.702   3.562   4.138
 1164SOL    HW2 4392   5.634   3.443   4.049
 1165SOL     OW 4393   1.455   4.516   2.012
 1165SOL    HW1 4394   1.541   4.542   2.056
 1165SOL    HW2 4395   1.456   4.543   1.916
 1166SOL     OW 4396   3.746   2.716   6.865
 1166SOL    HW1 4397   3.813   2.710   6.939
 1166SOL    HW2 4398   3.788   2.759   6.786
 1167SOL     OW 4399   4.202   1.882   4.991
 1167SOL    HW1 4400   4.248   1.826   5.060
 1167SOL    HW2 4401   4.262   1.957   4.963
 1168SOL     OW 4402   6.397   6.488   3.933
 1168SOL    HW1 4403   6.493   6.509   3.920
 1168SOL    HW2 4404   6.342   6.570   3.918
 1169SOL     OW 4405   0.994   4.144   1.255
 1169SOL    HW1 4406   0.990   4.227   1.309
 1169SOL    HW2 4407   0.926   4.079   1.288
 1170SOL     OW 4408   2.924   0.853   1.000
 1170SOL    HW1 4409   2.968   0.923   1.056
 1170SOL    HW2 4410   2.963   0.764   1.021
 1171SOL     OW 4411   2.765   0.185   0.421
 1171SOL    HW1 4412   2.753   0.119   0.495
 1171SOL    HW2 4413   2.737   0.144   0.334
 1172SOL     OW 4414   3.031   3.233   4.765
 1172SOL    HW1 4415   3.072   3.142   4.770
 1172SOL    HW2 4416   3.096   3.301   4.797
 1173SOL     OW 4417   5.188   0.730   6.558
 1173SOL    HW1 4418   5.221   0.782   6.479
 1173SOL    HW2 4419   5.190   0.789   6.639
 1174SOL     OW 4420   3.459   6.349   0.672
 1174SOL    HW1 4421   3.416   6.408   0.603
 1174SOL    HW2 4422   3.394   6.331   0.746
 1175SOL     OW 4423   0.008   5.214   4.924
 1175SOL    HW1 4424   0.001   5.306   4.884
 1175SOL    HW2 4425   6.965   5.203   4.995
 1176SOL     OW 4426   6.370   3.736   0.859
 1176SOL    HW1 4427   6.342   3.832   0.858
 1176SOL    HW2 4428   6.305   3.682   0.913
 1177SOL     OW 4429   6.238   3.138   0.053
 1177SOL    HW1 4430   6.293   3.177   0.126
 1177SOL    HW2 4431   6.166   3.203   0.027
 1178SOL     OW 4432   5.416   4.034   1.692
 1178SOL    HW1 4433   5.421   3.974   1.772
 1178SOL    HW2 4434   5.332   4.087   1.695
 1179SOL     OW 4435   2.288   5.765   6.276
 1179SOL    HW1 4436   2.363   5.725   6.329
 1179SOL    HW2 4437   2.239   5.692   6.228
 1180SOL     OW 4438   2.109   1.211   3.701
 1180SOL    HW1 4439   2.096   1.309   3.718
 1180SOL    HW2 4440   2.122   1.164   3.789
 1181SOL     OW 4441   1.928   3.994   2.589
 1181SOL    HW1 4442   2.023   4.008   2.562
 1181SOL    HW2 4443   1.869   4.051   2.533
 1182SOL     OW 4444   1.128   3.702   2.922
 1182SOL    HW1 4445   1.223   3.691   2.894
 1182SOL    HW2 4446   1.100   3.623   2.977
 1183SOL     OW 4447   4.074   5.446   0.645
 1183SOL    HW1 4448   4.114   5.538   0.648
 1183SOL    HW2 4449   3.997   5.445   0.582
 1184SOL     OW 4450   2.922   3.161   5.788
 1184SOL    HW1 4451   2.848   3.143   5.723
 1184SOL    HW2 4452   2.984   3.229   5.750
 1185SOL     OW 4453   2.492   1.503   0.280
 1185SOL    HW1 4454   2.562   1.446   0.322
 1185SOL    HW2 4455   2.402   1.479   0.316
 1186SOL     OW 4456   3.800   1.318   5.437
 1186SOL    HW1 4457   3.779   1.359   5.526
 1186SOL    HW2 4458   3.844   1.229   5.450
 1187SOL     OW 4459   0.704   0.843   5.671
 1187SOL    HW1 4460   0.686   0.941   5.678
 1187SOL    HW2 4461   0.677   0.811   5.580
 1188SOL     OW 4462   1.625   0.071   4.803
 1188SOL    HW1 4463   1.674   7.013   4.823
 1188SOL    HW2 4464   1.599   0.115   4.889
 1189SOL     OW 4465   6.861   0.451   1.134
 1189SOL    HW1 4466   6.762   0.450   1.119
 1189SOL    HW2 4467   6.908   0.442   1.047
 1190SOL     OW 4468   4.121   4.862   2.781
 1190SOL    HW1 4469   4.135   4.764   2.773
 1190SOL    HW2 4470   4.154   4.908   2.699
 1191SOL     OW 4471   2.705   5.080   0.759
 1191SOL    HW1 4472   2.697   5.038   0.849
 1191SOL    HW2 4473   2.783   5.142   0.757
 1192SOL     OW 4474   4.550   5.404   2.165
 1192SOL    HW1 4475   4.505   5.476   2.112
 1192SOL    HW2 4476   4.482   5.353   2.218
 1193SOL     OW 4477   3.872   6.943   3.912
 1193SOL    HW1 4478   3.897   6.858   3.958
 1193SOL    HW2 4479   3.950   6.976   3.859
 1194SOL     OW 4480   6.502   0.958   1.355
 1194SOL    HW1 4481   6.594   0.988   1.330
 1194SOL    HW2 4482   6.494   0.860   1.339
 1195SOL     OW 4483   3.296   6.481   0.219
 1195SOL    HW1 4484   3.245   6.439   0.145
 1195SOL    HW2 4485   3.383   6.434   0.231
 1196SOL     OW 4486   0.479   5.410   3.162
 1196SOL    HW1 4487   0.531   5.357   3.095
 1196SOL    HW2 4488   0.408   5.462   3.115
 1197SOL     OW 4489   3.003   5.068   6.414
 1197SOL    HW1 4490   2.959   5.002   6.474
 1197SOL    HW2 4491   3.102   5.062   6.425
 1198SOL     OW 4492   3.409   1.556   2.645
 1198SOL    HW1 4493   3.450   1.626   2.586
 1198SOL    HW2 4494   3.443   1.466   2.618
 1199SOL     OW 4495   2.913   3.702   3.331
 1199SOL    HW1 4496   2.844   3.767   3.363
 1199SOL    HW2 4497   2.936   3.722   3.235
 1200SOL     OW 4498   3.736   3.320   0.681
 1200SOL    HW1 4499   3.756   3.401   0.737
 1200SOL    HW2 4500   3.794   3.245   0.710
 1201SOL     OW 4501   1.254   0.784   4.513
 1201SOL    HW1 4502   1.228   0.711   4.576
 1201SOL    HW2 4503   1.301   0.744   4.434
 1202SOL     OW 4504   5.601   0.258   4.800
 1202SOL    HW1 4505   5.597   0.165   4.762
 1202SOL    HW2 4506   5.696   0.290   4.799
 1203SOL     OW 4507   6.266   6.650   1.643
 1203SOL    HW1 4508   6.309   6.664   1.733
 1203SOL    HW2 4509   6.338   6.635   1.575
 1204SOL     OW 4510   1.784   6.357   6.561
 1204SOL    HW1 4511   1.751   6.450   6.549
 1204SOL    HW2 4512   1.706   6.294   6.568
 1205SOL     OW 4513   1.030   2.174   5.110
 1205SOL    HW1 4514   0.934   2.152   5.125
 1205SOL    HW2 4515   1.050   2.264   5.149
 1206SOL     OW 4516   0.738   1.494   4.420
 1206SOL    HW1 4517   0.738   1.578   4.366
 1206SOL    HW2 4518   0.711   1.514   4.514
 1207SOL     OW 4519   5.970   6.414   6.319
 1207SOL    HW1 4520   6.019   6.406   6.232
 1207SOL    HW2 4521   6.019   6.478   6.379
 1208SOL     OW 4522   3.260   4.081   3.379
 1208SOL    HW1 4523   3.194   4.127   3.320
 1208SOL    HW2 4524   3.213   4.020   3.442
 1209SOL     OW 4525   6.783   4.145   4.862
 1209SOL    HW1 4526   6.838   4.194   4.794
 1209SOL    HW2 4527   6.805   4.047   4.857
 1210SOL     OW 4528   3.321   0.174   2.308
 1210SOL    HW1 4529   3.413   0.149   2.276
 1210SOL    HW2 4530   3.256   0.166   2.232
 1211SOL     OW 4531   1.545   3.073   3.348
 1211SOL    HW1 4532   1.446   3.062   3.355
 1211SOL    HW2 4533   1.576   3.141   3.415
 1212SOL     OW 4534   1.613   3.587   3.866
 1212SOL    HW1 4535   1.709   3.582   3.894
 1212SOL    HW2 4536   1.609   3.600   3.767
 1213SOL     OW 4537   5.740   2.263   5.408
 1213SOL    HW1 4538   5.734   2.269   5.507
 1213SOL    HW2 4539   5.666   2.317   5.367
 1214SOL     OW 4540   1.446   2.330   2.576
 1214SOL    HW1 4541   1.535   2.375   2.571
 1214SOL    HW2 4542   1.398   2.342   2.489
 1215SOL     OW 4543   0.014   5.019   2.243
 1215SOL    HW1 4544   0.080   5.094   2.247
 1215SOL    HW2 4545   6.996   5.019   2.154
 1216SOL     OW 4546   2.709   0.828   1.719
 1216SOL    HW1 4547   2.760   0.744   1.738
 1216SOL    HW2 4548   2.619   0.822   1.761
 1217SOL     OW 4549   2.035   1.405   2.860
 1217SOL    HW1 4550   1.976   1.335   2.900
 1217SOL    HW2 4551   2.120   1.410   2.913
 1218SOL     OW 4552   0.283   3.303   3.652
 1218SOL    HW1 4553   0.353   3.257   3.707
 1218SOL    HW2 4554   0.258   3.246   3.575
 1219SOL     OW 4555   2.625   5.895   3.787
 1219SOL    HW1 4556   2.610   5.993   3.775
 1219SOL    HW2 4557   2.720   5.873   3.767
 1220SOL     OW 4558   5.847   4.434   2.947
 1220SOL    HW1 4559   5.790   4.353   2.939
 1220SOL    HW2 4560   5.810   4.507   2.889
 1221SOL     OW 4561   4.821   3.704   5.946
 1221SOL    HW1 4562   4.880   3.628   5.973
 1221SOL    HW2 4563   4.876   3.777   5.905
 1222SOL     OW 4564   5.657   4.934   1.796
 1222SOL    HW1 4565   5.707   4.929   1.710
 1222SOL    HW2 4566   5.578   4.994   1.786
 1223SOL     OW 4567   6.211   4.987   5.030
 1223SOL    HW1 4568   6.211   4.975   5.130
 1223SOL    HW2 4569   6.296   4.951   4.992
 1224SOL     OW 4570   4.862   5.004   1.568
 1224SOL    HW1 4571   4.890   5.016   1.663
 1224SOL    HW2 4572   4.877   4.909   1.540
 1225SOL     OW 4573   3.993   1.313   6.646
 1225SOL    HW1 4574   3.917   1.292   6.584
 1225SOL    HW2 4575   4.009   1.234   6.706
 1226SOL     OW 4576   5.375   5.288   1.160
 1226SOL    HW1 4577   5.303   5.336   1.211
 1226SOL    HW2 4578   5.352   5.191   1.152
 1227SOL     OW 4579   4.886   4.569   0.108
 1227SOL    HW1 4580   4.799   4.619   0.106
 1227SOL    HW2 4581   4.868   4.473   0.131
 1228SOL     OW 4582   3.669   4.147   4.423
 1228SOL    HW1 4583   3.630   4.172   4.334
 1228SOL    HW2 4584   3.595   4.120   4.485
 1229SOL     OW 4585   2.729   6.006   2.875
 1229SOL    HW1 4586   2.708   5.990   2.778
 1229SOL    HW2 4587   2.676   5.942   2.931
 1230SOL     OW 4588   5.740   4.898   1.522
 1230SOL    HW1 4589   5.793   4.822   1.561
 1230SOL    HW2 4590   5.803   4.965   1.483
 1231SOL     OW 4591   2.084   1.977   6.182
 1231SOL    HW1 4592   2.146   2.049   6.213
 1231SOL    HW2 4593   2.085   1.902   6.248
 1232SOL     OW 4594   3.032   1.182   5.215
 1232SOL    HW1 4595   2.997   1.221   5.301
 1232SOL    HW2 4596   3.077   1.254   5.162
 1233SOL     OW 4597   0.166   5.792   5.315
 1233SOL    HW1 4598   0.185   5.890   5.328
 1233SOL    HW2 4599   0.141   5.776   5.219
 1234SOL     OW 4600   5.935   4.381   6.768
 1234SOL    HW1 4601   5.909   4.285   6.767
 1234SOL    HW2 4602   6.020   4.392   6.819
 1235SOL     OW 4603   6.584   4.573   1.113
 1235SOL    HW1 4604   6.651   4.639   1.077
 1235SOL    HW2 4605   6.494   4.617   1.119
 1236SOL     OW 4606   1.567   1.410   2.272
 1236SOL    HW1 4607   1.505   1.428   2.195
 1236SOL    HW2 4608   1.535   1.329   2.322
 1237SOL     OW 4609   0.759   6.954   4.673
 1237SOL    HW1 4610   0.852   6.926   4.650
 1237SOL    HW2 4611   0.701   6.873   4.680
 1238SOL     OW 4612   0.744   0.728   4.976
 1238SOL    HW1 4613   0.698   0.645   5.009
 1238SOL    HW2 4614   0.676   0.800   4.963
 1239SOL     OW 4615   5.338   5.364   3.742
 1239SOL    HW1 4616   5.378   5.306   3.672
 1239SOL    HW2 4617   5.340   5.459   3.711
 1240SOL     OW 4618   0.845   3.576   1.485
 1240SOL    HW1 4619   0.898   3.491   1.487
 1240SOL    HW2 4620   0.906   3.653   1.501
 1241SOL     OW 4621   3.912   5.223   5.789
 1241SOL    HW1 4622   3.988   5.191   5.733
 1241SOL    HW2 4623   3.831   5.236   5.731
 1242SOL     OW 4624   2.570   4.659   1.074
 1242SOL    HW1 4625   2.474   4.658   1.049
 1242SOL    HW2 4626   2.622   4.601   1.012
 1243SOL     OW 4627   0.919   3.307   3.489
 1243SOL    HW1 4628   0.909   3.404   3.510
 1243SOL    HW2 4629   0.916   3.254   3.573
 1244SOL     OW 4630   6.247   0.187   5.275
 1244SOL    HW1 4631   6.265   0.276   5.317
 1244SOL    HW2 4632   6.286   0.115   5.333
 1245SOL     OW 4633   4.944   6.373   1.009
 1245SOL    HW1 4634   4.927   6.351   1.105
 1245SOL    HW2 4635   4.941   6.289   0.954
 1246SOL     OW 4636   4.922   1.833   1.092
 1246SOL    HW1 4637   4.980   1.794   1.021
 1246SOL    HW2 4638   4.826   1.814   1.072
 1247SOL     OW 4639   6.673   6.811   3.069
 1247SOL    HW1 4640   6.587   6.793   3.115
 1247SOL    HW2 4641   6.687   6.743   2.996
 1248SOL     OW 4642   1.129   6.414   4.205
 1248SOL    HW1 4643   1.060   6.342   4.198
 1248SOL    HW2 4644   1.219   6.373   4.214
 1249SOL     OW 4645   5.915   5.594   6.645
 1249SOL    HW1 4646   5.992   5.658   6.643
 1249SOL    HW2 4647   5.918   5.538   6.562
 1250SOL     OW 4648   0.537   3.685   5.068
 1250SOL    HW1 4649   0.507   3.780   5.056
 1250SOL    HW2 4650   0.572   3.673   5.160
 1251SOL     OW 4651   3.288   0.487   2.694
 1251SOL    HW1 4652   3.198   0.488   2.738
 1251SOL    HW2 4653   3.277   0.506   2.596
 1252SOL     OW 4654   2.022   5.008   6.568
 1252SOL    HW1 4655   1.996   4.932   6.509
 1252SOL    HW2 4656   2.117   5.033   6.551
 1253SOL     OW 4657   2.972   6.843   0.064
 1253SOL    HW1 4658   2.924   6.895   7.020
 1253SOL    HW2 4659   2.918   6.843   0.148
 1254SOL     OW 4660   6.216   1.461   3.062
 1254SOL    HW1 4661   6.144   1.502   3.119
 1254SOL    HW2 4662   6.291   1.430   3.120
 1255SOL     OW 4663   5.890   1.571   5.745
 1255SOL    HW1 4664   5.943   1.500   5.697
 1255SOL    HW2 4665   5.952   1.626   5.800
 1256SOL     OW 4666   0.199   5.688   4.574
 1256SOL    HW1 4667   0.232   5.739   4.654
 1256SOL    HW2 4668   0.261   5.611   4.557
 1257SOL     OW 4669   0.351   6.328   3.150
 1257SOL    HW1 4670   0.435   6.284   3.182
 1257SOL    HW2 4671   0.274   6.298   3.206
 1258SOL     OW 4672   4.578   6.113   6.445
 1258SOL    HW1 4673   4.566   6.212   6.443
 1258SOL    HW2 4674   4.666   6.091   6.488
 1259SOL     OW 4675   5.171   0.552   5.514
 1259SOL    HW1 4676   5.092   0.545   5.575
 1259SOL    HW2 4677   5.142   0.590   5.426
 1260SOL     OW 4678   2.772   1.301   1.158
 1260SOL    HW1 4679   2.801   1.207   1.180
 1260SOL    HW2 4680   2.710   1.334   1.229
 1261SOL     OW 4681   0.157   4.808   4.797
 1261SOL    HW1 4682   0.248   4.847   4.810
 1261SOL    HW2 4683   0.136   4.746   4.872
 1262SOL     OW 4684   3.903   5.744   1.429
 1262SOL    HW1 4685   3.880   5.685   1.507
 1262SOL    HW2 4686   3.891   5.692   1.344
 1263SOL     OW 4687   6.594   2.454   0.615
 1263SOL    HW1 4688   6.660   2.397   0.663
 1263SOL    HW2 4689   6.507   2.454   0.665
 1264SOL     OW 4690   6.449   2.762   4.401
 1264SOL    HW1 4691   6.354   2.792   4.412
 1264SOL    HW2 4692   6.450   2.666   4.374
 1265SOL     OW 4693   6.376   6.062   5.005
 1265SOL    HW1 4694   6.331   5.977   5.033
 1265SOL    HW2 4695   6.474   6.056   5.026
 1266SOL     OW 4696   2.661   0.750   4.160
 1266SOL    HW1 4697   2.623   0.690   4.229
 1266SOL    HW2 4698   2.732   0.808   4.201
 1267SOL     OW 4699   0.023   4.728   2.947
 1267SOL    HW1 4700   0.082   4.772   2.880
 1267SOL    HW2 4701   0.001   4.636   2.916
 1268SOL     OW 4702   5.801   3.953   6.912
 1268SOL    HW1 4703   5.785   3.854   6.922
 1268SOL    HW2 4704   5.796   3.997   7.001
 1269SOL     OW 4705   6.590   5.011   6.285
 1269SOL    HW1 4706   6.523   4.996   6.212
 1269SOL    HW2 4707   6.544   5.050   6.364
 1270SOL     OW 4708   1.646   1.988   4.950
 1270SOL    HW1 4709   1.717   2.023   4.889
 1270SOL    HW2 4710   1.562   2.040   4.938
 1271SOL     OW 4711   4.946   2.581   2.972
 1271SOL    HW1 4712   4.960   2.678   2.952
 1271SOL    HW2 4713   4.904   2.536   2.893
 1272SOL     OW 4714   6.911   6.800   1.802
 1272SOL    HW1 4715   6.813   6.813   1.783
 1272SOL    HW2 4716   6.962   6.802   1.716
 1273SOL     OW 4717   2.616   6.441   6.438
 1273SOL    HW1 4718   2.562   6.433   6.521
 1273SOL    HW2 4719   2.619   6.352   6.392
 1274SOL     OW 4720   5.728   2.562   1.360
 1274SOL    HW1 4721   5.636   2.583   1.328
 1274SOL    HW2 4722   5.757   2.473   1.324
 1275SOL     OW 4723   3.768   1.677   4.050
 1275SOL    HW1 4724   3.836   1.748   4.038
 1275SOL    HW2 4725   3.810   1.587   4.035
 1276SOL     OW 4726   6.197   0.237   3.572
 1276SOL    HW1 4727   6.203   0.209   3.476
 1276SOL    HW2 4728   6.184   0.157   3.630
 1277SOL     OW 4729   0.452   1.323   5.273
 1277SOL    HW1 4730   0.433   1.253   5.342
 1277SOL    HW2 4731   0.399   1.405   5.294
 1278SOL     OW 4732   2.988   1.991   5.416
 1278SOL    HW1 4733   3.024   2.077   5.382
 1278SOL    HW2 4734   2.923   2.009   5.490
 1279SOL     OW 4735   2.418   4.928   0.482
 1279SOL    HW1 4736   2.329   4.968   0.500
 1279SOL    HW2 4737   2.489   4.998   0.494
 1280SOL     OW 4738   1.814   5.999   3.301
 1280SOL    HW1 4739   1.877   5.985   3.377
 1280SOL    HW2 4740   1.861   6.051   3.229
 1281SOL     OW 4741   0.851   0.008   3.866
 1281SOL    HW1 4742   0.907   6.983   3.930
 1281SOL    HW2 4743   0.799   6.972   3.808
 1282SOL     OW 4744   1.284   0.150   2.101
 1282SOL    HW1 4745   1.218   0.139   2.026
 1282SOL    HW2 4746   1.291   0.065   2.153
 1283SOL     OW 4747   5.258   4.569   4.935
 1283SOL    HW1 4748   5.225   4.477   4.958
 1283SOL    HW2 4749   5.181   4.625   4.907
 1284SOL     OW 4750   2.456   1.981   2.688
 1284SOL    HW1 4751   2.415   2.022   2.606
 1284SOL    HW2 4752   2.440   2.041   2.766
 1285SOL     OW 4753   5.758   2.582   5.663
 1285SOL    HW1 4754   5.841   2.594   5.717
 1285SOL    HW2 4755   5.692   2.653   5.688
 1286SOL     OW 4756   6.053   6.386   1.704
 1286SOL    HW1 4757   6.018   6.413   1.794
 1286SOL    HW2 4758   6.107   6.461   1.666
 1287SOL     OW 4759   5.910   4.963   5.662
 1287SOL    HW1 4760   5.935   4.953   5.758
 1287SOL    HW2 4761   5.927   4.877   5.614
 1288SOL     OW 4762   6.646   2.618   3.110
 1288SOL    HW1 4763   6.739   2.581   3.119
 1288SOL    HW2 4764   6.651   2.716   3.091
 1289SOL     OW 4765   6.898   5.665   2.757
 1289SOL    HW1 4766   6.839   5.704   2.827
 1289SOL    HW2 4767   6.854   5.585   2.717
 1290SOL     OW 4768   0.483   6.591   1.484
 1290SOL    HW1 4769   0.428   6.575   1.402
 1290SOL    HW2 4770   0.424   6.586   1.565
 1291SOL     OW 4771   1.659   0.099   0.549
 1291SOL    HW1 4772   1.719   0.161   0.599
 1291SOL    HW2 4773   1.714   0.025   0.509
 1292SOL     OW 4774   1.162   6.305   6.709
 1292SOL    HW1 4775   1.211   6.282   6.793
 1292SOL    HW2 4776   1.219   6.366   6.654
 1293SOL     OW 4777   6.556   2.886   5.959
 1293SOL    HW1 4778   6.550   2.937   6.046
 1293SOL    HW2 4779   6.570   2.789   5.979
 1294SOL     OW 4780   6.898   2.060   3.103
 1294SOL    HW1 4781   6.943   2.061   3.193
 1294SOL    HW2 4782   6.901   1.967   3.066
 1295SOL     OW 4783   5.251   3.485   1.870
 1295SOL    HW1 4784   5.331   3.495   1.929
 1295SOL    HW2 4785   5.244   3.566   1.811
 1296SOL     OW 4786   3.763   2.412   6.502
 1296SOL    HW1 4787   3.701   2.338   6.478
 1296SOL    HW2 4788   3.718   2.474   6.567
 1297SOL     OW 4789   6.487   1.374   6.686
 1297SOL    HW1 4790   6.517   1.410   6.774
 1297SOL    HW2 4791   6.555   1.309   6.652
 1298SOL     OW 4792   5.884   2.786   3.551
 1298SOL    HW1 4793   5.936   2.861   3.592
 1298SOL    HW2 4794   5.840   2.732   3.623
 1299SOL     OW 4795   1.183   4.002   4.421
 1299SOL    HW1 4796   1.279   3.985   4.439
 1299SOL    HW2 4797   1.170   4.019   4.323
 1300SOL     OW 4798   2.789   3.150   1.204
 1300SOL    HW1 4799   2.879   3.150   1.248
 1300SOL    HW2 4800   2.765   3.057   1.176
 1301SOL     OW 4801   0.843   0.344   3.041
 1301SOL    HW1 4802   0.897   0.338   2.958
 1301SOL    HW2 4803   0.901   0.375   3.117
 1302SOL     OW 4804   2.706   5.729   5.360
 1302SOL    HW1 4805   2.630   5.702   5.418
 1302SOL    HW2 4806   2.725   5.655   5.294
 1303SOL     OW 4807   4.032   0.892   1.236
 1303SOL    HW1 4808   4.074   0.831   1.168
 1303SOL    HW2 4809   4.089   0.893   1.318
 1304SOL     OW 4810   3.235   0.403   6.171
 1304SOL    HW1 4811   3.291   0.335   6.217
 1304SOL    HW2 4812   3.245   0.394   6.072
 1305SOL     OW 4813   5.277   6.880   4.798
 1305SOL    HW1 4814   5.296   6.937   4.718
 1305SOL    HW2 4815   5.227   6.934   4.866
 1306SOL     OW 4816   0.728   4.645   4.025
 1306SOL    HW1 4817   0.756   4.689   3.940
 1306SOL    HW2 4818   0.740   4.709   4.101
 1307SOL     OW 4819   2.212   1.683   4.283
 1307SOL    HW1 4820   2.277   1.666   4.356
 1307SOL    HW2 4821   2.139   1.742   4.316
 1308SOL     OW 4822   4.722   5.826   2.635
 1308SOL    HW1 4823   4.746   5.840   2.539
 1308SOL    HW2 4824   4.630   5.861   2.652
 1309SOL     OW 4825   5.996   2.545   4.520
 1309SOL    HW1 4826   5.904   2.557   4.558
 1309SOL    HW2 4827   6.039   2.465   4.563
 1310SOL     OW 4828   4.909   3.735   5.401
 1310SOL    HW1 4829   4.850   3.748   5.481
 1310SOL    HW2 4830   4.996   3.696   5.429
 1311SOL     OW 4831   5.376   5.436   5.131
 1311SOL    HW1 4832   5.456   5.378   5.143
 1311SOL    HW2 4833   5.314   5.393   5.065
 1312SOL     OW 4834   6.958   6.875   2.310
 1312SOL    HW1 4835   6.870   6.913   2.339
 1312SOL    HW2 4836   6.951   6.843   2.215
 1313SOL     OW 4837   3.649   4.870   5.267
 1313SOL    HW1 4838   3.709   4.941   5.302
 1313SOL    HW2 4839   3.640   4.797   5.335
 1314SOL     OW 4840   5.794   1.441   4.925
 1314SOL    HW1 4841   5.817   1.396   5.011
 1314SOL    HW2 4842   5.828   1.535   4.927
 1315SOL     OW 4843   2.328   0.840   2.797
 1315SOL    HW1 4844   2.264   0.797   2.861
 1315SOL    HW2 4845   2.289   0.926   2.764
 1316SOL     OW 4846   3.535   6.428   2.308
 1316SOL    HW1 4847   3.454   6.453   2.361
 1316SOL    HW2 4848   3.516   6.437   2.210
 1317SOL     OW 4849   0.362   4.986   4.028
 1317SOL    HW1 4850   0.398   4.968   3.937
 1317SOL    HW2 4851   0.318   5.076   4.030
 1318SOL     OW 4852   0.274   6.015   1.412
 1318SOL    HW1 4853   0.285   6.007   1.313
 1318SOL    HW2 4854   0.346   6.074   1.448
 1319SOL     OW 4855   6.180   1.033   0.282
 1319SOL    HW1 4856   6.174   1.132   0.268
 1319SOL    HW2 4857   6.224   1.015   0.370
 1320SOL     OW 4858   5.261   5.761   5.732
 1320SOL    HW1 4859   5.296   5.835   5.788
 1320SOL    HW2 4860   5.302   5.675   5.760
 1321SOL     OW 4861   3.209   2.257   6.645
 1321SOL    HW1 4862   3.202   2.282   6.548
 1321SOL    HW2 4863   3.148   2.314   6.699
 1322SOL     OW 4864   5.598   1.226   4.934
 1322SOL    HW1 4865   5.667   1.292   4.903
 1322SOL    HW2 4866   5.506   1.262   4.913
 1323SOL     OW 4867   6.001   1.235   4.538
 1323SOL    HW1 4868   5.998   1.135   4.539
 1323SOL    HW2 4869   5.914   1.270   4.504
 1324SOL     OW 4870   0.949   3.928   0.761
 1324SOL    HW1 4871   0.966   3.996   0.832
 1324SOL    HW2 4872   0.885   3.859   0.794
 1325SOL     OW 4873   3.205   5.535   3.008
 1325SOL    HW1 4874   3.297   5.534   3.047
 1325SOL    HW2 4875   3.163   5.624   3.023
 1326SOL     OW 4876   5.045   4.139   4.518
 1326SOL    HW1 4877   5.025   4.093   4.605
 1326SOL    HW2 4878   5.064   4.070   4.448
 1327SOL     OW 4879   3.359   5.920   3.329
 1327SOL    HW1 4880   3.361   5.834   3.277
 1327SOL    HW2 4881   3.266   5.956   3.329
 1328SOL     OW 4882   1.837   2.285   6.610
 1328SOL    HW1 4883   1.785   2.249   6.532
 1328SOL    HW2 4884   1.776   2.291   6.689
 1329SOL     OW 4885   0.674   0.263   1.208
 1329SOL    HW1 4886   0.694   0.330   1.279
 1329SOL    HW2 4887   0.651   0.175   1.250
 1330SOL     OW 4888   5.849   6.692   1.000
 1330SOL    HW1 4889   5.754   6.697   1.030
 1330SOL    HW2 4890   5.853   6.705   0.901
 1331SOL     OW 4891   6.747   0.857   2.415
 1331SOL    HW1 4892   6.840   0.827   2.393
 1331SOL    HW2 4893   6.742   0.957   2.411
 1332SOL     OW 4894   4.273   1.596   1.179
 1332SOL    HW1 4895   4.239   1.539   1.253
 1332SOL    HW2 4896   4.244   1.691   1.194
 1333SOL     OW 4897   3.984   3.966   5.240
 1333SOL    HW1 4898   4.077   3.964   5.276
 1333SOL    HW2 4899   3.922   3.922   5.305
 1334SOL     OW 4900   0.892   3.849   3.345
 1334SOL    HW1 4901   0.843   3.912   3.405
 1334SOL    HW2 4902   0.839   3.835   3.261
 1335SOL     OW 4903   2.686   5.021   2.121
 1335SOL    HW1 4904   2.735   5.102   2.154
 1335SOL    HW2 4905   2.595   5.019   2.163
 1336SOL     OW 4906   0.784   0.060   4.921
 1336SOL    HW1 4907   0.781   7.013   4.854
 1336SOL    HW2 4908   0.710   0.125   4.903
 1337SOL     OW 4909   2.523   0.588   6.336
 1337SOL    HW1 4910   2.548   0.583   6.240
 1337SOL    HW2 4911   2.586   0.648   6.384
 1338SOL     OW 4912   3.159   5.821   0.768
 1338SOL    HW1 4913   3.069   5.829   0.811
 1338SOL    HW2 4914   3.212   5.904   0.787
 1339SOL     OW 4915   0.412   4.884   4.817
 1339SOL    HW1 4916   0.458   4.822   4.754
 1339SOL    HW2 4917   0.460   4.883   4.905
 1340SOL     OW 4918   2.244   1.351   6.521
 1340SOL    HW1 4919   2.195   1.303   6.448
 1340SOL    HW2 4920   2.243   1.294   6.604
 1341SOL     OW 4921   5.288   1.252   3.512
 1341SOL    HW1 4922   5.278   1.253   3.413
 1341SOL    HW2 4923   5.203   1.221   3.554
 1342SOL     OW 4924   0.568   5.883   1.665
 1342SOL    HW1 4925   0.590   5.946   1.740
 1342SOL    HW2 4926   0.484   5.914   1.621
 1343SOL     OW 4927   4.111   5.279   3.373
 1343SOL    HW1 4928   4.134   5.261   3.468
 1343SOL    HW2 4929   4.021   5.322   3.368
 1344SOL     OW 4930   5.953   1.195   2.012
 1344SOL    HW1 4931   5.964   1.209   2.111
 1344SOL    HW2 4932   5.885   1.260   1.977
 1345SOL     OW 4933   1.322   6.873   3.664
 1345SOL    HW1 4934   1.241   6.927   3.644
 1345SOL    HW2 4935   1.338   6.872   3.762
 1346SOL     OW 4936   0.418   0.581   4.040
 1346SOL    HW1 4937   0.353   0.507   4.055
 1346SOL    HW2 4938   0.394   0.630   3.956
 1347SOL     OW 4939   5.892   0.383   3.015
 1347SOL    HW1 4940   5.908   0.312   2.946
 1347SOL    HW2 4941   5.873   0.340   3.103
 1348SOL     OW 4942   3.934   5.738   4.591
 1348SOL    HW1 4943   3.890   5.716   4.504
 1348SOL    HW2 4944   4.018   5.685   4.600
 1349SOL     OW 4945   4.919   2.440   0.231
 1349SOL    HW1 4946   5.009   2.459   0.191
 1349SOL    HW2 4947   4.929   2.386   0.314
 1350SOL     OW 4948   3.175   6.751   5.508
 1350SOL    HW1 4949   3.134   6.743   5.599
 1350SOL    HW2 4950   3.191   6.848   5.487
 1351SOL     OW 4951   1.074   1.261   4.611
 1351SOL    HW1 4952   1.021   1.268   4.696
 1351SOL    HW2 4953   1.053   1.339   4.552
 1352SOL     OW 4954   0.608   6.643   3.970
 1352SOL    HW1 4955   0.688   6.613   3.918
 1352SOL    HW2 4956   0.616   6.741   3.989
 1353SOL     OW 4957   1.801   3.336   3.988
 1353SOL    HW1 4958   1.734   3.289   3.931
 1353SOL    HW2 4959   1.884   3.282   3.994
 1354SOL     OW 4960   0.142   6.764   0.824
 1354SOL    HW1 4961   0.217   6.784   0.761
 1354SOL    HW2 4962   0.178   6.734   0.912
 1355SOL     OW 4963   4.341   3.579   0.263
 1355SOL    HW1 4964   4.338   3.511   0.336
 1355SOL    HW2 4965   4.361   3.534   0.176
 1356SOL     OW 4966   2.997   3.428   1.652
 1356SOL    HW1 4967   3.092   3.431   1.621
 1356SOL    HW2 4968   2.949   3.354   1.607
 1357SOL     OW 4969   2.814   2.955   5.910
 1357SOL    HW1 4970   2.715   2.969   5.914
 1357SOL    HW2 4971   2.857   3.037   5.871
 1358SOL     OW 4972   2.466   3.253   5.997
 1358SOL    HW1 4973   2.512   3.322   5.941
 1358SOL    HW2 4974   2.368   3.253   5.976
 1359SOL     OW 4975   6.947   1.084   6.955
 1359SOL    HW1 4976   0.010   1.119   6.980
 1359SOL    HW2 4977   6.895   1.155   6.908
 1360SOL     OW 4978   3.099   3.180   3.903
 1360SOL    HW1 4979   3.104   3.119   3.982
 1360SOL    HW2 4980   3.103   3.126   3.818
 1361SOL     OW 4981   1.045   5.693   1.263
 1361SOL    HW1 4982   1.029   5.604   1.220
 1361SOL    HW2 4983   1.143   5.708   1.274
 1362SOL     OW 4984   2.873   2.532   6.656
 1362SOL    HW1 4985   2.957   2.579   6.686
 1362SOL    HW2 4986   2.872   2.527   6.556
 1363SOL     OW 4987   6.409   6.386   1.866
 1363SOL    HW1 4988   6.442   6.400   1.772
 1363SOL    HW2 4989   6.413   6.472   1.916
 1364SOL     OW 4990   0.589   3.712   0.615
 1364SOL    HW1 4991   0.657   3.641   0.597
 1364SOL    HW2 4992   0.521   3.678   0.680
 1365SOL     OW 4993   0.376   4.094   5.232
 1365SOL    HW1 4994   0.285   4.121   5.264
 1365SOL    HW2 4995   0.417   4.032   5.299
 1366SOL     OW 4996   5.013   0.511   0.658
 1366SOL    HW1 4997   4.944   0.519   0.586
 1366SOL    HW2 4998   5.002   0.586   0.723
 1367SOL     OW 4999   1.451   6.556   4.434
 1367SOL    HW1 5000   1.471   6.614   4.513
 1367SOL    HW2 5001   1.450   6.460   4.462
 1368SOL     OW 5002   1.289   6.384   5.563
 1368SOL    HW1 5003   1.363   6.451   5.575
 1368SOL    HW2 5004   1.233   6.382   5.646
 1369SOL     OW 5005   2.853   6.061   3.304
 1369SOL    HW1 5006   2.885   6.087   3.213
 1369SOL    HW2 5007   2.836   6.144   3.357
 1370SOL     OW 5008   6.947   2.493   2.928
 1370SOL    HW1 5009   6.882   2.532   2.862
 1370SOL    HW2 5010   6.904   2.418   2.977
 1371SOL     OW 5011   5.800   2.265   5.953
 1371SOL    HW1 5012   5.759   2.331   6.016
 1371SOL    HW2 5013   5.789   2.173   5.989
 1372SOL     OW 5014   6.543   2.879   0.651
 1372SOL    HW1 5015   6.579   2.971   0.669
 1372SOL    HW2 5016   6.457   2.867   0.700
 1373SOL     OW 5017   5.651   2.145   1.656
 1373SOL    HW1 5018   5.631   2.242   1.639
 1373SOL    HW2 5019   5.749   2.129   1.643
 1374SOL     OW 5020   4.386   4.189   1.141
 1374SOL    HW1 5021   4.416   4.280   1.110
 1374SOL    HW2 5022   4.349   4.197   1.234
 1375SOL     OW 5023   5.752   5.042   4.114
 1375SOL    HW1 5024   5.767   4.958   4.166
 1375SOL    HW2 5025   5.664   5.082   4.139
 1376SOL     OW 5026   2.843   4.836   5.942
 1376SOL    HW1 5027   2.869   4.917   5.889
 1376SOL    HW2 5028   2.778   4.862   6.013
 1377SOL     OW 5029   1.961   1.759   2.805
 1377SOL    HW1 5030   1.959   1.701   2.886
 1377SOL    HW2 5031   2.054   1.795   2.791
 1378SOL     OW 5032   5.424   2.751   4.000
 1378SOL    HW1 5033   5.346   2.794   4.046
 1378SOL    HW2 5034   5.484   2.822   3.963
 1379SOL     OW 5035   4.845   5.352   1.327
 1379SOL    HW1 5036   4.847   5.362   1.426
 1379SOL    HW2 5037   4.756   5.314   1.300
 1380SOL     OW 5038   0.006   6.209   2.357
 1380SOL    HW1 5039   6.964   6.141   2.334
 1380SOL    HW2 5040   6.998   6.301   2.336
 1381SOL     OW 5041   6.320   2.603   6.057
 1381SOL    HW1 5042   6.296   2.693   6.094
 1381SOL    HW2 5043   6.417   2.585   6.075
 1382SOL     OW 5044   4.539   3.192   0.118
 1382SOL    HW1 5045   4.592   3.135   0.056
 1382SOL    HW2 5046   4.499   3.268   0.067
 1383SOL     OW 5047   0.246   0.516   1.389
 1383SOL    HW1 5048   0.225   0.463   1.471
 1383SOL    HW2 5049   0.345   0.526   1.380
 1384SOL     OW 5050   6.347   1.621   1.859
 1384SOL    HW1 5051   6.274   1.622   1.790
 1384SOL    HW2 5052   6.309   1.648   1.947
 1385SOL     OW 5053   0.670   5.483   1.127
 1385SOL    HW1 5054   0.690   5.495   1.224
 1385SOL    HW2 5055   0.755   5.479   1.076
 1386SOL     OW 5056   2.109   5.511   4.367
 1386SOL    HW1 5057   2.038   5.535   4.433
 1386SOL    HW2 5058   2.077   5.435   4.310
 1387SOL     OW 5059   2.641   6.297   1.977
 1387SOL    HW1 5060   2.660   6.346   2.063
 1387SOL    HW2 5061   2.724   6.294   1.922
 1388SOL     OW 5062   0.040   0.778   1.652
 1388SOL    HW1 5063   0.120   0.829   1.618
 1388SOL    HW2 5064   7.011   0.751   1.574
 1389SOL     OW 5065   6.689   1.079   2.153
 1389SOL    HW1 5066   6.598   1.092   2.194
 1389SOL    HW2 5067   6.692   1.123   2.064
 1390SOL     OW 5068   1.246   1.584   5.239
 1390SOL    HW1 5069   1.282   1.507   5.186
 1390SOL    HW2 5070   1.304   1.601   5.318
 1391SOL     OW 5071   0.457   2.900   3.380
 1391SOL    HW1 5072   0.549   2.934   3.360
 1391SOL    HW2 5073   0.459   2.801   3.390
 1392SOL     OW 5074   4.926   4.717   4.816
 1392SOL    HW1 5075   4.899   4.658   4.740
 1392SOL    HW2 5076   4.865   4.703   4.893
 1393SOL     OW 5077   3.142   6.472   5.897
 1393SOL    HW1 5078   3.127   6.499   5.993
 1393SOL    HW2 5079   3.083   6.527   5.838
 1394SOL     OW 5080   1.680   6.322   6.261
 1394SOL    HW1 5081   1.597   6.369   6.292
 1394SOL    HW2 5082   1.665   6.224   6.261
 1395SOL     OW 5083   3.608   4.177   5.517
 1395SOL    HW1 5084   3.542   4.218   5.580
 1395SOL    HW2 5085   3.562   4.107   5.462
 1396SOL     OW 5086   5.857   6.253   3.901
 1396SOL    HW1 5087   5.851   6.242   4.000
 1396SOL    HW2 5088   5.940   6.208   3.867
 1397SOL     OW 5089   4.874   6.153   5.464
 1397SOL    HW1 5090   4.868   6.106   5.375
 1397SOL    HW2 5091   4.845   6.091   5.536
 1398SOL     OW 5092   2.129   1.048   4.276
 1398SOL    HW1 5093   2.198   0.994   4.324
 1398SOL    HW2 5094   2.038   1.011   4.295
 1399SOL     OW 5095   3.169   6.846   1.723
 1399SOL    HW1 5096   3.149   6.751   1.747
 1399SOL    HW2 5097   3.100   6.905   1.764
 1400SOL     OW 5098   1.825   6.826   1.985
 1400SOL    HW1 5099   1.909   6.878   1.970
 1400SOL    HW2 5100   1.749   6.869   1.937
 1401SOL     OW 5101   6.365   1.424   4.523
 1401SOL    HW1 5102   6.321   1.355   4.465
 1401SOL    HW2 5103   6.313   1.510   4.518
 1402SOL     OW 5104   0.074   3.328   0.408
 1402SOL    HW1 5105   0.135   3.305   0.484
 1402SOL    HW2 5106   7.006   3.308   0.434
 1403SOL     OW 5107   3.202   0.629   2.469
 1403SOL    HW1 5108   3.216   0.691   2.546
 1403SOL    HW2 5109   3.224   0.676   2.384
 1404SOL     OW 5110   5.336   0.975   0.471
 1404SOL    HW1 5111   5.306   0.995   0.564
 1404SOL    HW2 5112   5.336   0.876   0.456
 1405SOL     OW 5113   2.341   3.515   1.024
 1405SOL    HW1 5114   2.266   3.461   0.985
 1405SOL    HW2 5115   2.408   3.454   1.065
 1406SOL     OW 5116   1.443   3.906   1.060
 1406SOL    HW1 5117   1.399   3.816   1.055
 1406SOL    HW2 5118   1.392   3.963   1.124
 1407SOL     OW 5119   6.547   2.534   2.855
 1407SOL    HW1 5120   6.584   2.565   2.943
 1407SOL    HW2 5121   6.449   2.551   2.851
 1408SOL     OW 5122   6.422   0.196   6.823
 1408SOL    HW1 5123   6.346   0.227   6.881
 1408SOL    HW2 5124   6.507   0.236   6.856
 1409SOL     OW 5125   0.610   1.380   4.176
 1409SOL    HW1 5126   0.675   1.362   4.102
 1409SOL    HW2 5127   0.651   1.444   4.241
 1410SOL     OW 5128   0.548   2.515   0.144
 1410SOL    HW1 5129   0.639   2.513   0.185
 1410SOL    HW2 5130   0.491   2.445   0.187
 1411SOL     OW 5131   1.985   0.150   1.383
 1411SOL    HW1 5132   1.906   0.116   1.434
 1411SOL    HW2 5133   1.990   0.103   1.294
 1412SOL     OW 5134   1.004   3.113   0.374
 1412SOL    HW1 5135   0.982   3.099   0.470
 1412SOL    HW2 5136   0.936   3.066   0.317
 1413SOL     OW 5137   2.901   0.196   4.279
 1413SOL    HW1 5138   2.946   0.285   4.264
 1413SOL    HW2 5139   2.925   0.134   4.204
 1414SOL     OW 5140   1.991   1.345   1.566
 1414SOL    HW1 5141   1.897   1.362   1.594
 1414SOL    HW2 5142   2.010   1.395   1.481
 1415SOL     OW 5143   4.102   6.089   6.254
 1415SOL    HW1 5144   4.130   5.994   6.240
 1415SOL    HW2 5145   4.139   6.123   6.341
 1416SOL     OW 5146   4.163   5.564   2.323
 1416SOL    HW1 5147   4.113   5.649   2.306
 1416SOL    HW2 5148   4.247   5.584   2.373
 1417SOL     OW 5149   3.026   1.922   5.903
 1417SOL    HW1 5150   3.113   1.967   5.884
 1417SOL    HW2 5151   3.031   1.826   5.875
 1418SOL     OW 5152   3.752   4.090   2.575
 1418SOL    HW1 5153   3.799   4.032   2.640
 1418SOL    HW2 5154   3.654   4.094   2.598
 1419SOL     OW 5155   4.731   6.866   4.873
 1419SOL    HW1 5156   4.765   6.908   4.958
 1419SOL    HW2 5157   4.709   6.769   4.890
 1420SOL     OW 5158   0.799   5.859   2.270
 1420SOL    HW1 5159   0.797   5.954   2.302
 1420SOL    HW2 5160   0.840   5.856   2.179
 1421SOL     OW 5161   3.277   0.788   2.688
 1421SOL    HW1 5162   3.333   0.735   2.753
 1421SOL    HW2 5163   3.210   0.842   2.739
 1422SOL     OW 5164   2.704   6.347   0.271
 1422SOL    HW1 5165   2.692   6.310   0.363
 1422SOL    HW2 5166   2.778   6.415   0.271
 1423SOL     OW 5167   4.505   0.241   2.692
 1423SOL    HW1 5168   4.549   0.325   2.659
 1423SOL    HW2 5169   4.428   0.264   2.751
 1424SOL     OW 5170   6.600   4.821   4.105
 1424SOL    HW1 5171   6.519   4.860   4.150
 1424SOL    HW2 5172   6.678   4.825   4.168
 1425SOL     OW 5173   2.465   6.941   4.573
 1425SOL    HW1 5174   2.543   6.932   4.635
 1425SOL    HW2 5175   2.393   6.993   4.617
 1426SOL     OW 5176   0.849   1.465   5.728
 1426SOL    HW1 5177   0.782   1.529   5.767
 1426SOL    HW2 5178   0.829   1.450   5.631
 1427SOL     OW 5179   6.072   0.920   4.039
 1427SOL    HW1 5180   5.992   0.973   4.067
 1427SOL    HW2 5181   6.147   0.935   4.104
 1428SOL     OW 5182   5.296   1.201   6.916
 1428SOL    HW1 5183   5.241   1.171   6.838
 1428SOL    HW2 5184   5.390   1.216   6.887
 1429SOL     OW 5185   6.670   0.550   0.450
 1429SOL    HW1 5186   6.752   0.493   0.461
 1429SOL    HW2 5187   6.601   0.500   0.398
 1430SOL     OW 5188   2.068   5.077   3.744
 1430SOL    HW1 5189   2.040   5.139   3.817
 1430SOL    HW2 5190   2.023   5.103   3.658
 1431SOL     OW 5191   1.738   0.889   0.565
 1431SOL    HW1 5192   1.667   0.821   0.549
 1431SOL    HW2 5193   1.786   0.869   0.650
 1432SOL     OW 5194   1.865   0.793   2.049
 1432SOL    HW1 5195   1.961   0.773   2.069
 1432SOL    HW2 5196   1.829   0.859   2.115
 1433SOL     OW 5197   4.665   0.782   3.842
 1433SOL    HW1 5198   4.691   0.870   3.880
 1433SOL    HW2 5199   4.567   0.766   3.857
 1434SOL     OW 5200   1.205   0.571   5.519
 1434SOL    HW1 5201   1.191   0.669   5.512
 1434SOL    HW2 5202   1.298   0.548   5.489
 1435SOL     OW 5203   6.512   1.816   2.963
 1435SOL    HW1 5204   6.469   1.738   2.917
 1435SOL    HW2 5205   6.571   1.864   2.898
 1436SOL     OW 5206   4.074   3.662   0.961
 1436SOL    HW1 5207   3.980   3.651   0.929
 1436SOL    HW2 5208   4.083   3.620   1.052
 1437SOL     OW 5209   3.672   1.078   2.450
 1437SOL    HW1 5210   3.643   0.988   2.481
 1437SOL    HW2 5211   3.765   1.095   2.480
 1438SOL     OW 5212   2.359   0.181   1.132
 1438SOL    HW1 5213   2.408   0.268   1.126
 1438SOL    HW2 5214   2.388   0.132   1.214
 1439SOL     OW 5215   0.518   5.722   2.741
 1439SOL    HW1 5216   0.523   5.640   2.685
 1439SOL    HW2 5217   0.597   5.725   2.802
 1440SOL     OW 5218   2.592   3.512   1.754
 1440SOL    HW1 5219   2.509   3.482   1.802
 1440SOL    HW2 5220   2.654   3.434   1.744
 1441SOL     OW 5221   5.807   6.640   0.725
 1441SOL    HW1 5222   5.869   6.623   0.648
 1441SOL    HW2 5223   5.763   6.555   0.752
 1442SOL     OW 5224   5.773   5.380   0.969
 1442SOL    HW1 5225   5.700   5.444   0.946
 1442SOL    HW2 5226   5.739   5.286   0.960
 1443SOL     OW 5227   0.515   2.785   2.900
 1443SOL    HW1 5228   0.514   2.756   2.804
 1443SOL    HW2 5229   0.565   2.871   2.908
 1444SOL     OW 5230   6.447   4.769   6.697
 1444SOL    HW1 5231   6.464   4.692   6.759
 1444SOL    HW2 5232   6.499   4.849   6.728
 1445SOL     OW 5233   1.493   3.392   1.679
 1445SOL    HW1 5234   1.409   3.447   1.684
 1445SOL    HW2 5235   1.525   3.372   1.771
 1446SOL     OW 5236   6.596   6.915   0.237
 1446SOL    HW1 5237   6.503   6.879   0.245
 1446SOL    HW2 5238   6.607   6.959   0.148
 1447SOL     OW 5239   6.202   5.102   4.601
 1447SOL    HW1 5240   6.115   5.134   4.565
 1447SOL    HW2 5241   6.200   5.102   4.701
 1448SOL     OW 5242   1.196   2.637   5.775
 1448SOL    HW1 5243   1.268   2.592   5.722
 1448SOL    HW2 5244   1.111   2.640   5.721
 1449SOL     OW 5245   2.060   3.534   3.644
 1449SOL    HW1 5246   2.120   3.455   3.653
 1449SOL    HW2 5247   2.095   3.608   3.702
 1450SOL     OW 5248   2.300   2.883   4.061
 1450SOL    HW1 5249   2.325   2.819   3.989
 1450SOL    HW2 5250   2.288   2.834   4.148
 1451SOL     OW 5251   2.840   0.444   2.578
 1451SOL    HW1 5252   2.831   0.365   2.518
 1451SOL    HW2 5253   2.861   0.526   2.524
 1452SOL     OW 5254   5.137   2.443   6.123
 1452SOL    HW1 5255   5.162   2.534   6.089
 1452SOL    HW2 5256   5.217   2.384   6.123
 1453SOL     OW 5257   6.842   5.227   5.162
 1453SOL    HW1 5258   6.827   5.312   5.111
 1453SOL    HW2 5259   6.753   5.187   5.184
 1454SOL     OW 5260   3.879   1.838   3.683
 1454SOL    HW1 5261   3.937   1.906   3.639
 1454SOL    HW2 5262   3.841   1.876   3.768
 1455SOL     OW 5263   0.317   5.475   1.846
 1455SOL    HW1 5264   0.360   5.562   1.874
 1455SOL    HW2 5265   0.341   5.455   1.751
 1456SOL     OW 5266   6.749   5.107   4.723
 1456SOL    HW1 5267   6.687   5.136   4.796
 1456SOL    HW2 5268   6.697   5.091   4.639
 1457SOL     OW 5269   1.293   4.739   6.132
 1457SOL    HW1 5270   1.277   4.738   6.231
 1457SOL    HW2 5271   1.334   4.826   6.106
 1458SOL     OW 5272   5.185   5.109   5.376
 1458SOL    HW1 5273   5.174   5.070   5.467
 1458SOL    HW2 5274   5.145   5.047   5.308
 1459SOL     OW 5275   5.310   6.848   5.217
 1459SOL    HW1 5276   5.259   6.880   5.297
 1459SOL    HW2 5277   5.367   6.922   5.181
 1460SOL     OW 5278   1.255   6.116   5.535
 1460SOL    HW1 5279   1.299   6.205   5.543
 1460SOL    HW2 5280   1.322   6.044   5.553
 1461SOL     OW 5281   6.489   3.179   3.658
 1461SOL    HW1 5282   6.477   3.209   3.753
 1461SOL    HW2 5283   6.582   3.202   3.628
 1462SOL     OW 5284   0.248   0.605   2.047
 1462SOL    HW1 5285   0.323   0.539   2.059
 1462SOL    HW2 5286   0.206   0.622   2.136
 1463SOL     OW 5287   1.727   5.610   6.942
 1463SOL    HW1 5288   1.796   5.563   6.888
 1463SOL    HW2 5289   1.768   5.642   0.001
 1464SOL     OW 5290   1.175   4.047   3.651
 1464SOL    HW1 5291   1.219   4.101   3.723
 1464SOL    HW2 5292   1.077   4.069   3.648
 1465SOL     OW 5293   0.739   2.588   3.390
 1465SOL    HW1 5294   0.748   2.497   3.429
 1465SOL    HW2 5295   0.699   2.650   3.457
 1466SOL     OW 5296   5.148   2.372   2.196
 1466SOL    HW1 5297   5.233   2.418   2.221
 1466SOL    HW2 5298   5.070   2.427   2.226
 1467SOL     OW 5299   1.139   1.129   4.117
 1467SOL    HW1 5300   1.143   1.142   4.216
 1467SOL    HW2 5301   1.180   1.041   4.093
 1468SOL     OW 5302   2.303   5.517   2.697
 1468SOL    HW1 5303   2.316   5.425   2.734
 1468SOL    HW2 5304   2.209   5.546   2.710
 1469SOL     OW 5305   6.190   4.036   3.092
 1469SOL    HW1 5306   6.147   4.089   3.165
 1469SOL    HW2 5307   6.285   4.066   3.080
 1470SOL     OW 5308   6.463   1.418   1.302
 1470SOL    HW1 5309   6.446   1.503   1.352
 1470SOL    HW2 5310   6.379   1.390   1.255
 1471SOL     OW 5311   5.218   6.329   1.483
 1471SOL    HW1 5312   5.285   6.306   1.413
 1471SOL    HW2 5313   5.257   6.310   1.574
 1472SOL     OW 5314   1.844   0.313   6.211
 1472SOL    HW1 5315   1.812   0.235   6.265
 1472SOL    HW2 5316   1.794   0.395   6.239
 1473SOL     OW 5317   1.886   5.769   3.710
 1473SOL    HW1 5318   1.932   5.772   3.798
 1473SOL    HW2 5319   1.788   5.752   3.723
 1474SOL     OW 5320   3.031   5.019   1.573
 1474SOL    HW1 5321   3.081   5.085   1.517
 1474SOL    HW2 5322   3.049   5.038   1.670
 1475SOL     OW 5323   5.689   0.198   6.548
 1475SOL    HW1 5324   5.636   0.258   6.609
 1475SOL    HW2 5325   5.786   0.222   6.554
 1476SOL     OW 5326   4.860   0.677   0.825
 1476SOL    HW1 5327   4.858   0.776   0.840
 1476SOL    HW2 5328   4.814   0.631   0.901
 1477SOL     OW 5329   3.517   4.873   1.650
 1477SOL    HW1 5330   3.500   4.959   1.603
 1477SOL    HW2 5331   3.448   4.806   1.622
 1478SOL     OW 5332   4.915   5.355   6.491
 1478SOL    HW1 5333   4.829   5.315   6.524
 1478SOL    HW2 5334   4.912   5.363   6.392
 1479SOL     OW 5335   4.056   3.843   1.276
 1479SOL    HW1 5336   4.101   3.803   1.196
 1479SOL    HW2 5337   3.983   3.782   1.307
 1480SOL     OW 5338   3.065   0.249   5.015
 1480SOL    HW1 5339   2.966   0.258   5.007
 1480SOL    HW2 5340   3.092   0.155   4.995
 1481SOL     OW 5341   5.398   2.291   5.880
 1481SOL    HW1 5342   5.450   2.372   5.850
 1481SOL    HW2 5343   5.421   2.213   5.823
 1482SOL     OW 5344   4.664   1.391   0.958
 1482SOL    HW1 5345   4.712   1.389   1.046
 1482SOL    HW2 5346   4.662   1.299   0.919
 1483SOL     OW 5347   5.754   1.153   6.278
 1483SOL    HW1 5348   5.683   1.108   6.226
 1483SOL    HW2 5349   5.716   1.231   6.327
 1484SOL     OW 5350   3.609   5.788   4.993
 1484SOL    HW1 5351   3.687   5.799   4.931
 1484SOL    HW2 5352   3.634   5.724   5.066
 1485SOL     OW 5353   5.314   2.647   3.076
 1485SOL    HW1 5354   5.340   2.724   3.135
 1485SOL    HW2 5355   5.283   2.571   3.132
 1486SOL     OW 5356   4.815   6.796   3.644
 1486SOL    HW1 5357   4.872   6.821   3.566
 1486SOL    HW2 5358   4.767   6.710   3.626
 1487SOL     OW 5359   6.577   0.234   0.982
 1487SOL    HW1 5360   6.655   0.171   0.982
 1487SOL    HW2 5361   6.497   0.188   0.943
 1488SOL     OW 5362   6.421   1.963   2.593
 1488SOL    HW1 5363   6.344   1.928   2.539
 1488SOL    HW2 5364   6.405   2.059   2.616
 1489SOL     OW 5365   3.446   4.359   0.594
 1489SOL    HW1 5366   3.401   4.441   0.630
 1489SOL    HW2 5367   3.436   4.284   0.659
 1490SOL     OW 5368   6.781   2.721   2.364
 1490SOL    HW1 5369   6.850   2.662   2.406
 1490SOL    HW2 5370   6.695   2.671   2.354
 1491SOL     OW 5371   6.109   2.446   3.892
 1491SOL    HW1 5372   6.168   2.460   3.813
 1491SOL    HW2 5373   6.077   2.351   3.894
 1492SOL     OW 5374   6.333   1.274   3.270
 1492SOL    HW1 5375   6.309   1.183   3.237
 1492SOL    HW2 5376   6.293   1.288   3.361
 1493SOL     OW 5377   4.870   2.433   6.043
 1493SOL    HW1 5378   4.806   2.463   6.113
 1493SOL    HW2 5379   4.963   2.438   6.079
 1494SOL     OW 5380   6.482   4.620   5.623
 1494SOL    HW1 5381   6.480   4.541   5.685
 1494SOL    HW2 5382   6.425   4.693   5.661
 1495SOL     OW 5383   6.653   4.320   4.515
 1495SOL    HW1 5384   6.647   4.222   4.493
 1495SOL    HW2 5385   6.607   4.338   4.602
 1496SOL     OW 5386   6.437   5.506   6.105
 1496SOL    HW1 5387   6.494   5.474   6.029
 1496SOL    HW2 5388   6.395   5.594   6.081
 1497SOL     OW 5389   5.964   2.847   2.498
 1497SOL    HW1 5390   5.937   2.786   2.573
 1497SOL    HW2 5391   6.054   2.819   2.463
 1498SOL     OW 5392   3.611   3.897   0.695
 1498SOL    HW1 5393   3.535   3.940   0.744
 1498SOL    HW2 5394   3.578   3.864   0.606
 1499SOL     OW 5395   0.823   4.269   5.255
 1499SOL    HW1 5396   0.858   4.209   5.183
 1499SOL    HW2 5397   0.723   4.273   5.250
 1500SOL     OW 5398   0.910   5.876   1.793
 1500SOL    HW1 5399   0.896   5.888   1.695
 1500SOL    HW2 5400   0.859   5.947   1.842
 1501SOL     OW 5401   6.278   2.434   0.431
 1501SOL    HW1 5402   6.251   2.432   0.528
 1501SOL    HW2 5403   6.288   2.528   0.401
 1502SOL     OW 5404   6.462   0.175   6.042
 1502SOL    HW1 5405   6.483   0.113   6.118
 1502SOL    HW2 5406   6.464   0.125   5.956
 1503SOL     OW 5407   6.764   4.831   1.856
 1503SOL    HW1 5408   6.744   4.886   1.937
 1503SOL    HW2 5409   6.840   4.769   1.876
 1504SOL     OW 5410   1.765   6.758   2.298
 1504SOL    HW1 5411   1.836   6.752   2.368
 1504SOL    HW2 5412   1.806   6.759   2.208
 1505SOL     OW 5413   5.230   6.162   4.910
 1505SOL    HW1 5414   5.156   6.208   4.960
 1505SOL    HW2 5415   5.318   6.186   4.951
 1506SOL     OW 5416   0.346   1.926   1.090
 1506SOL    HW1 5417   0.426   1.929   1.029
 1506SOL    HW2 5418   0.268   1.890   1.039
 1507SOL     OW 5419   1.197   2.611   4.054
 1507SOL    HW1 5420   1.177   2.518   4.087
 1507SOL    HW2 5421   1.260   2.606   3.977
 1508SOL     OW 5422   1.258   0.486   0.662
 1508SOL    HW1 5423   1.230   0.469   0.567
 1508SOL    HW2 5424   1.242   0.403   0.716
 1509SOL     OW 5425   5.075   0.401   4.304
 1509SOL    HW1 5426   5.070   0.345   4.387
 1509SOL    HW2 5427   4.992   0.389   4.251
 1510SOL     OW 5428   3.448   5.889   4.394
 1510SOL    HW1 5429   3.367   5.835   4.416
 1510SOL    HW2 5430   3.489   5.854   4.309
 1511SOL     OW 5431   3.102   3.775   4.613
 1511SOL    HW1 5432   3.176   3.714   4.583
 1511SOL    HW2 5433   3.025   3.720   4.645
 1512SOL     OW 5434   5.959   6.337   1.015
 1512SOL    HW1 5435   5.916   6.358   0.927
 1512SOL    HW2 5436   5.991   6.421   1.058
 1513SOL     OW 5437   2.845   6.989   6.161
 1513SOL    HW1 5438   2.855   0.035   6.229
 1513SOL    HW2 5439   2.748   6.981   6.136
 1514SOL     OW 5440   3.003   2.561   5.993
 1514SOL    HW1 5441   2.970   2.629   6.058
 1514SOL    HW2 5442   3.049   2.487   6.043
 1515SOL     OW 5443   5.194   1.543   1.702
 1515SOL    HW1 5444   5.219   1.467   1.763
 1515SOL    HW2 5445   5.274   1.570   1.648
 1516SOL     OW 5446   5.948   0.041   5.549
 1516SOL    HW1 5447   6.035   0.062   5.504
 1516SOL    HW2 5448   5.954   0.064   5.646
 1517SOL     OW 5449   3.709   6.094   3.804
 1517SOL    HW1 5450   3.609   6.099   3.805
 1517SOL    HW2 5451   3.740   6.033   3.877
 1518SOL     OW 5452   0.829   3.006   0.171
 1518SOL    HW1 5453   0.824   2.927   0.109
 1518SOL    HW2 5454   0.738   3.047   0.179
 1519SOL     OW 5455   0.359   4.392   6.550
 1519SOL    HW1 5456   0.321   4.320   6.608
 1519SOL    HW2 5457   0.392   4.466   6.608
 1520SOL     OW 5458   0.398   6.023   2.596
 1520SOL    HW1 5459   0.457   6.081   2.539
 1520SOL    HW2 5460   0.302   6.046   2.579
 1521SOL     OW 5461   2.231   4.826   5.790
 1521SOL    HW1 5462   2.317   4.831   5.842
 1521SOL    HW2 5463   2.216   4.732   5.759
 1522SOL     OW 5464   5.306   6.020   4.007
 1522SOL    HW1 5465   5.339   5.927   4.022
 1522SOL    HW2 5466   5.341   6.053   3.920
 1523SOL     OW 5467   3.779   6.820   0.637
 1523SOL    HW1 5468   3.716   6.765   0.583
 1523SOL    HW2 5469   3.749   6.821   0.732
 1524SOL     OW 5470   2.306   1.742   2.975
 1524SOL    HW1 5471   2.277   1.647   2.991
 1524SOL    HW2 5472   2.251   1.803   3.031
 1525SOL     OW 5473   5.325   3.300   6.761
 1525SOL    HW1 5474   5.243   3.305   6.704
 1525SOL    HW2 5475   5.397   3.250   6.712
 1526SOL     OW 5476   1.159   1.241   0.216
 1526SOL    HW1 5477   1.250   1.281   0.226
 1526SOL    HW2 5478   1.148   1.206   0.123
 1527SOL     OW 5479   3.982   1.556   4.365
 1527SOL    HW1 5480   4.063   1.585   4.315
 1527SOL    HW2 5481   3.940   1.635   4.410
 1528SOL     OW 5482   4.041   3.811   1.634
 1528SOL    HW1 5483   4.047   3.851   1.725
 1528SOL    HW2 5484   3.949   3.775   1.619
 1529SOL     OW 5485   4.420   1.142   5.630
 1529SOL    HW1 5486   4.329   1.141   5.670
 1529SOL    HW2 5487   4.442   1.052   5.593
 1530SOL     OW 5488   3.256   6.172   1.311
 1530SOL    HW1 5489   3.203   6.149   1.229
 1530SOL    HW2 5490   3.326   6.240   1.289
 1531SOL     OW 5491   4.002   6.730   4.016
 1531SOL    HW1 5492   3.993   6.701   4.111
 1531SOL    HW2 5493   3.980   6.654   3.955
 1532SOL     OW 5494   3.093   5.768   6.549
 1532SOL    HW1 5495   3.144   5.730   6.472
 1532SOL    HW2 5496   3.142   5.848   6.585
 1533SOL     OW 5497   6.092   5.006   1.632
 1533SOL    HW1 5498   6.060   4.916   1.662
 1533SOL    HW2 5499   6.016   5.058   1.593
 1534SOL     OW 5500   3.690   5.481   6.402
 1534SOL    HW1 5501   3.607   5.454   6.354
 1534SOL    HW2 5502   3.729   5.562   6.360
 1535SOL     OW 5503   5.931   5.715   4.280
 1535SOL    HW1 5504   5.867   5.650   4.237
 1535SOL    HW2 5505   6.020   5.708   4.235
 1536SOL     OW 5506   4.744   3.138   5.964
 1536SOL    HW1 5507   4.674   3.188   5.914
 1536SOL    HW2 5508   4.773   3.058   5.910
 1537SOL     OW 5509   3.531   5.391   3.063
 1537SOL    HW1 5510   3.589   5.340   2.999
 1537SOL    HW2 5511   3.449   5.338   3.083
 1538SOL     OW 5512   2.848   1.468   7.020
 1538SOL    HW1 5513   2.759   1.504   6.994
 1538SOL    HW2 5514   2.899   1.442   6.938
 1539SOL     OW 5515   5.908   3.278   0.540
 1539SOL    HW1 5516   5.817   3.305   0.507
 1539SOL    HW2 5517   5.908   3.180   0.559
 1540SOL     OW 5518   3.506   6.709   4.579
 1540SOL    HW1 5519   3.466   6.636   4.634
 1540SOL    HW2 5520   3.486   6.692   4.482
 1541SOL     OW 5521   3.613   3.231   5.017
 1541SOL    HW1 5522   3.709   3.207   5.004
 1541SOL    HW2 5523   3.566   3.158   5.065
 1542SOL     OW 5524   0.616   0.106   2.794
 1542SOL    HW1 5525   0.600   0.127   2.697
 1542SOL    HW2 5526   0.532   0.069   2.834
 1543SOL     OW 5527   3.014   4.560   0.105
 1543SOL    HW1 5528   3.094   4.574   0.163
 1543SOL    HW2 5529   3.003   4.638   0.043
 1544SOL     OW 5530   3.699   3.393   4.441
 1544SOL    HW1 5531   3.608   3.351   4.437
 1544SOL    HW2 5532   3.762   3.341   4.383
 1545SOL     OW 5533   5.984   6.208   2.146
 1545SOL    HW1 5534   5.887   6.206   2.123
 1545SOL    HW2 5535   6.015   6.115   2.165
 1546SOL     OW 5536   5.209   6.801   5.804
 1546SOL    HW1 5537   5.120   6.847   5.810
 1546SOL    HW2 5538   5.216   6.731   5.875
 1547SOL     OW 5539   1.938   3.427   6.713
 1547SOL    HW1 5540   1.952   3.517   6.755
 1547SOL    HW2 5541   1.993   3.359   6.761
 1548SOL     OW 5542   6.228   1.953   6.625
 1548SOL    HW1 5543   6.139   1.923   6.590
 1548SOL    HW2 5544   6.223   1.960   6.725
 1549SOL     OW 5545   4.515   0.571   4.904
 1549SOL    HW1 5546   4.569   0.586   4.986
 1549SOL    HW2 5547   4.558   0.501   4.847
 1550SOL     OW 5548   3.798   3.000   3.707
 1550SOL    HW1 5549   3.724   2.948   3.749
 1550SOL    HW2 5550   3.808   2.973   3.611
 1551SOL     OW 5551   6.302   4.768   5.824
 1551SOL    HW1 5552   6.371   4.754   5.896
 1551SOL    HW2 5553   6.218   4.721   5.849
 1552SOL     OW 5554   1.423   4.205   1.657
 1552SOL    HW1 5555   1.478   4.239   1.733
 1552SOL    HW2 5556   1.332   4.182   1.691
 1553SOL     OW 5557   1.319   1.568   5.615
 1553SOL    HW1 5558   1.390   1.537   5.679
 1553SOL    HW2 5559   1.362   1.617   5.539
 1554SOL     OW 5560   2.862   1.279   4.147
 1554SOL    HW1 5561   2.946   1.331   4.161
 1554SOL    HW2 5562   2.853   1.254   4.050
 1555SOL     OW 5563   6.611   4.234   5.872
 1555SOL    HW1 5564   6.694   4.206   5.921
 1555SOL    HW2 5565   6.635   4.299   5.800
 1556SOL     OW 5566   2.213   1.028   6.184
 1556SOL    HW1 5567   2.290   1.004   6.243
 1556SOL    HW2 5568   2.245   1.048   6.092
 1557SOL     OW 5569   6.961   2.727   6.851
 1557SOL    HW1 5570   7.003   2.700   6.938
 1557SOL    HW2 5571   7.010   2.684   6.776
 1558SOL     OW 5572   0.393   0.056   4.937
 1558SOL    HW1 5573   0.400   6.985   4.922
 1558SOL    HW2 5574   0.445   0.105   4.866
 1559SOL     OW 5575   1.191   1.842   6.196
 1559SOL    HW1 5576   1.190   1.777   6.271
 1559SOL    HW2 5577   1.260   1.815   6.129
 1560SOL     OW 5578   6.589   0.082   6.470
 1560SOL    HW1 5579   6.532   0.129   6.537
 1560SOL    HW2 5580   6.685   0.101   6.489
 1561SOL     OW 5581   5.716   5.822   2.871
 1561SOL    HW1 5582   5.726   5.744   2.933
 1561SOL    HW2 5583   5.708   5.906   2.924
 1562SOL     OW 5584   5.808   1.228   3.683
 1562SOL    HW1 5585   5.776   1.280   3.604
 1562SOL    HW2 5586   5.734   1.171   3.718
 1563SOL     OW 5587   4.143   6.984   5.162
 1563SOL    HW1 5588   4.229   0.007   5.172
 1563SOL    HW2 5589   4.106   6.999   5.071
 1564SOL     OW 5590   1.504   1.568   2.867
 1564SOL    HW1 5591   1.574   1.640   2.873
 1564SOL    HW2 5592   1.474   1.559   2.772
 1565SOL     OW 5593   5.347   4.200   2.020
 1565SOL    HW1 5594   5.440   4.203   1.983
 1565SOL    HW2 5595   5.289   4.261   1.966
 1566SOL     OW 5596   6.062   4.462   3.418
 1566SOL    HW1 5597   6.119   4.485   3.340
 1566SOL    HW2 5598   6.117   4.459   3.501
 1567SOL     OW 5599   6.605   5.889   5.412
 1567SOL    HW1 5600   6.625   5.828   5.489
 1567SOL    HW2 5601   6.506   5.899   5.404
 1568SOL     OW 5602   0.323   6.826   0.634
 1568SOL    HW1 5603   0.343   6.904   0.574
 1568SOL    HW2 5604   0.407   6.798   0.680
 1569SOL     OW 5605   3.726   6.259   4.762
 1569SOL    HW1 5606   3.627   6.251   4.759
 1569SOL    HW2 5607   3.760   6.221   4.849
 1570SOL     OW 5608   3.602   1.900   1.807
 1570SOL    HW1 5609   3.582   1.997   1.822
 1570SOL    HW2 5610   3.578   1.847   1.888
 1571SOL     OW 5611   6.651   4.516   1.437
 1571SOL    HW1 5612   6.695   4.580   1.500
 1571SOL    HW2 5613   6.557   4.498   1.468
 1572SOL     OW 5614   1.562   6.249   2.237
 1572SOL    HW1 5615   1.578   6.347   2.248
 1572SOL    HW2 5616   1.469   6.235   2.201
 1573SOL     OW 5617   3.920   0.319   1.045
 1573SOL    HW1 5618   4.009   0.359   1.026
 1573SOL    HW2 5619   3.882   0.361   1.128
 1574SOL     OW 5620   6.116   2.682   2.114
 1574SOL    HW1 5621   6.088   2.627   2.036
 1574SOL    HW2 5622   6.059   2.659   2.194
 1575SOL     OW 5623   2.759   2.777   0.684
 1575SOL    HW1 5624   2.729   2.702   0.742
 1575SOL    HW2 5625   2.794   2.852   0.740
 1576SOL     OW 5626   0.039   6.185   3.999
 1576SOL    HW1 5627   7.003   6.135   4.058
 1576SOL    HW2 5628   0.071   6.124   3.926
 1577SOL     OW 5629   1.504   0.615   0.102
 1577SOL    HW1 5630   1.531   0.548   0.171
 1577SOL    HW2 5631   1.584   0.668   0.074
 1578SOL     OW 5632   5.784   5.156   4.521
 1578SOL    HW1 5633   5.715   5.226   4.503
 1578SOL    HW2 5634   5.753   5.069   4.484
 1579SOL     OW 5635   1.095   0.195   3.902
 1579SOL    HW1 5636   1.164   0.139   3.946
 1579SOL    HW2 5637   1.022   0.137   3.867
 1580SOL     OW 5638   3.094   3.940   5.784
 1580SOL    HW1 5639   3.192   3.942   5.765
 1580SOL    HW2 5640   3.079   3.947   5.882
 1581SOL     OW 5641   6.772   3.965   4.455
 1581SOL    HW1 5642   6.750   3.913   4.372
 1581SOL    HW2 5643   6.688   3.997   4.498
 1582SOL     OW 5644   6.023   5.209   4.373
 1582SOL    HW1 5645   6.046   5.303   4.398
 1582SOL    HW2 5646   5.925   5.196   4.379
 1583SOL     OW 5647   1.819   2.528   3.313
 1583SOL    HW1 5648   1.825   2.595   3.239
 1583SOL    HW2 5649   1.724   2.520   3.342
 1584SOL     OW 5650   2.257   0.763   6.815
 1584SOL    HW1 5651   2.315   0.719   6.746
 1584SOL    HW2 5652   2.283   0.729   6.906
 1585SOL     OW 5653   5.945   2.012   5.588
 1585SOL    HW1 5654   5.942   1.920   5.549
 1585SOL    HW2 5655   5.852   2.050   5.588
 1586SOL     OW 5656   3.520   4.125   2.763
 1586SOL    HW1 5657   3.450   4.138   2.834
 1586SOL    HW2 5658   3.476   4.118   2.674
 1587SOL     OW 5659   2.683   6.336   6.807
 1587SOL    HW1 5660   2.780   6.314   6.797
 1587SOL    HW2 5661   2.655   6.322   6.902
 1588SOL     OW 5662   6.174   3.802   1.499
 1588SOL    HW1 5663   6.125   3.825   1.415
 1588SOL    HW2 5664   6.187   3.885   1.553
 1589SOL     OW 5665   5.304   4.094   4.006
 1589SOL    HW1 5666   5.389   4.146   4.006
 1589SOL    HW2 5667   5.232   4.147   4.052
 1590SOL     OW 5668   1.764   0.777   6.128
 1590SOL    HW1 5669   1.673   0.806   6.099
 1590SOL    HW2 5670   1.833   0.839   6.089
 1591SOL     OW 5671   0.394   4.230   1.612
 1591SOL    HW1 5672   0.425   4.284   1.690
 1591SOL    HW2 5673   0.302   4.194   1.631
 1592SOL     OW 5674   2.966   3.365   2.936
 1592SOL    HW1 5675   2.964   3.282   2.992
 1592SOL    HW2 5676   2.973   3.340   2.839
 1593SOL     OW 5677   0.742   5.588   5.666
 1593SOL    HW1 5678   0.823   5.550   5.621
 1593SOL    HW2 5679   0.683   5.515   5.698
 1594SOL     OW 5680   7.009   5.031   3.410
 1594SOL    HW1 5681   0.050   4.989   3.350
 1594SOL    HW2 5682   0.010   5.124   3.433
 1595SOL     OW 5683   0.435   4.937   6.227
 1595SOL    HW1 5684   0.368   4.883   6.177
 1595SOL    HW2 5685   0.456   4.893   6.314
 1596SOL     OW 5686   2.672   5.275   6.892
 1596SOL    HW1 5687   2.591   5.256   6.837
 1596SOL    HW2 5688   2.656   5.245   6.986
 1597SOL     OW 5689   2.565   6.963   1.009
 1597SOL    HW1 5690   2.475   6.927   0.984
 1597SOL    HW2 5691   2.582   0.022   0.960
 1598SOL     OW 5692   6.989   5.515   1.496
 1598SOL    HW1 5693   0.006   5.569   1.567
 1598SOL    HW2 5694   0.023   5.441   1.467
 1599SOL     OW 5695   3.585   5.197   6.842
 1599SOL    HW1 5696   3.614   5.140   6.920
 1599SOL    HW2 5697   3.485   5.202   6.841
 1600SOL     OW 5698   3.934   1.447   4.978
 1600SOL    HW1 5699   3.928   1.493   5.066
 1600SOL    HW2 5700   3.847   1.401   4.957
 1601SOL     OW 5701   1.226   4.978   4.310
 1601SOL    HW1 5702   1.148   4.936   4.356
 1601SOL    HW2 5703   1.218   4.963   4.211
 1602SOL     OW 5704   0.945   4.620   3.292
 1602SOL    HW1 5705   1.014   4.648   3.358
 1602SOL    HW2 5706   0.944   4.520   3.286
 1603SOL     OW 5707   6.521   6.776   1.268
 1603SOL    HW1 5708   6.473   6.762   1.182
 1603SOL    HW2 5709   6.455   6.791   1.341
 1604SOL     OW 5710   0.618   5.940   5.639
 1604SOL    HW1 5711   0.605   5.850   5.680
 1604SOL    HW2 5712   0.661   5.930   5.549
 1605SOL     OW 5713   5.031   6.328   2.930
 1605SOL    HW1 5714   5.053   6.415   2.886
 1605SOL    HW2 5715   5.035   6.254   2.863
 1606SOL     OW 5716   4.981   6.847   6.172
 1606SOL    HW1 5717   4.967   6.768   6.111
 1606SOL    HW2 5718   5.048   6.909   6.131
 1607SOL     OW 5719   4.122   2.316   0.921
 1607SOL    HW1 5720   4.195   2.365   0.873
 1607SOL    HW2 5721   4.128   2.219   0.901
 1608SOL     OW 5722   2.473   6.982   0.639
 1608SOL    HW1 5723   2.393   6.976   0.579
 1608SOL    HW2 5724   2.455   0.020   0.712
 1609SOL     OW 5725   4.738   1.685   5.215
 1609SOL    HW1 5726   4.727   1.586   5.203
 1609SOL    HW2 5727   4.748   1.729   5.125
 1610SOL     OW 5728   5.473   5.798   4.120
 1610SOL    HW1 5729   5.537   5.866   4.082
 1610SOL    HW2 5730   5.507   5.765   4.208
 1611SOL     OW 5731   3.059   3.564   1.000
 1611SOL    HW1 5732   3.008   3.579   0.915
 1611SOL    HW2 5733   3.005   3.504   1.060
 1612SOL     OW 5734   3.532   1.195   4.650
 1612SOL    HW1 5735   3.631   1.188   4.641
 1612SOL    HW2 5736   3.509   1.248   4.731
 1613SOL     OW 5737   1.512   5.923   0.634
 1613SOL    HW1 5738   1.428   5.969   0.604
 1613SOL    HW2 5739   1.590   5.958   0.581
 1614SOL     OW 5740   0.023   2.667   6.588
 1614SOL    HW1 5741   6.999   2.729   6.529
 1614SOL    HW2 5742   0.069   2.598   6.531
 1615SOL     OW 5743   6.285   4.937   6.324
 1615SOL    HW1 5744   6.283   4.935   6.224
 1615SOL    HW2 5745   6.349   5.008   6.354
 1616SOL     OW 5746   2.536   1.704   5.380
 1616SOL    HW1 5747   2.564   1.760   5.457
 1616SOL    HW2 5748   2.463   1.642   5.408
 1617SOL     OW 5749   4.909   0.421   4.049
 1617SOL    HW1 5750   4.860   0.483   3.987
 1617SOL    HW2 5751   4.960   0.354   3.995
 1618SOL     OW 5752   5.473   2.417   0.808
 1618SOL    HW1 5753   5.551   2.373   0.852
 1618SOL    HW2 5754   5.442   2.361   0.731
 1619SOL     OW 5755   1.737   3.094   4.442
 1619SOL    HW1 5756   1.716   3.106   4.539
 1619SOL    HW2 5757   1.694   3.168   4.390
 1620SOL     OW 5758   3.768   5.155   1.538
 1620SOL    HW1 5759   3.689   5.214   1.524
 1620SOL    HW2 5760   3.851   5.205   1.515
 1621SOL     OW 5761   1.730   1.196   1.306
 1621SOL    HW1 5762   1.645   1.248   1.302
 1621SOL    HW2 5763   1.718   1.108   1.261
 1622SOL     OW 5764   2.178   2.289   4.133
 1622SOL    HW1 5765   2.142   2.365   4.079
 1622SOL    HW2 5766   2.238   2.233   4.076
 1623SOL     OW 5767   2.786   1.993   5.216
 1623SOL    HW1 5768   2.857   1.982   5.286
 1623SOL    HW2 5769   2.817   2.058   5.147
 1624SOL     OW 5770   2.422   0.541   0.564
 1624SOL    HW1 5771   2.397   0.588   0.479
 1624SOL    HW2 5772   2.514   0.501   0.554
 1625SOL     OW 5773   6.766   5.410   2.029
 1625SOL    HW1 5774   6.681   5.445   2.068
 1625SOL    HW2 5775   6.753   5.389   1.932
 1626SOL     OW 5776   1.911   2.910   6.154
 1626SOL    HW1 5777   1.995   2.856   6.148
 1626SOL    HW2 5778   1.929   3.004   6.126
 1627SOL     OW 5779   5.178   3.282   3.740
 1627SOL    HW1 5780   5.090   3.311   3.703
 1627SOL    HW2 5781   5.163   3.214   3.812
 1628SOL     OW 5782   2.876   3.413   0.386
 1628SOL    HW1 5783   2.861   3.325   0.341
 1628SOL    HW2 5784   2.907   3.397   0.480
 1629SOL     OW 5785   4.550   2.132   3.430
 1629SOL    HW1 5786   4.586   2.200   3.494
 1629SOL    HW2 5787   4.490   2.069   3.480
 1630SOL     OW 5788   0.206   4.978   4.477
 1630SOL    HW1 5789   0.130   4.992   4.540
 1630SOL    HW2 5790   0.172   4.977   4.383
 1631SOL     OW 5791   0.275   6.688   5.772
 1631SOL    HW1 5792   0.325   6.674   5.857
 1631SOL    HW2 5793   0.268   6.602   5.722
 1632SOL     OW 5794   6.038   0.109   1.657
 1632SOL    HW1 5795   6.003   0.151   1.573
 1632SOL    HW2 5796   6.135   0.088   1.645
 1633SOL     OW 5797   5.322   2.812   3.563
 1633SOL    HW1 5798   5.325   2.887   3.630
 1633SOL    HW2 5799   5.289   2.848   3.475
 1634SOL     OW 5800   3.422   0.791   0.000
 1634SOL    HW1 5801   3.500   0.777   0.062
 1634SOL    HW2 5802   3.454   0.792   6.933
 1635SOL     OW 5803   0.873   5.351   3.146
 1635SOL    HW1 5804   0.955   5.396   3.112
 1635SOL    HW2 5805   0.892   5.307   3.234
 1636SOL     OW 5806   2.338   6.234   1.735
 1636SOL    HW1 5807   2.242   6.207   1.740
 1636SOL    HW2 5808   2.388   6.197   1.813
 1637SOL     OW 5809   0.195   3.622   2.190
 1637SOL    HW1 5810   0.168   3.536   2.147
 1637SOL    HW2 5811   0.294   3.623   2.203
 1638SOL     OW 5812   1.872   3.047   5.072
 1638SOL    HW1 5813   1.838   2.962   5.032
 1638SOL    HW2 5814   1.964   3.032   5.110
 1639SOL     OW 5815   4.590   4.613   2.712
 1639SOL    HW1 5816   4.622   4.569   2.628
 1639SOL    HW2 5817   4.654   4.686   2.738
 1640SOL     OW 5818   6.215   0.274   1.247
 1640SOL    HW1 5819   6.136   0.230   1.291
 1640SOL    HW2 5820   6.275   0.312   1.317
 1641SOL     OW 5821   6.377   2.590   5.789
 1641SOL    HW1 5822   6.317   2.626   5.860
 1641SOL    HW2 5823   6.415   2.666   5.736
 1642SOL     OW 5824   0.260   2.438   1.418
 1642SOL    HW1 5825   0.201   2.432   1.337
 1642SOL    HW2 5826   0.337   2.499   1.397
 1643SOL     OW 5827   3.771   0.618   6.023
 1643SOL    HW1 5828   3.718   0.680   6.081
 1643SOL    HW2 5829   3.848   0.581   6.076
 1644SOL     OW 5830   3.507   1.179   1.391
 1644SOL    HW1 5831   3.522   1.090   1.433
 1644SOL    HW2 5832   3.470   1.167   1.299
 1645SOL     OW 5833   2.097   6.627   5.957
 1645SOL    HW1 5834   2.172   6.652   6.019
 1645SOL    HW2 5835   2.132   6.571   5.883
 1646SOL     OW 5836   0.754   3.761   0.903
 1646SOL    HW1 5837   0.670   3.815   0.899
 1646SOL    HW2 5838   0.746   3.692   0.975
 1647SOL     OW 5839   6.028   2.646   3.366
 1647SOL    HW1 5840   6.015   2.702   3.448
 1647SOL    HW2 5841   6.055   2.554   3.393
 1648SOL     OW 5842   4.545   6.772   2.189
 1648SOL    HW1 5843   4.555   6.799   2.284
 1648SOL    HW2 5844   4.468   6.821   2.148
 1649SOL     OW 5845   3.494   0.172   3.138
 1649SOL    HW1 5846   3.476   0.267   3.164
 1649SOL    HW2 5847   3.592   0.161   3.119
 1650SOL     OW 5848   2.976   6.637   3.955
 1650SOL    HW1 5849   2.962   6.546   3.993
 1650SOL    HW2 5850   3.057   6.679   3.996
 1651SOL     OW 5851   1.402   6.563   0.849
 1651SOL    HW1 5852   1.315   6.513   0.851
 1651SOL    HW2 5853   1.385   6.660   0.863
 1652SOL     OW 5854   2.686   2.791   1.576
 1652SOL    HW1 5855   2.650   2.712   1.625
 1652SOL    HW2 5856   2.633   2.873   1.600
 1653SOL     OW 5857   1.022   5.090   0.622
 1653SOL    HW1 5858   0.930   5.052   0.625
 1653SOL    HW2 5859   1.086   5.027   0.666
 1654SOL     OW 5860   0.386   2.610   3.343
 1654SOL    HW1 5861   0.426   2.524   3.372
 1654SOL    HW2 5862   0.373   2.609   3.243
 1655SOL     OW 5863   5.198   4.863   5.960
 1655SOL    HW1 5864   5.175   4.913   6.043
 1655SOL    HW2 5865   5.292   4.884   5.933
 1656SOL     OW 5866   0.759   4.220   3.397
 1656SOL    HW1 5867   0.768   4.148   3.466
 1656SOL    HW2 5868   0.797   4.188   3.310
 1657SOL     OW 5869   1.200   0.084   5.430
 1657SOL    HW1 5870   1.131   0.147   5.394
 1657SOL    HW2 5871   1.247   0.125   5.508
 1658SOL     OW 5872   6.315   5.910   2.753
 1658SOL    HW1 5873   6.239   5.926   2.816
 1658SOL    HW2 5874   6.281   5.910   2.659
 1659SOL     OW 5875   4.514   2.283   5.509
 1659SOL    HW1 5876   4.603   2.270   5.465
 1659SOL    HW2 5877   4.482   2.376   5.491
 1660SOL     OW 5878   1.646   5.535   3.436
 1660SOL    HW1 5879   1.601   5.623   3.423
 1660SOL    HW2 5880   1.706   5.539   3.516
 1661SOL     OW 5881   2.938   6.937   2.495
 1661SOL    HW1 5882   3.004   7.011   2.480
 1661SOL    HW2 5883   2.987   6.852   2.515
 1662SOL     OW 5884   0.766   0.319   3.697
 1662SOL    HW1 5885   0.734   0.307   3.791
 1662SOL    HW2 5886   0.809   0.234   3.666
 1663SOL     OW 5887   2.907   6.993   3.433
 1663SOL    HW1 5888   3.005   6.979   3.441
 1663SOL    HW2 5889   2.871   6.937   3.358
 1664SOL     OW 5890   2.467   5.751   4.580
 1664SOL    HW1 5891   2.402   5.779   4.651
 1664SOL    HW2 5892   2.420   5.696   4.511
 1665SOL     OW 5893   0.599   6.645   5.134
 1665SOL    HW1 5894   0.661   6.617   5.061
 1665SOL    HW2 5895   0.606   6.744   5.148
 1666SOL     OW 5896   5.670   2.971   6.027
 1666SOL    HW1 5897   5.628   2.891   6.071
 1666SOL    HW2 5898   5.641   3.054   6.074
 1667SOL     OW 5899   6.742   0.737   6.151
 1667SOL    HW1 5900   6.756   0.663   6.084
 1667SOL    HW2 5901   6.811   0.808   6.136
 1668SOL     OW 5902   3.411   1.347   5.200
 1668SOL    HW1 5903   3.325   1.351   5.149
 1668SOL    HW2 5904   3.396   1.298   5.287
 1669SOL     OW 5905   5.445   6.615   6.318
 1669SOL    HW1 5906   5.438   6.516   6.320
 1669SOL    HW2 5907   5.529   6.642   6.271
 1670SOL     OW 5908   5.583   3.890   5.679
 1670SOL    HW1 5909   5.504   3.944   5.708
 1670SOL    HW2 5910   5.575   3.797   5.713
 1671SOL     OW 5911   5.403   4.587   6.879
 1671SOL    HW1 5912   5.308   4.615   6.865
 1671SOL    HW2 5913   5.418   4.565   6.975
 1672SOL     OW 5914   2.321   5.237   2.782
 1672SOL    HW1 5915   2.280   5.166   2.725
 1672SOL    HW2 5916   2.420   5.241   2.765
 1673SOL     OW 5917   6.959   1.817   3.919
 1673SOL    HW1 5918   7.024   1.891   3.903
 1673SOL    HW2 5919   6.983   1.738   3.863
 1674SOL     OW 5920   1.126   5.174   6.407
 1674SOL    HW1 5921   1.066   5.110   6.358
 1674SOL    HW2 5922   1.085   5.198   6.495
 1675SOL     OW 5923   4.824   2.656   0.044
 1675SOL    HW1 5924   4.735   2.688   0.076
 1675SOL    HW2 5925   4.835   2.559   0.066
 1676SOL     OW 5926   2.518   0.940   3.410
 1676SOL    HW1 5927   2.477   0.854   3.438
 1676SOL    HW2 5928   2.453   1.014   3.425
 1677SOL     OW 5929   6.494   0.912   5.335
 1677SOL    HW1 5930   6.576   0.913   5.392
 1677SOL    HW2 5931   6.520   0.904   5.239
 1678SOL     OW 5932   5.351   6.886   0.938
 1678SOL    HW1 5933   5.392   6.807   0.892
 1678SOL    HW2 5934   5.254   6.890   0.915
 1679SOL     OW 5935   6.435   4.348   0.123
 1679SOL    HW1 5936   6.437   4.276   0.191
 1679SOL    HW2 5937   6.351   4.401   0.132
 1680SOL     OW 5938   0.989   1.809   4.758
 1680SOL    HW1 5939   1.024   1.716   4.755
 1680SOL    HW2 5940   1.049   1.866   4.814
 1681SOL     OW 5941   6.176   5.289   1.251
 1681SOL    HW1 5942   6.078   5.278   1.265
 1681SOL    HW2 5943   6.209   5.365   1.305
 1682SOL     OW 5944   6.426   3.496   5.615
 1682SOL    HW1 5945   6.390   3.582   5.652
 1682SOL    HW2 5946   6.517   3.479   5.652
 1683SOL     OW 5947   5.890   5.984   0.012
 1683SOL    HW1 5948   5.918   5.962   6.946
 1683SOL    HW2 5949   5.791   5.977   0.020
 1684SOL     OW 5950   0.606   5.735   4.647
 1684SOL    HW1 5951   0.690   5.759   4.598
 1684SOL    HW2 5952   0.540   5.810   4.639
 1685SOL     OW 5953   1.291   1.748   6.959
 1685SOL    HW1 5954   1.300   1.814   6.885
 1685SOL    HW2 5955   1.307   1.656   6.925
 1686SOL     OW 5956   1.803   5.851   6.432
 1686SOL    HW1 5957   1.864   5.884   6.504
 1686SOL    HW2 5958   1.821   5.901   6.347
 1687SOL     OW 5959   1.412   0.014   1.699
 1687SOL    HW1 5960   1.387   0.054   1.610
 1687SOL    HW2 5961   1.495   0.058   1.733
 1688SOL     OW 5962   0.344   1.799   3.541
 1688SOL    HW1 5963   0.358   1.896   3.559
 1688SOL    HW2 5964   0.432   1.756   3.522
 1689SOL     OW 5965   3.028   1.198   2.708
 1689SOL    HW1 5966   2.959   1.132   2.737
 1689SOL    HW2 5967   3.119   1.167   2.737
 1690SOL     OW 5968   0.518   2.218   1.054
 1690SOL    HW1 5969   0.536   2.210   1.152
 1690SOL    HW2 5970   0.452   2.290   1.038
 1691SOL     OW 5971   4.705   4.998   2.515
 1691SOL    HW1 5972   4.641   4.950   2.454
 1691SOL    HW2 5973   4.654   5.061   2.573
 1692SOL     OW 5974   1.450   0.531   3.705
 1692SOL    HW1 5975   1.479   0.563   3.615
 1692SOL    HW2 5976   1.530   0.518   3.763
 1693SOL     OW 5977   2.841   2.228   3.731
 1693SOL    HW1 5978   2.742   2.214   3.741
 1693SOL    HW2 5979   2.868   2.204   3.638
 1694SOL     OW 5980   4.431   5.903   6.062
 1694SOL    HW1 5981   4.448   5.997   6.030
 1694SOL    HW2 5982   4.480   5.889   6.148
 1695SOL     OW 5983   2.372   1.871   5.987
 1695SOL    HW1 5984   2.359   1.961   5.945
 1695SOL    HW2 5985   2.466   1.863   6.021
 1696SOL     OW 5986   3.224   5.701   1.253
 1696SOL    HW1 5987   3.155   5.719   1.323
 1696SOL    HW2 5988   3.274   5.785   1.232
 1697SOL     OW 5989   1.296   1.234   1.626
 1697SOL    HW1 5990   1.236   1.216   1.548
 1697SOL    HW2 5991   1.345   1.151   1.650
 1698SOL     OW 5992   5.160   2.223   0.826
 1698SOL    HW1 5993   5.166   2.323   0.822
 1698SOL    HW2 5994   5.170   2.193   0.921
 1699SOL     OW 5995   2.337   4.046   1.149
 1699SOL    HW1 5996   2.413   4.078   1.206
 1699SOL    HW2 5997   2.354   3.951   1.121
 1700SOL     OW 5998   6.420   3.013   4.595
 1700SOL    HW1 5999   6.506   3.014   4.646
 1700SOL    HW2 6000   6.412   2.927   4.545
 1701SOL     OW 6001   6.040   3.542   4.596
 1701SOL    HW1 6002   5.990   3.572   4.515
 1701SOL    HW2 6003   6.025   3.608   4.670
 1702SOL     OW 6004   4.628   2.614   1.499
 1702SOL    HW1 6005   4.667   2.684   1.440
 1702SOL    HW2 6006   4.557   2.654   1.557
 1703SOL     OW 6007   2.011   4.359   0.362
 1703SOL    HW1 6008   2.039   4.300   0.286
 1703SOL    HW2 6009   2.092   4.387   0.414
 1704SOL     OW 6010   0.978   1.077   2.032
 1704SOL    HW1 6011   1.015   0.989   2.002
 1704SOL    HW2 6012   0.902   1.062   2.094
 1705SOL     OW 6013   3.848   3.214   1.977
 1705SOL    HW1 6014   3.910   3.264   1.917
 1705SOL    HW2 6015   3.879   3.119   1.985
 1706SOL     OW 6016   2.606   0.765   6.527
 1706SOL    HW1 6017   2.616   0.737   6.622
 1706SOL    HW2 6018   2.600   0.864   6.521
 1707SOL     OW 6019   6.347   1.613   2.865
 1707SOL    HW1 6020   6.280   1.569   2.924
 1707SOL    HW2 6021   6.383   1.547   2.799
 1708SOL     OW 6022   0.205   4.846   2.309
 1708SOL    HW1 6023   0.127   4.906   2.297
 1708SOL    HW2 6024   0.249   4.831   2.221
 1709SOL     OW 6025   3.630   5.714   4.149
 1709SOL    HW1 6026   3.633   5.705   4.050
 1709SOL    HW2 6027   3.566   5.648   4.188
 1710SOL     OW 6028   0.063   5.693   4.099
 1710SOL    HW1 6029   0.000   5.750   4.045
 1710SOL    HW2 6030   0.128   5.648   4.037
 1711SOL     OW 6031   1.674   4.583   5.549
 1711SOL    HW1 6032   1.675   4.528   5.465
 1711SOL    HW2 6033   1.673   4.680   5.525
 1712SOL     OW 6034   1.266   4.744   1.065
 1712SOL    HW1 6035   1.235   4.681   0.994
 1712SOL    HW2 6036   1.306   4.825   1.022
 1713SOL     OW 6037   1.435   3.610   0.422
 1713SOL    HW1 6038   1.422   3.534   0.358
 1713SOL    HW2 6039   1.362   3.609   0.491
 1714SOL     OW 6040   3.379   1.639   0.327
 1714SOL    HW1 6041   3.369   1.551   0.280
 1714SOL    HW2 6042   3.381   1.623   0.426
 1715SOL     OW 6043   0.439   3.260   3.890
 1715SOL    HW1 6044   0.509   3.189   3.880
 1715SOL    HW2 6045   0.361   3.224   3.941
 1716SOL     OW 6046   0.143   6.550   0.268
 1716SOL    HW1 6047   0.151   6.581   0.173
 1716SOL    HW2 6048   0.162   6.626   0.330
 1717SOL     OW 6049   3.475   0.453   0.215
 1717SOL    HW1 6050   3.546   0.494   0.273
 1717SOL    HW2 6051   3.431   0.378   0.264
 1718SOL     OW 6052   1.041   4.861   5.262
 1718SOL    HW1 6053   0.957   4.896   5.301
 1718SOL    HW2 6054   1.069   4.919   5.185
 1719SOL     OW 6055   2.401   3.506   1.528
 1719SOL    HW1 6056   2.312   3.513   1.573
 1719SOL    HW2 6057   2.410   3.415   1.487
 1720SOL     OW 6058   6.602   1.779   1.677
 1720SOL    HW1 6059   6.513   1.734   1.689
 1720SOL    HW2 6060   6.673   1.709   1.670
 1721SOL     OW 6061   2.029   6.339   3.510
 1721SOL    HW1 6062   1.963   6.334   3.585
 1721SOL    HW2 6063   2.118   6.307   3.542
 1722SOL     OW 6064   5.667   6.806   2.326
 1722SOL    HW1 6065   5.577   6.846   2.308
 1722SOL    HW2 6066   5.685   6.733   2.260
 1723SOL     OW 6067   6.329   1.351   2.058
 1723SOL    HW1 6068   6.397   1.366   1.986
 1723SOL    HW2 6069   6.252   1.413   2.043
 1724SOL     OW 6070   4.933   0.481   6.996
 1724SOL    HW1 6071   4.922   0.385   6.972
 1724SOL    HW2 6072   5.023   0.513   6.966
 1725SOL     OW 6073   4.138   5.037   2.034
 1725SOL    HW1 6074   4.189   5.110   1.988
 1725SOL    HW2 6075   4.063   5.008   1.975
 1726SOL     OW 6076   0.460   5.126   4.395
 1726SOL    HW1 6077   0.500   5.075   4.472
 1726SOL    HW2 6078   0.384   5.074   4.356
 1727SOL     OW 6079   3.582   3.560   5.301
 1727SOL    HW1 6080   3.634   3.546   5.385
 1727SOL    HW2 6081   3.509   3.492   5.295
 1728SOL     OW 6082   4.686   4.213   3.611
 1728SOL    HW1 6083   4.737   4.224   3.526
 1728SOL    HW2 6084   4.722   4.134   3.661
 1729SOL     OW 6085   1.770   3.390   2.662
 1729SOL    HW1 6086   1.778   3.343   2.575
 1729SOL    HW2 6087   1.847   3.453   2.674
 1730SOL     OW 6088   6.006   2.116   4.738
 1730SOL    HW1 6089   6.071   2.047   4.706
 1730SOL    HW2 6090   5.986   2.101   4.835
 1731SOL     OW 6091   1.151   5.529   0.004
 1731SOL    HW1 6092   1.192   5.504   0.092
 1731SOL    HW2 6093   1.167   5.456   6.965
 1732SOL     OW 6094   0.451   4.885   0.145
 1732SOL    HW1 6095   0.459   4.974   0.100
 1732SOL    HW2 6096   0.531   4.829   0.122
 1733SOL     OW 6097   1.291   4.050   0.842
 1733SOL    HW1 6098   1.270   4.035   0.939
 1733SOL    HW2 6099   1.349   3.976   0.808
 1734SOL     OW 6100   4.745   3.242   1.109
 1734SOL    HW1 6101   4.791   3.330   1.120
 1734SOL    HW2 6102   4.655   3.256   1.068
 1735SOL     OW 6103   5.814   5.516   1.861
 1735SOL    HW1 6104   5.875   5.591   1.884
 1735SOL    HW2 6105   5.719   5.548   1.863
 1736SOL     OW 6106   3.120   3.864   0.608
 1736SOL    HW1 6107   3.162   3.859   0.517
 1736SOL    HW2 6108   3.114   3.773   0.648
 1737SOL     OW 6109   1.582   5.965   3.874
 1737SOL    HW1 6110   1.496   5.983   3.827
 1737SOL    HW2 6111   1.580   5.873   3.913
 1738SOL     OW 6112   1.192   2.176   1.564
 1738SOL    HW1 6113   1.277   2.123   1.571
 1738SOL    HW2 6114   1.116   2.115   1.543
 1739SOL     OW 6115   4.120   2.072   5.620
 1739SOL    HW1 6116   4.190   2.093   5.551
 1739SOL    HW2 6117   4.140   2.123   5.704
 1740SOL     OW 6118   0.938   1.185   5.958
 1740SOL    HW1 6119   0.838   1.191   5.952
 1740SOL    HW2 6120   0.977   1.177   5.866
 1741SOL     OW 6121   1.905   0.548   2.386
 1741SOL    HW1 6122   1.938   0.472   2.330
 1741SOL    HW2 6123   1.870   0.621   2.327
 1742SOL     OW 6124   6.021   0.223   4.270
 1742SOL    HW1 6125   6.039   0.290   4.342
 1742SOL    HW2 6126   5.923   0.204   4.265
 1743SOL     OW 6127   4.750   1.294   0.600
 1743SOL    HW1 6128   4.846   1.288   0.573
 1743SOL    HW2 6129   4.693   1.304   0.518
 1744SOL     OW 6130   3.057   0.816   1.614
 1744SOL    HW1 6131   2.990   0.860   1.673
 1744SOL    HW2 6132   3.068   0.720   1.642
 1745SOL     OW 6133   6.930   2.940   4.410
 1745SOL    HW1 6134   7.003   2.902   4.468
 1745SOL    HW2 6135   6.849   2.882   4.417
 1746SOL     OW 6136   2.679   0.472   6.089
 1746SOL    HW1 6137   2.746   0.545   6.073
 1746SOL    HW2 6138   2.689   0.401   6.020
 1747SOL     OW 6139   4.559   0.600   0.332
 1747SOL    HW1 6140   4.470   0.613   0.289
 1747SOL    HW2 6141   4.603   0.688   0.345
 1748SOL     OW 6142   5.930   1.726   1.821
 1748SOL    HW1 6143   5.923   1.776   1.734
 1748SOL    HW2 6144   5.856   1.755   1.881
 1749SOL     OW 6145   4.315   0.065   6.215
 1749SOL    HW1 6146   4.368   0.091   6.133
 1749SOL    HW2 6147   4.292   6.995   6.210
 1750SOL     OW 6148   5.310   0.684   3.493
 1750SOL    HW1 6149   5.409   0.681   3.510
 1750SOL    HW2 6150   5.272   0.767   3.533
 1751SOL     OW 6151   2.006   5.715   3.970
 1751SOL    HW1 6152   1.970   5.624   3.987
 1751SOL    HW2 6153   2.097   5.707   3.928
 1752SOL     OW 6154   6.802   2.313   0.285
 1752SOL    HW1 6155   6.834   2.395   0.332
 1752SOL    HW2 6156   6.702   2.309   0.289
 1753SOL     OW 6157   2.602   0.083   2.145
 1753SOL    HW1 6158   2.603   0.057   2.241
 1753SOL    HW2 6159   2.663   0.023   2.093
 1754SOL     OW 6160   3.602   2.715   1.033
 1754SOL    HW1 6161   3.503   2.705   1.029
 1754SOL    HW2 6162   3.643   2.632   1.069
 1755SOL     OW 6163   4.900   3.626   0.237
 1755SOL    HW1 6164   4.945   3.627   0.148
 1755SOL    HW2 6165   4.939   3.552   0.293
 1756SOL     OW 6166   6.104   5.461   4.482
 1756SOL    HW1 6167   6.031   5.518   4.518
 1756SOL    HW2 6168   6.190   5.483   4.529
 1757SOL     OW 6169   3.332   6.944   5.131
 1757SOL    HW1 6170   3.248   6.895   5.155
 1757SOL    HW2 6171   3.382   6.893   5.061
 1758SOL     OW 6172   2.634   1.404   3.370
 1758SOL    HW1 6173   2.663   1.493   3.404
 1758SOL    HW2 6174   2.704   1.336   3.394
 1759SOL     OW 6175   0.195   5.550   6.402
 1759SOL    HW1 6176   0.097   5.566   6.391
 1759SOL    HW2 6177   0.235   5.531   6.312
 1760SOL     OW 6178   5.718   0.590   2.111
 1760SOL    HW1 6179   5.793   0.605   2.046
 1760SOL    HW2 6180   5.697   0.676   2.157
 1761SOL     OW 6181   6.376   2.604   0.880
 1761SOL    HW1 6182   6.352   2.584   0.975
 1761SOL    HW2 6183   6.426   2.691   0.875
 1762SOL     OW 6184   5.919   2.128   6.855
 1762SOL    HW1 6185   5.886   2.049   6.908
 1762SOL    HW2 6186   5.888   2.212   6.898
 1763SOL     OW 6187   1.985   3.744   3.458
 1763SOL    HW1 6188   1.961   3.824   3.513
 1763SOL    HW2 6189   2.016   3.671   3.518
 1764SOL     OW 6190   6.660   2.932   4.251
 1764SOL    HW1 6191   6.588   2.874   4.288
 1764SOL    HW2 6192   6.640   3.028   4.272
 1765SOL     OW 6193   2.715   2.623   6.248
 1765SOL    HW1 6194   2.650   2.653   6.318
 1765SOL    HW2 6195   2.684   2.653   6.158
 1766SOL     OW 6196   5.750   3.166   5.452
 1766SOL    HW1 6197   5.761   3.072   5.420
 1766SOL    HW2 6198   5.684   3.214   5.393
 1767SOL     OW 6199   5.682   3.694   2.093
 1767SOL    HW1 6200   5.666   3.671   1.997
 1767SOL    HW2 6201   5.777   3.675   2.116
 1768SOL     OW 6202   5.593   6.333   3.826
 1768SOL    HW1 6203   5.660   6.274   3.871
 1768SOL    HW2 6204   5.535   6.376   3.894
 1769SOL     OW 6205   5.692   1.454   2.959
 1769SOL    HW1 6206   5.646   1.468   3.047
 1769SOL    HW2 6207   5.767   1.389   2.971
 1770SOL     OW 6208   2.648   5.318   5.098
 1770SOL    HW1 6209   2.566   5.290   5.147
 1770SOL    HW2 6210   2.674   5.247   5.033
 1771SOL     OW 6211   5.016   6.071   6.237
 1771SOL    HW1 6212   5.016   6.169   6.257
 1771SOL    HW2 6213   5.054   6.021   6.315
 1772SOL     OW 6214   3.620   6.334   2.712
 1772SOL    HW1 6215   3.650   6.257   2.655
 1772SOL    HW2 6216   3.637   6.314   2.808
 1773SOL     OW 6217   0.810   5.404   6.879
 1773SOL    HW1 6218   0.785   5.326   6.936
 1773SOL    HW2 6219   0.727   5.448   6.845
 1774SOL     OW 6220   3.537   5.218   2.077
 1774SOL    HW1 6221   3.551   5.183   1.985
 1774SOL    HW2 6222   3.455   5.275   2.079
 1775SOL     OW 6223   0.559   4.619   1.604
 1775SOL    HW1 6224   0.638   4.581   1.556
 1775SOL    HW2 6225   0.587   4.647   1.696
 1776SOL     OW 6226   3.148   5.638   5.246
 1776SOL    HW1 6227   3.097   5.714   5.287
 1776SOL    HW2 6228   3.119   5.552   5.287
 1777SOL     OW 6229   3.457   5.932   0.375
 1777SOL    HW1 6230   3.379   5.905   0.431
 1777SOL    HW2 6231   3.432   5.926   0.278
 1778SOL     OW 6232   5.930   3.409   5.332
 1778SOL    HW1 6233   5.903   3.350   5.408
 1778SOL    HW2 6234   5.982   3.487   5.366
 1779SOL     OW 6235   3.422   6.647   5.411
 1779SOL    HW1 6236   3.489   6.708   5.453
 1779SOL    HW2 6237   3.330   6.670   5.446
 1780SOL     OW 6238   3.180   3.342   6.494
 1780SOL    HW1 6239   3.247   3.410   6.463
 1780SOL    HW2 6240   3.091   3.363   6.455
 1781SOL     OW 6241   3.755   5.474   3.223
 1781SOL    HW1 6242   3.732   5.417   3.302
 1781SOL    HW2 6243   3.682   5.465   3.154
 1782SOL     OW 6244   3.575   1.687   3.853
 1782SOL    HW1 6245   3.643   1.704   3.925
 1782SOL    HW2 6246   3.606   1.611   3.795
 1783SOL     OW 6247   1.421   5.432   0.112
 1783SOL    HW1 6248   1.356   5.453   0.184
 1783SOL    HW2 6249   1.447   5.336   0.117
 1784SOL     OW 6250   3.534   6.599   5.120
 1784SOL    HW1 6251   3.567   6.592   5.214
 1784SOL    HW2 6252   3.559   6.516   5.070
 1785SOL     OW 6253   6.308   4.612   2.869
 1785SOL    HW1 6254   6.354   4.699   2.889
 1785SOL    HW2 6255   6.340   4.542   2.932
 1786SOL     OW 6256   3.352   2.673   1.255
 1786SOL    HW1 6257   3.298   2.632   1.329
 1786SOL    HW2 6258   3.431   2.720   1.294
 1787SOL     OW 6259   3.519   0.219   6.148
 1787SOL    HW1 6260   3.477   0.149   6.090
 1787SOL    HW2 6261   3.523   0.186   6.243
 1788SOL     OW 6262   1.960   4.911   4.973
 1788SOL    HW1 6263   2.007   4.823   4.985
 1788SOL    HW2 6264   2.012   4.983   5.018
 1789SOL     OW 6265   6.136   1.376   7.018
 1789SOL    HW1 6266   6.065   1.405   6.954
 1789SOL    HW2 6267   6.216   1.343   6.967
 1790SOL     OW 6268   4.058   6.746   2.987
 1790SOL    HW1 6269   4.007   6.676   2.937
 1790SOL    HW2 6270   4.146   6.761   2.941
 1791SOL     OW 6271   0.529   6.854   2.417
 1791SOL    HW1 6272   0.476   6.935   2.439
 1791SOL    HW2 6273   0.626   6.872   2.431
 1792SOL     OW 6274   1.278   3.055   5.357
 1792SOL    HW1 6275   1.376   3.037   5.365
 1792SOL    HW2 6276   1.227   2.973   5.383
 1793SOL     OW 6277   0.396   0.471   3.705
 1793SOL    HW1 6278   0.496   0.472   3.716
 1793SOL    HW2 6279   0.370   0.541   3.639
 1794SOL     OW 6280   4.189   5.823   6.237
 1794SOL    HW1 6281   4.229   5.741   6.275
 1794SOL    HW2 6282   4.243   5.854   6.158
 1795SOL     OW 6283   0.740   3.236   0.509
 1795SOL    HW1 6284   0.780   3.150   0.540
 1795SOL    HW2 6285   0.689   3.222   0.425
 1796SOL     OW 6286   3.238   0.280   6.548
 1796SOL    HW1 6287   3.273   0.286   6.641
 1796SOL    HW2 6288   3.142   0.253   6.550
 1797SOL     OW 6289   0.816   0.142   1.019
 1797SOL    HW1 6290   0.757   0.198   1.077
 1797SOL    HW2 6291   0.871   0.201   0.960
 1798SOL     OW 6292   5.535   2.508   2.933
 1798SOL    HW1 6293   5.474   2.570   2.984
 1798SOL    HW2 6294   5.565   2.553   2.848
 1799SOL     OW 6295   1.532   1.766   6.310
 1799SOL    HW1 6296   1.592   1.826   6.364
 1799SOL    HW2 6297   1.454   1.738   6.366
 1800SOL     OW 6298   3.911   5.188   2.241
 1800SOL    HW1 6299   4.003   5.220   2.220
 1800SOL    HW2 6300   3.870   5.246   2.311
 1801SOL     OW 6301   6.209   6.657   0.840
 1801SOL    HW1 6302   6.165   6.725   0.781
 1801SOL    HW2 6303   6.278   6.702   0.896
 1802SOL     OW 6304   5.616   5.626   3.875
 1802SOL    HW1 6305   5.527   5.590   3.903
 1802SOL    HW2 6306   5.608   5.724   3.855
 1803SOL     OW 6307   6.373   5.262   1.049
 1803SOL    HW1 6308   6.467   5.277   1.079
 1803SOL    HW2 6309   6.311   5.273   1.126
 1804SOL     OW 6310   3.060   3.219   5.067
 1804SOL    HW1 6311   3.045   3.149   5.137
 1804SOL    HW2 6312   2.995   3.207   4.992
 1805SOL     OW 6313   4.694   3.424   6.904
 1805SOL    HW1 6314   4.708   3.473   6.989
 1805SOL    HW2 6315   4.666   3.488   6.832
 1806SOL     OW 6316   0.452   6.793   1.785
 1806SOL    HW1 6317   0.364   6.828   1.817
 1806SOL    HW2 6318   0.444   6.765   1.689
 1807SOL     OW 6319   5.827   1.096   5.292
 1807SOL    HW1 6320   5.813   1.011   5.242
 1807SOL    HW2 6321   5.844   1.076   5.388
 1808SOL     OW 6322   1.479   4.902   3.750
 1808SOL    HW1 6323   1.422   4.982   3.731
 1808SOL    HW2 6324   1.575   4.930   3.756
 1809SOL     OW 6325   3.504   6.814   6.402
 1809SOL    HW1 6326   3.510   6.841   6.305
 1809SOL    HW2 6327   3.429   6.750   6.413
 1810SOL     OW 6328   3.608   6.177   2.957
 1810SOL    HW1 6329   3.640   6.122   3.034
 1810SOL    HW2 6330   3.559   6.119   2.892
 1811SOL     OW 6331   5.958   5.251   3.564
 1811SOL    HW1 6332   5.897   5.241   3.643
 1811SOL    HW2 6333   6.053   5.247   3.595
 1812SOL     OW 6334   4.019   5.457   6.403
 1812SOL    HW1 6335   3.969   5.393   6.344
 1812SOL    HW2 6336   3.981   5.549   6.392
 1813SOL     OW 6337   6.061   4.662   5.935
 1813SOL    HW1 6338   6.031   4.577   5.893
 1813SOL    HW2 6339   6.030   4.666   6.030
 1814SOL     OW 6340   4.753   6.878   1.985
 1814SOL    HW1 6341   4.691   6.849   2.058
 1814SOL    HW2 6342   4.754   6.978   1.980
 1815SOL     OW 6343   0.463   0.671   3.354
 1815SOL    HW1 6344   0.483   0.706   3.262
 1815SOL    HW2 6345   0.541   0.688   3.414
 1816SOL     OW 6346   0.666   4.380   0.189
 1816SOL    HW1 6347   0.745   4.355   0.245
 1816SOL    HW2 6348   0.588   4.400   0.248
 1817SOL     OW 6349   2.145   5.881   2.040
 1817SOL    HW1 6350   2.052   5.854   2.011
 1817SOL    HW2 6351   2.199   5.905   1.959
 1818SOL     OW 6352   2.654   1.407   3.061
 1818SOL    HW1 6353   2.662   1.499   3.021
 1818SOL    HW2 6354   2.654   1.414   3.160
 1819SOL     OW 6355   1.853   4.509   2.031
 1819SOL    HW1 6356   1.922   4.483   1.963
 1819SOL    HW2 6357   1.854   4.444   2.107
 1820SOL     OW 6358   5.484   0.245   2.568
 1820SOL    HW1 6359   5.431   0.162   2.586
 1820SOL    HW2 6360   5.434   0.305   2.507
 1821SOL     OW 6361   2.898   2.154   3.022
 1821SOL    HW1 6362   2.950   2.090   2.965
 1821SOL    HW2 6363   2.800   2.142   3.006
 1822SOL     OW 6364   3.503   2.983   1.629
 1822SOL    HW1 6365   3.572   3.022   1.689
 1822SOL    HW2 6366   3.441   3.055   1.598
 1823SOL     OW 6367   4.238   6.715   2.355
 1823SOL    HW1 6368   4.283   6.648   2.414
 1823SOL    HW2 6369   4.165   6.670   2.304
 1824SOL     OW 6370   4.959   2.669   1.251
 1824SOL    HW1 6371   5.031   2.615   1.294
 1824SOL    HW2 6372   4.989   2.697   1.160
 1825SOL     OW 6373   1.463   0.708   1.624
 1825SOL    HW1 6374   1.390   0.663   1.573
 1825SOL    HW2 6375   1.551   0.664   1.604
 1826SOL     OW 6376   3.320   6.631   6.914
 1826SOL    HW1 6377   3.300   6.539   6.950
 1826SOL    HW2 6378   3.330   6.625   6.815
 1827SOL     OW 6379   6.513   6.647   1.544
 1827SOL    HW1 6380   6.596   6.606   1.504
 1827SOL    HW2 6381   6.540   6.717   1.610
 1828SOL     OW 6382   1.639   2.244   6.812
 1828SOL    HW1 6383   1.549   2.202   6.805
 1828SOL    HW2 6384   1.667   2.247   6.908
 1829SOL     OW 6385   5.916   5.367   1.618
 1829SOL    HW1 6386   6.006   5.409   1.607
 1829SOL    HW2 6387   5.868   5.409   1.695
 1830SOL     OW 6388   4.892   6.436   3.863
 1830SOL    HW1 6389   4.926   6.530   3.868
 1830SOL    HW2 6390   4.915   6.387   3.948
 1831SOL     OW 6391   5.081   0.388   2.437
 1831SOL    HW1 6392   5.170   0.376   2.393
 1831SOL    HW2 6393   5.082   0.472   2.492
 1832SOL     OW 6394   5.078   3.102   0.818
 1832SOL    HW1 6395   5.174   3.075   0.807
 1832SOL    HW2 6396   5.073   3.183   0.876
 1833SOL     OW 6397   5.773   1.683   5.520
 1833SOL    HW1 6398   5.811   1.652   5.607
 1833SOL    HW2 6399   5.833   1.653   5.445
 1834SOL     OW 6400   2.713   3.628   0.466
 1834SOL    HW1 6401   2.785   3.563   0.440
 1834SOL    HW2 6402   2.753   3.701   0.521
 1835SOL     OW 6403   1.471   4.699   0.083
 1835SOL    HW1 6404   1.525   4.781   0.068
 1835SOL    HW2 6405   1.517   4.620   0.041
 1836SOL     OW 6406   0.395   5.846   0.900
 1836SOL    HW1 6407   0.380   5.942   0.875
 1836SOL    HW2 6408   0.469   5.840   0.967
 1837SOL     OW 6409   1.207   2.695   4.830
 1837SOL    HW1 6410   1.248   2.784   4.809
 1837SOL    HW2 6411   1.213   2.636   4.749
 1838SOL     OW 6412   6.454   2.510   4.339
 1838SOL    HW1 6413   6.446   2.510   4.439
 1838SOL    HW2 6414   6.390   2.444   4.301
 1839SOL     OW 6415   0.060   2.064   5.844
 1839SOL    HW1 6416   6.992   2.091   5.859
 1839SOL    HW2 6417   0.116   2.094   5.921
 1840SOL     OW 6418   1.387   4.988   0.952
 1840SOL    HW1 6419   1.395   5.037   1.039
 1840SOL    HW2 6420   1.478   4.980   0.910
 1841SOL     OW 6421   1.788   2.682   3.668
 1841SOL    HW1 6422   1.869   2.709   3.615
 1841SOL    HW2 6423   1.804   2.593   3.709
 1842SOL     OW 6424   0.918   4.621   0.309
 1842SOL    HW1 6425   0.934   4.523   0.303
 1842SOL    HW2 6426   0.948   4.665   0.224
 1843SOL     OW 6427   2.971   1.969   4.628
 1843SOL    HW1 6428   2.980   1.998   4.533
 1843SOL    HW2 6429   3.025   2.030   4.687
 1844SOL     OW 6430   4.858   3.261   3.890
 1844SOL    HW1 6431   4.927   3.297   3.953
 1844SOL    HW2 6432   4.877   3.294   3.797
 1845SOL     OW 6433   4.209   0.456   6.980
 1845SOL    HW1 6434   4.137   0.418   0.010
 1845SOL    HW2 6435   4.256   0.529   0.003
 1846SOL     OW 6436   3.446   1.214   5.835
 1846SOL    HW1 6437   3.406   1.126   5.808
 1846SOL    HW2 6438   3.487   1.205   5.926
 1847SOL     OW 6439   0.660   0.122   0.441
 1847SOL    HW1 6440   0.658   0.112   0.541
 1847SOL    HW2 6441   0.753   0.108   0.408
 1848SOL     OW 6442   3.504   6.869   2.178
 1848SOL    HW1 6443   3.560   6.831   2.251
 1848SOL    HW2 6444   3.546   6.952   2.143
 1849SOL     OW 6445   2.488   1.445   6.496
 1849SOL    HW1 6446   2.397   1.412   6.518
 1849SOL    HW2 6447   2.554   1.371   6.507
 1850SOL     OW 6448   5.554   1.727   1.852
 1850SOL    HW1 6449   5.519   1.633   1.852
 1850SOL    HW2 6450   5.478   1.790   1.836
 1851SOL     OW 6451   6.850   2.852   2.748
 1851SOL    HW1 6452   6.949   2.852   2.734
 1851SOL    HW2 6453   6.811   2.766   2.715
 1852SOL     OW 6454   5.294   3.410   7.025
 1852SOL    HW1 6455   5.256   3.334   0.051
 1852SOL    HW2 6456   5.311   3.380   6.932
 1853SOL     OW 6457   1.877   4.796   0.672
 1853SOL    HW1 6458   1.973   4.776   0.688
 1853SOL    HW2 6459   1.868   4.882   0.621
 1854SOL     OW 6460   2.799   5.872   4.339
 1854SOL    HW1 6461   2.746   5.883   4.423
 1854SOL    HW2 6462   2.869   5.802   4.352
 1855SOL     OW 6463   4.943   4.654   2.003
 1855SOL    HW1 6464   4.909   4.620   2.090
 1855SOL    HW2 6465   4.972   4.749   2.014
 1856SOL     OW 6466   4.929   2.058   5.144
 1856SOL    HW1 6467   5.025   2.043   5.119
 1856SOL    HW2 6468   4.911   2.016   5.233
 1857SOL     OW 6469   5.105   1.136   2.936
 1857SOL    HW1 6470   5.072   1.110   3.027
 1857SOL    HW2 6471   5.117   1.235   2.933
 1858SOL     OW 6472   5.194   4.109   3.625
 1858SOL    HW1 6473   5.229   4.202   3.618
 1858SOL    HW2 6474   5.144   4.098   3.711
 1859SOL     OW 6475   5.179   1.432   2.632
 1859SOL    HW1 6476   5.252   1.501   2.634
 1859SOL    HW2 6477   5.148   1.414   2.725
 1860SOL     OW 6478   4.793   1.192   4.676
 1860SOL    HW1 6479   4.755   1.219   4.764
 1860SOL    HW2 6480   4.720   1.159   4.617
 1861SOL     OW 6481   5.692   6.663   2.759
 1861SOL    HW1 6482   5.644   6.578   2.734
 1861SOL    HW2 6483   5.761   6.642   2.828
 1862SOL     OW 6484   2.028   1.717   0.313
 1862SOL    HW1 6485   2.119   1.759   0.319
 1862SOL    HW2 6486   2.024   1.658   0.233
 1863SOL     OW 6487   2.675   3.235   1.770
 1863SOL    HW1 6488   2.687   3.196   1.861
 1863SOL    HW2 6489   2.579   3.226   1.742
 1864SOL     OW 6490   1.305   6.305   4.000
 1864SOL    HW1 6491   1.371   6.296   3.925
 1864SOL    HW2 6492   1.253   6.390   3.989
 1865SOL     OW 6493   4.363   2.299   6.559
 1865SOL    HW1 6494   4.397   2.351   6.481
 1865SOL    HW2 6495   4.270   2.330   6.581
 1866SOL     OW 6496   4.527   5.543   2.828
 1866SOL    HW1 6497   4.483   5.627   2.795
 1866SOL    HW2 6498   4.459   5.473   2.844
 1867SOL     OW 6499   0.921   3.991   6.857
 1867SOL    HW1 6500   0.868   3.971   6.939
 1867SOL    HW2 6501   1.016   3.963   6.871
 1868SOL     OW 6502   5.734   3.852   4.616
 1868SOL    HW1 6503   5.827   3.872   4.584
 1868SOL    HW2 6504   5.738   3.786   4.691
 1869SOL     OW 6505   6.104   1.175   5.255
 1869SOL    HW1 6506   6.006   1.156   5.259
 1869SOL    HW2 6507   6.154   1.091   5.234
 1870SOL     OW 6508   1.659   5.458   4.621
 1870SOL    HW1 6509   1.715   5.457   4.704
 1870SOL    HW2 6510   1.634   5.364   4.596
 1871SOL     OW 6511   1.211   0.065   0.536
 1871SOL    HW1 6512   1.248   0.070   0.443
 1871SOL    HW2 6513   1.255   7.017   0.585
 1872SOL     OW 6514   2.594   4.683   0.317
 1872SOL    HW1 6515   2.685   4.645   0.332
 1872SOL    HW2 6516   2.532   4.652   0.389
 1873SOL     OW 6517   4.696   1.876   0.179
 1873SOL    HW1 6518   4.706   1.862   0.081
 1873SOL    HW2 6519   4.703   1.788   0.226
 1874SOL     OW 6520   1.017   2.412   2.365
 1874SOL    HW1 6521   1.037   2.497   2.415
 1874SOL    HW2 6522   0.968   2.434   2.280
 1875SOL     OW 6523   0.428   7.010   0.392
 1875SOL    HW1 6524   0.414   6.916   0.362
 1875SOL    HW2 6525   0.525   7.026   0.408
 1876SOL     OW 6526   2.172   6.944   4.771
 1876SOL    HW1 6527   2.114   6.869   4.740
 1876SOL    HW2 6528   2.116   7.026   4.787
 1877SOL     OW 6529   0.857   0.087   3.593
 1877SOL    HW1 6530   0.861   0.094   3.493
 1877SOL    HW2 6531   0.832   7.021   3.619
 1878SOL     OW 6532   5.974   2.594   5.813
 1878SOL    HW1 6533   5.987   2.607   5.911
 1878SOL    HW2 6534   6.023   2.512   5.784
 1879SOL     OW 6535   1.313   4.162   4.992
 1879SOL    HW1 6536   1.402   4.116   4.995
 1879SOL    HW2 6537   1.250   4.110   4.934
 1880SOL     OW 6538   5.922   0.471   5.581
 1880SOL    HW1 6539   5.882   0.558   5.611
 1880SOL    HW2 6540   5.850   0.402   5.575
 1881SOL     OW 6541   6.855   2.211   0.040
 1881SOL    HW1 6542   6.818   2.243   0.128
 1881SOL    HW2 6543   6.802   2.132   0.009
 1882SOL     OW 6544   0.734   5.387   6.141
 1882SOL    HW1 6545   0.683   5.320   6.195
 1882SOL    HW2 6546   0.677   5.466   6.123
 1883SOL     OW 6547   0.009   1.760   4.200
 1883SOL    HW1 6548   6.976   1.782   4.124
 1883SOL    HW2 6549   0.088   1.708   4.166
 1884SOL     OW 6550   6.915   2.878   1.674
 1884SOL    HW1 6551   6.987   2.812   1.649
 1884SOL    HW2 6552   6.828   2.849   1.634
 1885SOL     OW 6553   2.163   1.892   4.060
 1885SOL    HW1 6554   2.180   1.816   4.122
 1885SOL    HW2 6555   2.098   1.863   3.989
 1886SOL     OW 6556   1.559   6.802   3.231
 1886SOL    HW1 6557   1.618   6.883   3.227
 1886SOL    HW2 6558   1.603   6.732   3.286
 1887SOL     OW 6559   2.019   6.135   6.099
 1887SOL    HW1 6560   1.990   6.211   6.041
 1887SOL    HW2 6561   1.939   6.096   6.145
 1888SOL     OW 6562   2.866   0.962   2.121
 1888SOL    HW1 6563   2.774   0.990   2.149
 1888SOL    HW2 6564   2.917   1.043   2.092
 1889SOL     OW 6565   0.305   3.153   3.427
 1889SOL    HW1 6566   0.340   3.059   3.428
 1889SOL    HW2 6567   0.314   3.190   3.334
 1890SOL     OW 6568   0.455   5.850   4.133
 1890SOL    HW1 6569   0.401   5.869   4.215
 1890SOL    HW2 6570   0.415   5.896   4.054
 1891SOL     OW 6571   3.613   3.318   3.278
 1891SOL    HW1 6572   3.634   3.415   3.280
 1891SOL    HW2 6573   3.564   3.292   3.361
 1892SOL     OW 6574   0.765   0.667   2.796
 1892SOL    HW1 6575   0.739   0.741   2.857
 1892SOL    HW2 6576   0.742   0.579   2.839
 1893SOL     OW 6577   3.614   2.931   4.532
 1893SOL    HW1 6578   3.688   2.913   4.468
 1893SOL    HW2 6579   3.653   2.954   4.622
 1894SOL     OW 6580   2.911   3.368   3.977
 1894SOL    HW1 6581   2.895   3.352   4.074
 1894SOL    HW2 6582   2.995   3.321   3.949
 1895SOL     OW 6583   1.949   5.914   6.662
 1895SOL    HW1 6584   2.040   5.920   6.621
 1895SOL    HW2 6585   1.955   5.867   6.750
 1896SOL     OW 6586   5.412   2.890   0.621
 1896SOL    HW1 6587   5.334   2.836   0.590
 1896SOL    HW2 6588   5.476   2.832   0.672
 1897SOL     OW 6589   1.742   4.670   4.221
 1897SOL    HW1 6590   1.782   4.618   4.297
 1897SOL    HW2 6591   1.748   4.768   4.241
 1898SOL     OW 6592   1.605   6.170   3.428
 1898SOL    HW1 6593   1.657   6.242   3.382
 1898SOL    HW2 6594   1.620   6.083   3.380
 1899SOL     OW 6595   0.402   0.470   2.484
 1899SOL    HW1 6596   0.383   0.465   2.582
 1899SOL    HW2 6597   0.332   0.421   2.433
 1900SOL     OW 6598   2.405   6.776   0.202
 1900SOL    HW1 6599   2.355   6.727   0.130
 1900SOL    HW2 6600   2.470   6.713   0.246
 1901SOL     OW 6601   2.921   3.685   1.281
 1901SOL    HW1 6602   3.020   3.694   1.268
 1901SOL    HW2 6603   2.874   3.700   1.194
 1902SOL     OW 6604   1.430   6.688   4.155
 1902SOL    HW1 6605   1.397   6.643   4.238
 1902SOL    HW2 6606   1.498   6.758   4.179
 1903SOL     OW 6607   0.780   2.532   4.226
 1903SOL    HW1 6608   0.754   2.627   4.210
 1903SOL    HW2 6609   0.778   2.513   4.325
 1904SOL     OW 6610   5.502   5.500   1.855
 1904SOL    HW1 6611   5.501   5.487   1.954
 1904SOL    HW2 6612   5.411   5.482   1.818
 1905SOL     OW 6613   6.893   0.887   3.969
 1905SOL    HW1 6614   6.901   0.896   3.870
 1905SOL    HW2 6615   6.943   0.962   4.013
 1906SOL     OW 6616   1.575   0.048   5.497
 1906SOL    HW1 6617   1.551   6.989   5.450
 1906SOL    HW2 6618   1.620   0.027   5.584
 1907SOL     OW 6619   5.839   2.461   0.292
 1907SOL    HW1 6620   5.787   2.476   0.376
 1907SOL    HW2 6621   5.932   2.495   0.303
 1908SOL     OW 6622   3.214   1.357   1.147
 1908SOL    HW1 6623   3.237   1.378   1.242
 1908SOL    HW2 6624   3.288   1.302   1.107
 1909SOL     OW 6625   6.382   4.727   4.986
 1909SOL    HW1 6626   6.403   4.768   4.897
 1909SOL    HW2 6627   6.449   4.759   5.053
 1910SOL     OW 6628   6.960   6.405   5.549
 1910SOL    HW1 6629   6.860   6.403   5.558
 1910SOL    HW2 6630   6.988   6.342   5.477
 1911SOL     OW 6631   0.192   5.213   4.182
 1911SOL    HW1 6632   0.200   5.303   4.224
 1911SOL    HW2 6633   0.161   5.223   4.088
 1912SOL     OW 6634   3.061   5.384   2.255
 1912SOL    HW1 6635   2.966   5.355   2.259
 1912SOL    HW2 6636   3.074   5.462   2.317
 1913SOL     OW 6637   3.557   4.220   6.579
 1913SOL    HW1 6638   3.623   4.227   6.504
 1913SOL    HW2 6639   3.470   4.185   6.543
 1914SOL     OW 6640   2.672   4.753   6.144
 1914SOL    HW1 6641   2.620   4.668   6.155
 1914SOL    HW2 6642   2.699   4.788   6.234
 1915SOL     OW 6643   4.383   2.547   5.553
 1915SOL    HW1 6644   4.323   2.584   5.624
 1915SOL    HW2 6645   4.369   2.597   5.467
 1916SOL     OW 6646   4.019   0.986   2.346
 1916SOL    HW1 6647   4.019   0.892   2.312
 1916SOL    HW2 6648   4.029   1.050   2.269
 1917SOL     OW 6649   2.485   4.167   1.361
 1917SOL    HW1 6650   2.404   4.224   1.375
 1917SOL    HW2 6651   2.563   4.208   1.409
 1918SOL     OW 6652   5.576   2.381   3.901
 1918SOL    HW1 6653   5.511   2.450   3.868
 1918SOL    HW2 6654   5.607   2.405   3.992
 1919SOL     OW 6655   6.812   2.570   0.403
 1919SOL    HW1 6656   6.851   2.597   0.491
 1919SOL    HW2 6657   6.773   2.651   0.358
 1920SOL     OW 6658   4.874   3.012   0.970
 1920SOL    HW1 6659   4.928   3.054   0.897
 1920SOL    HW2 6660   4.831   3.083   1.025
 1921SOL     OW 6661   2.054   2.661   6.695
 1921SOL    HW1 6662   2.144   2.700   6.713
 1921SOL    HW2 6663   1.985   2.732   6.700
 1922SOL     OW 6664   3.086   3.101   2.441
 1922SOL    HW1 6665   3.139   3.025   2.478
 1922SOL    HW2 6666   3.067   3.083   2.344
 1923SOL     OW 6667   3.640   0.776   4.621
 1923SOL    HW1 6668   3.617   0.841   4.694
 1923SOL    HW2 6669   3.726   0.730   4.644
 1924SOL     OW 6670   4.472   0.661   6.594
 1924SOL    HW1 6671   4.401   0.596   6.622
 1924SOL    HW2 6672   4.429   0.740   6.551
 1925SOL     OW 6673   1.881   3.881   0.958
 1925SOL    HW1 6674   1.974   3.851   0.980
 1925SOL    HW2 6675   1.881   3.923   0.867
 1926SOL     OW 6676   3.992   0.262   1.522
 1926SOL    HW1 6677   4.089   0.280   1.505
 1926SOL    HW2 6678   3.937   0.329   1.472
 1927SOL     OW 6679   2.258   5.153   1.416
 1927SOL    HW1 6680   2.287   5.062   1.446
 1927SOL    HW2 6681   2.296   5.172   1.326
 1928SOL     OW 6682   5.305   4.631   3.604
 1928SOL    HW1 6683   5.283   4.549   3.551
 1928SOL    HW2 6684   5.265   4.711   3.561
 1929SOL     OW 6685   3.423   0.126   2.882
 1929SOL    HW1 6686   3.443   0.157   2.975
 1929SOL    HW2 6687   3.325   0.129   2.865
 1930SOL     OW 6688   4.248   3.239   6.811
 1930SOL    HW1 6689   4.288   3.322   6.850
 1930SOL    HW2 6690   4.211   3.259   6.720
 1931SOL     OW 6691   6.629   2.134   4.808
 1931SOL    HW1 6692   6.599   2.129   4.904
 1931SOL    HW2 6693   6.723   2.101   4.801
 1932SOL     OW 6694   4.351   2.102   1.803
 1932SOL    HW1 6695   4.351   2.125   1.706
 1932SOL    HW2 6696   4.283   2.157   1.851
 1933SOL     OW 6697   1.033   0.619   1.582
 1933SOL    HW1 6698   1.062   0.695   1.640
 1933SOL    HW2 6699   1.061   0.635   1.488
 1934SOL     OW 6700   6.981   0.518   0.058
 1934SOL    HW1 6701   0.027   0.459   0.024
 1934SOL    HW2 6702   7.020   0.598   0.103
 1935SOL     OW 6703   6.726   5.229   4.025
 1935SOL    HW1 6704   6.787   5.185   4.090
 1935SOL    HW2 6705   6.720   5.326   4.045
 1936SOL     OW 6706   4.804   2.693   5.891
 1936SOL    HW1 6707   4.842   2.633   5.961
 1936SOL    HW2 6708   4.705   2.679   5.884
 1937SOL     OW 6709   5.812   5.201   6.684
 1937SOL    HW1 6710   5.717   5.232   6.674
 1937SOL    HW2 6711   5.822   5.155   6.773
 1938SOL     OW 6712   6.823   2.952   6.727
 1938SOL    HW1 6713   6.796   2.994   6.813
 1938SOL    HW2 6714   6.854   2.858   6.744
 1939SOL     OW 6715   1.435   0.412   4.723
 1939SOL    HW1 6716   1.357   0.471   4.702
 1939SOL    HW2 6717   1.418   0.321   4.687
 1940SOL     OW 6718   6.943   5.101   0.648
 1940SOL    HW1 6719   0.013   5.088   0.668
 1940SOL    HW2 6720   6.914   5.191   0.680
 1941SOL     OW 6721   4.934   1.716   4.310
 1941SOL    HW1 6722   4.942   1.616   4.309
 1941SOL    HW2 6723   5.020   1.756   4.341
 1942SOL     OW 6724   6.116   4.197   2.828
 1942SOL    HW1 6725   6.037   4.182   2.768
 1942SOL    HW2 6726   6.191   4.137   2.799
 1943SOL     OW 6727   0.769   2.197   2.735
 1943SOL    HW1 6728   0.734   2.138   2.807
 1943SOL    HW2 6729   0.696   2.259   2.704
 1944SOL     OW 6730   0.206   2.956   3.745
 1944SOL    HW1 6731   0.147   2.963   3.665
 1944SOL    HW2 6732   0.207   3.043   3.794
 1945SOL     OW 6733   4.596   1.535   1.666
 1945SOL    HW1 6734   4.503   1.566   1.686
 1945SOL    HW2 6735   4.593   1.446   1.622
 1946SOL     OW 6736   6.672   5.557   1.079
 1946SOL    HW1 6737   6.639   5.465   1.101
 1946SOL    HW2 6738   6.689   5.607   1.163
 1947SOL     OW 6739   6.385   4.779   3.492
 1947SOL    HW1 6740   6.425   4.870   3.490
 1947SOL    HW2 6741   6.290   4.785   3.523
 1948SOL     OW 6742   5.462   3.473   3.314
 1948SOL    HW1 6743   5.442   3.469   3.216
 1948SOL    HW2 6744   5.561   3.476   3.327
 1949SOL     OW 6745   3.295   5.147   6.860
 1949SOL    HW1 6746   3.268   5.234   6.903
 1949SOL    HW2 6747   3.213   5.097   6.832
 1950SOL     OW 6748   3.519   3.803   3.132
 1950SOL    HW1 6749   3.424   3.771   3.121
 1950SOL    HW2 6750   3.522   3.902   3.115
 1951SOL     OW 6751   5.791   4.984   5.374
 1951SOL    HW1 6752   5.797   5.073   5.327
 1951SOL    HW2 6753   5.743   4.995   5.461
 1952SOL     OW 6754   6.040   5.596   0.522
 1952SOL    HW1 6755   5.989   5.578   0.438
 1952SOL    HW2 6756   6.131   5.629   0.500
 1953SOL     OW 6757   0.334   1.352   6.840
 1953SOL    HW1 6758   0.347   1.387   6.747
 1953SOL    HW2 6759   0.346   1.426   6.906
 1954SOL     OW 6760   4.214   0.261   1.939
 1954SOL    HW1 6761   4.119   0.264   1.970
 1954SOL    HW2 6762   4.273   0.243   2.018
 1955SOL     OW 6763   6.878   2.056   4.132
 1955SOL    HW1 6764   6.857   1.966   4.096
 1955SOL    HW2 6765   6.853   2.060   4.229
 1956SOL     OW 6766   5.638   0.565   1.776
 1956SOL    HW1 6767   5.619   0.495   1.844
 1956SOL    HW2 6768   5.678   0.645   1.822
 1957SOL     OW 6769   6.146   2.336   4.586
 1957SOL    HW1 6770   6.191   2.298   4.506
 1957SOL    HW2 6771   6.118   2.262   4.648
 1958SOL     OW 6772   4.241   1.517   0.424
 1958SOL    HW1 6773   4.179   1.535   0.501
 1958SOL    HW2 6774   4.192   1.532   0.338
 1959SOL     OW 6775   0.970   1.645   5.301
 1959SOL    HW1 6776   0.939   1.730   5.259
 1959SOL    HW2 6777   1.066   1.628   5.275
 1960SOL     OW 6778   5.826   4.206   4.219
 1960SOL    HW1 6779   5.865   4.168   4.135
 1960SOL    HW2 6780   5.889   4.190   4.295
 1961SOL     OW 6781   0.126   3.707   3.935
 1961SOL    HW1 6782   0.097   3.783   3.992
 1961SOL    HW2 6783   0.189   3.740   3.865
 1962SOL     OW 6784   1.057   0.120   2.577
 1962SOL    HW1 6785   1.112   0.084   2.501
 1962SOL    HW2 6786   1.003   0.046   2.617
 1963SOL     OW 6787   0.380   2.380   0.298
 1963SOL    HW1 6788   0.409   2.415   0.387
 1963SOL    HW2 6789   0.281   2.389   0.289
 1964SOL     OW 6790   5.725   3.965   0.553
 1964SOL    HW1 6791   5.700   3.973   0.457
 1964SOL    HW2 6792   5.716   3.870   0.583
 1965SOL     OW 6793   6.164   4.177   3.845
 1965SOL    HW1 6794   6.140   4.236   3.923
 1965SOL    HW2 6795   6.208   4.232   3.775
 1966SOL     OW 6796   1.271   4.859   0.036
 1966SOL    HW1 6797   1.324   4.776   0.057
 1966SOL    HW2 6798   1.243   4.902   0.122
 1967SOL     OW 6799   6.229   3.185   4.465
 1967SOL    HW1 6800   6.143   3.136   4.449
 1967SOL    HW2 6801   6.298   3.120   4.497
 1968SOL     OW 6802   2.609   1.770   5.085
 1968SOL    HW1 6803   2.621   1.691   5.145
 1968SOL    HW2 6804   2.654   1.849   5.125
 1969SOL     OW 6805   1.763   6.196   0.796
 1969SOL    HW1 6806   1.708   6.277   0.775
 1969SOL    HW2 6807   1.785   6.148   0.711
 1970SOL     OW 6808   5.554   5.681   4.363
 1970SOL    HW1 6809   5.566   5.583   4.352
 1970SOL    HW2 6810   5.577   5.707   4.457
 1971SOL     OW 6811   1.597   5.396   5.315
 1971SOL    HW1 6812   1.559   5.456   5.385
 1971SOL    HW2 6813   1.695   5.416   5.304
 1972SOL     OW 6814   5.599   2.748   2.172
 1972SOL    HW1 6815   5.613   2.740   2.073
 1972SOL    HW2 6816   5.675   2.799   2.213
 1973SOL     OW 6817   2.698   2.609   1.163
 1973SOL    HW1 6818   2.796   2.602   1.182
 1973SOL    HW2 6819   2.649   2.536   1.211
 1974SOL     OW 6820   2.709   5.586   5.149
 1974SOL    HW1 6821   2.656   5.629   5.075
 1974SOL    HW2 6822   2.706   5.487   5.139
 1975SOL     OW 6823   2.034   2.805   3.744
 1975SOL    HW1 6824   1.965   2.763   3.804
 1975SOL    HW2 6825   2.078   2.881   3.792
 1976SOL     OW 6826   0.904   0.555   5.529
 1976SOL    HW1 6827   0.963   0.576   5.607
 1976SOL    HW2 6828   0.956   0.566   5.445
 1977SOL     OW 6829   1.596   4.257   6.063
 1977SOL    HW1 6830   1.518   4.299   6.016
 1977SOL    HW2 6831   1.666   4.326   6.080
 1978SOL     OW 6832   3.021   0.037   2.193
 1978SOL    HW1 6833   2.985   0.029   2.100
 1978SOL    HW2 6834   3.005   6.979   2.242
 1979SOL     OW 6835   6.384   4.376   6.336
 1979SOL    HW1 6836   6.475   4.410   6.359
 1979SOL    HW2 6837   6.372   4.374   6.237
 1980SOL     OW 6838   3.458   1.167   1.111
 1980SOL    HW1 6839   3.472   1.196   1.017
 1980SOL    HW2 6840   3.489   1.073   1.123
 1981SOL     OW 6841   3.508   1.995   2.678
 1981SOL    HW1 6842   3.483   1.993   2.775
 1981SOL    HW2 6843   3.591   2.050   2.666
 1982SOL     OW 6844   0.900   3.104   5.451
 1982SOL    HW1 6845   0.804   3.122   5.431
 1982SOL    HW2 6846   0.951   3.189   5.448
 1983SOL     OW 6847   0.461   0.754   2.556
 1983SOL    HW1 6848   0.481   0.794   2.646
 1983SOL    HW2 6849   0.443   0.656   2.567
 1984SOL     OW 6850   4.367   3.273   5.542
 1984SOL    HW1 6851   4.388   3.329   5.462
 1984SOL    HW2 6852   4.452   3.235   5.579
 1985SOL     OW 6853   6.246   2.841   2.999
 1985SOL    HW1 6854   6.238   2.752   2.954
 1985SOL    HW2 6855   6.330   2.886   2.968
 1986SOL     OW 6856   3.398   2.870   2.056
 1986SOL    HW1 6857   3.396   2.816   1.972
 1986SOL    HW2 6858   3.471   2.836   2.116
 1987SOL     OW 6859   2.586   1.151   1.005
 1987SOL    HW1 6860   2.556   1.200   0.923
 1987SOL    HW2 6861   2.601   1.217   1.079
 1988SOL     OW 6862   0.429   1.931   1.634
 1988SOL    HW1 6863   0.347   1.970   1.591
 1988SOL    HW2 6864   0.511   1.964   1.586
 1989SOL     OW 6865   2.762   4.868   4.891
 1989SOL    HW1 6866   2.793   4.797   4.955
 1989SOL    HW2 6867   2.686   4.832   4.837
 1990SOL     OW 6868   3.974   0.162   0.240
 1990SOL    HW1 6869   3.938   0.078   0.197
 1990SOL    HW2 6870   4.068   0.146   0.270
 1991SOL     OW 6871   2.797   5.538   1.613
 1991SOL    HW1 6872   2.779   5.556   1.710
 1991SOL    HW2 6873   2.711   5.518   1.566
 1992SOL     OW 6874   1.010   6.450   2.702
 1992SOL    HW1 6875   1.099   6.432   2.660
 1992SOL    HW2 6876   0.992   6.548   2.700
 1993SOL     OW 6877   2.179   2.211   3.089
 1993SOL    HW1 6878   2.086   2.204   3.126
 1993SOL    HW2 6879   2.240   2.244   3.160
 1994SOL     OW 6880   3.660   2.851   0.786
 1994SOL    HW1 6881   3.669   2.919   0.858
 1994SOL    HW2 6882   3.615   2.769   0.823
 1995SOL     OW 6883   5.270   1.408   4.046
 1995SOL    HW1 6884   5.341   1.382   3.981
 1995SOL    HW2 6885   5.197   1.457   3.998
 1996SOL     OW 6886   4.691   0.568   1.000
 1996SOL    HW1 6887   4.655   0.572   1.093
 1996SOL    HW2 6888   4.653   0.488   0.953
 1997SOL     OW 6889   3.646   1.019   4.187
 1997SOL    HW1 6890   3.548   1.010   4.208
 1997SOL    HW2 6891   3.670   1.116   4.180
 1998SOL     OW 6892   2.283   3.890   1.957
 1998SOL    HW1 6893   2.187   3.864   1.966
 1998SOL    HW2 6894   2.289   3.981   1.916
 1999SOL     OW 6895   0.924   0.077   0.390
 1999SOL    HW1 6896   0.962   7.016   0.419
 1999SOL    HW2 6897   0.978   0.151   0.430
 2000SOL     OW 6898   4.586   4.586   6.022
 2000SOL    HW1 6899   4.660   4.608   5.958
 2000SOL    HW2 6900   4.498   4.601   5.977
 2001SOL     OW 6901   2.413   2.143   1.236
 2001SOL    HW1 6902   2.455   2.079   1.300
 2001SOL    HW2 6903   2.355   2.093   1.172
 2002SOL     OW 6904   6.887   5.716   0.483
 2002SOL    HW1 6905   6.937   5.642   0.528
 2002SOL    HW2 6906   6.951   5.782   0.445
 2003SOL     OW 6907   5.752   5.351   2.629
 2003SOL    HW1 6908   5.665   5.356   2.679
 2003SOL    HW2 6909   5.824   5.321   2.691
 2004SOL     OW 6910   3.931   6.950   3.122
 2004SOL    HW1 6911   3.991   6.968   3.199
 2004SOL    HW2 6912   3.975   6.885   3.060
 2005SOL     OW 6913   1.612   6.100   0.265
 2005SOL    HW1 6914   1.529   6.098   0.210
 2005SOL    HW2 6915   1.624   6.191   0.305
 2006SOL     OW 6916   5.432   6.419   2.073
 2006SOL    HW1 6917   5.352   6.370   2.036
 2006SOL    HW2 6918   5.401   6.489   2.136
 2007SOL     OW 6919   5.131   4.628   6.879
 2007SOL    HW1 6920   5.045   4.578   6.894
 2007SOL    HW2 6921   5.113   4.706   6.820
 2008SOL     OW 6922   2.195   3.195   3.375
 2008SOL    HW1 6923   2.177   3.293   3.362
 2008SOL    HW2 6924   2.202   3.151   3.285
 2009SOL     OW 6925   6.457   7.019   2.678
 2009SOL    HW1 6926   6.383   6.958   2.708
 2009SOL    HW2 6927   6.545   6.978   2.701
 2010SOL     OW 6928   6.946   1.981   1.794
 2010SOL    HW1 6929   6.851   1.964   1.821
 2010SOL    HW2 6930   7.008   1.930   1.854
 2011SOL     OW 6931   1.020   6.813   5.166
 2011SOL    HW1 6932   0.935   6.856   5.196
 2011SOL    HW2 6933   1.090   6.882   5.154
 2012SOL     OW 6934   0.940   2.918   1.426
 2012SOL    HW1 6935   0.841   2.910   1.442
 2012SOL    HW2 6936   0.973   3.005   1.462
 2013SOL     OW 6937   0.617   2.739   2.022
 2013SOL    HW1 6938   0.519   2.738   2.043
 2013SOL    HW2 6939   0.669   2.758   2.105
 2014SOL     OW 6940   3.972   0.798   4.860
 2014SOL    HW1 6941   4.052   0.794   4.921
 2014SOL    HW2 6942   3.890   0.814   4.914
 2015SOL     OW 6943   3.999   0.074   1.306
 2015SOL    HW1 6944   4.042   7.018   1.340
 2015SOL    HW2 6945   3.979   0.134   1.383
 2016SOL     OW 6946   1.968   0.822   4.605
 2016SOL    HW1 6947   1.955   0.838   4.703
 2016SOL    HW2 6948   2.064   0.836   4.581
 2017SOL     OW 6949   4.259   6.513   3.810
 2017SOL    HW1 6950   4.172   6.537   3.766
 2017SOL    HW2 6951   4.261   6.414   3.827
 2018SOL     OW 6952   1.351   0.589   4.265
 2018SOL    HW1 6953   1.301   0.506   4.290
 2018SOL    HW2 6954   1.341   0.606   4.167
 2019SOL     OW 6955   5.431   5.354   6.336
 2019SOL    HW1 6956   5.412   5.433   6.279
 2019SOL    HW2 6957   5.345   5.307   6.357
 2020SOL     OW 6958   1.866   6.341   7.005
 2020SOL    HW1 6959   1.928   6.321   6.929
 2020SOL    HW2 6960   1.772   6.338   6.972
 2021SOL     OW 6961   0.067   6.329   4.237
 2021SOL    HW1 6962   0.004   6.273   4.292
 2021SOL    HW2 6963   0.100   6.275   4.160
 2022SOL     OW 6964   1.848   3.602   4.052
 2022SOL    HW1 6965   1.943   3.624   4.073
 2022SOL    HW2 6966   1.836   3.503   4.048
 2023SOL     OW 6967   6.754   6.135   7.017
 2023SOL    HW1 6968   6.752   6.224   0.034
 2023SOL    HW2 6969   6.708   6.141   6.928
 2024SOL     OW 6970   0.388   6.015   3.899
 2024SOL    HW1 6971   0.393   5.991   3.802
 2024SOL    HW2 6972   0.376   6.114   3.907
 2025SOL     OW 6973   1.625   5.849   4.858
 2025SOL    HW1 6974   1.564   5.917   4.816
 2025SOL    HW2 6975   1.598   5.757   4.829
 2026SOL     OW 6976   0.350   0.402   5.981
 2026SOL    HW1 6977   0.317   0.341   6.053
 2026SOL    HW2 6978   0.273   0.434   5.926
 2027SOL     OW 6979   6.722   6.333   2.246
 2027SOL    HW1 6980   6.789   6.407   2.244
 2027SOL    HW2 6981   6.645   6.359   2.304
 2028SOL     OW 6982   3.149   5.039   4.907
 2028SOL    HW1 6983   3.110   5.005   4.822
 2028SOL    HW2 6984   3.085   5.104   4.949
 2029SOL     OW 6985   6.386   2.989   6.307
 2029SOL    HW1 6986   6.307   3.025   6.357
 2029SOL    HW2 6987   6.443   3.065   6.276
 2030SOL     OW 6988   2.757   6.620   2.361
 2030SOL    HW1 6989   2.734   6.523   2.357
 2030SOL    HW2 6990   2.694   6.667   2.423
 2031SOL     OW 6991   0.671   6.094   4.571
 2031SOL    HW1 6992   0.724   6.011   4.550
 2031SOL    HW2 6993   0.722   6.174   4.541
 2032SOL     OW 6994   2.334   3.042   5.732
 2032SOL    HW1 6995   2.403   3.101   5.689
 2032SOL    HW2 6996   2.328   2.956   5.682
 2033SOL     OW 6997   2.314   1.660   0.628
 2033SOL    HW1 6998   2.372   1.735   0.598
 2033SOL    HW2 6999   2.319   1.650   0.727
 2034SOL     OW 7000   0.558   4.309   5.177
 2034SOL    HW1 7001   0.501   4.228   5.193
 2034SOL    HW2 7002   0.571   4.322   5.079
 2035SOL     OW 7003   5.222   6.888   3.229
 2035SOL    HW1 7004   5.176   6.831   3.161
 2035SOL    HW2 7005   5.207   6.984   3.207
 2036SOL     OW 7006   0.424   4.983   6.587
 2036SOL    HW1 7007   0.407   4.903   6.529
 2036SOL    HW2 7008   0.387   5.065   6.544
 2037SOL     OW 7009   0.953   2.606   0.048
 2037SOL    HW1 7010   0.938   2.580   6.979
 2037SOL    HW2 7011   1.051   2.611   0.066
 2038SOL     OW 7012   0.833   0.788   6.257
 2038SOL    HW1 7013   0.870   0.747   6.340
 2038SOL    HW2 7014   0.739   0.817   6.272
 2039SOL     OW 7015   5.309   6.158   3.418
 2039SOL    HW1 7016   5.227   6.216   3.412
 2039SOL    HW2 7017   5.389   6.216   3.430
 2040SOL     OW 7018   2.487   2.048   0.396
 2040SOL    HW1 7019   2.514   2.116   0.328
 2040SOL    HW2 7020   2.461   2.094   0.481
 2041SOL     OW 7021   2.774   0.389   6.356
 2041SOL    HW1 7022   2.726   0.424   6.276
 2041SOL    HW2 7023   2.842   0.457   6.386
 2042SOL     OW 7024   6.146   0.952   5.881
 2042SOL    HW1 7025   6.104   1.036   5.849
 2042SOL    HW2 7026   6.246   0.959   5.873
 2043SOL     OW 7027   0.721   4.045   1.041
 2043SOL    HW1 7028   0.706   4.082   1.132
 2043SOL    HW2 7029   0.644   3.988   1.014
 2044SOL     OW 7030   4.143   0.888   1.499
 2044SOL    HW1 7031   4.164   0.812   1.561
 2044SOL    HW2 7032   4.178   0.973   1.538
 2045SOL     OW 7033   1.710   6.282   4.546
 2045SOL    HW1 7034   1.788   6.269   4.486
 2045SOL    HW2 7035   1.737   6.338   4.625
 2046SOL     OW 7036   0.702   2.887   5.281
 2046SOL    HW1 7037   0.783   2.871   5.224
 2046SOL    HW2 7038   0.696   2.984   5.305
 2047SOL     OW 7039   6.914   0.283   0.695
 2047SOL    HW1 7040   6.957   0.201   0.659
 2047SOL    HW2 7041   6.971   0.322   0.767
 2048SOL     OW 7042   1.366   1.969   3.562
 2048SOL    HW1 7043   1.423   1.887   3.570
 2048SOL    HW2 7044   1.382   2.028   3.641
 2049SOL     OW 7045   4.708   2.675   5.207
 2049SOL    HW1 7046   4.794   2.648   5.163
 2049SOL    HW2 7047   4.631   2.649   5.148
 2050SOL     OW 7048   1.032   0.866   3.493
 2050SOL    HW1 7049   1.007   0.937   3.559
 2050SOL    HW2 7050   1.113   0.895   3.443
 2051SOL     OW 7051   2.688   6.246   0.514
 2051SOL    HW1 7052   2.738   6.316   0.565
 2051SOL    HW2 7053   2.601   6.229   0.559
 2052SOL     OW 7054   0.998   4.219   0.738
 2052SOL    HW1 7055   1.001   4.170   0.825
 2052SOL    HW2 7056   0.995   4.153   0.663
 2053SOL     OW 7057   6.657   5.523   2.656
 2053SOL    HW1 7058   6.695   5.554   2.569
 2053SOL    HW2 7059   6.584   5.585   2.685
 2054SOL     OW 7060   2.941   3.872   2.680
 2054SOL    HW1 7061   2.976   3.858   2.587
 2054SOL    HW2 7062   2.901   3.787   2.714
 2055SOL     OW 7063   3.812   2.663   5.403
 2055SOL    HW1 7064   3.900   2.676   5.447
 2055SOL    HW2 7065   3.739   2.697   5.462
 2056SOL     OW 7066   3.367   4.998   1.375
 2056SOL    HW1 7067   3.364   5.010   1.276
 2056SOL    HW2 7068   3.295   4.936   1.404
 2057SOL     OW 7069   5.230   3.101   3.952
 2057SOL    HW1 7070   5.212   3.013   3.996
 2057SOL    HW2 7071   5.328   3.111   3.934
 2058SOL     OW 7072   6.482   6.917   3.664
 2058SOL    HW1 7073   6.535   7.001   3.665
 2058SOL    HW2 7074   6.541   6.840   3.688
 2059SOL     OW 7075   1.683   1.449   5.486
 2059SOL    HW1 7076   1.766   1.476   5.535
 2059SOL    HW2 7077   1.692   1.473   5.390
 2060SOL     OW 7078   1.696   2.880   6.832
 2060SOL    HW1 7079   1.745   2.804   6.876
 2060SOL    HW2 7080   1.632   2.920   6.898
 2061SOL     OW 7081   1.673   2.424   2.980
 2061SOL    HW1 7082   1.673   2.438   3.079
 2061SOL    HW2 7083   1.646   2.329   2.960
 2062SOL     OW 7084   6.618   5.102   4.448
 2062SOL    HW1 7085   6.655   5.037   4.382
 2062SOL    HW2 7086   6.550   5.160   4.404
 2063SOL     OW 7087   0.866   1.864   3.898
 2063SOL    HW1 7088   0.812   1.786   3.870
 2063SOL    HW2 7089   0.813   1.948   3.886
 2064SOL     OW 7090   0.551   2.969   4.236
 2064SOL    HW1 7091   0.520   2.878   4.265
 2064SOL    HW2 7092   0.651   2.971   4.233
 2065SOL     OW 7093   4.111   3.600   5.881
 2065SOL    HW1 7094   4.027   3.645   5.853
 2065SOL    HW2 7095   4.123   3.516   5.827
 2066SOL     OW 7096   1.165   3.303   5.357
 2066SOL    HW1 7097   1.109   3.315   5.439
 2066SOL    HW2 7098   1.218   3.218   5.366
 2067SOL     OW 7099   6.412   4.853   1.809
 2067SOL    HW1 7100   6.379   4.786   1.875
 2067SOL    HW2 7101   6.500   4.890   1.840
 2068SOL     OW 7102   4.226   0.861   4.613
 2068SOL    HW1 7103   4.139   0.878   4.660
 2068SOL    HW2 7104   4.208   0.835   4.518
 2069SOL     OW 7105   0.082   1.251   3.542
 2069SOL    HW1 7106   0.024   1.183   3.499
 2069SOL    HW2 7107   0.109   1.320   3.474
 2070SOL     OW 7108   1.244   5.079   1.431
 2070SOL    HW1 7109   1.313   5.027   1.481
 2070SOL    HW2 7110   1.283   5.112   1.345
 2071SOL     OW 7111   0.367   2.081   5.836
 2071SOL    HW1 7112   0.394   2.162   5.888
 2071SOL    HW2 7113   0.298   2.106   5.768
 2072SOL     OW 7114   5.394   4.315   5.746
 2072SOL    HW1 7115   5.303   4.276   5.740
 2072SOL    HW2 7116   5.435   4.321   5.655
 2073SOL     OW 7117   3.582   5.744   0.010
 2073SOL    HW1 7118   3.663   5.797   7.012
 2073SOL    HW2 7119   3.610   5.661   0.057
 2074SOL     OW 7120   2.044   4.622   6.015
 2074SOL    HW1 7121   2.001   4.703   5.973
 2074SOL    HW2 7122   2.118   4.589   5.956
 2075SOL     OW 7123   5.849   2.813   1.362
 2075SOL    HW1 7124   5.811   2.721   1.347
 2075SOL    HW2 7125   5.936   2.822   1.314
 2076SOL     OW 7126   6.470   6.661   4.511
 2076SOL    HW1 7127   6.419   6.740   4.544
 2076SOL    HW2 7128   6.408   6.583   4.500
 2077SOL     OW 7129   6.569   4.703   0.745
 2077SOL    HW1 7130   6.655   4.670   0.707
 2077SOL    HW2 7131   6.574   4.801   0.760
 2078SOL     OW 7132   0.785   3.426   5.709
 2078SOL    HW1 7133   0.767   3.464   5.799
 2078SOL    HW2 7134   0.698   3.406   5.663
 2079SOL     OW 7135   5.440   0.912   2.506
 2079SOL    HW1 7136   5.405   0.964   2.584
 2079SOL    HW2 7137   5.540   0.913   2.508
 2080SOL     OW 7138   2.366   3.561   6.323
 2080SOL    HW1 7139   2.298   3.632   6.307
 2080SOL    HW2 7140   2.453   3.603   6.349
 2081SOL     OW 7141   6.074   6.111   1.695
 2081SOL    HW1 7142   5.990   6.056   1.694
 2081SOL    HW2 7143   6.051   6.208   1.693
 2082SOL     OW 7144   6.834   5.887   4.364
 2082SOL    HW1 7145   6.921   5.900   4.412
 2082SOL    HW2 7146   6.802   5.793   4.377
 2083SOL     OW 7147   0.339   6.576   4.040
 2083SOL    HW1 7148   0.340   6.607   4.136
 2083SOL    HW2 7149   0.432   6.572   4.005
 2084SOL     OW 7150   6.762   2.074   1.012
 2084SOL    HW1 7151   6.812   2.048   1.095
 2084SOL    HW2 7152   6.764   1.998   0.947
 2085SOL     OW 7153   6.352   6.264   0.731
 2085SOL    HW1 7154   6.258   6.276   0.700
 2085SOL    HW2 7155   6.363   6.302   0.822
 2086SOL     OW 7156   4.693   1.145   0.208
 2086SOL    HW1 7157   4.689   1.135   0.108
 2086SOL    HW2 7158   4.758   1.079   0.245
 2087SOL     OW 7159   4.228   1.731   6.764
 2087SOL    HW1 7160   4.139   1.697   6.734
 2087SOL    HW2 7161   4.232   1.830   6.751
 2088SOL     OW 7162   0.473   4.654   5.596
 2088SOL    HW1 7163   0.455   4.661   5.694
 2088SOL    HW2 7164   0.564   4.691   5.577
 2089SOL     OW 7165   2.230   3.663   6.090
 2089SOL    HW1 7166   2.154   3.598   6.083
 2089SOL    HW2 7167   2.212   3.741   6.030
 2090SOL     OW 7168   5.220   3.043   6.003
 2090SOL    HW1 7169   5.264   3.085   6.082
 2090SOL    HW2 7170   5.150   3.105   5.966
 2091SOL     OW 7171   5.652   6.224   0.664
 2091SOL    HW1 7172   5.583   6.174   0.716
 2091SOL    HW2 7173   5.703   6.161   0.606
 2092SOL     OW 7174   3.879   3.631   2.049
 2092SOL    HW1 7175   3.878   3.730   2.031
 2092SOL    HW2 7176   3.955   3.610   2.111
 2093SOL     OW 7177   4.378   1.149   1.417
 2093SOL    HW1 7178   4.365   1.097   1.502
 2093SOL    HW2 7179   4.400   1.086   1.342
 2094SOL     OW 7180   5.318   2.157   6.716
 2094SOL    HW1 7181   5.378   2.077   6.722
 2094SOL    HW2 7182   5.259   2.148   6.636
 2095SOL     OW 7183   5.845   5.582   3.976
 2095SOL    HW1 7184   5.896   5.668   3.977
 2095SOL    HW2 7185   5.757   5.596   3.931
 2096SOL     OW 7186   4.075   6.583   1.584
 2096SOL    HW1 7187   4.006   6.641   1.540
 2096SOL    HW2 7188   4.038   6.491   1.597
 2097SOL     OW 7189   0.929   5.901   5.723
 2097SOL    HW1 7190   0.837   5.904   5.686
 2097SOL    HW2 7191   0.981   5.828   5.679
 2098SOL     OW 7192   3.212   6.453   3.708
 2098SOL    HW1 7193   3.273   6.376   3.693
 2098SOL    HW2 7194   3.265   6.538   3.705
 2099SOL     OW 7195   4.527   2.150   6.784
 2099SOL    HW1 7196   4.616   2.190   6.810
 2099SOL    HW2 7197   4.456   2.220   6.791
 2100SOL     OW 7198   5.094   0.139   0.918
 2100SOL    HW1 7199   5.037   0.221   0.913
 2100SOL    HW2 7200   5.188   0.165   0.940
 2101SOL     OW 7201   1.030   0.328   2.818
 2101SOL    HW1 7202   1.034   0.269   2.738
 2101SOL    HW2 7203   1.105   0.305   2.881
 2102SOL     OW 7204   3.973   2.422   1.153
 2102SOL    HW1 7205   3.878   2.440   1.129
 2102SOL    HW2 7206   4.025   2.400   1.071
 2103SOL     OW 7207   2.019   6.315   0.876
 2103SOL    HW1 7208   2.043   6.273   0.789
 2103SOL    HW2 7209   1.925   6.293   0.900
 2104SOL     OW 7210   1.790   3.532   3.361
 2104SOL    HW1 7211   1.841   3.460   3.408
 2104SOL    HW2 7212   1.847   3.614   3.355
 2105SOL     OW 7213   5.847   0.196   5.059
 2105SOL    HW1 7214   5.938   0.156   5.053
 2105SOL    HW2 7215   5.779   0.123   5.072
 2106SOL     OW 7216   4.270   3.277   1.369
 2106SOL    HW1 7217   4.219   3.261   1.285
 2106SOL    HW2 7218   4.363   3.241   1.359
 2107SOL     OW 7219   5.088   4.892   4.927
 2107SOL    HW1 7220   5.049   4.810   4.886
 2107SOL    HW2 7221   5.029   4.970   4.909
 2108SOL     OW 7222   5.043   0.216   4.569
 2108SOL    HW1 7223   5.035   0.143   4.637
 2108SOL    HW2 7224   5.139   0.239   4.556
 2109SOL     OW 7225   3.225   6.435   2.167
 2109SOL    HW1 7226   3.231   6.383   2.082
 2109SOL    HW2 7227   3.241   6.532   2.149
 2110SOL     OW 7228   3.534   6.189   0.001
 2110SOL    HW1 7229   3.564   6.259   6.964
 2110SOL    HW2 7230   3.613   6.147   0.046
 2111SOL     OW 7231   1.126   2.461   5.989
 2111SOL    HW1 7232   1.139   2.543   5.934
 2111SOL    HW2 7233   1.168   2.473   6.079
 2112SOL     OW 7234   1.012   0.055   6.819
 2112SOL    HW1 7235   1.024   0.152   6.840
 2112SOL    HW2 7236   1.089   0.023   6.764
 2113SOL     OW 7237   6.730   1.506   4.563
 2113SOL    HW1 7238   6.705   1.428   4.620
 2113SOL    HW2 7239   6.825   1.530   4.579
 2114SOL     OW 7240   2.023   1.287   5.879
 2114SOL    HW1 7241   1.958   1.212   5.878
 2114SOL    HW2 7242   2.112   1.254   5.910
 2115SOL     OW 7243   6.587   5.631   3.505
 2115SOL    HW1 7244   6.497   5.589   3.501
 2115SOL    HW2 7245   6.595   5.685   3.590
 2116SOL     OW 7246   1.840   1.674   6.941
 2116SOL    HW1 7247   1.765   1.657   6.877
 2116SOL    HW2 7248   1.872   1.768   6.930
 2117SOL     OW 7249   6.834   1.772   2.784
 2117SOL    HW1 7250   6.748   1.822   2.775
 2117SOL    HW2 7251   6.897   1.824   2.842
 2118SOL     OW 7252   0.043   2.187   2.584
 2118SOL    HW1 7253   0.100   2.185   2.666
 2118SOL    HW2 7254   0.022   2.093   2.556
 2119SOL     OW 7255   0.525   2.542   0.817
 2119SOL    HW1 7256   0.586   2.584   0.885
 2119SOL    HW2 7257   0.530   2.593   0.731
 2120SOL     OW 7258   5.682   1.911   0.613
 2120SOL    HW1 7259   5.714   2.005   0.596
 2120SOL    HW2 7260   5.593   1.898   0.570
 2121SOL     OW 7261   1.699   6.730   0.804
 2121SOL    HW1 7262   1.642   6.713   0.724
 2121SOL    HW2 7263   1.753   6.648   0.824
 2122SOL     OW 7264   6.369   0.443   4.687
 2122SOL    HW1 7265   6.303   0.515   4.665
 2122SOL    HW2 7266   6.439   0.480   4.748
 2123SOL     OW 7267   1.576   5.391   3.164
 2123SOL    HW1 7268   1.533   5.302   3.153
 2123SOL    HW2 7269   1.659   5.395   3.108
 2124SOL     OW 7270   4.405   3.575   6.528
 2124SOL    HW1 7271   4.441   3.595   6.436
 2124SOL    HW2 7272   4.474   3.599   6.596
 2125SOL     OW 7273   1.861   5.792   4.472
 2125SOL    HW1 7274   1.924   5.718   4.497
 2125SOL    HW2 7275   1.768   5.757   4.469
 2126SOL     OW 7276   2.779   3.754   6.953
 2126SOL    HW1 7277   2.683   3.741   6.980
 2126SOL    HW2 7278   2.785   3.757   6.854
 2127SOL     OW 7279   1.063   3.143   4.153
 2127SOL    HW1 7280   1.088   3.235   4.122
 2127SOL    HW2 7281   1.046   3.145   4.251
 2128SOL     OW 7282   5.101   2.800   2.038
 2128SOL    HW1 7283   5.025   2.797   2.103
 2128SOL    HW2 7284   5.159   2.880   2.057
 2129SOL     OW 7285   4.963   4.901   4.348
 2129SOL    HW1 7286   4.944   4.890   4.445
 2129SOL    HW2 7287   4.929   4.821   4.298
 2130SOL     OW 7288   2.414   0.946   1.039
 2130SOL    HW1 7289   2.486   1.015   1.050
 2130SOL    HW2 7290   2.326   0.986   1.065
 2131SOL     OW 7291   5.623   0.609   5.803
 2131SOL    HW1 7292   5.566   0.659   5.868
 2131SOL    HW2 7293   5.702   0.665   5.778
 2132SOL     OW 7294   2.627   2.602   6.931
 2132SOL    HW1 7295   2.715   2.646   6.912
 2132SOL    HW2 7296   2.555   2.671   6.935
 2133SOL     OW 7297   3.766   2.104   1.121
 2133SOL    HW1 7298   3.720   2.015   1.115
 2133SOL    HW2 7299   3.789   2.124   1.216
 2134SOL     OW 7300   2.114   6.386   5.393
 2134SOL    HW1 7301   2.049   6.310   5.391
 2134SOL    HW2 7302   2.206   6.351   5.410
 2135SOL     OW 7303   1.043   5.799   3.811
 2135SOL    HW1 7304   0.948   5.815   3.785
 2135SOL    HW2 7305   1.100   5.795   3.728
 2136SOL     OW 7306   1.469   4.988   3.455
 2136SOL    HW1 7307   1.562   4.958   3.433
 2136SOL    HW2 7308   1.429   4.927   3.523
 2137SOL     OW 7309   0.896   1.245   4.832
 2137SOL    HW1 7310   0.885   1.201   4.921
 2137SOL    HW2 7311   0.889   1.344   4.844
 2138SOL     OW 7312   0.941   2.741   5.880
 2138SOL    HW1 7313   1.028   2.791   5.882
 2138SOL    HW2 7314   0.924   2.708   5.787
 2139SOL     OW 7315   2.826   0.216   4.767
 2139SOL    HW1 7316   2.877   0.262   4.694
 2139SOL    HW2 7317   2.832   0.117   4.754
 2140SOL     OW 7318   1.610   5.842   3.486
 2140SOL    HW1 7319   1.669   5.885   3.417
 2140SOL    HW2 7320   1.564   5.913   3.539
 2141SOL     OW 7321   6.816   1.530   0.115
 2141SOL    HW1 7322   6.880   1.606   0.100
 2141SOL    HW2 7323   6.727   1.567   0.141
 2142SOL     OW 7324   3.344   1.165   3.830
 2142SOL    HW1 7325   3.389   1.252   3.814
 2142SOL    HW2 7326   3.247   1.180   3.851
 2143SOL     OW 7327   4.142   6.324   0.023
 2143SOL    HW1 7328   4.137   6.405   0.081
 2143SOL    HW2 7329   4.213   6.262   0.058
 2144SOL     OW 7330   0.661   0.679   2.159
 2144SOL    HW1 7331   0.701   0.588   2.149
 2144SOL    HW2 7332   0.684   0.716   2.249
 2145SOL     OW 7333   3.448   5.851   2.471
 2145SOL    HW1 7334   3.486   5.827   2.560
 2145SOL    HW2 7335   3.356   5.813   2.463
 2146SOL     OW 7336   3.013   2.146   0.756
 2146SOL    HW1 7337   3.067   2.195   0.687
 2146SOL    HW2 7338   3.066   2.069   0.790
 2147SOL     OW 7339   0.333   0.628   5.286
 2147SOL    HW1 7340   0.376   0.587   5.206
 2147SOL    HW2 7341   0.288   0.557   5.340
 2148SOL     OW 7342   5.535   3.384   3.898
 2148SOL    HW1 7343   5.455   3.381   3.957
 2148SOL    HW2 7344   5.512   3.350   3.807
 2149SOL     OW 7345   3.489   0.309   2.697
 2149SOL    HW1 7346   3.466   0.256   2.779
 2149SOL    HW2 7347   3.417   0.375   2.679
 2150SOL     OW 7348   4.037   0.691   2.882
 2150SOL    HW1 7349   4.021   0.784   2.848
 2150SOL    HW2 7350   4.099   0.643   2.820
 2151SOL     OW 7351   3.397   3.870   5.721
 2151SOL    HW1 7352   3.390   3.883   5.622
 2151SOL    HW2 7353   3.488   3.897   5.753
 2152SOL     OW 7354   6.352   6.471   2.256
 2152SOL    HW1 7355   6.280   6.428   2.201
 2152SOL    HW2 7356   6.322   6.561   2.286
 2153SOL     OW 7357   5.089   2.224   2.872
 2153SOL    HW1 7358   5.062   2.321   2.871
 2153SOL    HW2 7359   5.107   2.194   2.779
 2154SOL     OW 7360   4.173   6.268   5.267
 2154SOL    HW1 7361   4.095   6.205   5.275
 2154SOL    HW2 7362   4.152   6.338   5.199
 2155SOL     OW 7363   6.040   3.761   6.694
 2155SOL    HW1 7364   6.047   3.729   6.600
 2155SOL    HW2 7365   6.098   3.842   6.707
 2156SOL     OW 7366   0.402   0.965   1.319
 2156SOL    HW1 7367   0.493   0.958   1.358
 2156SOL    HW2 7368   0.347   0.887   1.348
 2157SOL     OW 7369   6.388   1.297   3.908
 2157SOL    HW1 7370   6.305   1.299   3.964
 2157SOL    HW2 7371   6.459   1.244   3.955
 2158SOL     OW 7372   4.452   6.623   3.026
 2158SOL    HW1 7373   4.524   6.617   3.094
 2158SOL    HW2 7374   4.461   6.548   2.961
 2159SOL     OW 7375   2.483   0.058   5.342
 2159SOL    HW1 7376   2.559   0.106   5.299
 2159SOL    HW2 7377   2.397   0.106   5.322
 2160SOL     OW 7378   2.846   3.003   0.792
 2160SOL    HW1 7379   2.911   3.032   0.723
 2160SOL    HW2 7380   2.778   3.076   0.805
 2161SOL     OW 7381   5.288   2.476   3.593
 2161SOL    HW1 7382   5.291   2.576   3.585
 2161SOL    HW2 7383   5.193   2.446   3.597
 2162SOL     OW 7384   1.595   1.335   0.780
 2162SOL    HW1 7385   1.584   1.260   0.714
 2162SOL    HW2 7386   1.584   1.422   0.733
 2163SOL     OW 7387   2.241   1.641   1.291
 2163SOL    HW1 7388   2.232   1.700   1.371
 2163SOL    HW2 7389   2.188   1.681   1.215
 2164SOL     OW 7390   0.088   0.193   1.328
 2164SOL    HW1 7391   0.106   0.248   1.247
 2164SOL    HW2 7392   0.161   0.125   1.339
 2165SOL     OW 7393   3.166   6.824   1.242
 2165SOL    HW1 7394   3.228   6.835   1.321
 2165SOL    HW2 7395   3.077   6.792   1.274
 2166SOL     OW 7396   5.970   2.646   6.123
 2166SOL    HW1 7397   5.958   2.671   6.219
 2166SOL    HW2 7398   6.060   2.678   6.092
 2167SOL     OW 7399   2.844   1.074   1.724
 2167SOL    HW1 7400   2.812   1.142   1.791
 2167SOL    HW2 7401   2.781   0.997   1.722
 2168SOL     OW 7402   5.596   6.376   4.705
 2168SOL    HW1 7403   5.639   6.462   4.680
 2168SOL    HW2 7404   5.497   6.389   4.710
 2169SOL     OW 7405   6.798   1.397   5.684
 2169SOL    HW1 7406   6.807   1.384   5.783
 2169SOL    HW2 7407   6.721   1.343   5.649
 2170SOL     OW 7408   5.405   4.335   4.358
 2170SOL    HW1 7409   5.375   4.352   4.265
 2170SOL    HW2 7410   5.328   4.347   4.421
 2171SOL     OW 7411   6.785   3.554   0.394
 2171SOL    HW1 7412   6.814   3.474   0.447
 2171SOL    HW2 7413   6.758   3.525   0.302
 2172SOL     OW 7414   2.675   0.220   1.161
 2172SOL    HW1 7415   2.652   0.208   1.065
 2172SOL    HW2 7416   2.767   0.185   1.178
 2173SOL     OW 7417   4.682   1.966   4.824
 2173SOL    HW1 7418   4.721   2.026   4.755
 2173SOL    HW2 7419   4.721   1.874   4.815
 2174SOL     OW 7420   1.181   5.268   5.142
 2174SOL    HW1 7421   1.247   5.296   5.073
 2174SOL    HW2 7422   1.164   5.170   5.135
 2175SOL     OW 7423   1.629   6.137   5.965
 2175SOL    HW1 7424   1.630   6.056   5.906
 2175SOL    HW2 7425   1.611   6.219   5.910
 2176SOL     OW 7426   1.573   2.768   2.322
 2176SOL    HW1 7427   1.610   2.741   2.411
 2176SOL    HW2 7428   1.474   2.757   2.322
 2177SOL     OW 7429   0.453   2.217   2.079
 2177SOL    HW1 7430   0.439   2.163   1.995
 2177SOL    HW2 7431   0.365   2.226   2.126
 2178SOL     OW 7432   6.972   5.986   1.194
 2178SOL    HW1 7433   6.978   6.063   1.130
 2178SOL    HW2 7434   0.037   5.953   1.215
 2179SOL     OW 7435   1.056   3.779   4.136
 2179SOL    HW1 7436   1.114   3.858   4.156
 2179SOL    HW2 7437   1.011   3.791   4.048
 2180SOL     OW 7438   3.773   2.828   1.657
 2180SOL    HW1 7439   3.773   2.908   1.596
 2180SOL    HW2 7440   3.840   2.842   1.730
 2181SOL     OW 7441   4.132   6.718   1.145
 2181SOL    HW1 7442   4.157   6.814   1.157
 2181SOL    HW2 7443   4.206   6.660   1.181
 2182SOL     OW 7444   5.756   2.179   0.542
 2182SOL    HW1 7445   5.799   2.187   0.452
 2182SOL    HW2 7446   5.823   2.201   0.613
 2183SOL     OW 7447   2.673   2.933   7.003
 2183SOL    HW1 7448   2.579   2.900   6.995
 2183SOL    HW2 7449   2.736   2.864   6.968
 2184SOL     OW 7450   4.652   3.371   6.230
 2184SOL    HW1 7451   4.584   3.441   6.250
 2184SOL    HW2 7452   4.672   3.370   6.132
 2185SOL     OW 7453   0.314   7.022   2.035
 2185SOL    HW1 7454   0.284   6.981   2.121
 2185SOL    HW2 7455   0.262   6.981   1.960
 2186SOL     OW 7456   0.378   4.489   3.061
 2186SOL    HW1 7457   0.442   4.449   3.126
 2186SOL    HW2 7458   0.303   4.425   3.045
 2187SOL     OW 7459   6.380   1.563   6.512
 2187SOL    HW1 7460   6.363   1.528   6.419
 2187SOL    HW2 7461   6.421   1.490   6.567
 2188SOL     OW 7462   4.999   1.280   3.285
 2188SOL    HW1 7463   4.948   1.194   3.285
 2188SOL    HW2 7464   5.093   1.264   3.254
 2189SOL     OW 7465   2.813   0.124   6.778
 2189SOL    HW1 7466   2.801   0.034   6.821
 2189SOL    HW2 7467   2.727   0.151   6.734
 2190SOL     OW 7468   4.888   2.179   0.754
 2190SOL    HW1 7469   4.975   2.181   0.803
 2190SOL    HW2 7470   4.819   2.133   0.809
 2191SOL     OW 7471   2.556   1.926   6.989
 2191SOL    HW1 7472   2.592   1.867   0.034
 2191SOL    HW2 7473   2.485   1.986   7.026
 2192SOL     OW 7474   3.796   5.124   2.696
 2192SOL    HW1 7475   3.766   5.029   2.704
 2192SOL    HW2 7476   3.895   5.126   2.684
 2193SOL     OW 7477   6.910   5.957   5.105
 2193SOL    HW1 7478   6.948   5.880   5.053
 2193SOL    HW2 7479   6.961   6.040   5.083
 2194SOL     OW 7480   3.064   0.248   1.400
 2194SOL    HW1 7481   3.101   0.285   1.485
 2194SOL    HW2 7482   2.965   0.235   1.410
 2195SOL     OW 7483   0.916   4.907   2.031
 2195SOL    HW1 7484   0.937   4.848   1.953
 2195SOL    HW2 7485   0.822   4.891   2.061
 2196SOL     OW 7486   4.584   2.926   0.304
 2196SOL    HW1 7487   4.663   2.960   0.253
 2196SOL    HW2 7488   4.530   2.865   0.246
 2197SOL     OW 7489   4.625   4.180   6.923
 2197SOL    HW1 7490   4.709   4.234   6.922
 2197SOL    HW2 7491   4.551   4.234   6.964
 2198SOL     OW 7492   6.119   4.338   0.422
 2198SOL    HW1 7493   6.160   4.384   0.500
 2198SOL    HW2 7494   6.089   4.246   0.449
 2199SOL     OW 7495   4.392   0.853   2.643
 2199SOL    HW1 7496   4.401   0.821   2.737
 2199SOL    HW2 7497   4.416   0.778   2.580
 2200SOL     OW 7498   2.513   6.573   4.214
 2200SOL    HW1 7499   2.607   6.538   4.223
 2200SOL    HW2 7500   2.512   6.649   4.150
 2201SOL     OW 7501   4.802   4.057   4.175
 2201SOL    HW1 7502   4.826   4.122   4.103
 2201SOL    HW2 7503   4.779   4.107   4.259
 2202SOL     OW 7504   5.036   6.004   4.059
 2202SOL    HW1 7505   5.128   6.026   4.027
 2202SOL    HW2 7506   5.034   5.911   4.095
 2203SOL     OW 7507   3.024   1.998   2.800
 2203SOL    HW1 7508   2.927   2.007   2.779
 2203SOL    HW2 7509   3.075   1.982   2.715
 2204SOL     OW 7510   2.554   3.062   0.868
 2204SOL    HW1 7511   2.513   2.971   0.866
 2204SOL    HW2 7512   2.498   3.125   0.813
 2205SOL     OW 7513   2.468   1.076   1.971
 2205SOL    HW1 7514   2.430   1.167   1.954
 2205SOL    HW2 7515   2.549   1.084   2.029
 2206SOL     OW 7516   2.003   3.056   0.163
 2206SOL    HW1 7517   1.951   2.971   0.161
 2206SOL    HW2 7518   2.090   3.041   0.210
 2207SOL     OW 7519   0.658   4.697   4.906
 2207SOL    HW1 7520   0.604   4.649   4.836
 2207SOL    HW2 7521   0.710   4.630   4.959
 2208SOL     OW 7522   6.687   4.791   2.239
 2208SOL    HW1 7523   6.590   4.790   2.265
 2208SOL    HW2 7524   6.724   4.883   2.255
 2209SOL     OW 7525   1.121   0.024   1.910
 2209SOL    HW1 7526   1.135   0.108   1.857
 2209SOL    HW2 7527   1.188   6.983   1.882
 2210SOL     OW 7528   2.161   5.361   3.284
 2210SOL    HW1 7529   2.068   5.378   3.316
 2210SOL    HW2 7530   2.192   5.272   3.319
 2211SOL     OW 7531   7.003   1.814   5.310
 2211SOL    HW1 7532   7.017   1.752   5.387
 2211SOL    HW2 7533   6.922   1.785   5.258
 2212SOL     OW 7534   2.072   0.064   6.635
 2212SOL    HW1 7535   1.989   0.055   6.581
 2212SOL    HW2 7536   2.152   0.054   6.576
 2213SOL     OW 7537   3.805   0.611   3.104
 2213SOL    HW1 7538   3.803   0.553   3.023
 2213SOL    HW2 7539   3.803   0.707   3.077
 2214SOL     OW 7540   4.557   0.102   4.832
 2214SOL    HW1 7541   4.558   0.202   4.829
 2214SOL    HW2 7542   4.575   0.072   4.925
 2215SOL     OW 7543   5.814   2.242   5.687
 2215SOL    HW1 7544   5.810   2.266   5.784
 2215SOL    HW2 7545   5.891   2.290   5.644
 2216SOL     OW 7546   2.919   0.707   2.503
 2216SOL    HW1 7547   3.009   0.666   2.499
 2216SOL    HW2 7548   2.876   0.703   2.412
 2217SOL     OW 7549   4.013   0.924   1.791
 2217SOL    HW1 7550   3.944   0.952   1.858
 2217SOL    HW2 7551   3.970   0.873   1.717
 2218SOL     OW 7552   1.745   0.021   3.156
 2218SOL    HW1 7553   1.742   0.038   3.058
 2218SOL    HW2 7554   1.809   0.085   3.199
 2219SOL     OW 7555   1.271   2.690   2.626
 2219SOL    HW1 7556   1.310   2.746   2.698
 2219SOL    HW2 7557   1.311   2.716   2.538
 2220SOL     OW 7558   0.528   0.156   2.145
 2220SOL    HW1 7559   0.445   0.102   2.130
 2220SOL    HW2 7560   0.605   0.095   2.162
 2221SOL     OW 7561   0.544   1.030   6.547
 2221SOL    HW1 7562   0.610   1.045   6.473
 2221SOL    HW2 7563   0.535   0.931   6.563
 2222SOL     OW 7564   6.484   6.015   3.163
 2222SOL    HW1 7565   6.532   5.988   3.080
 2222SOL    HW2 7566   6.471   6.114   3.165
 2223SOL     OW 7567   6.335   6.133   1.777
 2223SOL    HW1 7568   6.244   6.092   1.775
 2223SOL    HW2 7569   6.328   6.232   1.769
 2224SOL     OW 7570   0.781   4.460   1.827
 2224SOL    HW1 7571   0.801   4.385   1.890
 2224SOL    HW2 7572   0.864   4.483   1.776
 2225SOL     OW 7573   0.333   4.163   1.112
 2225SOL    HW1 7574   0.252   4.104   1.108
 2225SOL    HW2 7575   0.345   4.209   1.024
 2226SOL     OW 7576   4.054   3.903   1.895
 2226SOL    HW1 7577   4.053   4.002   1.878
 2226SOL    HW2 7578   4.024   3.884   1.988
 2227SOL     OW 7579   0.877   2.845   4.805
 2227SOL    HW1 7580   0.927   2.924   4.769
 2227SOL    HW2 7581   0.922   2.813   4.889
 2228SOL     OW 7582   3.309   4.892   4.582
 2228SOL    HW1 7583   3.229   4.874   4.640
 2228SOL    HW2 7584   3.288   4.865   4.488
 2229SOL     OW 7585   5.890   6.821   3.387
 2229SOL    HW1 7586   5.930   6.875   3.461
 2229SOL    HW2 7587   5.936   6.844   3.301
 2230SOL     OW 7588   2.600   5.402   1.846
 2230SOL    HW1 7589   2.682   5.363   1.889
 2230SOL    HW2 7590   2.605   5.390   1.747
 2231SOL     OW 7591   2.509   6.269   1.136
 2231SOL    HW1 7592   2.566   6.346   1.167
 2231SOL    HW2 7593   2.440   6.249   1.204
 2232SOL     OW 7594   5.385   3.177   3.634
 2232SOL    HW1 7595   5.417   3.110   3.701
 2232SOL    HW2 7596   5.305   3.224   3.670
 2233SOL     OW 7597   2.379   1.775   6.243
 2233SOL    HW1 7598   2.334   1.814   6.163
 2233SOL    HW2 7599   2.372   1.840   6.320
 2234SOL     OW 7600   3.592   2.444   1.420
 2234SOL    HW1 7601   3.664   2.507   1.451
 2234SOL    HW2 7602   3.630   2.351   1.414
 2235SOL     OW 7603   2.503   1.974   1.418
 2235SOL    HW1 7604   2.601   1.994   1.425
 2235SOL    HW2 7605   2.468   1.947   1.507
 2236SOL     OW 7606   0.974   4.979   6.294
 2236SOL    HW1 7607   1.024   4.935   6.369
 2236SOL    HW2 7608   0.974   4.919   6.214
 2237SOL     OW 7609   6.230   3.352   4.249
 2237SOL    HW1 7610   6.226   3.289   4.327
 2237SOL    HW2 7611   6.290   3.429   4.272
 2238SOL     OW 7612   6.451   6.361   1.272
 2238SOL    HW1 7613   6.496   6.350   1.183
 2238SOL    HW2 7614   6.378   6.430   1.264
 2239SOL     OW 7615   5.905   6.094   2.563
 2239SOL    HW1 7616   5.811   6.074   2.538
 2239SOL    HW2 7617   5.967   6.054   2.495
 2240SOL     OW 7618   5.786   3.823   1.648
 2240SOL    HW1 7619   5.882   3.847   1.660
 2240SOL    HW2 7620   5.780   3.738   1.594
 2241SOL     OW 7621   1.607   6.928   2.504
 2241SOL    HW1 7622   1.636   6.884   2.589
 2241SOL    HW2 7623   1.636   6.873   2.426
 2242SOL     OW 7624   3.518   1.859   2.458
 2242SOL    HW1 7625   3.496   1.916   2.537
 2242SOL    HW2 7626   3.436   1.841   2.405
 2243SOL     OW 7627   2.463   6.854   5.168
 2243SOL    HW1 7628   2.452   6.761   5.203
 2243SOL    HW2 7629   2.467   6.917   5.246
 2244SOL     OW 7630   3.178   1.350   5.044
 2244SOL    HW1 7631   3.097   1.408   5.057
 2244SOL    HW2 7632   3.186   1.326   4.948
 2245SOL     OW 7633   0.236   2.474   2.261
 2245SOL    HW1 7634   0.170   2.482   2.187
 2245SOL    HW2 7635   0.279   2.563   2.277
 2246SOL     OW 7636   1.493   4.823   5.018
 2246SOL    HW1 7637   1.484   4.797   4.921
 2246SOL    HW2 7638   1.444   4.757   5.074
 2247SOL     OW 7639   1.901   1.501   4.386
 2247SOL    HW1 7640   1.878   1.531   4.479
 2247SOL    HW2 7641   1.927   1.405   4.387
 2248SOL     OW 7642   4.221   3.903   5.787
 2248SOL    HW1 7643   4.275   3.904   5.871
 2248SOL    HW2 7644   4.189   3.810   5.770
 2249SOL     OW 7645   3.729   5.219   5.137
 2249SOL    HW1 7646   3.768   5.199   5.226
 2249SOL    HW2 7647   3.672   5.143   5.107
 2250SOL     OW 7648   4.641   5.034   1.411
 2250SOL    HW1 7649   4.628   4.945   1.368
 2250SOL    HW2 7650   4.727   5.034   1.463
 2251SOL     OW 7651   0.555   0.130   6.113
 2251SOL    HW1 7652   0.622   0.183   6.165
 2251SOL    HW2 7653   0.594   0.041   6.089
 2252SOL     OW 7654   3.501   0.495   6.267
 2252SOL    HW1 7655   3.480   0.427   6.198
 2252SOL    HW2 7656   3.501   0.586   6.226
 2253SOL     OW 7657   1.076   2.877   6.407
 2253SOL    HW1 7658   0.997   2.916   6.359
 2253SOL    HW2 7659   1.153   2.941   6.402
 2254SOL     OW 7660   1.713   4.700   6.133
 2254SOL    HW1 7661   1.681   4.759   6.059
 2254SOL    HW2 7662   1.726   4.754   6.216
 2255SOL     OW 7663   5.548   3.531   6.963
 2255SOL    HW1 7664   5.452   3.507   6.976
 2255SOL    HW2 7665   5.599   3.449   6.935
 2256SOL     OW 7666   3.054   4.893   2.482
 2256SOL    HW1 7667   3.072   4.859   2.390
 2256SOL    HW2 7668   3.139   4.898   2.534
 2257SOL     OW 7669   1.756   3.733   4.281
 2257SOL    HW1 7670   1.791   3.702   4.193
 2257SOL    HW2 7671   1.736   3.654   4.339
 2258SOL     OW 7672   1.638   4.874   5.573
 2258SOL    HW1 7673   1.541   4.890   5.556
 2258SOL    HW2 7674   1.690   4.955   5.545
 2259SOL     OW 7675   6.338   3.446   6.416
 2259SOL    HW1 7676   6.302   3.381   6.349
 2259SOL    HW2 7677   6.340   3.404   6.507
 2260SOL     OW 7678   4.375   3.620   1.361
 2260SOL    HW1 7679   4.296   3.675   1.389
 2260SOL    HW2 7680   4.409   3.569   1.439
 2261SOL     OW 7681   2.974   6.617   5.181
 2261SOL    HW1 7682   2.999   6.565   5.099
 2261SOL    HW2 7683   3.020   6.577   5.260
 2262SOL     OW 7684   3.366   1.846   3.257
 2262SOL    HW1 7685   3.290   1.783   3.237
 2262SOL    HW2 7686   3.377   1.910   3.181
 2263SOL     OW 7687   0.351   3.924   5.799
 2263SOL    HW1 7688   0.390   3.895   5.886
 2263SOL    HW2 7689   0.415   3.985   5.753
 2264SOL     OW 7690   3.008   3.705   3.071
 2264SOL    HW1 7691   2.986   3.711   2.974
 2264SOL    HW2 7692   3.107   3.700   3.082
 2265SOL     OW 7693   1.097   6.673   3.115
 2265SOL    HW1 7694   1.028   6.742   3.137
 2265SOL    HW2 7695   1.134   6.635   3.200
 2266SOL     OW 7696   6.683   0.565   6.403
 2266SOL    HW1 7697   6.712   0.643   6.348
 2266SOL    HW2 7698   6.593   0.534   6.371
 2267SOL     OW 7699   5.812   2.026   5.269
 2267SOL    HW1 7700   5.722   1.984   5.277
 2267SOL    HW2 7701   5.820   2.100   5.335
 2268SOL     OW 7702   6.589   5.348   6.482
 2268SOL    HW1 7703   6.627   5.383   6.568
 2268SOL    HW2 7704   6.649   5.375   6.407
 2269SOL     OW 7705   0.557   6.772   3.213
 2269SOL    HW1 7706   0.520   6.861   3.238
 2269SOL    HW2 7707   0.553   6.711   3.292
 2270SOL     OW 7708   3.593   3.329   2.989
 2270SOL    HW1 7709   3.677   3.316   2.937
 2270SOL    HW2 7710   3.615   3.333   3.087
 2271SOL     OW 7711   0.806   4.411   2.869
 2271SOL    HW1 7712   0.828   4.501   2.907
 2271SOL    HW2 7713   0.766   4.353   2.940
 2272SOL     OW 7714   5.163   2.219   5.478
 2272SOL    HW1 7715   5.105   2.138   5.465
 2272SOL    HW2 7716   5.143   2.285   5.407
 2273SOL     OW 7717   0.830   0.944   3.322
 2273SOL    HW1 7718   0.753   0.887   3.351
 2273SOL    HW2 7719   0.912   0.917   3.372
 2274SOL     OW 7720   0.878   3.908   3.048
 2274SOL    HW1 7721   0.820   3.827   3.041
 2274SOL    HW2 7722   0.932   3.917   2.964
 2275SOL     OW 7723   4.893   6.237   3.642
 2275SOL    HW1 7724   4.841   6.316   3.674
 2275SOL    HW2 7725   4.904   6.172   3.718
 2276SOL     OW 7726   3.195   5.982   2.294
 2276SOL    HW1 7727   3.204   5.896   2.245
 2276SOL    HW2 7728   3.286   6.021   2.308
 2277SOL     OW 7729   3.125   3.808   1.069
 2277SOL    HW1 7730   3.124   3.717   1.027
 2277SOL    HW2 7731   3.048   3.861   1.034
 2278SOL     OW 7732   5.167   6.638   1.359
 2278SOL    HW1 7733   5.261   6.671   1.350
 2278SOL    HW2 7734   5.156   6.554   1.306
 2279SOL     OW 7735   5.995   3.998   5.990
 2279SOL    HW1 7736   6.058   4.070   6.020
 2279SOL    HW2 7737   5.945   4.028   5.910
 2280SOL     OW 7738   5.678   0.051   6.184
 2280SOL    HW1 7739   5.611   0.007   6.125
 2280SOL    HW2 7740   5.661   0.024   6.279
 2281SOL     OW 7741   2.878   1.739   0.289
 2281SOL    HW1 7742   2.833   1.656   0.322
 2281SOL    HW2 7743   2.968   1.748   0.333
 2282SOL     OW 7744   4.374   6.262   2.033
 2282SOL    HW1 7745   4.306   6.218   1.974
 2282SOL    HW2 7746   4.328   6.308   2.109
 2283SOL     OW 7747   6.790   4.104   2.050
 2283SOL    HW1 7748   6.691   4.096   2.063
 2283SOL    HW2 7749   6.809   4.184   1.992
 2284SOL     OW 7750   2.430   2.454   2.182
 2284SOL    HW1 7751   2.370   2.381   2.212
 2284SOL    HW2 7752   2.521   2.418   2.162
 2285SOL     OW 7753   1.799   3.902   6.741
 2285SOL    HW1 7754   1.758   3.829   6.795
 2285SOL    HW2 7755   1.834   3.973   6.802
 2286SOL     OW 7756   5.886   6.772   4.356
 2286SOL    HW1 7757   5.888   6.787   4.455
 2286SOL    HW2 7758   5.979   6.769   4.320
 2287SOL     OW 7759   2.161   2.426   0.599
 2287SOL    HW1 7760   2.103   2.362   0.547
 2287SOL    HW2 7761   2.122   2.440   0.690
 2288SOL     OW 7762   1.992   5.573   4.617
 2288SOL    HW1 7763   1.942   5.587   4.703
 2288SOL    HW2 7764   2.038   5.484   4.621
 2289SOL     OW 7765   4.268   1.523   6.941
 2289SOL    HW1 7766   4.277   1.563   0.005
 2289SOL    HW2 7767   4.224   1.588   6.879
 2290SOL     OW 7768   3.367   3.730   3.570
 2290SOL    HW1 7769   3.294   3.664   3.589
 2290SOL    HW2 7770   3.336   3.822   3.597
 2291SOL     OW 7771   0.946   2.205   6.266
 2291SOL    HW1 7772   0.979   2.289   6.224
 2291SOL    HW2 7773   0.895   2.227   6.349
 2292SOL     OW 7774   4.933   1.554   2.534
 2292SOL    HW1 7775   4.991   1.477   2.562
 2292SOL    HW2 7776   4.977   1.640   2.560
 2293SOL     OW 7777   0.456   0.713   0.182
 2293SOL    HW1 7778   0.521   0.787   0.161
 2293SOL    HW2 7779   0.433   0.665   0.097
 2294SOL     OW 7780   0.268   0.861   6.036
 2294SOL    HW1 7781   0.224   0.939   5.991
 2294SOL    HW2 7782   0.222   0.843   6.123
 2295SOL     OW 7783   6.039   5.620   1.301
 2295SOL    HW1 7784   5.982   5.540   1.286
 2295SOL    HW2 7785   5.982   5.699   1.325
 2296SOL     OW 7786   3.894   5.143   4.136
 2296SOL    HW1 7787   3.964   5.184   4.076
 2296SOL    HW2 7788   3.922   5.154   4.232
 2297SOL     OW 7789   5.293   3.905   5.180
 2297SOL    HW1 7790   5.333   3.996   5.174
 2297SOL    HW2 7791   5.352   3.846   5.236
 2298SOL     OW 7792   2.948   3.611   4.795
 2298SOL    HW1 7793   2.879   3.623   4.866
 2298SOL    HW2 7794   3.032   3.574   4.836
 2299SOL     OW 7795   5.307   3.093   4.466
 2299SOL    HW1 7796   5.222   3.134   4.432
 2299SOL    HW2 7797   5.289   3.050   4.555
 2300SOL     OW 7798   5.454   6.931   1.795
 2300SOL    HW1 7799   5.437   0.002   1.785
 2300SOL    HW2 7800   5.368   6.882   1.783
 2301SOL     OW 7801   3.877   3.289   4.955
 2301SOL    HW1 7802   3.909   3.321   4.866
 2301SOL    HW2 7803   3.953   3.290   5.020
 2302SOL     OW 7804   6.203   3.292   6.227
 2302SOL    HW1 7805   6.144   3.372   6.234
 2302SOL    HW2 7806   6.259   3.299   6.144
 2303SOL     OW 7807   3.118   2.640   7.018
 2303SOL    HW1 7808   3.053   2.646   0.066
 2303SOL    HW2 7809   3.101   2.556   6.966
 2304SOL     OW 7810   6.905   6.706   2.707
 2304SOL    HW1 7811   6.915   6.646   2.787
 2304SOL    HW2 7812   6.950   6.663   2.628
 2305SOL     OW 7813   2.588   6.867   5.779
 2305SOL    HW1 7814   2.493   6.893   5.790
 2305SOL    HW2 7815   2.623   6.904   5.693
 2306SOL     OW 7816   1.790   5.068   4.790
 2306SOL    HW1 7817   1.868   5.090   4.849
 2306SOL    HW2 7818   1.750   5.153   4.755
 2307SOL     OW 7819   6.597   3.455   4.955
 2307SOL    HW1 7820   6.552   3.385   5.010
 2307SOL    HW2 7821   6.591   3.543   5.002
 2308SOL     OW 7822   1.045   5.547   2.391
 2308SOL    HW1 7823   1.128   5.552   2.446
 2308SOL    HW2 7824   0.982   5.619   2.420
 2309SOL     OW 7825   2.588   0.875   4.556
 2309SOL    HW1 7826   2.608   0.914   4.646
 2309SOL    HW2 7827   2.589   0.775   4.562
 2310SOL     OW 7828   4.837   6.739   0.806
 2310SOL    HW1 7829   4.856   6.823   0.857
 2310SOL    HW2 7830   4.782   6.678   0.863
 2311SOL     OW 7831   2.360   5.624   0.781
 2311SOL    HW1 7832   2.271   5.619   0.737
 2311SOL    HW2 7833   2.432   5.611   0.713
 2312SOL     OW 7834   3.314   4.895   1.884
 2312SOL    HW1 7835   3.230   4.842   1.892
 2312SOL    HW2 7836   3.389   4.835   1.859
 2313SOL     OW 7837   5.112   4.485   1.552
 2313SOL    HW1 7838   5.058   4.502   1.634
 2313SOL    HW2 7839   5.112   4.567   1.494
 2314SOL     OW 7840   2.758   4.790   4.164
 2314SOL    HW1 7841   2.745   4.791   4.065
 2314SOL    HW2 7842   2.724   4.703   4.201
 2315SOL     OW 7843   4.791   2.250   6.777
 2315SOL    HW1 7844   4.865   2.294   6.726
 2315SOL    HW2 7845   4.803   2.268   6.874
 2316SOL     OW 7846   4.961   3.485   1.848
 2316SOL    HW1 7847   4.972   3.583   1.830
 2316SOL    HW2 7848   5.051   3.441   1.848
 2317SOL     OW 7849   0.592   6.187   2.903
 2317SOL    HW1 7850   0.637   6.269   2.868
 2317SOL    HW2 7851   0.496   6.186   2.875
 2318SOL     OW 7852   0.137   1.184   4.305
 2318SOL    HW1 7853   0.190   1.115   4.354
 2318SOL    HW2 7854   0.175   1.275   4.323
 2319SOL     OW 7855   1.454   4.795   2.226
 2319SOL    HW1 7856   1.489   4.705   2.251
 2319SOL    HW2 7857   1.367   4.784   2.178
 2320SOL     OW 7858   6.773   4.863   4.874
 2320SOL    HW1 7859   6.787   4.952   4.830
 2320SOL    HW2 7860   6.760   4.876   4.973
 2321SOL     OW 7861   3.749   4.922   4.632
 2321SOL    HW1 7862   3.728   4.993   4.699
 2321SOL    HW2 7863   3.747   4.832   4.677
 2322SOL     OW 7864   3.158   0.746   5.059
 2322SOL    HW1 7865   3.235   0.779   5.004
 2322SOL    HW2 7866   3.159   0.646   5.060
 2323SOL     OW 7867   4.923   3.753   2.249
 2323SOL    HW1 7868   5.012   3.709   2.254
 2323SOL    HW2 7869   4.888   3.769   2.341
 2324SOL     OW 7870   0.674   4.625   3.301
 2324SOL    HW1 7871   0.644   4.531   3.283
 2324SOL    HW2 7872   0.774   4.627   3.307
 2325SOL     OW 7873   0.104   2.406   0.231
 2325SOL    HW1 7874   0.083   2.493   0.276
 2325SOL    HW2 7875   0.073   2.330   0.288
 2326SOL     OW 7876   0.906   4.340   0.373
 2326SOL    HW1 7877   0.833   4.362   0.437
 2326SOL    HW2 7878   0.954   4.258   0.405
 2327SOL     OW 7879   5.391   1.645   3.637
 2327SOL    HW1 7880   5.429   1.703   3.565
 2327SOL    HW2 7881   5.296   1.624   3.615
 2328SOL     OW 7882   6.646   5.994   3.388
 2328SOL    HW1 7883   6.573   6.037   3.442
 2328SOL    HW2 7884   6.608   5.960   3.302
 2329SOL     OW 7885   0.084   5.450   2.904
 2329SOL    HW1 7886   0.047   5.510   2.975
 2329SOL    HW2 7887   0.184   5.449   2.909
 2330SOL     OW 7888   0.857   3.787   1.708
 2330SOL    HW1 7889   0.846   3.844   1.790
 2330SOL    HW2 7890   0.770   3.783   1.659
 2331SOL     OW 7891   1.404   4.411   5.927
 2331SOL    HW1 7892   1.349   4.346   5.875
 2331SOL    HW2 7893   1.444   4.478   5.865
 2332SOL     OW 7894   5.531   2.385   5.237
 2332SOL    HW1 7895   5.470   2.427   5.304
 2332SOL    HW2 7896   5.542   2.447   5.159
 2333SOL     OW 7897   3.046   4.919   4.195
 2333SOL    HW1 7898   2.965   4.865   4.175
 2333SOL    HW2 7899   3.096   4.938   4.111
 2334SOL     OW 7900   2.531   6.992   0.035
 2334SOL    HW1 7901   2.504   6.911   0.088
 2334SOL    HW2 7902   2.450   0.018   0.011
 2335SOL     OW 7903   4.555   5.096   4.656
 2335SOL    HW1 7904   4.654   5.106   4.641
 2335SOL    HW2 7905   4.528   5.001   4.640
 2336SOL     OW 7906   4.090   3.073   5.906
 2336SOL    HW1 7907   4.064   3.167   5.930
 2336SOL    HW2 7908   4.175   3.075   5.854
 2337SOL     OW 7909   6.448   0.428   4.190
 2337SOL    HW1 7910   6.473   0.421   4.093
 2337SOL    HW2 7911   6.527   0.402   4.246
 2338SOL     OW 7912   1.323   0.117   6.470
 2338SOL    HW1 7913   1.292   0.076   6.555
 2338SOL    HW2 7914   1.363   0.207   6.488
 2339SOL     OW 7915   4.298   5.029   6.973
 2339SOL    HW1 7916   4.336   4.999   6.886
 2339SOL    HW2 7917   4.313   5.127   6.983
 2340SOL     OW 7918   4.103   4.927   3.648
 2340SOL    HW1 7919   4.126   4.921   3.745
 2340SOL    HW2 7920   4.176   4.888   3.593
 2341SOL     OW 7921   5.718   4.653   6.333
 2341SOL    HW1 7922   5.751   4.641   6.427
 2341SOL    HW2 7923   5.626   4.693   6.335
 2342SOL     OW 7924   6.926   0.289   5.088
 2342SOL    HW1 7925   6.910   0.286   4.989
 2342SOL    HW2 7926   6.879   0.213   5.131
 2343SOL     OW 7927   0.995   0.340   1.018
 2343SOL    HW1 7928   1.016   0.436   1.033
 2343SOL    HW2 7929   0.972   0.325   0.922
 2344SOL     OW 7930   3.009   1.731   2.904
 2344SOL    HW1 7931   3.103   1.708   2.878
 2344SOL    HW2 7932   2.987   1.823   2.871
 2345SOL     OW 7933   1.405   1.533   2.524
 2345SOL    HW1 7934   1.325   1.594   2.520
 2345SOL    HW2 7935   1.484   1.580   2.486
 2346SOL     OW 7936   4.673   3.299   5.478
 2346SOL    HW1 7937   4.704   3.281   5.571
 2346SOL    HW2 7938   4.644   3.394   5.469
 2347SOL     OW 7939   1.321   3.249   0.936
 2347SOL    HW1 7940   1.387   3.306   0.887
 2347SOL    HW2 7941   1.366   3.166   0.970
 2348SOL     OW 7942   2.690   6.492   1.483
 2348SOL    HW1 7943   2.668   6.549   1.404
 2348SOL    HW2 7944   2.769   6.531   1.532
 2349SOL     OW 7945   4.471   4.298   6.524
 2349SOL    HW1 7946   4.405   4.317   6.452
 2349SOL    HW2 7947   4.553   4.354   6.511
 2350SOL     OW 7948   2.371   5.880   5.244
 2350SOL    HW1 7949   2.275   5.895   5.221
 2350SOL    HW2 7950   2.401   5.791   5.209
 2351SOL     OW 7951   2.156   4.931   3.359
 2351SOL    HW1 7952   2.109   4.897   3.277
 2351SOL    HW2 7953   2.230   4.993   3.332
 2352SOL     OW 7954   6.225   4.314   0.870
 2352SOL    HW1 7955   6.300   4.380   0.879
 2352SOL    HW2 7956   6.157   4.349   0.806
 2353SOL     OW 7957   2.317   3.764   6.751
 2353SOL    HW1 7958   2.241   3.814   6.709
 2353SOL    HW2 7959   2.288   3.670   6.770
 2354SOL     OW 7960   3.865   1.833   2.162
 2354SOL    HW1 7961   3.833   1.793   2.076
 2354SOL    HW2 7962   3.806   1.909   2.188
 2355SOL     OW 7963   0.303   1.651   2.010
 2355SOL    HW1 7964   0.205   1.635   2.019
 2355SOL    HW2 7965   0.328   1.652   1.913
 2356SOL     OW 7966   2.968   5.226   4.063
 2356SOL    HW1 7967   2.934   5.256   4.152
 2356SOL    HW2 7968   3.035   5.291   4.029
 2357SOL     OW 7969   0.183   4.499   0.857
 2357SOL    HW1 7970   0.263   4.440   0.860
 2357SOL    HW2 7971   0.141   4.504   0.948
 2358SOL     OW 7972   3.659   1.272   5.190
 2358SOL    HW1 7973   3.698   1.281   5.281
 2358SOL    HW2 7974   3.563   1.300   5.192
 2359SOL     OW 7975   2.296   1.404   5.309
 2359SOL    HW1 7976   2.257   1.462   5.380
 2359SOL    HW2 7977   2.269   1.309   5.326
 2360SOL     OW 7978   3.030   4.919   0.253
 2360SOL    HW1 7979   3.021   4.944   0.349
 2360SOL    HW2 7980   3.115   4.867   0.240
 2361SOL     OW 7981   3.405   5.907   1.150
 2361SOL    HW1 7982   3.359   5.967   1.216
 2361SOL    HW2 7983   3.503   5.927   1.148
 2362SOL     OW 7984   3.355   4.909   3.915
 2362SOL    HW1 7985   3.411   4.934   3.994
 2362SOL    HW2 7986   3.261   4.940   3.931
 2363SOL     OW 7987   1.566   4.146   0.358
 2363SOL    HW1 7988   1.569   4.101   0.268
 2363SOL    HW2 7989   1.591   4.080   0.429
 2364SOL     OW 7990   3.839   1.558   2.646
 2364SOL    HW1 7991   3.750   1.536   2.606
 2364SOL    HW2 7992   3.827   1.627   2.718
 2365SOL     OW 7993   4.923   4.356   2.902
 2365SOL    HW1 7994   4.864   4.436   2.906
 2365SOL    HW2 7995   4.867   4.273   2.893
 2366SOL     OW 7996   3.358   4.954   5.548
 2366SOL    HW1 7997   3.281   4.901   5.513
 2366SOL    HW2 7998   3.331   5.048   5.563
 2367SOL     OW 7999   5.912   5.238   5.678
 2367SOL    HW1 8000   5.943   5.143   5.684
 2367SOL    HW2 8001   5.815   5.243   5.702
 2368SOL     OW 8002   5.639   0.754   5.446
 2368SOL    HW1 8003   5.614   0.849   5.465
 2368SOL    HW2 8004   5.597   0.725   5.360
 2369SOL     OW 8005   3.748   2.123   4.067
 2369SOL    HW1 8006   3.758   2.166   4.157
 2369SOL    HW2 8007   3.652   2.123   4.040
 2370SOL     OW 8008   5.072   2.056   1.844
 2370SOL    HW1 8009   5.028   2.131   1.894
 2370SOL    HW2 8010   5.016   2.031   1.765
 2371SOL     OW 8011   1.085   6.530   1.833
 2371SOL    HW1 8012   1.181   6.505   1.831
 2371SOL    HW2 8013   1.041   6.503   1.747
 2372SOL     OW 8014   6.807   6.781   6.609
 2372SOL    HW1 8015   6.716   6.810   6.580
 2372SOL    HW2 8016   6.875   6.847   6.577
 2373SOL     OW 8017   5.928   4.364   6.036
 2373SOL    HW1 8018   5.845   4.355   6.091
 2373SOL    HW2 8019   6.003   4.315   6.080
 2374SOL     OW 8020   6.290   6.498   2.581
 2374SOL    HW1 8021   6.315   6.403   2.602
 2374SOL    HW2 8022   6.197   6.500   2.545
 2375SOL     OW 8023   2.228   0.647   4.461
 2375SOL    HW1 8024   2.134   0.622   4.438
 2375SOL    HW2 8025   2.291   0.597   4.402
 2376SOL     OW 8026   5.386   2.329   2.791
 2376SOL    HW1 8027   5.302   2.362   2.748
 2376SOL    HW2 8028   5.410   2.390   2.866
 2377SOL     OW 8029   4.743   3.697   5.654
 2377SOL    HW1 8030   4.815   3.754   5.693
 2377SOL    HW2 8031   4.675   3.676   5.725
 2378SOL     OW 8032   0.422   1.757   0.184
 2378SOL    HW1 8033   0.522   1.756   0.174
 2378SOL    HW2 8034   0.397   1.819   0.258
 2379SOL     OW 8035   0.114   5.281   2.214
 2379SOL    HW1 8036   0.158   5.294   2.126
 2379SOL    HW2 8037   0.020   5.317   2.210
 2380SOL     OW 8038   4.686   5.252   6.623
 2380SOL    HW1 8039   4.665   5.252   6.721
 2380SOL    HW2 8040   4.630   5.184   6.576
 2381SOL     OW 8041   2.258   4.069   3.456
 2381SOL    HW1 8042   2.290   3.984   3.415
 2381SOL    HW2 8043   2.223   4.051   3.548
 2382SOL     OW 8044   6.829   5.152   3.194
 2382SOL    HW1 8045   6.891   5.121   3.266
 2382SOL    HW2 8046   6.863   5.237   3.154
 2383SOL     OW 8047   5.321   4.189   6.304
 2383SOL    HW1 8048   5.267   4.113   6.339
 2383SOL    HW2 8049   5.314   4.192   6.205
 2384SOL     OW 8050   0.293   1.906   3.221
 2384SOL    HW1 8051   0.353   1.869   3.150
 2384SOL    HW2 8052   0.298   2.006   3.219
 2385SOL     OW 8053   0.138   1.366   0.809
 2385SOL    HW1 8054   0.124   1.269   0.831
 2385SOL    HW2 8055   0.051   1.415   0.817
 2386SOL     OW 8056   5.841   6.315   4.878
 2386SOL    HW1 8057   5.897   6.386   4.921
 2386SOL    HW2 8058   5.763   6.356   4.832
 2387SOL     OW 8059   1.021   1.264   3.920
 2387SOL    HW1 8060   1.070   1.229   3.999
 2387SOL    HW2 8061   1.046   1.360   3.905
 2388SOL     OW 8062   0.285   3.166   5.341
 2388SOL    HW1 8063   0.242   3.137   5.426
 2388SOL    HW2 8064   0.362   3.226   5.362
 2389SOL     OW 8065   4.457   5.574   3.200
 2389SOL    HW1 8066   4.365   5.598   3.233
 2389SOL    HW2 8067   4.459   5.477   3.177
 2390SOL     OW 8068   4.577   2.606   6.829
 2390SOL    HW1 8069   4.600   2.539   6.899
 2390SOL    HW2 8070   4.660   2.636   6.783
 2391SOL     OW 8071   3.498   4.611   6.544
 2391SOL    HW1 8072   3.480   4.525   6.498
 2391SOL    HW2 8073   3.420   4.636   6.602
 2392SOL     OW 8074   4.275   4.606   5.916
 2392SOL    HW1 8075   4.253   4.527   5.859
 2392SOL    HW2 8076   4.245   4.689   5.870
 2393SOL     OW 8077   4.640   4.403   0.922
 2393SOL    HW1 8078   4.556   4.402   0.976
 2393SOL    HW2 8079   4.657   4.312   0.885
 2394SOL     OW 8080   0.441   1.691   3.859
 2394SOL    HW1 8081   0.397   1.628   3.796
 2394SOL    HW2 8082   0.397   1.780   3.854
 2395SOL     OW 8083   0.953   3.086   3.720
 2395SOL    HW1 8084   0.884   3.131   3.775
 2395SOL    HW2 8085   1.044   3.103   3.758
 2396SOL     OW 8086   0.421   0.173   6.827
 2396SOL    HW1 8087   0.469   0.093   6.861
 2396SOL    HW2 8088   0.337   0.144   6.780
 2397SOL     OW 8089   0.771   3.672   4.915
 2397SOL    HW1 8090   0.686   3.686   4.965
 2397SOL    HW2 8091   0.836   3.624   4.975
 2398SOL     OW 8092   4.040   6.615   3.710
 2398SOL    HW1 8093   3.947   6.641   3.684
 2398SOL    HW2 8094   4.103   6.688   3.683
 2399SOL     OW 8095   3.394   2.052   3.076
 2399SOL    HW1 8096   3.467   2.106   3.116
 2399SOL    HW2 8097   3.380   2.080   2.981
 2400SOL     OW 8098   1.872   3.918   0.701
 2400SOL    HW1 8099   1.935   3.841   0.687
 2400SOL    HW2 8100   1.906   3.998   0.651
 2401SOL     OW 8101   2.007   6.171   6.455
 2401SOL    HW1 8102   2.013   6.266   6.425
 2401SOL    HW2 8103   1.917   6.154   6.495
 2402SOL     OW 8104   0.832   3.840   2.167
 2402SOL    HW1 8105   0.804   3.752   2.205
 2402SOL    HW2 8106   0.775   3.912   2.205
 2403SOL     OW 8107   3.243   3.764   5.000
 2403SOL    HW1 8108   3.196   3.818   4.931
 2403SOL    HW2 8109   3.342   3.783   4.996
 2404SOL     OW 8110   6.003   1.677   0.904
 2404SOL    HW1 8111   5.905   1.692   0.900
 2404SOL    HW2 8112   6.033   1.630   0.821
 2405SOL     OW 8113   1.565   3.333   0.801
 2405SOL    HW1 8114   1.565   3.417   0.856
 2405SOL    HW2 8115   1.592   3.354   0.707
 2406SOL     OW 8116   3.047   5.537   4.978
 2406SOL    HW1 8117   2.965   5.590   4.954
 2406SOL    HW2 8118   3.101   5.589   5.044
 2407SOL     OW 8119   2.951   1.422   3.332
 2407SOL    HW1 8120   3.049   1.415   3.346
 2407SOL    HW2 8121   2.929   1.509   3.288
 2408SOL     OW 8122   2.308   6.878   5.724
 2408SOL    HW1 8123   2.287   6.963   5.676
 2408SOL    HW2 8124   2.294   6.800   5.663
 2409SOL     OW 8125   0.936   3.374   0.242
 2409SOL    HW1 8126   0.929   3.297   0.307
 2409SOL    HW2 8127   1.023   3.420   0.255
 2410SOL     OW 8128   6.899   3.093   4.141
 2410SOL    HW1 8129   6.910   3.094   4.240
 2410SOL    HW2 8130   6.956   3.020   4.102
 2411SOL     OW 8131   3.187   2.354   6.404
 2411SOL    HW1 8132   3.156   2.336   6.310
 2411SOL    HW2 8133   3.238   2.440   6.407
 2412SOL     OW 8134   3.257   1.622   5.551
 2412SOL    HW1 8135   3.297   1.532   5.572
 2412SOL    HW2 8136   3.295   1.690   5.614
 2413SOL     OW 8137   0.480   3.070   6.999
 2413SOL    HW1 8138   0.511   3.006   0.042
 2413SOL    HW2 8139   0.474   3.022   6.911
 2414SOL     OW 8140   6.645   1.286   4.708
 2414SOL    HW1 8141   6.625   1.347   4.785
 2414SOL    HW2 8142   6.562   1.237   4.681
 2415SOL     OW 8143   2.602   4.913   6.448
 2415SOL    HW1 8144   2.606   4.981   6.375
 2415SOL    HW2 8145   2.617   4.958   6.536
 2416SOL     OW 8146   6.850   2.400   3.277
 2416SOL    HW1 8147   6.762   2.366   3.244
 2416SOL    HW2 8148   6.845   2.416   3.375
 2417SOL     OW 8149   2.855   2.564   1.464
 2417SOL    HW1 8150   2.780   2.615   1.506
 2417SOL    HW2 8151   2.826   2.469   1.448
 2418SOL     OW 8152   4.801   3.947   6.580
 2418SOL    HW1 8153   4.774   4.036   6.543
 2418SOL    HW2 8154   4.877   3.960   6.644
 2419SOL     OW 8155   2.622   0.803   3.181
 2419SOL    HW1 8156   2.588   0.839   3.268
 2419SOL    HW2 8157   2.587   0.860   3.106
 2420SOL     OW 8158   1.187   4.154   2.343
 2420SOL    HW1 8159   1.279   4.117   2.328
 2420SOL    HW2 8160   1.130   4.134   2.263
 2421SOL     OW 8161   3.272   6.677   3.397
 2421SOL    HW1 8162   3.353   6.619   3.402
 2421SOL    HW2 8163   3.190   6.621   3.411
 2422SOL     OW 8164   4.193   4.529   1.217
 2422SOL    HW1 8165   4.165   4.564   1.127
 2422SOL    HW2 8166   4.182   4.601   1.285
 2423SOL     OW 8167   2.336   5.466   3.494
 2423SOL    HW1 8168   2.246   5.435   3.462
 2423SOL    HW2 8169   2.402   5.457   3.420
 2424SOL     OW 8170   4.765   6.992   6.233
 2424SOL    HW1 8171   4.843   6.933   6.213
 2424SOL    HW2 8172   4.774   0.051   6.183
 2425SOL     OW 8173   4.869   5.390   5.143
 2425SOL    HW1 8174   4.885   5.455   5.069
 2425SOL    HW2 8175   4.949   5.387   5.203
 2426SOL     OW 8176   2.391   2.558   4.850
 2426SOL    HW1 8177   2.303   2.510   4.861
 2426SOL    HW2 8178   2.459   2.495   4.815
 2427SOL     OW 8179   5.519   0.708   0.332
 2427SOL    HW1 8180   5.448   0.662   0.280
 2427SOL    HW2 8181   5.527   0.803   0.301
 2428SOL     OW 8182   1.449   1.310   2.864
 2428SOL    HW1 8183   1.444   1.271   2.956
 2428SOL    HW2 8184   1.473   1.407   2.870
 2429SOL     OW 8185   6.163   5.180   1.829
 2429SOL    HW1 8186   6.219   5.213   1.753
 2429SOL    HW2 8187   6.106   5.104   1.799
 2430SOL     OW 8188   6.367   0.818   6.504
 2430SOL    HW1 8189   6.276   0.805   6.543
 2430SOL    HW2 8190   6.431   0.843   6.577
 2431SOL     OW 8191   0.599   3.321   1.607
 2431SOL    HW1 8192   0.581   3.346   1.512
 2431SOL    HW2 8193   0.658   3.390   1.648
 2432SOL     OW 8194   2.484   5.591   1.986
 2432SOL    HW1 8195   2.390   5.614   1.961
 2432SOL    HW2 8196   2.516   5.516   1.928
 2433SOL     OW 8197   6.983   4.180   5.098
 2433SOL    HW1 8198   6.964   4.254   5.034
 2433SOL    HW2 8199   6.909   4.113   5.096
 2434SOL     OW 8200   4.628   0.717   2.559
 2434SOL    HW1 8201   4.659   0.792   2.618
 2434SOL    HW2 8202   4.642   0.743   2.463
 2435SOL     OW 8203   6.007   6.828   6.823
 2435SOL    HW1 8204   5.998   6.740   6.777
 2435SOL    HW2 8205   6.019   6.814   6.921
 2436SOL     OW 8206   0.371   2.808   0.841
 2436SOL    HW1 8207   0.386   2.906   0.853
 2436SOL    HW2 8208   0.415   2.777   0.757
 2437SOL     OW 8209   0.132   3.880   2.022
 2437SOL    HW1 8210   0.145   3.781   2.010
 2437SOL    HW2 8211   0.056   3.911   1.965
 2438SOL     OW 8212   3.880   1.849   4.381
 2438SOL    HW1 8213   3.808   1.814   4.441
 2438SOL    HW2 8214   3.840   1.882   4.296
 2439SOL     OW 8215   1.755   5.376   1.387
 2439SOL    HW1 8216   1.831   5.377   1.452
 2439SOL    HW2 8217   1.701   5.460   1.397
 2440SOL     OW 8218   6.947   0.970   5.564
 2440SOL    HW1 8219   6.978   1.036   5.496
 2440SOL    HW2 8220   6.993   0.882   5.548
 2441SOL     OW 8221   5.847   0.649   0.713
 2441SOL    HW1 8222   5.807   0.627   0.802
 2441SOL    HW2 8223   5.803   0.730   0.675
 2442SOL     OW 8224   5.417   2.823   1.241
 2442SOL    HW1 8225   5.371   2.734   1.237
 2442SOL    HW2 8226   5.454   2.846   1.151
 2443SOL     OW 8227   0.828   3.137   1.245
 2443SOL    HW1 8228   0.790   3.214   1.195
 2443SOL    HW2 8229   0.923   3.157   1.271
 2444SOL     OW 8230   3.238   5.747   2.613
 2444SOL    HW1 8231   3.177   5.769   2.689
 2444SOL    HW2 8232   3.284   5.660   2.632
 2445SOL     OW 8233   0.619   1.857   1.322
 2445SOL    HW1 8234   0.674   1.812   1.393
 2445SOL    HW2 8235   0.666   1.939   1.291
 2446SOL     OW 8236   1.002   5.494   2.114
 2446SOL    HW1 8237   1.078   5.515   2.177
 2446SOL    HW2 8238   0.915   5.513   2.159
 2447SOL     OW 8239   2.256   7.004   0.196
 2447SOL    HW1 8240   2.212   7.017   0.107
 2447SOL    HW2 8241   2.306   6.917   0.196
 2448SOL     OW 8242   5.329   1.098   4.640
 2448SOL    HW1 8243   5.240   1.060   4.668
 2448SOL    HW2 8244   5.402   1.035   4.666
 2449SOL     OW 8245   0.989   4.397   1.654
 2449SOL    HW1 8246   1.070   4.360   1.700
 2449SOL    HW2 8247   0.980   4.355   1.564
 2450SOL     OW 8248   1.220   6.472   5.070
 2450SOL    HW1 8249   1.179   6.456   5.159
 2450SOL    HW2 8250   1.149   6.497   5.004
 2451SOL     OW 8251   1.527   6.492   5.328
 2451SOL    HW1 8252   1.447   6.524   5.278
 2451SOL    HW2 8253   1.598   6.463   5.264
 2452SOL     OW 8254   2.312   1.938   3.293
 2452SOL    HW1 8255   2.379   2.005   3.263
 2452SOL    HW2 8256   2.232   1.942   3.234
 2453SOL     OW 8257   1.129   1.497   5.816
 2453SOL    HW1 8258   1.174   1.539   5.738
 2453SOL    HW2 8259   1.041   1.460   5.788
 2454SOL     OW 8260   3.708   6.247   1.025
 2454SOL    HW1 8261   3.679   6.210   0.936
 2454SOL    HW2 8262   3.805   6.271   1.021
 2455SOL     OW 8263   4.125   2.573   0.687
 2455SOL    HW1 8264   4.112   2.489   0.635
 2455SOL    HW2 8265   4.088   2.650   0.635
 2456SOL     OW 8266   0.500   3.428   5.780
 2456SOL    HW1 8267   0.495   3.526   5.762
 2456SOL    HW2 8268   0.409   3.388   5.771
 2457SOL     OW 8269   4.196   1.748   5.229
 2457SOL    HW1 8270   4.105   1.791   5.232
 2457SOL    HW2 8271   4.226   1.728   5.322
 2458SOL     OW 8272   0.803   6.994   2.957
 2458SOL    HW1 8273   0.735   6.949   2.900
 2458SOL    HW2 8274   0.893   6.954   2.940
 2459SOL     OW 8275   1.936   6.773   0.254
 2459SOL    HW1 8276   1.871   6.772   0.178
 2459SOL    HW2 8277   2.029   6.770   0.217
 2460SOL     OW 8278   0.847   1.083   5.046
 2460SOL    HW1 8279   0.776   1.132   5.096
 2460SOL    HW2 8280   0.898   1.024   5.108
 2461SOL     OW 8281   4.876   0.808   3.604
 2461SOL    HW1 8282   4.874   0.892   3.551
 2461SOL    HW2 8283   4.836   0.824   3.694
 2462SOL     OW 8284   0.072   5.007   0.204
 2462SOL    HW1 8285   7.017   5.064   0.189
 2462SOL    HW2 8286   0.079   4.940   0.131
 2463SOL     OW 8287   6.473   0.498   0.185
 2463SOL    HW1 8288   6.496   0.405   0.159
 2463SOL    HW2 8289   6.405   0.497   0.259
 2464SOL     OW 8290   0.853   2.129   4.265
 2464SOL    HW1 8291   0.794   2.068   4.318
 2464SOL    HW2 8292   0.800   2.172   4.192
 2465SOL     OW 8293   0.060   6.736   6.370
 2465SOL    HW1 8294   0.076   6.688   6.284
 2465SOL    HW2 8295   0.009   6.676   6.432
 2466SOL     OW 8296   0.789   2.009   1.603
 2466SOL    HW1 8297   0.717   2.058   1.553
 2466SOL    HW2 8298   0.766   2.004   1.700
 2467SOL     OW 8299   6.196   2.590   5.532
 2467SOL    HW1 8300   6.251   2.599   5.614
 2467SOL    HW2 8301   6.151   2.500   5.531
 2468SOL     OW 8302   3.620   6.806   5.518
 2468SOL    HW1 8303   3.572   6.893   5.505
 2468SOL    HW2 8304   3.629   6.787   5.616
 2469SOL     OW 8305   3.858   2.081   5.480
 2469SOL    HW1 8306   3.953   2.092   5.510
 2469SOL    HW2 8307   3.855   2.012   5.407
 2470SOL     OW 8308   2.586   5.057   6.197
 2470SOL    HW1 8309   2.684   5.060   6.181
 2470SOL    HW2 8310   2.549   4.970   6.162
 2471SOL     OW 8311   2.853   5.346   1.937
 2471SOL    HW1 8312   2.889   5.366   2.028
 2471SOL    HW2 8313   2.926   5.353   1.870
 2472SOL     OW 8314   4.998   1.750   3.215
 2472SOL    HW1 8315   4.993   1.695   3.132
 2472SOL    HW2 8316   4.979   1.846   3.192
 2473SOL     OW 8317   0.525   4.086   3.908
 2473SOL    HW1 8318   0.576   4.159   3.952
 2473SOL    HW2 8319   0.434   4.119   3.882
 2474SOL     OW 8320   0.944   5.791   2.044
 2474SOL    HW1 8321   0.938   5.830   1.952
 2474SOL    HW2 8322   0.950   5.691   2.038
 2475SOL     OW 8323   4.600   0.873   0.407
 2475SOL    HW1 8324   4.681   0.914   0.363
 2475SOL    HW2 8325   4.518   0.918   0.374
 2476SOL     OW 8326   4.859   0.962   0.290
 2476SOL    HW1 8327   4.932   0.955   0.359
 2476SOL    HW2 8328   4.849   0.875   0.243
 2477SOL     OW 8329   4.042   0.157   2.842
 2477SOL    HW1 8330   3.989   0.105   2.776
 2477SOL    HW2 8331   4.023   0.124   2.934
 2478SOL     OW 8332   4.820   6.967   4.644
 2478SOL    HW1 8333   4.736   7.003   4.602
 2478SOL    HW2 8334   4.799   6.936   4.737
 2479SOL     OW 8335   6.008   3.279   6.987
 2479SOL    HW1 8336   6.004   3.348   6.915
 2479SOL    HW2 8337   5.921   3.278   0.010
 2480SOL     OW 8338   3.111   2.209   1.485
 2480SOL    HW1 8339   3.203   2.217   1.524
 2480SOL    HW2 8340   3.044   2.251   1.546
 2481SOL     OW 8341   3.354   0.414   1.492
 2481SOL    HW1 8342   3.350   0.348   1.417
 2481SOL    HW2 8343   3.361   0.507   1.455
 2482SOL     OW 8344   6.118   3.598   6.475
 2482SOL    HW1 8345   6.089   3.590   6.380
 2482SOL    HW2 8346   6.201   3.545   6.489
 2483SOL     OW 8347   1.620   2.577   0.333
 2483SOL    HW1 8348   1.560   2.556   0.256
 2483SOL    HW2 8349   1.631   2.495   0.389
 2484SOL     OW 8350   4.974   1.165   0.977
 2484SOL    HW1 8351   4.929   1.244   0.938
 2484SOL    HW2 8352   4.908   1.092   0.993
 2485SOL     OW 8353   0.062   1.965   6.319
 2485SOL    HW1 8354   0.052   1.956   6.419
 2485SOL    HW2 8355   0.122   2.043   6.299
 2486SOL     OW 8356   6.571   5.584   4.928
 2486SOL    HW1 8357   6.558   5.555   4.833
 2486SOL    HW2 8358   6.488   5.631   4.960
 2487SOL     OW 8359   5.047   6.331   6.334
 2487SOL    HW1 8360   5.045   6.421   6.291
 2487SOL    HW2 8361   5.125   6.327   6.397
 2488SOL     OW 8362   6.365   4.120   0.317
 2488SOL    HW1 8363   6.388   4.023   0.310
 2488SOL    HW2 8364   6.326   4.138   0.407
 2489SOL     OW 8365   6.729   5.971   4.630
 2489SOL    HW1 8366   6.740   5.897   4.697
 2489SOL    HW2 8367   6.813   5.979   4.576
 2490SOL     OW 8368   2.503   5.873   2.986
 2490SOL    HW1 8369   2.456   5.855   2.900
 2490SOL    HW2 8370   2.519   5.788   3.035
 2491SOL     OW 8371   3.602   4.641   1.486
 2491SOL    HW1 8372   3.687   4.607   1.445
 2491SOL    HW2 8373   3.526   4.625   1.423
 2492SOL     OW 8374   0.008   4.617   1.513
 2492SOL    HW1 8375   0.026   4.539   1.573
 2492SOL    HW2 8376   0.055   4.698   1.548
 2493SOL     OW 8377   6.078   6.571   1.087
 2493SOL    HW1 8378   6.004   6.632   1.059
 2493SOL    HW2 8379   6.150   6.573   1.017
 2494SOL     OW 8380   6.200   4.003   2.526
 2494SOL    HW1 8381   6.264   4.003   2.602
 2494SOL    HW2 8382   6.175   4.097   2.503
 2495SOL     OW 8383   6.994   4.721   3.211
 2495SOL    HW1 8384   6.907   4.741   3.257
 2495SOL    HW2 8385   6.980   4.720   3.112
 2496SOL     OW 8386   6.122   4.604   6.397
 2496SOL    HW1 8387   6.116   4.693   6.444
 2496SOL    HW2 8388   6.218   4.585   6.377
 2497SOL     OW 8389   0.453   0.438   2.109
 2497SOL    HW1 8390   0.515   0.486   2.171
 2497SOL    HW2 8391   0.471   0.340   2.114
 2498SOL     OW 8392   1.872   4.127   6.043
 2498SOL    HW1 8393   1.945   4.195   6.033
 2498SOL    HW2 8394   1.784   4.175   6.055
 2499SOL     OW 8395   6.503   3.719   2.177
 2499SOL    HW1 8396   6.521   3.806   2.223
 2499SOL    HW2 8397   6.570   3.651   2.206
 2500SOL     OW 8398   3.174   3.903   0.112
 2500SOL    HW1 8399   3.157   3.821   0.057
 2500SOL    HW2 8400   3.163   3.984   0.054
 2501SOL     OW 8401   5.927   5.545   6.899
 2501SOL    HW1 8402   5.929   5.565   6.801
 2501SOL    HW2 8403   5.832   5.538   6.930
 2502SOL     OW 8404   2.985   5.030   4.444
 2502SOL    HW1 8405   2.970   4.994   4.352
 2502SOL    HW2 8406   3.035   5.117   4.438
 2503SOL     OW 8407   2.334   6.699   6.095
 2503SOL    HW1 8408   2.377   6.684   6.005
 2503SOL    HW2 8409   2.401   6.681   6.167
 2504SOL     OW 8410   3.668   6.440   3.678
 2504SOL    HW1 8411   3.743   6.444   3.613
 2504SOL    HW2 8412   3.661   6.528   3.726
 2505SOL     OW 8413   0.341   5.269   3.620
 2505SOL    HW1 8414   0.357   5.212   3.540
 2505SOL    HW2 8415   0.285   5.348   3.594
 2506SOL     OW 8416   5.427   5.531   6.135
 2506SOL    HW1 8417   5.330   5.523   6.112
 2506SOL    HW2 8418   5.449   5.627   6.156
 2507SOL     OW 8419   6.717   3.361   1.081
 2507SOL    HW1 8420   6.785   3.310   1.028
 2507SOL    HW2 8421   6.646   3.299   1.113
 2508SOL     OW 8422   4.926   1.771   4.036
 2508SOL    HW1 8423   4.940   1.750   4.133
 2508SOL    HW2 8424   4.977   1.853   4.013
 2509SOL     OW 8425   6.992   4.318   5.511
 2509SOL    HW1 8426   7.026   4.412   5.508
 2509SOL    HW2 8427   6.918   4.307   5.445
 2510SOL     OW 8428   3.274   4.042   1.893
 2510SOL    HW1 8429   3.298   3.946   1.912
 2510SOL    HW2 8430   3.356   4.098   1.894
 2511SOL     OW 8431   2.045   0.574   5.135
 2511SOL    HW1 8432   2.049   0.603   5.230
 2511SOL    HW2 8433   2.070   0.652   5.076
 2512SOL     OW 8434   3.667   4.912   3.812
 2512SOL    HW1 8435   3.679   5.004   3.851
 2512SOL    HW2 8436   3.586   4.869   3.853
 2513SOL     OW 8437   2.423   5.598   5.806
 2513SOL    HW1 8438   2.370   5.527   5.851
 2513SOL    HW2 8439   2.518   5.595   5.838
 2514SOL     OW 8440   1.546   2.632   2.838
 2514SOL    HW1 8441   1.467   2.656   2.894
 2514SOL    HW2 8442   1.579   2.541   2.864
 2515SOL     OW 8443   1.079   1.550   1.333
 2515SOL    HW1 8444   1.141   1.512   1.265
 2515SOL    HW2 8445   1.039   1.476   1.387
 2516SOL     OW 8446   5.822   1.896   4.082
 2516SOL    HW1 8447   5.838   1.885   3.984
 2516SOL    HW2 8448   5.725   1.884   4.102
 2517SOL     OW 8449   1.789   1.603   3.960
 2517SOL    HW1 8450   1.728   1.608   4.039
 2517SOL    HW2 8451   1.844   1.520   3.965
 2518SOL     OW 8452   2.997   5.287   1.258
 2518SOL    HW1 8453   3.050   5.329   1.184
 2518SOL    HW2 8454   3.027   5.193   1.271
 2519SOL     OW 8455   0.842   1.147   0.711
 2519SOL    HW1 8456   0.776   1.104   0.772
 2519SOL    HW2 8457   0.923   1.089   0.701
 2520SOL     OW 8458   2.752   2.102   0.707
 2520SOL    HW1 8459   2.851   2.117   0.702
 2520SOL    HW2 8460   2.704   2.188   0.688
 2521SOL     OW 8461   4.872   1.165   5.148
 2521SOL    HW1 8462   4.820   1.115   5.078
 2521SOL    HW2 8463   4.847   1.131   5.239
 2522SOL     OW 8464   0.792   2.449   5.981
 2522SOL    HW1 8465   0.884   2.424   5.951
 2522SOL    HW2 8466   0.733   2.367   5.981
 2523SOL     OW 8467   1.937   4.855   6.809
 2523SOL    HW1 8468   1.971   4.761   6.800
 2523SOL    HW2 8469   1.934   4.898   6.719
 2524SOL     OW 8470   1.662   0.035   3.880
 2524SOL    HW1 8471   1.704   0.049   3.969
 2524SOL    HW2 8472   1.592   0.105   3.865
 2525SOL     OW 8473   6.755   2.350   4.490
 2525SOL    HW1 8474   6.685   2.339   4.561
 2525SOL    HW2 8475   6.836   2.395   4.530
 2526SOL     OW 8476   1.063   6.695   1.042
 2526SOL    HW1 8477   1.150   6.732   1.009
 2526SOL    HW2 8478   0.994   6.767   1.041
 2527SOL     OW 8479   4.914   4.856   6.651
 2527SOL    HW1 8480   4.872   4.890   6.567
 2527SOL    HW2 8481   4.843   4.845   6.721
 2528SOL     OW 8482   4.412   5.627   6.889
 2528SOL    HW1 8483   4.447   5.597   6.800
 2528SOL    HW2 8484   4.434   5.724   6.903
 2529SOL     OW 8485   0.416   6.712   6.701
 2529SOL    HW1 8486   0.337   6.651   6.693
 2529SOL    HW2 8487   0.404   6.773   6.779
 2530SOL     OW 8488   1.981   5.404   6.129
 2530SOL    HW1 8489   1.902   5.383   6.072
 2530SOL    HW2 8490   2.021   5.492   6.100
 2531SOL     OW 8491   6.199   5.296   5.665
 2531SOL    HW1 8492   6.157   5.385   5.647
 2531SOL    HW2 8493   6.138   5.223   5.635
 2532SOL     OW 8494   6.118   6.268   1.258
 2532SOL    HW1 8495   6.126   6.225   1.168
 2532SOL    HW2 8496   6.163   6.210   1.327
 2533SOL     OW 8497   5.148   0.712   3.216
 2533SOL    HW1 8498   5.182   0.689   3.307
 2533SOL    HW2 8499   5.216   0.766   3.167
 2534SOL     OW 8500   4.659   1.807   2.689
 2534SOL    HW1 8501   4.609   1.739   2.636
 2534SOL    HW2 8502   4.703   1.763   2.767
 2535SOL     OW 8503   3.590   2.671   6.144
 2535SOL    HW1 8504   3.614   2.728   6.222
 2535SOL    HW2 8505   3.620   2.716   6.060
 2536SOL     OW 8506   1.244   0.430   0.370
 2536SOL    HW1 8507   1.291   0.346   0.343
 2536SOL    HW2 8508   1.223   0.484   0.288
 2537SOL     OW 8509   4.335   0.455   6.732
 2537SOL    HW1 8510   4.313   0.360   6.709
 2537SOL    HW2 8511   4.307   0.474   6.826
 2538SOL     OW 8512   6.801   3.688   4.024
 2538SOL    HW1 8513   6.822   3.637   4.107
 2538SOL    HW2 8514   6.703   3.683   4.005
 2539SOL     OW 8515   5.079   1.774   5.206
 2539SOL    HW1 8516   5.133   1.715   5.146
 2539SOL    HW2 8517   5.028   1.718   5.271
 2540SOL     OW 8518   3.638   1.324   2.356
 2540SOL    HW1 8519   3.553   1.354   2.399
 2540SOL    HW2 8520   3.647   1.225   2.365
 2541SOL     OW 8521   3.582   6.315   5.067
 2541SOL    HW1 8522   3.628   6.250   5.127
 2541SOL    HW2 8523   3.522   6.266   5.004
 2542SOL     OW 8524   1.486   4.993   6.230
 2542SOL    HW1 8525   1.584   4.988   6.249
 2542SOL    HW2 8526   1.435   4.995   6.316
 2543SOL     OW 8527   1.970   0.808   3.989
 2543SOL    HW1 8528   1.940   0.890   3.939
 2543SOL    HW2 8529   2.068   0.815   4.007
 2544SOL     OW 8530   1.026   4.907   0.258
 2544SOL    HW1 8531   0.955   4.898   0.189
 2544SOL    HW2 8532   1.047   5.003   0.273
 2545SOL     OW 8533   2.631   6.265   2.986
 2545SOL    HW1 8534   2.565   6.296   2.918
 2545SOL    HW2 8535   2.670   6.178   2.957
 2546SOL     OW 8536   6.150   1.782   1.138
 2546SOL    HW1 8537   6.086   1.759   1.065
 2546SOL    HW2 8538   6.115   1.860   1.190
 2547SOL     OW 8539   0.146   3.794   4.926
 2547SOL    HW1 8540   0.132   3.747   5.013
 2547SOL    HW2 8541   0.145   3.727   4.852
 2548SOL     OW 8542   0.599   6.425   4.222
 2548SOL    HW1 8543   0.671   6.493   4.235
 2548SOL    HW2 8544   0.634   6.347   4.170
 2549SOL     OW 8545   0.098   2.082   0.963
 2549SOL    HW1 8546   0.045   2.140   0.900
 2549SOL    HW2 8547   0.149   2.015   0.910
 2550SOL     OW 8548   5.995   6.348   0.199
 2550SOL    HW1 8549   6.058   6.384   0.268
 2550SOL    HW2 8550   6.018   6.252   0.181
 2551SOL     OW 8551   1.616   4.234   6.659
 2551SOL    HW1 8552   1.712   4.263   6.659
 2551SOL    HW2 8553   1.563   4.294   6.599
 2552SOL     OW 8554   2.255   5.635   3.738
 2552SOL    HW1 8555   2.282   5.576   3.662
 2552SOL    HW2 8556   2.231   5.725   3.703
 2553SOL     OW 8557   3.667   3.614   6.798
 2553SOL    HW1 8558   3.744   3.639   6.739
 2553SOL    HW2 8559   3.683   3.523   6.836
 2554SOL     OW 8560   1.060   1.508   0.174
 2554SOL    HW1 8561   0.999   1.430   0.183
 2554SOL    HW2 8562   1.115   1.518   0.257
 2555SOL     OW 8563   6.039   2.230   6.606
 2555SOL    HW1 8564   5.987   2.180   6.675
 2555SOL    HW2 8565   6.056   2.324   6.638
 2556SOL     OW 8566   2.916   6.122   0.506
 2556SOL    HW1 8567   2.836   6.179   0.485
 2556SOL    HW2 8568   2.934   6.124   0.604
 2557SOL     OW 8569   2.229   4.022   6.969
 2557SOL    HW1 8570   2.224   3.934   7.016
 2557SOL    HW2 8571   2.323   4.038   6.938
 2558SOL     OW 8572   4.108   0.225   6.293
 2558SOL    HW1 8573   4.185   0.167   6.265
 2558SOL    HW2 8574   4.143   0.305   6.341
 2559SOL     OW 8575   0.550   5.072   4.662
 2559SOL    HW1 8576   0.616   4.997   4.664
 2559SOL    HW2 8577   0.473   5.049   4.722
 2560SOL     OW 8578   5.895   2.131   6.396
 2560SOL    HW1 8579   5.832   2.058   6.425
 2560SOL    HW2 8580   5.955   2.156   6.472
 2561SOL     OW 8581   3.012   5.267   5.012
 2561SOL    HW1 8582   3.040   5.360   4.989
 2561SOL    HW2 8583   3.022   5.253   5.111
 2562SOL     OW 8584   1.937   3.925   0.040
 2562SOL    HW1 8585   1.968   3.947   0.132
 2562SOL    HW2 8586   1.986   3.982   7.001
 2563SOL     OW 8587   2.392   0.985   0.025
 2563SOL    HW1 8588   2.396   0.886   0.015
 2563SOL    HW2 8589   2.484   1.023   0.012
 2564SOL     OW 8590   1.561   5.164   1.738
 2564SOL    HW1 8591   1.473   5.158   1.691
 2564SOL    HW2 8592   1.565   5.095   1.810
 2565SOL     OW 8593   1.905   0.743   1.033
 2565SOL    HW1 8594   1.874   0.686   1.109
 2565SOL    HW2 8595   1.996   0.712   1.003
 2566SOL     OW 8596   1.505   6.499   6.929
 2566SOL    HW1 8597   1.432   6.562   6.953
 2566SOL    HW2 8598   1.545   6.525   6.842
 2567SOL     OW 8599   1.430   6.152   0.077
 2567SOL    HW1 8600   1.494   6.193   0.012
 2567SOL    HW2 8601   1.385   6.074   0.033
 2568SOL     OW 8602   4.761   2.932   7.027
 2568SOL    HW1 8603   4.801   3.007   6.974
 2568SOL    HW2 8604   4.824   2.905   0.073
 2569SOL     OW 8605   2.823   0.381   3.346
 2569SOL    HW1 8606   2.795   0.455   3.285
 2569SOL    HW2 8607   2.911   0.345   3.316
 2570SOL     OW 8608   5.431   1.917   6.136
 2570SOL    HW1 8609   5.388   1.861   6.065
 2570SOL    HW2 8610   5.376   1.912   6.220
 2571SOL     OW 8611   1.272   4.342   4.397
 2571SOL    HW1 8612   1.197   4.276   4.405
 2571SOL    HW2 8613   1.298   4.352   4.301
 2572SOL     OW 8614   2.209   4.837   3.005
 2572SOL    HW1 8615   2.197   4.932   3.034
 2572SOL    HW2 8616   2.209   4.832   2.905
 2573SOL     OW 8617   1.157   0.098   0.963
 2573SOL    HW1 8618   1.078   0.146   0.998
 2573SOL    HW2 8619   1.204   0.051   1.038
 2574SOL     OW 8620   6.531   3.452   6.886
 2574SOL    HW1 8621   6.598   3.414   6.823
 2574SOL    HW2 8622   6.449   3.479   6.835
 2575SOL     OW 8623   0.020   5.545   5.993
 2575SOL    HW1 8624   7.021   5.602   6.071
 2575SOL    HW2 8625   0.065   5.601   5.924
 2576SOL     OW 8626   4.530   6.104   4.064
 2576SOL    HW1 8627   4.535   6.202   4.043
 2576SOL    HW2 8628   4.566   6.051   3.987
 2577SOL     OW 8629   2.681   4.713   2.347
 2577SOL    HW1 8630   2.602   4.670   2.303
 2577SOL    HW2 8631   2.752   4.730   2.279
 2578SOL     OW 8632   4.010   2.199   3.949
 2578SOL    HW1 8633   4.038   2.218   3.855
 2578SOL    HW2 8634   3.910   2.194   3.953
 2579SOL     OW 8635   1.122   6.216   3.678
 2579SOL    HW1 8636   1.178   6.247   3.601
 2579SOL    HW2 8637   1.098   6.119   3.664
 2580SOL     OW 8638   1.518   2.913   6.364
 2580SOL    HW1 8639   1.518   2.838   6.429
 2580SOL    HW2 8640   1.570   2.887   6.283
 2581SOL     OW 8641   3.571   0.071   5.150
 2581SOL    HW1 8642   3.477   0.041   5.165
 2581SOL    HW2 8643   3.615   0.013   5.081
 2582SOL     OW 8644   0.375   2.736   1.529
 2582SOL    HW1 8645   0.347   2.812   1.589
 2582SOL    HW2 8646   0.424   2.668   1.583
 2583SOL     OW 8647   5.861   6.974   0.926
 2583SOL    HW1 8648   5.914   7.014   1.001
 2583SOL    HW2 8649   5.821   6.887   0.956
 2584SOL     OW 8650   4.617   4.886   5.554
 2584SOL    HW1 8651   4.557   4.938   5.614
 2584SOL    HW2 8652   4.671   4.949   5.498
 2585SOL     OW 8653   3.405   5.425   6.341
 2585SOL    HW1 8654   3.396   5.343   6.284
 2585SOL    HW2 8655   3.360   5.410   6.429
 2586SOL     OW 8656   2.255   0.917   4.474
 2586SOL    HW1 8657   2.354   0.930   4.480
 2586SOL    HW2 8658   2.234   0.822   4.453
 2587SOL     OW 8659   6.642   1.379   3.517
 2587SOL    HW1 8660   6.636   1.305   3.584
 2587SOL    HW2 8661   6.656   1.466   3.564
 2588SOL     OW 8662   4.194   0.728   5.800
 2588SOL    HW1 8663   4.249   0.796   5.849
 2588SOL    HW2 8664   4.251   0.683   5.731
 2589SOL     OW 8665   1.754   6.572   0.140
 2589SOL    HW1 8666   1.816   6.497   0.117
 2589SOL    HW2 8667   1.730   6.622   0.057
 2590SOL     OW 8668   2.614   5.925   1.250
 2590SOL    HW1 8669   2.664   5.867   1.186
 2590SOL    HW2 8670   2.578   6.004   1.201
 2591SOL     OW 8671   5.974   5.831   3.982
 2591SOL    HW1 8672   6.032   5.851   4.061
 2591SOL    HW2 8673   6.031   5.819   3.901
 2592SOL     OW 8674   2.218   4.433   0.551
 2592SOL    HW1 8675   2.175   4.522   0.565
 2592SOL    HW2 8676   2.220   4.383   0.637
 2593SOL     OW 8677   2.928   4.173   0.702
 2593SOL    HW1 8678   2.840   4.174   0.749
 2593SOL    HW2 8679   2.973   4.262   0.716
 2594SOL     OW 8680   1.351   3.702   4.444
 2594SOL    HW1 8681   1.423   3.726   4.380
 2594SOL    HW2 8682   1.391   3.683   4.534
 2595SOL     OW 8683   1.864   0.766   3.139
 2595SOL    HW1 8684   1.927   0.844   3.143
 2595SOL    HW2 8685   1.833   0.754   3.045
 2596SOL     OW 8686   1.335   2.564   6.787
 2596SOL    HW1 8687   1.284   2.615   6.717
 2596SOL    HW2 8688   1.320   2.466   6.773
 2597SOL     OW 8689   6.818   5.988   6.245
 2597SOL    HW1 8690   6.743   5.974   6.180
 2597SOL    HW2 8691   6.856   5.899   6.271
 2598SOL     OW 8692   5.394   2.505   2.162
 2598SOL    HW1 8693   5.421   2.539   2.252
 2598SOL    HW2 8694   5.441   2.559   2.091
 2599SOL     OW 8695   2.956   6.122   1.675
 2599SOL    HW1 8696   2.976   6.132   1.578
 2599SOL    HW2 8697   2.889   6.049   1.688
 2600SOL     OW 8698   6.013   4.171   4.426
 2600SOL    HW1 8699   6.074   4.092   4.428
 2600SOL    HW2 8700   6.066   4.254   4.445
 2601SOL     OW 8701   6.966   1.764   3.513
 2601SOL    HW1 8702   7.001   1.712   3.591
 2601SOL    HW2 8703   6.874   1.731   3.491
 2602SOL     OW 8704   1.486   4.419   3.652
 2602SOL    HW1 8705   1.582   4.427   3.624
 2602SOL    HW2 8706   1.460   4.500   3.705
 2603SOL     OW 8707   3.322   6.720   2.666
 2603SOL    HW1 8708   3.342   6.623   2.650
 2603SOL    HW2 8709   3.382   6.754   2.739
 2604SOL     OW 8710   4.548   2.481   2.993
 2604SOL    HW1 8711   4.565   2.409   3.060
 2604SOL    HW2 8712   4.545   2.570   3.040
 2605SOL     OW 8713   1.912   4.018   1.502
 2605SOL    HW1 8714   1.824   4.017   1.549
 2605SOL    HW2 8715   1.958   3.930   1.517
 2606SOL     OW 8716   4.699   3.422   1.449
 2606SOL    HW1 8717   4.678   3.351   1.516
 2606SOL    HW2 8718   4.723   3.507   1.496
 2607SOL     OW 8719   2.565   2.382   1.285
 2607SOL    HW1 8720   2.522   2.293   1.272
 2607SOL    HW2 8721   2.636   2.375   1.356
 2608SOL     OW 8722   2.495   4.745   5.488
 2608SOL    HW1 8723   2.574   4.702   5.444
 2608SOL    HW2 8724   2.524   4.786   5.574
 2609SOL     OW 8725   6.968   2.501   0.871
 2609SOL    HW1 8726   6.879   2.455   0.865
 2609SOL    HW2 8727   0.009   2.446   0.823
 2610SOL     OW 8728   1.243   4.609   4.435
 2610SOL    HW1 8729   1.258   4.511   4.421
 2610SOL    HW2 8730   1.206   4.624   4.527
 2611SOL     OW 8731   5.335   6.938   6.355
 2611SOL    HW1 8732   5.247   6.986   6.357
 2611SOL    HW2 8733   5.353   6.906   6.262
 2612SOL     OW 8734   6.461   0.254   5.634
 2612SOL    HW1 8735   6.465   0.352   5.656
 2612SOL    HW2 8736   6.366   0.224   5.630
 2613SOL     OW 8737   0.710   6.231   6.775
 2613SOL    HW1 8738   0.657   6.309   6.743
 2613SOL    HW2 8739   0.775   6.261   6.845
 2614SOL     OW 8740   6.322   1.245   6.853
 2614SOL    HW1 8741   6.387   1.194   6.909
 2614SOL    HW2 8742   6.370   1.285   6.775
 2615SOL     OW 8743   0.615   3.527   0.218
 2615SOL    HW1 8744   0.654   3.618   0.221
 2615SOL    HW2 8745   0.611   3.496   0.123
 2616SOL     OW 8746   1.167   0.848   5.562
 2616SOL    HW1 8747   1.079   0.858   5.515
 2616SOL    HW2 8748   1.153   0.851   5.661
 2617SOL     OW 8749   5.370   0.229   0.990
 2617SOL    HW1 8750   5.336   0.267   1.076
 2617SOL    HW2 8751   5.465   0.198   1.002
 2618SOL     OW 8752   0.989   6.362   6.399
 2618SOL    HW1 8753   1.012   6.358   6.302
 2618SOL    HW2 8754   1.012   6.275   6.443
 2619SOL     OW 8755   5.436   1.031   2.171
 2619SOL    HW1 8756   5.410   1.128   2.167
 2619SOL    HW2 8757   5.391   0.988   2.249
 2620SOL     OW 8758   5.852   1.046   1.149
 2620SOL    HW1 8759   5.836   1.114   1.077
 2620SOL    HW2 8760   5.824   1.084   1.237
 2621SOL     OW 8761   1.346   6.479   1.870
 2621SOL    HW1 8762   1.436   6.470   1.827
 2621SOL    HW2 8763   1.356   6.511   1.964
 2622SOL     OW 8764   3.594   3.415   6.414
 2622SOL    HW1 8765   3.690   3.444   6.412
 2622SOL    HW2 8766   3.565   3.405   6.509
 2623SOL     OW 8767   1.190   6.586   3.357
 2623SOL    HW1 8768   1.137   6.654   3.409
 2623SOL    HW2 8769   1.280   6.575   3.399
 2624SOL     OW 8770   0.319   1.777   5.518
 2624SOL    HW1 8771   0.322   1.738   5.610
 2624SOL    HW2 8772   0.228   1.813   5.499
 2625SOL     OW 8773   2.240   4.946   6.321
 2625SOL    HW1 8774   2.287   4.883   6.259
 2625SOL    HW2 8775   2.227   5.034   6.276
 2626SOL     OW 8776   6.664   5.718   0.000
 2626SOL    HW1 8777   6.753   5.678   7.007
 2626SOL    HW2 8778   6.675   5.796   0.062
 2627SOL     OW 8779   2.086   0.111   6.193
 2627SOL    HW1 8780   2.003   0.167   6.201
 2627SOL    HW2 8781   2.061   0.014   6.196
 2628SOL     OW 8782   0.519   4.361   1.816
 2628SOL    HW1 8783   0.611   4.395   1.801
 2628SOL    HW2 8784   0.462   4.433   1.857
 2629SOL     OW 8785   3.108   3.617   2.560
 2629SOL    HW1 8786   3.107   3.712   2.529
 2629SOL    HW2 8787   3.153   3.611   2.649
 2630SOL     OW 8788   4.009   1.025   3.948
 2630SOL    HW1 8789   3.968   1.095   3.891
 2630SOL    HW2 8790   4.038   1.065   4.035
 2631SOL     OW 8791   6.106   0.181   6.884
 2631SOL    HW1 8792   6.139   0.169   6.790
 2631SOL    HW2 8793   6.163   0.249   6.930
 2632SOL     OW 8794   5.209   4.639   2.446
 2632SOL    HW1 8795   5.263   4.634   2.362
 2632SOL    HW2 8796   5.147   4.717   2.442
 2633SOL     OW 8797   0.227   3.213   6.046
 2633SOL    HW1 8798   0.321   3.230   6.018
 2633SOL    HW2 8799   0.224   3.196   6.144
 2634SOL     OW 8800   0.527   0.631   6.193
 2634SOL    HW1 8801   0.474   0.709   6.227
 2634SOL    HW2 8802   0.500   0.610   6.099
 2635SOL     OW 8803   5.450   5.287   3.509
 2635SOL    HW1 8804   5.503   5.224   3.452
 2635SOL    HW2 8805   5.420   5.364   3.452
 2636SOL     OW 8806   4.014   5.854   5.241
 2636SOL    HW1 8807   4.025   5.830   5.144
 2636SOL    HW2 8808   3.960   5.784   5.287
 2637SOL     OW 8809   1.219   1.001   3.344
 2637SOL    HW1 8810   1.194   1.095   3.368
 2637SOL    HW2 8811   1.227   0.992   3.245
 2638SOL     OW 8812   0.874   6.284   4.506
 2638SOL    HW1 8813   0.914   6.258   4.419
 2638SOL    HW2 8814   0.873   6.384   4.513
 2639SOL     OW 8815   4.532   4.798   5.238
 2639SOL    HW1 8816   4.531   4.897   5.231
 2639SOL    HW2 8817   4.621   4.768   5.272
 2640SOL     OW 8818   2.116   0.181   3.584
 2640SOL    HW1 8819   2.062   0.184   3.667
 2640SOL    HW2 8820   2.059   0.153   3.507
 2641SOL     OW 8821   6.136   2.510   6.661
 2641SOL    HW1 8822   6.199   2.552   6.727
 2641SOL    HW2 8823   6.165   2.534   6.568
 2642SOL     OW 8824   6.079   0.664   3.884
 2642SOL    HW1 8825   6.035   0.735   3.939
 2642SOL    HW2 8826   6.105   0.702   3.795
 2643SOL     OW 8827   2.171   4.707   3.548
 2643SOL    HW1 8828   2.116   4.626   3.528
 2643SOL    HW2 8829   2.163   4.772   3.473
 2644SOL     OW 8830   4.851   5.147   4.618
 2644SOL    HW1 8831   4.856   5.206   4.537
 2644SOL    HW2 8832   4.848   5.204   4.700
 2645SOL     OW 8833   5.027   5.818   3.574
 2645SOL    HW1 8834   4.975   5.889   3.622
 2645SOL    HW2 8835   5.015   5.730   3.619
 2646SOL     OW 8836   0.778   2.833   6.079
 2646SOL    HW1 8837   0.849   2.780   6.033
 2646SOL    HW2 8838   0.819   2.892   6.148
 2647SOL     OW 8839   5.290   0.463   1.823
 2647SOL    HW1 8840   5.327   0.554   1.843
 2647SOL    HW2 8841   5.341   0.394   1.875
 2648SOL     OW 8842   0.753   0.098   6.760
 2648SOL    HW1 8843   0.738   0.063   6.668
 2648SOL    HW2 8844   0.850   0.092   6.783
 2649SOL     OW 8845   5.036   1.675   2.919
 2649SOL    HW1 8846   4.982   1.645   2.841
 2649SOL    HW2 8847   5.091   1.754   2.893
 2650SOL     OW 8848   2.747   6.092   4.093
 2650SOL    HW1 8849   2.746   6.024   4.167
 2650SOL    HW2 8850   2.823   6.155   4.108
 2651SOL     OW 8851   4.013   2.089   4.372
 2651SOL    HW1 8852   4.094   2.130   4.331
 2651SOL    HW2 8853   4.025   1.990   4.380
 2652SOL     OW 8854   5.046   4.273   5.423
 2652SOL    HW1 8855   5.125   4.334   5.414
 2652SOL    HW2 8856   4.978   4.297   5.354
 2653SOL     OW 8857   2.451   5.655   0.107
 2653SOL    HW1 8858   2.366   5.662   0.159
 2653SOL    HW2 8859   2.433   5.607   0.021
 2654SOL     OW 8860   6.347   1.204   0.601
 2654SOL    HW1 8861   6.309   1.268   0.668
 2654SOL    HW2 8862   6.302   1.116   0.610
 2655SOL     OW 8863   5.208   6.696   2.550
 2655SOL    HW1 8864   5.263   6.691   2.633
 2655SOL    HW2 8865   5.159   6.783   2.547
 2656SOL     OW 8866   4.487   6.039   3.251
 2656SOL    HW1 8867   4.470   6.137   3.263
 2656SOL    HW2 8868   4.517   6.022   3.157
 2657SOL     OW 8869   0.066   3.765   0.075
 2657SOL    HW1 8870   7.000   3.762   0.112
 2657SOL    HW2 8871   0.128   3.722   0.141
 2658SOL     OW 8872   3.265   5.255   0.575
 2658SOL    HW1 8873   3.281   5.351   0.552
 2658SOL    HW2 8874   3.169   5.244   0.603
 2659SOL     OW 8875   0.363   2.118   5.223
 2659SOL    HW1 8876   0.424   2.061   5.278
 2659SOL    HW2 8877   0.346   2.073   5.135
 2660SOL     OW 8878   0.481   1.804   2.137
 2660SOL    HW1 8879   0.411   1.742   2.102
 2660SOL    HW2 8880   0.568   1.785   2.091
 2661SOL     OW 8881   1.119   1.063   1.042
 2661SOL    HW1 8882   1.021   1.081   1.028
 2661SOL    HW2 8883   1.169   1.082   0.958
 2662SOL     OW 8884   2.966   1.308   2.317
 2662SOL    HW1 8885   3.032   1.345   2.382
 2662SOL    HW2 8886   2.876   1.346   2.335
 2663SOL     OW 8887   4.260   6.913   0.501
 2663SOL    HW1 8888   4.203   6.871   0.572
 2663SOL    HW2 8889   4.335   6.850   0.478
 2664SOL     OW 8890   4.777   3.972   5.267
 2664SOL    HW1 8891   4.698   3.991   5.325
 2664SOL    HW2 8892   4.762   4.010   5.176
 2665SOL     OW 8893   2.136   3.693   4.351
 2665SOL    HW1 8894   2.078   3.770   4.377
 2665SOL    HW2 8895   2.176   3.652   4.433
 2666SOL     OW 8896   2.143   4.120   1.819
 2666SOL    HW1 8897   2.093   4.135   1.905
 2666SOL    HW2 8898   2.088   4.153   1.742
 2667SOL     OW 8899   0.098   3.031   5.016
 2667SOL    HW1 8900   0.013   3.078   5.040
 2667SOL    HW2 8901   0.166   3.098   4.985
 2668SOL     OW 8902   6.235   0.543   3.249
 2668SOL    HW1 8903   6.289   0.460   3.262
 2668SOL    HW2 8904   6.269   0.593   3.171
 2669SOL     OW 8905   2.351   0.687   0.050
 2669SOL    HW1 8906   2.450   0.699   0.047
 2669SOL    HW2 8907   2.328   0.618   0.118
 2670SOL     OW 8908   0.605   0.233   6.416
 2670SOL    HW1 8909   0.649   0.322   6.418
 2670SOL    HW2 8910   0.524   0.234   6.475
 2671SOL     OW 8911   5.346   4.533   6.142
 2671SOL    HW1 8912   5.381   4.541   6.049
 2671SOL    HW2 8913   5.256   4.490   6.140
 2672SOL     OW 8914   3.367   1.470   2.262
 2672SOL    HW1 8915   3.309   1.441   2.338
 2672SOL    HW2 8916   3.362   1.403   2.188
 2673SOL     OW 8917   3.581   0.797   2.591
 2673SOL    HW1 8918   3.495   0.778   2.640
 2673SOL    HW2 8919   3.579   0.753   2.501
 2674SOL     OW 8920   0.298   5.589   3.053
 2674SOL    HW1 8921   0.208   5.582   3.095
 2674SOL    HW2 8922   0.309   5.680   3.014
 2675SOL     OW 8923   5.155   0.735   4.054
 2675SOL    HW1 8924   5.121   0.674   3.983
 2675SOL    HW2 8925   5.146   0.690   4.143
 2676SOL     OW 8926   3.825   4.014   3.617
 2676SOL    HW1 8927   3.765   3.935   3.607
 2676SOL    HW2 8928   3.772   4.093   3.648
 2677SOL     OW 8929   2.275   5.510   1.049
 2677SOL    HW1 8930   2.316   5.531   0.960
 2677SOL    HW2 8931   2.243   5.415   1.049
 2678SOL     OW 8932   3.722   1.613   3.124
 2678SOL    HW1 8933   3.786   1.557   3.178
 2678SOL    HW2 8934   3.770   1.651   3.045
 2679SOL     OW 8935   2.157   3.180   2.538
 2679SOL    HW1 8936   2.246   3.135   2.534
 2679SOL    HW2 8937   2.124   3.197   2.445
 2680SOL     OW 8938   5.887   1.854   6.952
 2680SOL    HW1 8939   5.850   1.796   6.879
 2680SOL    HW2 8940   5.917   1.796   0.001
 2681SOL     OW 8941   1.791   2.289   3.750
 2681SOL    HW1 8942   1.812   2.208   3.804
 2681SOL    HW2 8943   1.775   2.367   3.810
 2682SOL     OW 8944   3.868   4.308   1.477
 2682SOL    HW1 8945   3.909   4.220   1.452
 2682SOL    HW2 8946   3.768   4.302   1.467
 2683SOL     OW 8947   2.304   4.390   2.062
 2683SOL    HW1 8948   2.307   4.338   2.147
 2683SOL    HW2 8949   2.364   4.347   1.994
 2684SOL     OW 8950   0.157   0.086   4.133
 2684SOL    HW1 8951   0.223   0.012   4.125
 2684SOL    HW2 8952   0.117   0.086   4.224
 2685SOL     OW 8953   0.628   6.024   5.942
 2685SOL    HW1 8954   0.717   6.069   5.937
 2685SOL    HW2 8955   0.634   5.932   5.905
 2686SOL     OW 8956   0.753   1.153   5.640
 2686SOL    HW1 8957   0.852   1.159   5.639
 2686SOL    HW2 8958   0.719   1.183   5.730
 2687SOL     OW 8959   4.014   1.709   1.448
 2687SOL    HW1 8960   4.056   1.776   1.510
 2687SOL    HW2 8961   3.947   1.654   1.499
 2688SOL     OW 8962   3.961   2.525   6.374
 2688SOL    HW1 8963   3.964   2.622   6.399
 2688SOL    HW2 8964   3.910   2.474   6.443
 2689SOL     OW 8965   1.149   3.891   3.378
 2689SOL    HW1 8966   1.165   3.965   3.443
 2689SOL    HW2 8967   1.057   3.854   3.391
 2690SOL     OW 8968   4.792   1.677   5.868
 2690SOL    HW1 8969   4.885   1.672   5.830
 2690SOL    HW2 8970   4.794   1.725   5.956
 2691SOL     OW 8971   6.771   3.643   5.503
 2691SOL    HW1 8972   6.777   3.734   5.462
 2691SOL    HW2 8973   6.741   3.577   5.434
 2692SOL     OW 8974   2.221   5.981   2.289
 2692SOL    HW1 8975   2.286   6.057   2.290
 2692SOL    HW2 8976   2.232   5.930   2.203
 2693SOL     OW 8977   1.308   6.151   3.446
 2693SOL    HW1 8978   1.403   6.183   3.438
 2693SOL    HW2 8979   1.252   6.196   3.376
 2694SOL     OW 8980   2.678   6.985   2.389
 2694SOL    HW1 8981   2.760   6.962   2.440
 2694SOL    HW2 8982   2.599   6.940   2.430
 2695SOL     OW 8983   0.185   5.489   3.556
 2695SOL    HW1 8984   0.248   5.522   3.486
 2695SOL    HW2 8985   0.127   5.564   3.586
 2696SOL     OW 8986   4.883   5.324   6.218
 2696SOL    HW1 8987   4.935   5.353   6.138
 2696SOL    HW2 8988   4.791   5.296   6.190
 2697SOL     OW 8989   4.310   2.668   6.617
 2697SOL    HW1 8990   4.274   2.756   6.588
 2697SOL    HW2 8991   4.399   2.681   6.661
 2698SOL     OW 8992   1.515   5.364   6.088
 2698SOL    HW1 8993   1.462   5.315   6.157
 2698SOL    HW2 8994   1.467   5.447   6.060
 2699SOL     OW 8995   2.906   6.308   1.869
 2699SOL    HW1 8996   2.990   6.303   1.923
 2699SOL    HW2 8997   2.917   6.256   1.785
 2700SOL     OW 8998   3.778   1.687   1.902
 2700SOL    HW1 8999   3.743   1.777   1.877
 2700SOL    HW2 9000   3.714   1.616   1.871
 2701SOL     OW 9001   4.808   2.853   4.661
 2701SOL    HW1 9002   4.836   2.781   4.724
 2701SOL    HW2 9003   4.708   2.856   4.656
 2702SOL     OW 9004   2.562   1.317   4.871
 2702SOL    HW1 9005   2.645   1.312   4.814
 2702SOL    HW2 9006   2.586   1.298   4.966
 2703SOL     OW 9007   2.503   6.784   2.145
 2703SOL    HW1 9008   2.586   6.777   2.200
 2703SOL    HW2 9009   2.476   6.880   2.137
 2704SOL     OW 9010   5.790   0.543   3.419
 2704SOL    HW1 9011   5.804   0.463   3.360
 2704SOL    HW2 9012   5.875   0.565   3.466
 2705SOL     OW 9013   0.461   0.134   5.704
 2705SOL    HW1 9014   0.538   0.121   5.767
 2705SOL    HW2 9015   0.386   0.073   5.730
 2706SOL     OW 9016   6.574   3.659   3.492
 2706SOL    HW1 9017   6.505   3.604   3.445
 2706SOL    HW2 9018   6.560   3.654   3.590
 2707SOL     OW 9019   4.648   1.243   3.113
 2707SOL    HW1 9020   4.589   1.267   3.191
 2707SOL    HW2 9021   4.695   1.157   3.133
 2708SOL     OW 9022   5.306   3.557   5.801
 2708SOL    HW1 9023   5.296   3.647   5.843
 2708SOL    HW2 9024   5.392   3.515   5.833
 2709SOL     OW 9025   5.514   1.427   5.663
 2709SOL    HW1 9026   5.520   1.407   5.565
 2709SOL    HW2 9027   5.505   1.525   5.676
 2710SOL     OW 9028   0.708   2.653   4.688
 2710SOL    HW1 9029   0.760   2.738   4.694
 2710SOL    HW2 9030   0.611   2.674   4.680
 2711SOL     OW 9031   3.642   1.332   2.051
 2711SOL    HW1 9032   3.665   1.246   2.097
 2711SOL    HW2 9033   3.679   1.409   2.103
 2712SOL     OW 9034   4.220   6.036   2.406
 2712SOL    HW1 9035   4.300   6.062   2.352
 2712SOL    HW2 9036   4.190   5.945   2.380
 2713SOL     OW 9037   3.971   4.838   5.323
 2713SOL    HW1 9038   3.912   4.915   5.348
 2713SOL    HW2 9039   3.925   4.752   5.342
 2714SOL     OW 9040   3.165   4.817   6.397
 2714SOL    HW1 9041   3.080   4.826   6.448
 2714SOL    HW2 9042   3.242   4.845   6.455
 2715SOL     OW 9043   4.229   0.217   6.599
 2715SOL    HW1 9044   4.296   0.149   6.568
 2715SOL    HW2 9045   4.145   0.170   6.627
 2716SOL     OW 9046   3.513   1.425   2.904
 2716SOL    HW1 9047   3.445   1.480   2.856
 2716SOL    HW2 9048   3.592   1.411   2.845
 2717SOL     OW 9049   0.775   1.642   2.109
 2717SOL    HW1 9050   0.817   1.557   2.141
 2717SOL    HW2 9051   0.714   1.623   2.032
 2718SOL     OW 9052   0.227   0.648   5.863
 2718SOL    HW1 9053   0.254   0.717   5.931
 2718SOL    HW2 9054   0.275   0.665   5.777
 2719SOL     OW 9055   1.179   4.621   2.988
 2719SOL    HW1 9056   1.212   4.665   2.905
 2719SOL    HW2 9057   1.198   4.681   3.067
 2720SOL     OW 9058   2.195   6.277   6.269
 2720SOL    HW1 9059   2.144   6.210   6.215
 2720SOL    HW2 9060   2.133   6.351   6.297
 2721SOL     OW 9061   2.821   6.555   1.786
 2721SOL    HW1 9062   2.733   6.586   1.820
 2721SOL    HW2 9063   2.847   6.470   1.832
 2722SOL     OW 9064   3.996   5.779   6.555
 2722SOL    HW1 9065   3.979   5.765   6.457
 2722SOL    HW2 9066   3.983   5.692   6.603
 2723SOL     OW 9067   3.212   5.925   6.725
 2723SOL    HW1 9068   3.281   5.949   6.794
 2723SOL    HW2 9069   3.122   5.949   6.760
 2724SOL     OW 9070   0.378   6.553   0.880
 2724SOL    HW1 9071   0.467   6.560   0.836
 2724SOL    HW2 9072   0.367   6.629   0.944
 2725SOL     OW 9073   6.083   4.159   4.704
 2725SOL    HW1 9074   6.029   4.133   4.624
 2725SOL    HW2 9075   6.027   4.212   4.767
 2726SOL     OW 9076   6.252   1.820   2.081
 2726SOL    HW1 9077   6.174   1.852   2.135
 2726SOL    HW2 9078   6.333   1.815   2.139
 2727SOL     OW 9079   1.726   5.165   3.625
 2727SOL    HW1 9080   1.821   5.152   3.596
 2727SOL    HW2 9081   1.712   5.122   3.714
 2728SOL     OW 9082   4.790   5.582   5.654
 2728SOL    HW1 9083   4.697   5.567   5.687
 2728SOL    HW2 9084   4.788   5.640   5.573
 2729SOL     OW 9085   5.535   0.700   6.361
 2729SOL    HW1 9086   5.618   0.645   6.366
 2729SOL    HW2 9087   5.537   0.758   6.279
 2730SOL     OW 9088   1.499   5.587   1.939
 2730SOL    HW1 9089   1.574   5.521   1.934
 2730SOL    HW2 9090   1.484   5.628   1.849
 2731SOL     OW 9091   3.037   3.883   4.319
 2731SOL    HW1 9092   3.088   3.836   4.391
 2731SOL    HW2 9093   2.997   3.967   4.356
 2732SOL     OW 9094   5.831   0.077   2.099
 2732SOL    HW1 9095   5.822   0.077   2.198
 2732SOL    HW2 9096   5.742   0.059   2.057
 2733SOL     OW 9097   1.033   6.070   6.971
 2733SOL    HW1 9098   1.002   5.977   6.993
 2733SOL    HW2 9099   1.111   6.065   6.909
 2734SOL     OW 9100   3.453   6.026   2.796
 2734SOL    HW1 9101   3.373   6.065   2.752
 2734SOL    HW2 9102   3.427   5.941   2.843
 2735SOL     OW 9103   0.468   1.346   1.611
 2735SOL    HW1 9104   0.383   1.355   1.664
 2735SOL    HW2 9105   0.483   1.429   1.557
 2736SOL     OW 9106   4.862   4.213   3.370
 2736SOL    HW1 9107   4.893   4.118   3.381
 2736SOL    HW2 9108   4.941   4.271   3.349
 2737SOL     OW 9109   2.906   0.696   5.368
 2737SOL    HW1 9110   2.917   0.785   5.325
 2737SOL    HW2 9111   2.837   0.643   5.318
 2738SOL     OW 9112   5.457   5.818   1.432
 2738SOL    HW1 9113   5.379   5.864   1.475
 2738SOL    HW2 9114   5.538   5.876   1.440
 2739SOL     OW 9115   6.707   5.276   1.452
 2739SOL    HW1 9116   6.708   5.206   1.523
 2739SOL    HW2 9117   6.650   5.353   1.481
 2740SOL     OW 9118   0.139   6.213   3.345
 2740SOL    HW1 9119   0.135   6.128   3.399
 2740SOL    HW2 9120   0.146   6.291   3.407
 2741SOL     OW 9121   1.374   0.305   5.864
 2741SOL    HW1 9122   1.471   0.325   5.851
 2741SOL    HW2 9123   1.360   0.206   5.867
 2742SOL     OW 9124   3.216   5.582   1.853
 2742SOL    HW1 9125   3.151   5.517   1.813
 2742SOL    HW2 9126   3.308   5.562   1.820
 2743SOL     OW 9127   5.357   1.937   1.824
 2743SOL    HW1 9128   5.396   1.948   1.732
 2743SOL    HW2 9129   5.273   1.991   1.830
 2744SOL     OW 9130   3.434   4.171   2.498
 2744SOL    HW1 9131   3.437   4.270   2.479
 2744SOL    HW2 9132   3.410   4.122   2.414
 2745SOL     OW 9133   0.429   6.339   0.566
 2745SOL    HW1 9134   0.470   6.340   0.658
 2745SOL    HW2 9135   0.479   6.402   0.507
 2746SOL     OW 9136   1.569   0.721   3.479
 2746SOL    HW1 9137   1.517   0.805   3.496
 2746SOL    HW2 9138   1.623   0.731   3.395
 2747SOL     OW 9139   3.684   5.114   0.933
 2747SOL    HW1 9140   3.618   5.050   0.895
 2747SOL    HW2 9141   3.706   5.184   0.864
 2748SOL     OW 9142   4.368   0.354   0.484
 2748SOL    HW1 9143   4.363   0.394   0.576
 2748SOL    HW2 9144   4.461   0.322   0.467
 2749SOL     OW 9145   3.298   2.051   0.622
 2749SOL    HW1 9146   3.262   2.006   0.704
 2749SOL    HW2 9147   3.345   2.135   0.648
 2750SOL     OW 9148   3.312   5.396   2.441
 2750SOL    HW1 9149   3.333   5.415   2.345
 2750SOL    HW2 9150   3.364   5.458   2.500
 2751SOL     OW 9151   5.855   5.045   1.176
 2751SOL    HW1 9152   5.949   5.056   1.143
 2751SOL    HW2 9153   5.797   5.011   1.102
 2752SOL     OW 9154   3.985   5.032   0.159
 2752SOL    HW1 9155   3.920   5.013   0.232
 2752SOL    HW2 9156   4.025   4.947   0.126
 2753SOL     OW 9157   5.677   5.583   5.650
 2753SOL    HW1 9158   5.634   5.528   5.578
 2753SOL    HW2 9159   5.776   5.581   5.639
 2754SOL     OW 9160   1.634   7.023   6.163
 2754SOL    HW1 9161   1.617   0.093   6.153
 2754SOL    HW2 9162   1.711   6.996   6.106
 2755SOL     OW 9163   3.313   0.675   2.227
 2755SOL    HW1 9164   3.271   0.754   2.183
 2755SOL    HW2 9165   3.403   0.700   2.263
 2756SOL     OW 9166   4.805   5.863   0.426
 2756SOL    HW1 9167   4.815   5.850   0.328
 2756SOL    HW2 9168   4.832   5.779   0.474
 2757SOL     OW 9169   0.162   5.333   1.436
 2757SOL    HW1 9170   0.087   5.280   1.398
 2757SOL    HW2 9171   0.246   5.279   1.433
 2758SOL     OW 9172   3.903   0.117   6.448
 2758SOL    HW1 9173   3.883   0.032   6.400
 2758SOL    HW2 9174   3.974   0.168   6.399
 2759SOL     OW 9175   5.087   5.476   4.955
 2759SOL    HW1 9176   5.170   5.455   4.904
 2759SOL    HW2 9177   5.064   5.573   4.943
 2760SOL     OW 9178   2.383   5.813   3.912
 2760SOL    HW1 9179   2.473   5.834   3.875
 2760SOL    HW2 9180   2.343   5.737   3.861
 2761SOL     OW 9181   1.959   5.402   3.467
 2761SOL    HW1 9182   1.960   5.501   3.455
 2761SOL    HW2 9183   1.937   5.381   3.563
 2762SOL     OW 9184   1.371   6.966   5.071
 2762SOL    HW1 9185   1.332   0.018   5.119
 2762SOL    HW2 9186   1.463   6.948   5.107
 2763SOL     OW 9187   4.936   2.265   2.043
 2763SOL    HW1 9188   5.016   2.315   2.077
 2763SOL    HW2 9189   4.904   2.306   1.958
 2764SOL     OW 9190   6.751   1.243   1.927
 2764SOL    HW1 9191   6.685   1.315   1.904
 2764SOL    HW2 9192   6.797   1.213   1.843
 2765SOL     OW 9193   5.138   1.880   2.319
 2765SOL    HW1 9194   5.133   1.980   2.317
 2765SOL    HW2 9195   5.194   1.848   2.243
 2766SOL     OW 9196   6.145   0.436   2.849
 2766SOL    HW1 9197   6.105   0.400   2.765
 2766SOL    HW2 9198   6.078   0.430   2.923
 2767SOL     OW 9199   6.155   4.525   5.615
 2767SOL    HW1 9200   6.230   4.480   5.663
 2767SOL    HW2 9201   6.068   4.500   5.658
 2768SOL     OW 9202   6.115   1.619   6.609
 2768SOL    HW1 9203   6.097   1.540   6.668
 2768SOL    HW2 9204   6.212   1.622   6.586
 2769SOL     OW 9205   1.150   4.365   1.366
 2769SOL    HW1 9206   1.246   4.340   1.378
 2769SOL    HW2 9207   1.144   4.461   1.340
 2770SOL     OW 9208   6.080   5.902   1.396
 2770SOL    HW1 9209   6.144   5.839   1.351
 2770SOL    HW2 9210   6.118   5.994   1.397
 2771SOL     OW 9211   4.818   0.958   1.349
 2771SOL    HW1 9212   4.765   0.977   1.432
 2771SOL    HW2 9213   4.799   1.028   1.281
 2772SOL     OW 9214   3.224   2.748   6.239
 2772SOL    HW1 9215   3.176   2.792   6.164
 2772SOL    HW2 9216   3.310   2.708   6.205
 2773SOL     OW 9217   4.004   4.590   0.003
 2773SOL    HW1 9218   4.008   4.544   0.092
 2773SOL    HW2 9219   4.048   4.680   0.009
 2774SOL     OW 9220   5.804   3.219   2.627
 2774SOL    HW1 9221   5.902   3.202   2.623
 2774SOL    HW2 9222   5.761   3.193   2.541
 2775SOL     OW 9223   6.968   6.475   2.307
 2775SOL    HW1 9224   7.024   6.480   2.224
 2775SOL    HW2 9225   7.003   6.539   2.375
 2776SOL     OW 9226   3.265   6.021   5.924
 2776SOL    HW1 9227   3.292   6.022   5.827
 2776SOL    HW2 9228   3.196   5.949   5.938
 2777SOL     OW 9229   3.318   0.818   3.164
 2777SOL    HW1 9230   3.310   0.780   3.072
 2777SOL    HW2 9231   3.412   0.809   3.196
 2778SOL     OW 9232   2.383   1.724   4.673
 2778SOL    HW1 9233   2.430   1.667   4.741
 2778SOL    HW2 9234   2.312   1.671   4.628
 2779SOL     OW 9235   5.677   0.976   0.326
 2779SOL    HW1 9236   5.748   1.046   0.339
 2779SOL    HW2 9237   5.669   0.954   0.229
 2780SOL     OW 9238   4.723   5.733   0.144
 2780SOL    HW1 9239   4.770   5.748   0.057
 2780SOL    HW2 9240   4.742   5.640   0.177
 2781SOL     OW 9241   4.871   4.291   0.438
 2781SOL    HW1 9242   4.785   4.257   0.475
 2781SOL    HW2 9243   4.946   4.231   0.468
 2782SOL     OW 9244   2.881   2.219   6.316
 2782SOL    HW1 9245   2.879   2.172   6.404
 2782SOL    HW2 9246   2.797   2.198   6.265
 2783SOL     OW 9247   0.286   4.615   5.419
 2783SOL    HW1 9248   0.359   4.634   5.484
 2783SOL    HW2 9249   0.197   4.625   5.465
 2784SOL     OW 9250   2.304   1.881   2.104
 2784SOL    HW1 9251   2.239   1.957   2.105
 2784SOL    HW2 9252   2.281   1.816   2.177
 2785SOL     OW 9253   6.109   1.180   1.478
 2785SOL    HW1 9254   6.018   1.209   1.509
 2785SOL    HW2 9255   6.099   1.110   1.407
 2786SOL     OW 9256   3.580   7.026   0.926
 2786SOL    HW1 9257   3.602   6.943   0.874
 2786SOL    HW2 9258   3.659   0.025   0.981
 2787SOL     OW 9259   2.039   2.592   5.446
 2787SOL    HW1 9260   2.016   2.682   5.408
 2787SOL    HW2 9261   2.133   2.593   5.478
 2788SOL     OW 9262   0.985   3.603   0.761
 2788SOL    HW1 9263   1.017   3.660   0.837
 2788SOL    HW2 9264   0.903   3.644   0.721
 2789SOL     OW 9265   0.045   1.856   4.631
 2789SOL    HW1 9266   0.123   1.894   4.580
 2789SOL    HW2 9267   7.016   1.800   4.569
 2790SOL     OW 9268   4.092   5.902   3.363
 2790SOL    HW1 9269   4.018   5.939   3.420
 2790SOL    HW2 9270   4.157   5.975   3.343
 2791SOL     OW 9271   2.257   2.968   3.506
 2791SOL    HW1 9272   2.209   2.898   3.454
 2791SOL    HW2 9273   2.239   3.058   3.466
 2792SOL     OW 9274   1.265   2.369   4.931
 2792SOL    HW1 9275   1.286   2.276   4.902
 2792SOL    HW2 9276   1.181   2.399   4.886
 2793SOL     OW 9277   5.358   1.101   3.921
 2793SOL    HW1 9278   5.391   1.196   3.926
 2793SOL    HW2 9279   5.356   1.072   3.826
 2794SOL     OW 9280   0.812   0.856   1.202
 2794SOL    HW1 9281   0.843   0.945   1.168
 2794SOL    HW2 9282   0.801   0.793   1.125
 2795SOL     OW 9283   2.390   4.285   1.822
 2795SOL    HW1 9284   2.464   4.251   1.764
 2795SOL    HW2 9285   2.311   4.224   1.814
 2796SOL     OW 9286   5.106   3.950   2.893
 2796SOL    HW1 9287   5.133   4.046   2.894
 2796SOL    HW2 9288   5.013   3.941   2.929
 2797SOL     OW 9289   4.365   4.787   4.913
 2797SOL    HW1 9290   4.439   4.851   4.936
 2797SOL    HW2 9291   4.377   4.702   4.963
 2798SOL     OW 9292   1.647   3.320   4.245
 2798SOL    HW1 9293   1.551   3.335   4.221
 2798SOL    HW2 9294   1.701   3.311   4.161
 2799SOL     OW 9295   6.451   5.409   5.604
 2799SOL    HW1 9296   6.388   5.476   5.641
 2799SOL    HW2 9297   6.418   5.317   5.625
 2800SOL     OW 9298   2.975   3.164   0.000
 2800SOL    HW1 9299   3.003   3.074   0.032
 2800SOL    HW2 9300   2.934   3.156   6.936
 2801SOL     OW 9301   4.389   5.662   2.455
 2801SOL    HW1 9302   4.469   5.605   2.476
 2801SOL    HW2 9303   4.341   5.685   2.539
 2802SOL     OW 9304   5.082   0.859   5.930
 2802SOL    HW1 9305   5.066   0.950   5.894
 2802SOL    HW2 9306   5.168   0.857   5.981
 2803SOL     OW 9307   2.100   5.630   6.001
 2803SOL    HW1 9308   2.062   5.587   5.920
 2803SOL    HW2 9309   2.116   5.727   5.983
 2804SOL     OW 9310   6.957   4.422   3.010
 2804SOL    HW1 9311   6.941   4.457   2.918
 2804SOL    HW2 9312   6.874   4.378   3.044
 2805SOL     OW 9313   5.486   4.245   6.779
 2805SOL    HW1 9314   5.556   4.304   6.819
 2805SOL    HW2 9315   5.498   4.152   6.813
 2806SOL     OW 9316   7.003   5.662   3.599
 2806SOL    HW1 9317   6.969   5.741   3.550
 2806SOL    HW2 9318   6.944   5.643   3.677
 2807SOL     OW 9319   4.191   5.195   3.665
 2807SOL    HW1 9320   4.194   5.099   3.637
 2807SOL    HW2 9321   4.268   5.244   3.623
 2808SOL     OW 9322   4.846   6.724   3.919
 2808SOL    HW1 9323   4.847   6.748   3.822
 2808SOL    HW2 9324   4.780   6.650   3.934
 2809SOL     OW 9325   4.963   3.527   0.547
 2809SOL    HW1 9326   5.000   3.449   0.498
 2809SOL    HW2 9327   4.871   3.547   0.514
 2810SOL     OW 9328   1.661   0.446   5.285
 2810SOL    HW1 9329   1.722   0.523   5.265
 2810SOL    HW2 9330   1.684   0.369   5.226
 2811SOL     OW 9331   0.276   0.986   3.529
 2811SOL    HW1 9332   0.364   1.033   3.537
 2811SOL    HW2 9333   0.203   1.052   3.515
 2812SOL     OW 9334   5.214   3.695   2.734
 2812SOL    HW1 9335   5.207   3.727   2.639
 2812SOL    HW2 9336   5.226   3.596   2.735
 2813SOL     OW 9337   6.173   1.185   6.329
 2813SOL    HW1 9338   6.260   1.136   6.324
 2813SOL    HW2 9339   6.110   1.150   6.260
 2814SOL     OW 9340   5.314   3.932   4.903
 2814SOL    HW1 9341   5.284   3.882   4.984
 2814SOL    HW2 9342   5.242   3.930   4.833
 2815SOL     OW 9343   0.575   0.719   5.472
 2815SOL    HW1 9344   0.616   0.627   5.474
 2815SOL    HW2 9345   0.523   0.730   5.388
 2816SOL     OW 9346   5.876   6.545   3.357
 2816SOL    HW1 9347   5.919   6.512   3.441
 2816SOL    HW2 9348   5.888   6.644   3.350
 2817SOL     OW 9349   1.054   2.183   1.067
 2817SOL    HW1 9350   1.086   2.260   1.011
 2817SOL    HW2 9351   0.956   2.170   1.051
 2818SOL     OW 9352   6.831   4.592   5.287
 2818SOL    HW1 9353   6.751   4.623   5.236
 2818SOL    HW2 9354   6.909   4.582   5.225
 2819SOL     OW 9355   0.010   2.955   0.447
 2819SOL    HW1 9356   6.959   2.974   0.507
 2819SOL    HW2 9357   7.004   2.949   0.352
 2820SOL     OW 9358   6.666   3.033   4.714
 2820SOL    HW1 9359   6.734   2.993   4.652
 2820SOL    HW2 9360   6.700   3.120   4.749
 2821SOL     OW 9361   1.325   3.075   4.481
 2821SOL    HW1 9362   1.308   3.173   4.492
 2821SOL    HW2 9363   1.397   3.061   4.413
 2822SOL     OW 9364   3.425   1.829   6.778
 2822SOL    HW1 9365   3.511   1.881   6.769
 2822SOL    HW2 9366   3.350   1.893   6.791
 2823SOL     OW 9367   1.765   6.577   3.461
 2823SOL    HW1 9368   1.830   6.653   3.461
 2823SOL    HW2 9369   1.747   6.550   3.555
 2824SOL     OW 9370   3.068   1.664   4.942
 2824SOL    HW1 9371   3.081   1.656   4.843
 2824SOL    HW2 9372   3.099   1.754   4.972
 2825SOL     OW 9373   6.665   5.864   1.033
 2825SOL    HW1 9374   6.603   5.806   0.979
 2825SOL    HW2 9375   6.612   5.924   1.092
 2826SOL     OW 9376   4.733   2.371   4.604
 2826SOL    HW1 9377   4.728   2.271   4.598
 2826SOL    HW2 9378   4.667   2.411   4.541
 2827SOL     OW 9379   5.813   0.740   5.660
 2827SOL    HW1 9380   5.740   0.720   5.595
 2827SOL    HW2 9381   5.853   0.830   5.638
 2828SOL     OW 9382   3.294   2.027   5.937
 2828SOL    HW1 9383   3.369   2.083   5.903
 2828SOL    HW2 9384   3.319   1.930   5.932
 2829SOL     OW 9385   1.838   6.741   6.952
 2829SOL    HW1 9386   1.872   6.692   6.872
 2829SOL    HW2 9387   1.889   6.827   6.962
 2830SOL     OW 9388   3.530   3.336   6.669
 2830SOL    HW1 9389   3.486   3.254   6.633
 2830SOL    HW2 9390   3.503   3.348   6.765
 2831SOL     OW 9391   5.856   5.911   4.422
 2831SOL    HW1 9392   5.902   5.840   4.370
 2831SOL    HW2 9393   5.862   5.890   4.520
 2832SOL     OW 9394   0.472   0.758   1.964
 2832SOL    HW1 9395   0.514   0.721   2.046
 2832SOL    HW2 9396   0.379   0.723   1.955
 2833SOL     OW 9397   5.949   3.169   1.909
 2833SOL    HW1 9398   5.861   3.124   1.896
 2833SOL    HW2 9399   5.957   3.200   2.004
 2834SOL     OW 9400   3.576   0.783   6.157
 2834SOL    HW1 9401   3.599   0.835   6.240
 2834SOL    HW2 9402   3.493   0.821   6.116
 2835SOL     OW 9403   0.828   6.395   2.501
 2835SOL    HW1 9404   0.893   6.408   2.576
 2835SOL    HW2 9405   0.760   6.468   2.503
 2836SOL     OW 9406   6.600   0.926   0.682
 2836SOL    HW1 9407   6.574   0.894   0.591
 2836SOL    HW2 9408   6.692   0.964   0.679
 2837SOL     OW 9409   6.095   3.399   3.452
 2837SOL    HW1 9410   6.008   3.406   3.404
 2837SOL    HW2 9411   6.105   3.306   3.488
 2838SOL     OW 9412   3.201   4.895   3.383
 2838SOL    HW1 9413   3.280   4.921   3.327
 2838SOL    HW2 9414   3.225   4.902   3.480
 2839SOL     OW 9415   4.964   2.105   1.048
 2839SOL    HW1 9416   4.886   2.167   1.050
 2839SOL    HW2 9417   4.934   2.013   1.074
 2840SOL     OW 9418   6.783   2.012   5.264
 2840SOL    HW1 9419   6.781   1.938   5.197
 2840SOL    HW2 9420   6.689   2.030   5.296
 2841SOL     OW 9421   0.802   5.938   1.519
 2841SOL    HW1 9422   0.788   6.036   1.505
 2841SOL    HW2 9423   0.717   5.898   1.554
 2842SOL     OW 9424   6.477   3.247   3.394
 2842SOL    HW1 9425   6.470   3.208   3.486
 2842SOL    HW2 9426   6.451   3.178   3.326
 2843SOL     OW 9427   4.055   1.842   4.778
 2843SOL    HW1 9428   4.028   1.932   4.743
 2843SOL    HW2 9429   4.111   1.854   4.860
 2844SOL     OW 9430   6.773   3.861   6.023
 2844SOL    HW1 9431   6.800   3.783   6.080
 2844SOL    HW2 9432   6.745   3.829   5.933
 2845SOL     OW 9433   6.068   4.108   5.373
 2845SOL    HW1 9434   6.066   4.105   5.473
 2845SOL    HW2 9435   5.976   4.126   5.338
 2846SOL     OW 9436   4.579   1.831   6.251
 2846SOL    HW1 9437   4.547   1.908   6.307
 2846SOL    HW2 9438   4.502   1.769   6.234
 2847SOL     OW 9439   5.221   4.888   4.209
 2847SOL    HW1 9440   5.314   4.851   4.217
 2847SOL    HW2 9441   5.165   4.852   4.283
 2848SOL     OW 9442   0.802   5.843   5.090
 2848SOL    HW1 9443   0.812   5.918   5.025
 2848SOL    HW2 9444   0.882   5.784   5.086
 2849SOL     OW 9445   2.132   2.308   1.628
 2849SOL    HW1 9446   2.209   2.328   1.568
 2849SOL    HW2 9447   2.160   2.239   1.696
 2850SOL     OW 9448   3.947   1.398   6.994
 2850SOL    HW1 9449   3.965   1.300   7.005
 2850SOL    HW2 9450   4.002   1.434   6.919
 2851SOL     OW 9451   2.209   4.289   6.356
 2851SOL    HW1 9452   2.126   4.254   6.312
 2851SOL    HW2 9453   2.247   4.218   6.415
 2852SOL     OW 9454   0.327   3.531   6.129
 2852SOL    HW1 9455   0.341   3.590   6.209
 2852SOL    HW2 9456   0.392   3.454   6.133
 2853SOL     OW 9457   3.215   3.693   1.441
 2853SOL    HW1 9458   3.200   3.611   1.386
 2853SOL    HW2 9459   3.309   3.724   1.431
 2854SOL     OW 9460   2.038   1.476   3.701
 2854SOL    HW1 9461   2.012   1.507   3.609
 2854SOL    HW2 9462   2.119   1.526   3.730
 2855SOL     OW 9463   2.895   0.937   5.239
 2855SOL    HW1 9464   2.836   0.964   5.163
 2855SOL    HW2 9465   2.959   1.010   5.260
 2856SOL     OW 9466   2.583   2.379   4.781
 2856SOL    HW1 9467   2.656   2.312   4.768
 2856SOL    HW2 9468   2.571   2.396   4.879
 2857SOL     OW 9469   2.959   3.273   2.672
 2857SOL    HW1 9470   2.975   3.195   2.612
 2857SOL    HW2 9471   2.913   3.345   2.621
 2858SOL     OW 9472   6.585   3.239   2.768
 2858SOL    HW1 9473   6.589   3.333   2.734
 2858SOL    HW2 9474   6.537   3.182   2.701
 2859SOL     OW 9475   6.265   6.512   0.142
 2859SOL    HW1 9476   6.194   6.559   0.089
 2859SOL    HW2 9477   6.227   6.487   0.231
 2860SOL     OW 9478   4.301   1.277   1.825
 2860SOL    HW1 9479   4.318   1.375   1.830
 2860SOL    HW2 9480   4.242   1.249   1.900
 2861SOL     OW 9481   3.436   5.866   5.373
 2861SOL    HW1 9482   3.478   5.783   5.409
 2861SOL    HW2 9483   3.339   5.848   5.354
 2862SOL     OW 9484   5.219   0.755   4.626
 2862SOL    HW1 9485   5.185   0.661   4.621
 2862SOL    HW2 9486   5.317   0.756   4.603
 2863SOL     OW 9487   6.146   1.908   6.927
 2863SOL    HW1 9488   6.189   1.818   6.937
 2863SOL    HW2 9489   6.047   1.897   6.926
 2864SOL     OW 9490   3.334   1.160   6.775
 2864SOL    HW1 9491   3.241   1.124   6.785
 2864SOL    HW2 9492   3.399   1.084   6.779
 2865SOL     OW 9493   4.568   4.969   4.934
 2865SOL    HW1 9494   4.563   5.016   4.846
 2865SOL    HW2 9495   4.632   5.018   4.994
 2866SOL     OW 9496   0.313   6.469   6.407
 2866SOL    HW1 9497   0.259   6.453   6.490
 2866SOL    HW2 9498   0.381   6.540   6.425
 2867SOL     OW 9499   6.577   4.206   3.816
 2867SOL    HW1 9500   6.632   4.270   3.762
 2867SOL    HW2 9501   6.543   4.252   3.898
 2868SOL     OW 9502   1.325   4.127   5.519
 2868SOL    HW1 9503   1.384   4.103   5.595
 2868SOL    HW2 9504   1.365   4.203   5.468
 2869SOL     OW 9505   6.257   1.867   2.420
 2869SOL    HW1 9506   6.299   1.778   2.402
 2869SOL    HW2 9507   6.158   1.860   2.405
 2870SOL     OW 9508   5.110   1.768   2.581
 2870SOL    HW1 9509   5.126   1.828   2.659
 2870SOL    HW2 9510   5.110   1.821   2.497
 2871SOL     OW 9511   1.642   2.081   5.864
 2871SOL    HW1 9512   1.543   2.080   5.862
 2871SOL    HW2 9513   1.677   1.988   5.866
 2872SOL     OW 9514   2.585   6.429   3.774
 2872SOL    HW1 9515   2.666   6.488   3.772
 2872SOL    HW2 9516   2.525   6.459   3.848
 2873SOL     OW 9517   6.961   5.171   1.746
 2873SOL    HW1 9518   6.906   5.102   1.700
 2873SOL    HW2 9519   6.911   5.258   1.747
 2874SOL     OW 9520   5.949   2.171   2.206
 2874SOL    HW1 9521   5.867   2.183   2.150
 2874SOL    HW2 9522   5.927   2.187   2.302
 2875SOL     OW 9523   3.343   4.940   0.048
 2875SOL    HW1 9524   3.314   5.015   7.015
 2875SOL    HW2 9525   3.298   4.856   0.020
 2876SOL     OW 9526   6.705   1.434   2.283
 2876SOL    HW1 9527   6.801   1.410   2.276
 2876SOL    HW2 9528   6.687   1.515   2.228
 2877SOL     OW 9529   2.543   3.010   5.913
 2877SOL    HW1 9530   2.464   2.976   5.862
 2877SOL    HW2 9531   2.517   3.090   5.967
 2878SOL     OW 9532   3.089   4.403   6.695
 2878SOL    HW1 9533   3.001   4.449   6.711
 2878SOL    HW2 9534   3.072   4.312   6.657
 2879SOL     OW 9535   5.155   5.164   0.079
 2879SOL    HW1 9536   5.196   5.210   0.001
 2879SOL    HW2 9537   5.210   5.084   0.103
 2880SOL     OW 9538   1.163   6.330   1.557
 2880SOL    HW1 9539   1.235   6.268   1.526
 2880SOL    HW2 9540   1.075   6.302   1.518
 2881SOL     OW 9541   0.129   6.757   0.442
 2881SOL    HW1 9542   0.194   6.792   0.508
 2881SOL    HW2 9543   0.056   6.708   0.489
 2882SOL     OW 9544   6.700   3.024   3.372
 2882SOL    HW1 9545   6.641   3.073   3.307
 2882SOL    HW2 9546   6.651   2.944   3.407
 2883SOL     OW 9547   4.216   6.643   2.054
 2883SOL    HW1 9548   4.260   6.654   1.965
 2883SOL    HW2 9549   4.140   6.708   2.062
 2884SOL     OW 9550   1.400   5.971   2.970
 2884SOL    HW1 9551   1.406   5.991   2.872
 2884SOL    HW2 9552   1.486   5.931   3.001
 2885SOL     OW 9553   0.699   2.337   3.479
 2885SOL    HW1 9554   0.621   2.371   3.426
 2885SOL    HW2 9555   0.716   2.241   3.455
 2886SOL     OW 9556   2.291   2.554   5.741
 2886SOL    HW1 9557   2.197   2.534   5.770
 2886SOL    HW2 9558   2.325   2.477   5.686
 2887SOL     OW 9559   1.863   0.851   5.108
 2887SOL    HW1 9560   1.937   0.809   5.056
 2887SOL    HW2 9561   1.806   0.906   5.048
 2888SOL     OW 9562   6.698   5.151   6.776
 2888SOL    HW1 9563   6.687   5.148   6.676
 2888SOL    HW2 9564   6.612   5.180   6.818
 2889SOL     OW 9565   0.578   0.134   2.514
 2889SOL    HW1 9566   0.482   0.128   2.486
 2889SOL    HW2 9567   0.622   0.209   2.465
 2890SOL     OW 9568   3.771   0.396   1.377
 2890SOL    HW1 9569   3.681   0.365   1.346
 2890SOL    HW2 9570   3.788   0.488   1.341
 2891SOL     OW 9571   2.615   5.027   4.051
 2891SOL    HW1 9572   2.697   4.974   4.033
 2891SOL    HW2 9573   2.630   5.087   4.130
 2892SOL     OW 9574   4.590   4.266   5.780
 2892SOL    HW1 9575   4.596   4.245   5.877
 2892SOL    HW2 9576   4.518   4.211   5.738
 2893SOL     OW 9577   2.193   0.411   6.106
 2893SOL    HW1 9578   2.238   0.399   6.194
 2893SOL    HW2 9579   2.144   0.327   6.082
 2894SOL     OW 9580   3.453   3.278   0.626
 2894SOL    HW1 9581   3.551   3.276   0.643
 2894SOL    HW2 9582   3.436   3.264   0.528
 2895SOL     OW 9583   3.105   3.776   6.373
 2895SOL    HW1 9584   3.106   3.704   6.442
 2895SOL    HW2 9585   3.021   3.770   6.319
 2896SOL     OW 9586   2.412   5.120   1.166
 2896SOL    HW1 9587   2.483   5.087   1.228
 2896SOL    HW2 9588   2.455   5.158   1.084
 2897SOL     OW 9589   2.146   6.356   3.858
 2897SOL    HW1 9590   2.114   6.274   3.906
 2897SOL    HW2 9591   2.074   6.425   3.857
 2898SOL     OW 9592   3.066   5.625   2.394
 2898SOL    HW1 9593   2.987   5.654   2.341
 2898SOL    HW2 9594   3.077   5.684   2.473
 2899SOL     OW 9595   6.987   6.886   0.292
 2899SOL    HW1 9596   0.007   6.837   0.366
 2899SOL    HW2 9597   6.904   6.836   0.267
 2900SOL     OW 9598   2.040   5.225   5.728
 2900SOL    HW1 9599   1.960   5.170   5.704
 2900SOL    HW2 9600   2.011   5.317   5.755
 2901SOL     OW 9601   3.077   1.196   1.650
 2901SOL    HW1 9602   3.034   1.268   1.596
 2901SOL    HW2 9603   3.009   1.126   1.672
 2902SOL     OW 9604   5.879   5.903   1.670
 2902SOL    HW1 9605   5.821   5.829   1.703
 2902SOL    HW2 9606   5.888   5.896   1.570
 2903SOL     OW 9607   2.277   2.260   2.278
 2903SOL    HW1 9608   2.183   2.279   2.305
 2903SOL    HW2 9609   2.312   2.184   2.333
 2904SOL     OW 9610   1.633   3.169   4.964
 2904SOL    HW1 9611   1.695   3.111   5.016
 2904SOL    HW2 9612   1.575   3.221   5.027
 2905SOL     OW 9613   1.883   2.277   1.503
 2905SOL    HW1 9614   1.964   2.317   1.546
 2905SOL    HW2 9615   1.835   2.220   1.570
 2906SOL     OW 9616   5.609   5.595   2.138
 2906SOL    HW1 9617   5.602   5.634   2.230
 2906SOL    HW2 9618   5.630   5.497   2.145
 2907SOL     OW 9619   6.220   0.890   3.747
 2907SOL    HW1 9620   6.207   0.886   3.846
 2907SOL    HW2 9621   6.178   0.973   3.711
 2908SOL     OW 9622   4.119   6.558   4.728
 2908SOL    HW1 9623   4.126   6.589   4.633
 2908SOL    HW2 9624   4.169   6.472   4.739
 2909SOL     OW 9625   1.844   5.430   4.853
 2909SOL    HW1 9626   1.894   5.508   4.892
 2909SOL    HW2 9627   1.827   5.362   4.924
 2910SOL     OW 9628   5.546   6.284   6.284
 2910SOL    HW1 9629   5.448   6.293   6.266
 2910SOL    HW2 9630   5.597   6.331   6.212
 2911SOL     OW 9631   1.663   3.960   3.169
 2911SOL    HW1 9632   1.732   4.027   3.145
 2911SOL    HW2 9633   1.668   3.940   3.266
 2912SOL     OW 9634   2.564   5.577   0.600
 2912SOL    HW1 9635   2.634   5.519   0.558
 2912SOL    HW2 9636   2.601   5.670   0.612
 2913SOL     OW 9637   1.248   2.903   3.219
 2913SOL    HW1 9638   1.329   2.872   3.270
 2913SOL    HW2 9639   1.166   2.881   3.271
 2914SOL     OW 9640   5.441   5.570   5.801
 2914SOL    HW1 9641   5.516   5.584   5.737
 2914SOL    HW2 9642   5.477   5.569   5.895
 2915SOL     OW 9643   4.690   1.291   4.236
 2915SOL    HW1 9644   4.708   1.194   4.254
 2915SOL    HW2 9645   4.731   1.317   4.149
 2916SOL     OW 9646   5.184   5.898   4.378
 2916SOL    HW1 9647   5.181   5.836   4.299
 2916SOL    HW2 9648   5.279   5.929   4.391
 2917SOL     OW 9649   4.853   0.506   2.178
 2917SOL    HW1 9650   4.891   0.592   2.212
 2917SOL    HW2 9651   4.786   0.471   2.243
 2918SOL     OW 9652   6.649   3.953   3.687
 2918SOL    HW1 9653   6.656   3.940   3.588
 2918SOL    HW2 9654   6.633   4.049   3.707
 2919SOL     OW 9655   6.414   5.810   0.240
 2919SOL    HW1 9656   6.384   5.906   0.243
 2919SOL    HW2 9657   6.514   5.807   0.240
 2920SOL     OW 9658   4.394   2.390   3.338
 2920SOL    HW1 9659   4.316   2.344   3.296
 2920SOL    HW2 9660   4.376   2.402   3.436
 2921SOL     OW 9661   0.873   0.186   2.098
 2921SOL    HW1 9662   0.842   0.167   2.004
 2921SOL    HW2 9663   0.885   0.099   2.146
 2922SOL     OW 9664   4.409   6.329   5.434
 2922SOL    HW1 9665   4.323   6.285   5.405
 2922SOL    HW2 9666   4.438   6.291   5.522
 2923SOL     OW 9667   6.532   4.327   1.708
 2923SOL    HW1 9668   6.478   4.248   1.737
 2923SOL    HW2 9669   6.472   4.394   1.664
 2924SOL     OW 9670   6.708   1.152   5.346
 2924SOL    HW1 9671   6.614   1.174   5.318
 2924SOL    HW2 9672   6.769   1.226   5.316
 2925SOL     OW 9673   5.483   4.248   1.135
 2925SOL    HW1 9674   5.498   4.270   1.039
 2925SOL    HW2 9675   5.562   4.197   1.170
 2926SOL     OW 9676   0.101   1.171   4.735
 2926SOL    HW1 9677   0.007   1.142   4.717
 2926SOL    HW2 9678   0.101   1.266   4.768
 2927SOL     OW 9679   0.349   2.599   3.067
 2927SOL    HW1 9680   0.387   2.660   2.998
 2927SOL    HW2 9681   0.395   2.510   3.061
 2928SOL     OW 9682   6.578   6.533   0.951
 2928SOL    HW1 9683   6.494   6.586   0.964
 2928SOL    HW2 9684   6.568   6.444   0.995
 2929SOL     OW 9685   0.788   6.792   6.348
 2929SOL    HW1 9686   0.764   6.724   6.278
 2929SOL    HW2 9687   0.844   6.748   6.418
 2930SOL     OW 9688   3.448   6.515   4.749
 2930SOL    HW1 9689   3.533   6.537   4.797
 2930SOL    HW2 9690   3.440   6.416   4.739
 2931SOL     OW 9691   3.893   5.877   5.816
 2931SOL    HW1 9692   3.937   5.788   5.834
 2931SOL    HW2 9693   3.824   5.894   5.886
 2932SOL     OW 9694   1.099   4.656   1.578
 2932SOL    HW1 9695   1.151   4.675   1.494
 2932SOL    HW2 9696   1.120   4.563   1.610
 2933SOL     OW 9697   4.893   2.019   3.083
 2933SOL    HW1 9698   4.872   2.030   2.986
 2933SOL    HW2 9699   4.886   2.108   3.129
 2934SOL     OW 9700   2.787   0.536   0.196
 2934SOL    HW1 9701   2.707   0.489   0.159
 2934SOL    HW2 9702   2.868   0.515   0.141
 2935SOL     OW 9703   5.994   2.257   1.272
 2935SOL    HW1 9704   6.012   2.271   1.369
 2935SOL    HW2 9705   5.899   2.227   1.260
 2936SOL     OW 9706   4.114   5.727   0.696
 2936SOL    HW1 9707   4.017   5.729   0.722
 2936SOL    HW2 9708   4.124   5.761   0.603
 2937SOL     OW 9709   3.123   4.582   0.628
 2937SOL    HW1 9710   3.215   4.599   0.662
 2937SOL    HW2 9711   3.088   4.498   0.667
 2938SOL     OW 9712   5.093   5.510   5.575
 2938SOL    HW1 9713   5.129   5.594   5.534
 2938SOL    HW2 9714   4.994   5.518   5.588
 2939SOL     OW 9715   0.349   6.430   5.691
 2939SOL    HW1 9716   0.349   6.455   5.594
 2939SOL    HW2 9717   0.383   6.337   5.701
 2940SOL     OW 9718   4.495   0.342   5.734
 2940SOL    HW1 9719   4.408   0.296   5.714
 2940SOL    HW2 9720   4.534   0.304   5.818
 2941SOL     OW 9721   1.874   2.021   4.773
 2941SOL    HW1 9722   1.831   2.027   4.683
 2941SOL    HW2 9723   1.968   1.989   4.763
 2942SOL     OW 9724   3.535   6.516   4.069
 2942SOL    HW1 9725   3.574   6.426   4.086
 2942SOL    HW2 9726   3.446   6.506   4.024
 2943SOL     OW 9727   5.945   4.229   3.320
 2943SOL    HW1 9728   5.985   4.235   3.228
 2943SOL    HW2 9729   5.943   4.321   3.361
 2944SOL     OW 9730   3.717   5.961   6.006
 2944SOL    HW1 9731   3.646   5.890   5.997
 2944SOL    HW2 9732   3.763   5.950   6.094
 2945SOL     OW 9733   3.107   3.079   3.347
 2945SOL    HW1 9734   3.099   3.047   3.252
 2945SOL    HW2 9735   3.045   3.156   3.361
 2946SOL     OW 9736   6.559   5.978   5.990
 2946SOL    HW1 9737   6.536   6.075   5.975
 2946SOL    HW2 9738   6.655   5.963   5.968
 2947SOL     OW 9739   6.527   4.877   0.058
 2947SOL    HW1 9740   6.512   4.798   0.118
 2947SOL    HW2 9741   6.443   4.932   0.054
 2948SOL     OW 9742   6.203   4.527   5.124
 2948SOL    HW1 9743   6.240   4.617   5.101
 2948SOL    HW2 9744   6.228   4.462   5.053
 2949SOL     OW 9745   1.214   6.539   0.214
 2949SOL    HW1 9746   1.117   6.515   0.218
 2949SOL    HW2 9747   1.240   6.587   0.297
 2950SOL     OW 9748   4.970   3.518   4.502
 2950SOL    HW1 9749   4.924   3.516   4.413
 2950SOL    HW2 9750   4.953   3.432   4.549
 2951SOL     OW 9751   6.580   1.296   1.643
 2951SOL    HW1 9752   6.497   1.241   1.636
 2951SOL    HW2 9753   6.619   1.310   1.552
 2952SOL     OW 9754   1.462   3.562   2.297
 2952SOL    HW1 9755   1.549   3.517   2.315
 2952SOL    HW2 9756   1.412   3.575   2.382
 2953SOL     OW 9757   5.766   1.195   2.579
 2953SOL    HW1 9758   5.721   1.278   2.611
 2953SOL    HW2 9759   5.746   1.183   2.481
 2954SOL     OW 9760   6.276   6.711   2.347
 2954SOL    HW1 9761   6.349   6.744   2.407
 2954SOL    HW2 9762   6.192   6.761   2.369
 2955SOL     OW 9763   6.677   3.108   0.719
 2955SOL    HW1 9764   6.631   3.195   0.705
 2955SOL    HW2 9765   6.660   3.076   0.813
 2956SOL     OW 9766   6.793   5.590   2.424
 2956SOL    HW1 9767   6.851   5.513   2.451
 2956SOL    HW2 9768   6.785   5.592   2.324
 2957SOL     OW 9769   1.001   3.769   1.155
 2957SOL    HW1 9770   0.974   3.813   1.241
 2957SOL    HW2 9771   0.942   3.801   1.081
 2958SOL     OW 9772   2.667   4.670   5.738
 2958SOL    HW1 9773   2.702   4.611   5.811
 2958SOL    HW2 9774   2.674   4.622   5.650
 2959SOL     OW 9775   3.793   5.374   7.016
 2959SOL    HW1 9776   3.723   5.347   6.950
 2959SOL    HW2 9777   3.753   5.438   0.055
 2960SOL     OW 9778   2.301   1.863   0.293
 2960SOL    HW1 9779   2.300   1.806   0.375
 2960SOL    HW2 9780   2.374   1.931   0.300
 2961SOL     OW 9781   5.709   3.066   4.032
 2961SOL    HW1 9782   5.751   3.108   3.951
 2961SOL    HW2 9783   5.722   2.967   4.029
 2962SOL     OW 9784   4.248   0.983   3.298
 2962SOL    HW1 9785   4.325   0.919   3.292
 2962SOL    HW2 9786   4.163   0.932   3.306
 2963SOL     OW 9787   2.110   2.758   4.615
 2963SOL    HW1 9788   2.168   2.677   4.612
 2963SOL    HW2 9789   2.161   2.835   4.652
 2964SOL     OW 9790   3.714   6.282   0.590
 2964SOL    HW1 9791   3.621   6.319   0.596
 2964SOL    HW2 9792   3.719   6.214   0.517
 2965SOL     OW 9793   0.675   2.221   5.936
 2965SOL    HW1 9794   0.668   2.192   5.841
 2965SOL    HW2 9795   0.661   2.142   5.996
 2966SOL     OW 9796   4.527   4.412   4.143
 2966SOL    HW1 9797   4.556   4.383   4.052
 2966SOL    HW2 9798   4.438   4.457   4.137
 2967SOL     OW 9799   5.548   1.907   4.042
 2967SOL    HW1 9800   5.585   1.981   3.985
 2967SOL    HW2 9801   5.449   1.919   4.049
 2968SOL     OW 9802   6.968   4.124   3.458
 2968SOL    HW1 9803   6.993   4.208   3.410
 2968SOL    HW2 9804   0.018   4.060   3.456
 2969SOL     OW 9805   4.726   1.414   5.194
 2969SOL    HW1 9806   4.640   1.363   5.202
 2969SOL    HW2 9807   4.798   1.353   5.160
 2970SOL     OW 9808   0.978   4.861   6.529
 2970SOL    HW1 9809   0.895   4.809   6.511
 2970SOL    HW2 9810   1.032   4.813   6.599
 2971SOL     OW 9811   5.312   3.087   3.058
 2971SOL    HW1 9812   5.348   3.157   2.996
 2971SOL    HW2 9813   5.388   3.031   3.093
 2972SOL     OW 9814   0.075   3.881   5.727
 2972SOL    HW1 9815   0.070   3.809   5.658
 2972SOL    HW2 9816   0.171   3.898   5.749
 2973SOL     OW 9817   5.062   6.116   4.478
 2973SOL    HW1 9818   4.963   6.126   4.470
 2973SOL    HW2 9819   5.088   6.024   4.448
 2974SOL     OW 9820   0.311   3.823   2.563
 2974SOL    HW1 9821   0.312   3.912   2.609
 2974SOL    HW2 9822   0.239   3.766   2.601
 2975SOL     OW 9823   0.548   0.923   4.900
 2975SOL    HW1 9824   0.458   0.960   4.875
 2975SOL    HW2 9825   0.611   0.933   4.823
 2976SOL     OW 9826   4.066   0.329   2.225
 2976SOL    HW1 9827   4.029   0.421   2.240
 2976SOL    HW2 9828   4.158   0.324   2.265
 2977SOL     OW 9829   2.935   6.204   4.315
 2977SOL    HW1 9830   2.989   6.227   4.395
 2977SOL    HW2 9831   2.972   6.120   4.274
 2978SOL     OW 9832   4.541   5.940   0.216
 2978SOL    HW1 9833   4.597   5.857   0.214
 2978SOL    HW2 9834   4.597   6.018   0.191
 2979SOL     OW 9835   3.349   0.886   3.448
 2979SOL    HW1 9836   3.328   0.838   3.362
 2979SOL    HW2 9837   3.333   0.824   3.525
 2980SOL     OW 9838   0.051   6.611   4.175
 2980SOL    HW1 9839   0.086   6.517   4.172
 2980SOL    HW2 9840   0.120   6.673   4.139
 2981SOL     OW 9841   2.263   0.985   5.671
 2981SOL    HW1 9842   2.191   0.934   5.624
 2981SOL    HW2 9843   2.338   0.923   5.694
 2982SOL     OW 9844   4.714   6.720   2.755
 2982SOL    HW1 9845   4.639   6.713   2.689
 2982SOL    HW2 9846   4.756   6.630   2.768
 2983SOL     OW 9847   6.482   0.358   3.583
 2983SOL    HW1 9848   6.414   0.422   3.619
 2983SOL    HW2 9849   6.460   0.336   3.488
 2984SOL     OW 9850   5.111   4.877   1.939
 2984SOL    HW1 9851   5.173   4.914   2.008
 2984SOL    HW2 9852   5.060   4.951   1.896
 2985SOL     OW 9853   6.243   2.603   2.905
 2985SOL    HW1 9854   6.181   2.581   2.829
 2985SOL    HW2 9855   6.205   2.568   2.991
 2986SOL     OW 9856   2.199   3.856   5.217
 2986SOL    HW1 9857   2.255   3.939   5.209
 2986SOL    HW2 9858   2.259   3.777   5.230
 2987SOL     OW 9859   4.205   2.310   4.568
 2987SOL    HW1 9860   4.208   2.286   4.665
 2987SOL    HW2 9861   4.184   2.407   4.558
 2988SOL     OW 9862   0.632   0.432   2.374
 2988SOL    HW1 9863   0.540   0.438   2.413
 2988SOL    HW2 9864   0.700   0.454   2.443
 2989SOL     OW 9865   6.651   4.874   1.416
 2989SOL    HW1 9866   6.710   4.815   1.470
 2989SOL    HW2 9867   6.642   4.837   1.323
 2990SOL     OW 9868   3.741   0.602   1.217
 2990SOL    HW1 9869   3.642   0.593   1.209
 2990SOL    HW2 9870   3.778   0.643   1.134
 2991SOL     OW 9871   6.234   4.480   0.220
 2991SOL    HW1 9872   6.163   4.501   0.154
 2991SOL    HW2 9873   6.193   4.439   0.302
 2992SOL     OW 9874   3.788   4.327   6.423
 2992SOL    HW1 9875   3.836   4.259   6.477
 2992SOL    HW2 9876   3.789   4.415   6.471
 2993SOL     OW 9877   1.652   5.353   1.051
 2993SOL    HW1 9878   1.573   5.399   1.010
 2993SOL    HW2 9879   1.639   5.343   1.149
 2994SOL     OW 9880   4.488   6.578   0.134
 2994SOL    HW1 9881   4.527   6.570   0.042
 2994SOL    HW2 9882   4.546   6.530   0.200
 2995SOL     OW 9883   2.345   1.405   6.166
 2995SOL    HW1 9884   2.303   1.473   6.105
 2995SOL    HW2 9885   2.356   1.445   6.257
 2996SOL     OW 9886   4.188   5.539   5.459
 2996SOL    HW1 9887   4.278   5.502   5.436
 2996SOL    HW2 9888   4.155   5.595   5.383
 2997SOL     OW 9889   5.529   6.487   0.292
 2997SOL    HW1 9890   5.519   6.431   0.374
 2997SOL    HW2 9891   5.439   6.522   0.264
 2998SOL     OW 9892   6.612   5.918   5.094
 2998SOL    HW1 9893   6.526   5.868   5.094
 2998SOL    HW2 9894   6.666   5.892   5.014
 2999SOL     OW 9895   3.378   6.444   2.623
 2999SOL    HW1 9896   3.472   6.416   2.643
 2999SOL    HW2 9897   3.335   6.378   2.563
 3000SOL     OW 9898   1.613   3.086   4.699
 3000SOL    HW1 9899   1.543   3.015   4.689
 3000SOL    HW2 9900   1.620   3.114   4.794
 3001SOL     OW 9901   4.424   0.032   5.953
 3001SOL    HW1 9902   4.369   0.073   5.880
 3001SOL    HW2 9903   4.474   6.980   5.918
 3002SOL     OW 9904   4.067   0.034   5.616
 3002SOL    HW1 9905   4.056   6.963   5.602
 3002SOL    HW2 9906   3.979   0.075   5.638
 3003SOL     OW 9907   2.169   0.323   6.695
 3003SOL    HW1 9908   2.156   0.226   6.672
 3003SOL    HW2 9909   2.211   0.330   6.785
 3004SOL     OW 9910   6.054   3.136   4.815
 3004SOL    HW1 9911   6.146   3.176   4.811
 3004SOL    HW2 9912   6.057   3.052   4.869
 3005SOL     OW 9913   4.488   2.401   1.610
 3005SOL    HW1 9914   4.532   2.316   1.639
 3005SOL    HW2 9915   4.558   2.466   1.580
 3006SOL     OW 9916   5.602   0.581   1.528
 3006SOL    HW1 9917   5.537   0.655   1.517
 3006SOL    HW2 9918   5.614   0.561   1.626
 3007SOL     OW 9919   6.523   5.375   2.199
 3007SOL    HW1 9920   6.525   5.331   2.289
 3007SOL    HW2 9921   6.533   5.474   2.210
 3008SOL     OW 9922   3.176   5.605   5.927
 3008SOL    HW1 9923   3.243   5.530   5.929
 3008SOL    HW2 9924   3.148   5.627   6.020
 3009SOL     OW 9925   1.944   0.569   3.306
 3009SOL    HW1 9926   1.901   0.568   3.396
 3009SOL    HW2 9927   1.897   0.634   3.247
 3010SOL     OW 9928   4.287   6.626   1.434
 3010SOL    HW1 9929   4.284   6.726   1.427
 3010SOL    HW2 9930   4.202   6.594   1.476
 3011SOL     OW 9931   5.676   0.913   0.067
 3011SOL    HW1 9932   5.586   0.878   0.042
 3011SOL    HW2 9933   5.746   0.869   0.009
 3012SOL     OW 9934   6.858   3.906   2.769
 3012SOL    HW1 9935   6.939   3.929   2.715
 3012SOL    HW2 9936   6.845   3.807   2.768
 3013SOL     OW 9937   5.670   4.730   2.242
 3013SOL    HW1 9938   5.768   4.711   2.249
 3013SOL    HW2 9939   5.618   4.657   2.288
 3014SOL     OW 9940   4.451   1.038   5.014
 3014SOL    HW1 9941   4.413   0.967   4.955
 3014SOL    HW2 9942   4.409   1.126   4.992
 3015SOL     OW 9943   2.861   2.767   6.896
 3015SOL    HW1 9944   2.904   2.792   6.809
 3015SOL    HW2 9945   2.931   2.732   6.958
 3016SOL     OW 9946   3.874   6.449   3.511
 3016SOL    HW1 9947   3.848   6.532   3.462
 3016SOL    HW2 9948   3.973   6.435   3.505
 3017SOL     OW 9949   6.959   5.851   1.443
 3017SOL    HW1 9950   0.001   5.779   1.446
 3017SOL    HW2 9951   6.972   5.907   1.361
 3018SOL     OW 9952   3.658   6.437   0.300
 3018SOL    HW1 9953   3.583   6.373   0.282
 3018SOL    HW2 9954   3.679   6.487   0.216
 3019SOL     OW 9955   4.926   0.131   2.183
 3019SOL    HW1 9956   4.974   0.175   2.258
 3019SOL    HW2 9957   4.901   0.038   2.209
 3020SOL     OW 9958   1.327   2.062   0.952
 3020SOL    HW1 9959   1.300   2.053   1.048
 3020SOL    HW2 9960   1.316   2.158   0.924
 3021SOL     OW 9961   2.800   1.379   6.374
 3021SOL    HW1 9962   2.798   1.472   6.410
 3021SOL    HW2 9963   2.885   1.334   6.401
 3022SOL     OW 9964   4.773   0.040   2.997
 3022SOL    HW1 9965   4.801   6.985   3.047
 3022SOL    HW2 9966   4.811   0.037   2.904
 3023SOL     OW 9967   5.192   6.273   2.121
 3023SOL    HW1 9968   5.148   6.222   2.194
 3023SOL    HW2 9969   5.132   6.346   2.090
 3024SOL     OW 9970   2.909   6.573   7.027
 3024SOL    HW1 9971   2.935   6.670   0.001
 3024SOL    HW2 9972   2.911   6.537   0.093
 3025SOL     OW 9973   2.314   2.395   1.408
 3025SOL    HW1 9974   2.410   2.421   1.411
 3025SOL    HW2 9975   2.300   2.327   1.335
 3026SOL     OW 9976   2.318   4.536   1.209
 3026SOL    HW1 9977   2.263   4.465   1.254
 3026SOL    HW2 9978   2.354   4.599   1.278
 3027SOL     OW 9979   1.125   1.865   3.663
 3027SOL    HW1 9980   1.119   1.765   3.656
 3027SOL    HW2 9981   1.190   1.899   3.595
 3028SOL     OW 9982   1.792   0.031   4.585
 3028SOL    HW1 9983   1.724   0.071   4.646
 3028SOL    HW2 9984   1.774   6.961   4.572
 3029SOL     OW 9985   5.155   6.871   5.503
 3029SOL    HW1 9986   5.149   6.775   5.477
 3029SOL    HW2 9987   5.177   6.878   5.601
 3030SOL     OW 9988   0.926   2.237   5.571
 3030SOL    HW1 9989   0.991   2.257   5.644
 3030SOL    HW2 9990   0.908   2.320   5.518
 3031SOL     OW 9991   1.039   5.121   6.667
 3031SOL    HW1 9992   1.041   5.024   6.640
 3031SOL    HW2 9993   0.990   5.131   6.754
 3032SOL     OW 9994   4.740   0.285   6.181
 3032SOL    HW1 9995   4.837   0.263   6.195
 3032SOL    HW2 9996   4.687   0.253   6.259
 3033SOL     OW 9997   5.698   3.754   6.576
 3033SOL    HW1 9998   5.608   3.750   6.620
 3033SOL    HW2 9999   5.767   3.780   6.643
 3034SOL     OW10000   2.298   0.325   4.590
 3034SOL    HW110001   2.214   0.326   4.645
 3034SOL    HW210002   2.369   0.275   4.638
 3035SOL     OW10003   6.241   0.330   0.020
 3035SOL    HW110004   6.191   0.417   0.027
 3035SOL    HW210005   6.335   0.342   0.050
 3036SOL     OW10006   1.248   4.750   6.394
 3036SOL    HW110007   1.234   4.665   6.445
 3036SOL    HW210008   1.302   4.814   6.448
 3037SOL     OW10009   6.682   6.415   5.503
 3037SOL    HW110010   6.649   6.497   5.455
 3037SOL    HW210011   6.677   6.430   5.601
 3038SOL     OW10012   5.253   0.160   5.822
 3038SOL    HW110013   5.257   0.230   5.750
 3038SOL    HW210014   5.346   0.138   5.852
 3039SOL     OW10015   0.606   5.027   1.164
 3039SOL    HW110016   0.658   5.111   1.177
 3039SOL    HW210017   0.660   4.949   1.196
 3040SOL     OW10018   2.628   3.545   6.617
 3040SOL    HW110019   2.541   3.589   6.597
 3040SOL    HW210020   2.633   3.523   6.714
 3041SOL     OW10021   1.845   2.251   5.803
 3041SOL    HW110022   1.887   2.221   5.717
 3041SOL    HW210023   1.762   2.197   5.820
 3042SOL     OW10024   4.686   0.808   1.680
 3042SOL    HW110025   4.710   0.904   1.662
 3042SOL    HW210026   4.605   0.805   1.739
 3043SOL     OW10027   6.989   5.426   0.232
 3043SOL    HW110028   0.054   5.464   0.224
 3043SOL    HW210029   6.976   5.391   0.324
 3044SOL     OW10030   3.373   4.121   6.375
 3044SOL    HW110031   3.409   4.118   6.281
 3044SOL    HW210032   3.371   4.029   6.413
 3045SOL     OW10033   5.828   2.441   3.226
 3045SOL    HW110034   5.760   2.411   3.159
 3045SOL    HW210035   5.822   2.540   3.239
 3046SOL     OW10036   2.094   2.965   5.866
 3046SOL    HW110037   2.148   2.910   5.931
 3046SOL    HW210038   2.144   2.972   5.780
 3047SOL     OW10039   6.407   4.759   2.297
 3047SOL    HW110040   6.408   4.697   2.376
 3047SOL    HW210041   6.334   4.733   2.234
 3048SOL     OW10042   3.342   2.329   1.570
 3048SOL    HW110043   3.394   2.316   1.485
 3048SOL    HW210044   3.286   2.411   1.562
 3049SOL     OW10045   1.104   0.333   2.218
 3049SOL    HW110046   1.190   0.285   2.200
 3049SOL    HW210047   1.030   0.288   2.167
 3050SOL     OW10048   4.082   5.889   3.921
 3050SOL    HW110049   4.134   5.940   3.989
 3050SOL    HW210050   4.140   5.870   3.842
 3051SOL     OW10051   2.261   4.509   5.884
 3051SOL    HW110052   2.352   4.534   5.917
 3051SOL    HW210053   2.268   4.474   5.790
 3052SOL     OW10054   4.403   6.458   2.774
 3052SOL    HW110055   4.308   6.437   2.795
 3052SOL    HW210056   4.432   6.405   2.694
 3053SOL     OW10057   5.183   6.381   0.155
 3053SOL    HW110058   5.229   6.313   0.212
 3053SOL    HW210059   5.205   6.473   0.188
 3054SOL     OW10060   0.952   3.440   6.341
 3054SOL    HW110061   0.994   3.528   6.362
 3054SOL    HW210062   1.010   3.389   6.277
 3055SOL     OW10063   6.423   6.569   3.057
 3055SOL    HW110064   6.432   6.619   3.144
 3055SOL    HW210065   6.449   6.629   2.981
 3056SOL     OW10066   0.059   1.141   0.917
 3056SOL    HW110067   0.008   1.054   0.916
 3056SOL    HW210068   0.132   1.136   0.984
 3057SOL     OW10069   6.285   5.500   2.608
 3057SOL    HW110070   6.255   5.411   2.642
 3057SOL    HW210071   6.360   5.534   2.665
 3058SOL     OW10072   6.349   5.048   1.621
 3058SOL    HW110073   6.253   5.019   1.629
 3058SOL    HW210074   6.406   4.988   1.677
 3059SOL     OW10075   1.907   2.679   4.408
 3059SOL    HW110076   1.952   2.653   4.494
 3059SOL    HW210077   1.954   2.759   4.370
 3060SOL     OW10078   6.596   6.752   0.586
 3060SOL    HW110079   6.647   6.829   0.549
 3060SOL    HW210080   6.508   6.743   0.538
 3061SOL     OW10081   0.109   0.019   6.176
 3061SOL    HW110082   0.154   0.015   6.265
 3061SOL    HW210083   0.137   6.968   6.120
 3062SOL     OW10084   2.732   6.198   0.031
 3062SOL    HW110085   2.704   6.102   0.028
 3062SOL    HW210086   2.710   6.236   0.121
 3063SOL     OW10087   2.130   4.830   1.277
 3063SOL    HW110088   2.228   4.816   1.289
 3063SOL    HW210089   2.086   4.742   1.260
 3064SOL     OW10090   5.985   3.873   2.973
 3064SOL    HW110091   6.054   3.919   3.029
 3064SOL    HW210092   6.004   3.890   2.876
 3065SOL     OW10093   2.212   0.934   0.257
 3065SOL    HW110094   2.139   1.002   0.265
 3065SOL    HW210095   2.272   0.958   0.181
 3066SOL     OW10096   5.976   4.752   1.573
 3066SOL    HW110097   6.050   4.771   1.508
 3066SOL    HW210098   5.963   4.653   1.582
 3067SOL     OW10099   5.271   6.997   3.725
 3067SOL    HW110100   5.352   6.992   3.784
 3067SOL    HW210101   5.190   6.973   3.779
 3068SOL     OW10102   5.745   4.903   0.431
 3068SOL    HW110103   5.673   4.908   0.501
 3068SOL    HW210104   5.802   4.985   0.435
 3069SOL     OW10105   0.689   5.797   2.971
 3069SOL    HW110106   0.603   5.847   2.980
 3069SOL    HW210107   0.750   5.845   2.908
 3070SOL     OW10108   4.300   1.149   4.405
 3070SOL    HW110109   4.225   1.089   4.433
 3070SOL    HW210110   4.332   1.202   4.483
 3071SOL     OW10111   6.253   6.483   3.658
 3071SOL    HW110112   6.274   6.563   3.715
 3071SOL    HW210113   6.275   6.400   3.708
 3072SOL     OW10114   0.673   0.397   2.843
 3072SOL    HW110115   0.735   0.363   2.914
 3072SOL    HW210116   0.613   0.323   2.813
 3073SOL     OW10117   1.448   3.372   4.645
 3073SOL    HW110118   1.529   3.322   4.613
 3073SOL    HW210119   1.374   3.361   4.579
 3074SOL     OW10120   4.549   3.172   5.749
 3074SOL    HW110121   4.459   3.191   5.788
 3074SOL    HW210122   4.551   3.078   5.714
 3075SOL     OW10123   2.452   5.684   1.674
 3075SOL    HW110124   2.393   5.748   1.723
 3075SOL    HW210125   2.470   5.719   1.582
 3076SOL     OW10126   0.678   0.482   5.099
 3076SOL    HW110127   0.644   0.465   5.191
 3076SOL    HW210128   0.615   0.444   5.032
 3077SOL     OW10129   5.119   5.171   3.865
 3077SOL    HW110130   5.199   5.225   3.838
 3077SOL    HW210131   5.067   5.148   3.783
 3078SOL     OW10132   1.805   3.415   1.365
 3078SOL    HW110133   1.759   3.472   1.433
 3078SOL    HW210134   1.896   3.454   1.346
 3079SOL     OW10135   6.500   2.375   5.896
 3079SOL    HW110136   6.452   2.454   5.859
 3079SOL    HW210137   6.544   2.325   5.821
 3080SOL     OW10138   6.632   5.505   0.793
 3080SOL    HW110139   6.661   5.499   0.888
 3080SOL    HW210140   6.670   5.588   0.752
 3081SOL     OW10141   6.976   5.249   5.420
 3081SOL    HW110142   6.924   5.261   5.335
 3081SOL    HW210143   6.925   5.189   5.481
 3082SOL     OW10144   2.708   0.147   2.715
 3082SOL    HW110145   2.760   0.157   2.630
 3082SOL    HW210146   2.610   0.151   2.695
 3083SOL     OW10147   3.253   0.409   1.890
 3083SOL    HW110148   3.197   0.448   1.963
 3083SOL    HW210149   3.350   0.426   1.909
 3084SOL     OW10150   5.299   6.427   4.798
 3084SOL    HW110151   5.324   6.365   4.872
 3084SOL    HW210152   5.356   6.510   4.804
 3085SOL     OW10153   0.631   5.224   1.960
 3085SOL    HW110154   0.694   5.150   1.984
 3085SOL    HW210155   0.658   5.307   2.008
 3086SOL     OW10156   5.038   1.103   3.919
 3086SOL    HW110157   5.138   1.104   3.927
 3086SOL    HW210158   4.998   1.148   3.999
 3087SOL     OW10159   6.411   2.898   3.407
 3087SOL    HW110160   6.367   2.819   3.364
 3087SOL    HW210161   6.372   2.912   3.498
 3088SOL     OW10162   3.058   4.650   5.772
 3088SOL    HW110163   3.100   4.739   5.789
 3088SOL    HW210164   3.005   4.622   5.852
 3089SOL     OW10165   1.891   2.553   0.363
 3089SOL    HW110166   1.928   2.479   0.419
 3089SOL    HW210167   1.792   2.559   0.376
 3090SOL     OW10168   1.175   1.956   1.200
 3090SOL    HW110169   1.166   2.049   1.163
 3090SOL    HW210170   1.187   1.961   1.299
 3091SOL     OW10171   2.834   6.817   0.337
 3091SOL    HW110172   2.821   6.894   0.399
 3091SOL    HW210173   2.753   6.759   0.337
 3092SOL     OW10174   4.955   6.154   0.871
 3092SOL    HW110175   4.956   6.059   0.902
 3092SOL    HW210176   4.939   6.157   0.773
 3093SOL     OW10177   5.124   5.752   4.166
 3093SOL    HW110178   5.040   5.719   4.208
 3093SOL    HW210179   5.170   5.677   4.118
 3094SOL     OW10180   2.952   5.624   5.590
 3094SOL    HW110181   3.045   5.660   5.601
 3094SOL    HW210182   2.888   5.700   5.583
 3095SOL     OW10183   3.053   4.903   5.139
 3095SOL    HW110184   3.075   4.915   5.042
 3095SOL    HW210185   3.099   4.821   5.174
 3096SOL     OW10186   1.085   0.581   6.015
 3096SOL    HW110187   0.986   0.590   6.017
 3096SOL    HW210188   1.115   0.562   5.922
 3097SOL     OW10189   1.424   2.997   6.934
 3097SOL    HW110190   1.420   2.940   7.017
 3097SOL    HW210191   1.466   3.085   6.956
 3098SOL     OW10192   3.835   2.357   0.756
 3098SOL    HW110193   3.800   2.274   0.712
 3098SOL    HW210194   3.910   2.333   0.817
 3099SOL     OW10195   0.971   6.146   5.579
 3099SOL    HW110196   0.943   6.075   5.642
 3099SOL    HW210197   1.069   6.141   5.563
 3100SOL     OW10198   6.918   0.174   0.109
 3100SOL    HW110199   6.859   0.230   0.168
 3100SOL    HW210200   6.924   0.082   0.147
 3101SOL     OW10201   4.680   0.037   0.511
 3101SOL    HW110202   4.687   6.966   0.529
 3101SOL    HW210203   4.742   0.087   0.571
 3102SOL     OW10204   1.683   4.888   1.348
 3102SOL    HW110205   1.597   4.932   1.374
 3102SOL    HW210206   1.693   4.889   1.249
 3103SOL     OW10207   4.006   3.064   2.266
 3103SOL    HW110208   4.062   3.069   2.349
 3103SOL    HW210209   4.053   3.109   2.191
 3104SOL     OW10210   6.800   5.529   3.766
 3104SOL    HW110211   6.778   5.436   3.798
 3104SOL    HW210212   6.762   5.542   3.674
 3105SOL     OW10213   6.130   6.441   4.213
 3105SOL    HW110214   6.171   6.368   4.159
 3105SOL    HW210215   6.056   6.403   4.269
 3106SOL     OW10216   6.956   2.500   4.267
 3106SOL    HW110217   6.903   2.576   4.231
 3106SOL    HW210218   6.899   2.445   4.328
 3107SOL     OW10219   2.859   6.968   4.617
 3107SOL    HW110220   2.923   6.897   4.646
 3107SOL    HW210221   2.885   7.001   4.526
 3108SOL     OW10222   3.728   0.510   3.506
 3108SOL    HW110223   3.816   0.463   3.493
 3108SOL    HW210224   3.744   0.602   3.539
 3109SOL     OW10225   4.883   5.484   3.506
 3109SOL    HW110226   4.830   5.568   3.515
 3109SOL    HW210227   4.907   5.449   3.597
 3110SOL     OW10228   0.569   2.794   2.623
 3110SOL    HW110229   0.574   2.695   2.606
 3110SOL    HW210230   0.660   2.830   2.641
 3111SOL     OW10231   6.795   4.397   3.725
 3111SOL    HW110232   6.746   4.432   3.644
 3111SOL    HW210233   6.877   4.451   3.740
 3112SOL     OW10234   3.891   3.689   6.621
 3112SOL    HW110235   3.961   3.622   6.595
 3112SOL    HW210236   3.930   3.781   6.617
 3113SOL     OW10237   3.196   6.952   3.873
 3113SOL    HW110238   3.147   6.865   3.868
 3113SOL    HW210239   3.293   6.935   3.890
 3114SOL     OW10240   5.596   5.585   0.846
 3114SOL    HW110241   5.533   5.643   0.794
 3114SOL    HW210242   5.674   5.639   0.877
 3115SOL     OW10243   2.731   3.568   1.458
 3115SOL    HW110244   2.798   3.623   1.408
 3115SOL    HW210245   2.735   3.474   1.425
 3116SOL     OW10246   6.900   1.924   0.017
 3116SOL    HW110247   6.806   1.937   7.013
 3116SOL    HW210248   6.930   1.832   7.021
 3117SOL     OW10249   4.096   3.731   4.913
 3117SOL    HW110250   4.160   3.777   4.975
 3117SOL    HW210251   4.102   3.632   4.926
 3118SOL     OW10252   5.588   4.293   0.309
 3118SOL    HW110253   5.594   4.391   0.286
 3118SOL    HW210254   5.493   4.271   0.334
 3119SOL     OW10255   1.157   4.431   5.384
 3119SOL    HW110256   1.225   4.448   5.456
 3119SOL    HW210257   1.204   4.418   5.297
 3120SOL     OW10258   3.477   5.510   5.554
 3120SOL    HW110259   3.473   5.485   5.457
 3120SOL    HW210260   3.395   5.477   5.600
 3121SOL     OW10261   0.288   6.723   2.553
 3121SOL    HW110262   0.300   6.822   2.566
 3121SOL    HW210263   0.315   6.697   2.461
 3122SOL     OW10264   2.791   5.762   1.134
 3122SOL    HW110265   2.831   5.700   1.201
 3122SOL    HW210266   2.830   5.744   1.044
 3123SOL     OW10267   3.519   6.669   4.285
 3123SOL    HW110268   3.494   6.755   4.240
 3123SOL    HW210269   3.537   6.599   4.216
 3124SOL     OW10270   3.970   0.102   6.709
 3124SOL    HW110271   3.942   0.085   6.615
 3124SOL    HW210272   3.892   0.136   6.761
 3125SOL     OW10273   6.796   2.086   5.826
 3125SOL    HW110274   6.724   2.093   5.895
 3125SOL    HW210275   6.777   2.009   5.764
 3126SOL     OW10276   4.252   5.678   0.417
 3126SOL    HW110277   4.337   5.667   0.467
 3126SOL    HW210278   4.219   5.589   0.386
 3127SOL     OW10279   0.521   1.314   3.803
 3127SOL    HW110280   0.466   1.364   3.736
 3127SOL    HW210281   0.478   1.320   3.893
 3128SOL     OW10282   1.222   2.056   0.672
 3128SOL    HW110283   1.278   1.994   0.726
 3128SOL    HW210284   1.279   2.100   0.602
 3129SOL     OW10285   0.862   3.134   5.021
 3129SOL    HW110286   0.890   3.181   4.938
 3129SOL    HW210287   0.941   3.119   5.080
 3130SOL     OW10288   1.446   5.643   3.192
 3130SOL    HW110289   1.433   5.688   3.103
 3130SOL    HW210290   1.517   5.574   3.184
 3131SOL     OW10291   6.975   3.746   3.489
 3131SOL    HW110292   6.887   3.791   3.475
 3131SOL    HW210293   0.019   3.797   3.441
 3132SOL     OW10294   5.264   6.302   5.548
 3132SOL    HW110295   5.235   6.242   5.622
 3132SOL    HW210296   5.362   6.294   5.534
 3133SOL     OW10297   2.832   1.678   3.146
 3133SOL    HW110298   2.829   1.707   3.050
 3133SOL    HW210299   2.824   1.757   3.206
 3134SOL     OW10300   5.116   2.822   2.617
 3134SOL    HW110301   5.135   2.795   2.523
 3134SOL    HW210302   5.154   2.913   2.634
 3135SOL     OW10303   3.074   1.685   3.285
 3135SOL    HW110304   2.986   1.698   3.240
 3135SOL    HW210305   3.141   1.653   3.219
 3136SOL     OW10306   5.921   6.534   5.060
 3136SOL    HW110307   5.996   6.474   5.088
 3136SOL    HW210308   5.924   6.618   5.115
 3137SOL     OW10309   6.274   1.809   4.274
 3137SOL    HW110310   6.209   1.841   4.204
 3137SOL    HW210311   6.365   1.800   4.233
 3138SOL     OW10312   5.464   0.974   5.225
 3138SOL    HW110313   5.375   0.987   5.181
 3138SOL    HW210314   5.525   0.927   5.162
 3139SOL     OW10315   5.017   6.341   5.306
 3139SOL    HW110316   5.031   6.437   5.331
 3139SOL    HW210317   4.985   6.291   5.386
 3140SOL     OW10318   6.494   6.577   6.407
 3140SOL    HW110319   6.523   6.668   6.439
 3140SOL    HW210320   6.557   6.508   6.442
 3141SOL     OW10321   1.286   4.827   0.387
 3141SOL    HW110322   1.193   4.815   0.421
 3141SOL    HW210323   1.331   4.738   0.379
 3142SOL     OW10324   4.196   6.516   0.222
 3142SOL    HW110325   4.200   6.497   0.320
 3142SOL    HW210326   4.286   6.547   0.190
 3143SOL     OW10327   6.690   1.519   0.714
 3143SOL    HW110328   6.599   1.561   0.706
 3143SOL    HW210329   6.680   1.421   0.728
 3144SOL     OW10330   1.424   3.904   6.672
 3144SOL    HW110331   1.399   3.992   6.631
 3144SOL    HW210332   1.487   3.856   6.611
 3145SOL     OW10333   3.423   6.844   4.015
 3145SOL    HW110334   3.504   6.793   3.987
 3145SOL    HW210335   3.444   6.897   4.098
 3146SOL     OW10336   2.455   0.331   3.861
 3146SOL    HW110337   2.539   0.284   3.888
 3146SOL    HW210338   2.395   0.268   3.813
 3147SOL     OW10339   4.129   3.696   0.103
 3147SOL    HW110340   4.188   3.693   0.184
 3147SOL    HW210341   4.039   3.732   0.129
 3148SOL     OW10342   3.549   5.860   4.652
 3148SOL    HW110343   3.510   5.871   4.560
 3148SOL    HW210344   3.494   5.912   4.718
 3149SOL     OW10345   3.579   6.773   5.788
 3149SOL    HW110346   3.634   6.731   5.860
 3149SOL    HW210347   3.482   6.754   5.805
 3150SOL     OW10348   6.460   0.217   4.592
 3150SOL    HW110349   6.417   0.296   4.635
 3150SOL    HW210350   6.450   0.223   4.493
 3151SOL     OW10351   3.642   0.696   6.807
 3151SOL    HW110352   3.643   0.597   6.791
 3151SOL    HW210353   3.734   0.732   6.796
 3152SOL     OW10354   1.540   5.220   0.440
 3152SOL    HW110355   1.511   5.171   0.358
 3152SOL    HW210356   1.470   5.213   0.510
 3153SOL     OW10357   6.909   4.414   2.522
 3153SOL    HW110358   6.888   4.432   2.425
 3153SOL    HW210359   7.004   4.384   2.529
 3154SOL     OW10360   5.591   2.464   6.635
 3154SOL    HW110361   5.594   2.434   6.540
 3154SOL    HW210362   5.496   2.476   6.663
 3155SOL     OW10363   5.147   6.026   0.514
 3155SOL    HW110364   5.149   5.936   0.471
 3155SOL    HW210365   5.053   6.051   0.536
 3156SOL     OW10366   3.248   3.709   3.252
 3156SOL    HW110367   3.232   3.615   3.279
 3156SOL    HW210368   3.276   3.763   3.332
 3157SOL     OW10369   2.180   3.147   4.504
 3157SOL    HW110370   2.241   3.226   4.493
 3157SOL    HW210371   2.189   3.111   4.596
 3158SOL     OW10372   4.664   5.874   0.905
 3158SOL    HW110373   4.752   5.852   0.862
 3158SOL    HW210374   4.602   5.914   0.837
 3159SOL     OW10375   5.430   4.979   0.907
 3159SOL    HW110376   5.381   4.959   0.991
 3159SOL    HW210377   5.373   5.038   0.849
 3160SOL     OW10378   5.676   4.426   6.881
 3160SOL    HW110379   5.613   4.504   6.879
 3160SOL    HW210380   5.753   4.444   6.821
 3161SOL     OW10381   0.794   1.790   2.822
 3161SOL    HW110382   0.750   1.726   2.884
 3161SOL    HW210383   0.884   1.755   2.796
 3162SOL     OW10384   6.693   6.205   6.430
 3162SOL    HW110385   6.739   6.290   6.404
 3162SOL    HW210386   6.741   6.127   6.389
 3163SOL     OW10387   2.251   3.985   5.595
 3163SOL    HW110388   2.166   3.951   5.555
 3163SOL    HW210389   2.320   3.995   5.524
 3164SOL     OW10390   5.659   5.260   6.439
 3164SOL    HW110391   5.681   5.174   6.392
 3164SOL    HW210392   5.569   5.292   6.408
 3165SOL     OW10393   6.908   2.523   1.521
 3165SOL    HW110394   6.850   2.496   1.443
 3165SOL    HW210395   6.851   2.539   1.601
 3166SOL     OW10396   5.395   2.864   5.883
 3166SOL    HW110397   5.335   2.931   5.926
 3166SOL    HW210398   5.445   2.814   5.954
 3167SOL     OW10399   0.721   4.491   2.367
 3167SOL    HW110400   0.725   4.466   2.464
 3167SOL    HW210401   0.632   4.467   2.330
 3168SOL     OW10402   5.715   3.282   0.906
 3168SOL    HW110403   5.756   3.321   0.989
 3168SOL    HW210404   5.702   3.354   0.838
 3169SOL     OW10405   1.265   1.701   4.900
 3169SOL    HW110406   1.220   1.632   4.956
 3169SOL    HW210407   1.286   1.781   4.956
 3170SOL     OW10408   4.237   0.673   6.302
 3170SOL    HW110409   4.262   0.762   6.264
 3170SOL    HW210410   4.182   0.686   6.384
 3171SOL     OW10411   6.435   6.618   3.475
 3171SOL    HW110412   6.495   6.643   3.550
 3171SOL    HW210413   6.352   6.576   3.511
 3172SOL     OW10414   6.250   6.930   5.629
 3172SOL    HW110415   6.251   7.027   5.655
 3172SOL    HW210416   6.164   6.889   5.661
 3173SOL     OW10417   1.863   1.322   0.868
 3173SOL    HW110418   1.787   1.278   0.821
 3173SOL    HW210419   1.836   1.414   0.898
 3174SOL     OW10420   1.865   3.707   5.678
 3174SOL    HW110421   1.888   3.789   5.731
 3174SOL    HW210422   1.911   3.710   5.590
 3175SOL     OW10423   0.328   6.152   0.843
 3175SOL    HW110424   0.407   6.212   0.861
 3175SOL    HW210425   0.258   6.204   0.795
 3176SOL     OW10426   0.785   5.082   6.452
 3176SOL    HW110427   0.766   5.015   6.524
 3176SOL    HW210428   0.855   5.047   6.390
 3177SOL     OW10429   0.022   0.309   4.796
 3177SOL    HW110430   0.014   0.406   4.819
 3177SOL    HW210431   6.995   0.290   4.713
 3178SOL     OW10432   1.671   3.087   1.460
 3178SOL    HW110433   1.741   3.016   1.473
 3178SOL    HW210434   1.689   3.163   1.522
 3179SOL     OW10435   1.179   2.314   3.056
 3179SOL    HW110436   1.208   2.341   2.964
 3179SOL    HW210437   1.084   2.283   3.053
 3180SOL     OW10438   5.851   1.014   5.587
 3180SOL    HW110439   5.767   1.068   5.601
 3180SOL    HW210440   5.930   1.069   5.614
 3181SOL     OW10441   0.651   2.014   2.898
 3181SOL    HW110442   0.694   1.929   2.867
 3181SOL    HW210443   0.556   2.017   2.867
 3182SOL     OW10444   1.368   4.642   5.181
 3182SOL    HW110445   1.328   4.671   5.268
 3182SOL    HW210446   1.379   4.543   5.182
 3183SOL     OW10447   4.153   3.540   1.194
 3183SOL    HW110448   4.152   3.445   1.162
 3183SOL    HW210449   4.247   3.568   1.214
 3184SOL     OW10450   2.958   1.430   2.968
 3184SOL    HW110451   2.868   1.401   2.999
 3184SOL    HW210452   2.964   1.530   2.969
 3185SOL     OW10453   6.976   6.438   6.021
 3185SOL    HW110454   6.977   6.348   6.066
 3185SOL    HW210455   7.009   6.429   5.927
 3186SOL     OW10456   3.158   0.157   1.764
 3186SOL    HW110457   3.214   0.084   1.723
 3186SOL    HW210458   3.218   0.230   1.798
 3187SOL     OW10459   3.264   4.709   6.999
 3187SOL    HW110460   3.285   4.653   0.052
 3187SOL    HW210461   3.287   4.659   6.916
 3188SOL     OW10462   4.295   0.028   3.025
 3188SOL    HW110463   4.316   0.113   2.977
 3188SOL    HW210464   4.320   6.978   2.968
 3189SOL     OW10465   1.004   0.427   1.763
 3189SOL    HW110466   1.018   0.479   1.679
 3189SOL    HW210467   0.970   0.488   1.835
 3190SOL     OW10468   0.635   6.481   1.910
 3190SOL    HW110469   0.641   6.385   1.881
 3190SOL    HW210470   0.681   6.539   1.843
 3191SOL     OW10471   3.184   0.671   0.985
 3191SOL    HW110472   3.164   0.632   1.075
 3191SOL    HW210473   3.239   0.754   0.997
 3192SOL     OW10474   6.239   2.386   3.643
 3192SOL    HW110475   6.267   2.298   3.605
 3192SOL    HW210476   6.274   2.460   3.587
 3193SOL     OW10477   4.829   4.004   0.167
 3193SOL    HW110478   4.822   3.963   0.258
 3193SOL    HW210479   4.755   3.969   0.109
 3194SOL     OW10480   1.244   4.318   5.714
 3194SOL    HW110481   1.228   4.247   5.646
 3194SOL    HW210482   1.260   4.406   5.669
 3195SOL     OW10483   0.533   3.720   3.423
 3195SOL    HW110484   0.495   3.692   3.335
 3195SOL    HW210485   0.578   3.642   3.466
 3196SOL     OW10486   0.459   6.882   5.244
 3196SOL    HW110487   0.492   6.832   5.324
 3196SOL    HW210488   0.462   6.980   5.262
 3197SOL     OW10489   1.140   4.105   4.158
 3197SOL    HW110490   1.053   4.116   4.109
 3197SOL    HW210491   1.170   4.194   4.194
 3198SOL     OW10492   6.750   0.874   6.959
 3198SOL    HW110493   6.833   0.896   7.010
 3198SOL    HW210494   6.705   0.795   7.000
 3199SOL     OW10495   3.684   2.053   2.916
 3199SOL    HW110496   3.715   2.030   2.824
 3199SOL    HW210497   3.689   1.972   2.974
 3200SOL     OW10498   6.580   2.260   1.057
 3200SOL    HW110499   6.652   2.192   1.045
 3200SOL    HW210500   6.621   2.351   1.064
 3201SOL     OW10501   4.645   4.253   3.173
 3201SOL    HW110502   4.707   4.220   3.245
 3201SOL    HW210503   4.576   4.312   3.212
 3202SOL     OW10504   2.120   5.723   1.534
 3202SOL    HW110505   2.026   5.700   1.557
 3202SOL    HW210506   2.152   5.663   1.460
 3203SOL     OW10507   6.437   0.116   1.867
 3203SOL    HW110508   6.517   0.165   1.903
 3203SOL    HW210509   6.411   0.044   1.932
 3204SOL     OW10510   6.198   5.837   1.654
 3204SOL    HW110511   6.137   5.872   1.725
 3204SOL    HW210512   6.170   5.871   1.565
 3205SOL     OW10513   1.379   3.904   2.883
 3205SOL    HW110514   1.393   4.002   2.902
 3205SOL    HW210515   1.440   3.850   2.941
 3206SOL     OW10516   1.558   6.704   0.545
 3206SOL    HW110517   1.565   6.605   0.531
 3206SOL    HW210518   1.461   6.730   0.550
 3207SOL     OW10519   1.035   0.718   3.808
 3207SOL    HW110520   0.996   0.791   3.865
 3207SOL    HW210521   0.981   0.709   3.724
 3208SOL     OW10522   6.295   0.437   5.395
 3208SOL    HW110523   6.216   0.489   5.361
 3208SOL    HW210524   6.371   0.499   5.412
 3209SOL     OW10525   2.836   0.281   2.925
 3209SOL    HW110526   2.798   0.229   2.848
 3209SOL    HW210527   2.854   0.218   3.001
 3210SOL     OW10528   6.723   4.766   3.337
 3210SOL    HW110529   6.684   4.673   3.339
 3210SOL    HW210530   6.727   4.802   3.430
 3211SOL     OW10531   1.055   4.595   2.287
 3211SOL    HW110532   0.983   4.641   2.339
 3211SOL    HW210533   1.073   4.506   2.327
 3212SOL     OW10534   5.029   2.803   5.526
 3212SOL    HW110535   5.069   2.834   5.612
 3212SOL    HW210536   4.930   2.796   5.536
 3213SOL     OW10537   5.451   5.978   1.747
 3213SOL    HW110538   5.409   5.949   1.832
 3213SOL    HW210539   5.381   6.000   1.680
 3214SOL     OW10540   3.874   4.447   6.059
 3214SOL    HW110541   3.852   4.402   5.973
 3214SOL    HW210542   3.800   4.511   6.083
 3215SOL     OW10543   5.950   1.627   0.280
 3215SOL    HW110544   6.006   1.550   0.310
 3215SOL    HW210545   5.950   1.698   0.350
 3216SOL     OW10546   5.919   6.814   4.617
 3216SOL    HW110547   5.963   6.900   4.643
 3216SOL    HW210548   5.924   6.749   4.693
 3217SOL     OW10549   6.625   4.200   0.435
 3217SOL    HW110550   6.536   4.171   0.401
 3217SOL    HW210551   6.648   4.148   0.517
 3218SOL     OW10552   3.228   0.915   2.068
 3218SOL    HW110553   3.165   0.965   2.128
 3218SOL    HW210554   3.246   0.970   1.986
 3219SOL     OW10555   0.152   6.694   3.794
 3219SOL    HW110556   0.090   6.628   3.751
 3219SOL    HW210557   0.213   6.645   3.857
 3220SOL     OW10558   6.129   2.912   5.264
 3220SOL    HW110559   6.132   2.915   5.364
 3220SOL    HW210560   6.073   2.988   5.231
 3221SOL     OW10561   4.096   0.057   2.143
 3221SOL    HW110562   4.177   0.022   2.190
 3221SOL    HW210563   4.077   0.150   2.174
 3222SOL     OW10564   6.272   3.193   2.738
 3222SOL    HW110565   6.262   3.209   2.836
 3222SOL    HW210566   6.182   3.181   2.696
 3223SOL     OW10567   2.365   4.807   4.334
 3223SOL    HW110568   2.424   4.736   4.373
 3223SOL    HW210569   2.388   4.819   4.237
 3224SOL     OW10570   3.801   5.807   1.083
 3224SOL    HW110571   3.767   5.743   1.152
 3224SOL    HW210572   3.782   5.900   1.112
 3225SOL     OW10573   2.352   2.618   1.065
 3225SOL    HW110574   2.418   2.565   1.011
 3225SOL    HW210575   2.261   2.580   1.052
 3226SOL     OW10576   0.059   0.880   4.372
 3226SOL    HW110577   0.127   0.922   4.432
 3226SOL    HW210578   0.099   0.865   4.282
 3227SOL     OW10579   2.181   1.580   5.106
 3227SOL    HW110580   2.189   1.539   5.015
 3227SOL    HW210581   2.223   1.519   5.173
 3228SOL     OW10582   5.018   3.148   4.913
 3228SOL    HW110583   4.985   3.103   4.996
 3228SOL    HW210584   5.082   3.088   4.865
 3229SOL     OW10585   3.734   2.095   5.021
 3229SOL    HW110586   3.820   2.130   5.061
 3229SOL    HW210587   3.740   2.098   4.922
 3230SOL     OW10588   1.925   0.273   3.914
 3230SOL    HW110589   1.833   0.286   3.951
 3230SOL    HW210590   1.981   0.353   3.934
 3231SOL     OW10591   5.250   5.482   0.613
 3231SOL    HW110592   5.302   5.412   0.564
 3231SOL    HW210593   5.207   5.443   0.693
 3232SOL     OW10594   2.306   4.164   3.191
 3232SOL    HW110595   2.346   4.249   3.156
 3232SOL    HW210596   2.291   4.172   3.289
 3233SOL     OW10597   1.660   4.052   0.969
 3233SOL    HW110598   1.573   4.017   1.004
 3233SOL    HW210599   1.728   3.978   0.968
 3234SOL     OW10600   6.354   1.676   4.822
 3234SOL    HW110601   6.402   1.681   4.735
 3234SOL    HW210602   6.413   1.711   4.895
 3235SOL     OW10603   5.791   0.903   2.792
 3235SOL    HW110604   5.697   0.871   2.782
 3235SOL    HW210605   5.818   0.896   2.888
 3236SOL     OW10606   0.640   2.405   2.158
 3236SOL    HW110607   0.580   2.346   2.105
 3236SOL    HW210608   0.668   2.357   2.241
 3237SOL     OW10609   3.390   6.423   4.401
 3237SOL    HW110610   3.376   6.517   4.371
 3237SOL    HW210611   3.486   6.410   4.428
 3238SOL     OW10612   5.879   6.666   6.325
 3238SOL    HW110613   5.971   6.659   6.365
 3238SOL    HW210614   5.851   6.576   6.291
 3239SOL     OW10615   0.075   6.396   5.775
 3239SOL    HW110616   0.019   6.395   5.692
 3239SOL    HW210617   0.170   6.417   5.751
 3240SOL     OW10618   0.338   1.518   4.772
 3240SOL    HW110619   0.357   1.444   4.837
 3240SOL    HW210620   0.398   1.508   4.693
 3241SOL     OW10621   4.884   0.723   5.412
 3241SOL    HW110622   4.896   0.625   5.396
 3241SOL    HW210623   4.844   0.766   5.332
 3242SOL     OW10624   3.048   6.490   0.667
 3242SOL    HW110625   3.107   6.446   0.599
 3242SOL    HW210626   3.104   6.519   0.745
 3243SOL     OW10627   3.470   4.979   0.292
 3243SOL    HW110628   3.451   4.992   0.195
 3243SOL    HW210629   3.451   4.883   0.317
 3244SOL     OW10630   1.914   6.189   5.422
 3244SOL    HW110631   1.952   6.105   5.462
 3244SOL    HW210632   1.893   6.254   5.495
 3245SOL     OW10633   2.559   2.344   5.771
 3245SOL    HW110634   2.543   2.420   5.835
 3245SOL    HW210635   2.627   2.282   5.809
 3246SOL     OW10636   5.335   6.495   3.486
 3246SOL    HW110637   5.413   6.437   3.463
 3246SOL    HW210638   5.367   6.575   3.536
 3247SOL     OW10639   6.502   1.731   5.060
 3247SOL    HW110640   6.467   1.792   5.132
 3247SOL    HW210641   6.526   1.643   5.100
 3248SOL     OW10642   5.242   3.816   2.502
 3248SOL    HW110643   5.326   3.840   2.551
 3248SOL    HW210644   5.206   3.897   2.456
 3249SOL     OW10645   3.047   4.271   5.259
 3249SOL    HW110646   2.973   4.212   5.291
 3249SOL    HW210647   3.009   4.351   5.214
 3250SOL     OW10648   4.654   5.993   1.364
 3250SOL    HW110649   4.584   5.928   1.395
 3250SOL    HW210650   4.708   6.023   1.443
 3251SOL     OW10651   3.885   1.186   3.736
 3251SOL    HW110652   3.919   1.118   3.672
 3251SOL    HW210653   3.790   1.166   3.759
 3252SOL     OW10654   3.178   2.128   3.719
 3252SOL    HW110655   3.089   2.127   3.673
 3252SOL    HW210656   3.169   2.085   3.809
 3253SOL     OW10657   4.337   3.749   0.933
 3253SOL    HW110658   4.403   3.694   0.985
 3253SOL    HW210659   4.244   3.722   0.959
 3254SOL     OW10660   4.812   4.766   2.665
 3254SOL    HW110661   4.820   4.848   2.608
 3254SOL    HW210662   4.842   4.686   2.613
 3255SOL     OW10663   4.166   4.738   1.393
 3255SOL    HW110664   4.188   4.823   1.344
 3255SOL    HW210665   4.245   4.711   1.449
 3256SOL     OW10666   5.779   6.684   5.813
 3256SOL    HW110667   5.823   6.733   5.738
 3256SOL    HW210668   5.681   6.701   5.811
 3257SOL     OW10669   2.287   1.890   0.837
 3257SOL    HW110670   2.360   1.833   0.874
 3257SOL    HW210671   2.203   1.836   0.828
 3258SOL     OW10672   5.389   0.164   1.356
 3258SOL    HW110673   5.409   0.078   1.403
 3258SOL    HW210674   5.398   0.240   1.421
 3259SOL     OW10675   6.139   6.415   3.275
 3259SOL    HW110676   6.151   6.323   3.312
 3259SOL    HW210677   6.071   6.465   3.329
 3260SOL     OW10678   1.522   3.294   0.310
 3260SOL    HW110679   1.574   3.269   0.391
 3260SOL    HW210680   1.428   3.260   0.319
 3261SOL     OW10681   4.478   0.047   3.560
 3261SOL    HW110682   4.529   0.054   3.646
 3261SOL    HW210683   4.381   0.067   3.576
 3262SOL     OW10684   4.086   1.288   4.799
 3262SOL    HW110685   4.052   1.362   4.857
 3262SOL    HW210686   4.084   1.317   4.704
 3263SOL     OW10687   3.367   5.490   2.703
 3263SOL    HW110688   3.315   5.432   2.765
 3263SOL    HW210689   3.463   5.461   2.703
 3264SOL     OW10690   4.759   4.526   5.588
 3264SOL    HW110691   4.717   4.442   5.622
 3264SOL    HW210692   4.858   4.513   5.580
 3265SOL     OW10693   5.565   0.586   6.883
 3265SOL    HW110694   5.621   0.596   6.965
 3265SOL    HW210695   5.621   0.600   6.802
 3266SOL     OW10696   0.284   2.241   6.723
 3266SOL    HW110697   0.285   2.167   6.790
 3266SOL    HW210698   0.194   2.284   6.722
 3267SOL     OW10699   4.945   2.338   1.307
 3267SOL    HW110700   5.020   2.366   1.248
 3267SOL    HW210701   4.981   2.311   1.396
 3268SOL     OW10702   1.425   4.935   6.504
 3268SOL    HW110703   1.466   4.847   6.484
 3268SOL    HW210704   1.398   4.938   6.601
 3269SOL     OW10705   4.656   3.549   0.929
 3269SOL    HW110706   4.724   3.598   0.983
 3269SOL    HW210707   4.578   3.526   0.987
 3270SOL     OW10708   0.749   5.435   4.358
 3270SOL    HW110709   0.727   5.388   4.444
 3270SOL    HW210710   0.740   5.370   4.282
 3271SOL     OW10711   5.031   1.027   1.911
 3271SOL    HW110712   5.130   1.042   1.909
 3271SOL    HW210713   5.010   0.937   1.873
 3272SOL     OW10714   4.764   0.094   6.958
 3272SOL    HW110715   4.796   0.139   0.014
 3272SOL    HW210716   4.727   0.162   6.895
 3273SOL     OW10717   1.197   0.337   3.284
 3273SOL    HW110718   1.098   0.336   3.295
 3273SOL    HW210719   1.234   0.424   3.317
 3274SOL     OW10720   3.057   2.388   6.843
 3274SOL    HW110721   3.081   2.356   6.935
 3274SOL    HW210722   2.959   2.409   6.839
 3275SOL     OW10723   4.285   0.670   0.648
 3275SOL    HW110724   4.189   0.652   0.668
 3275SOL    HW210725   4.294   0.709   0.556
 3276SOL     OW10726   1.961   6.315   0.354
 3276SOL    HW110727   1.997   6.224   0.333
 3276SOL    HW210728   1.864   6.308   0.375
 3277SOL     OW10729   0.036   5.953   5.645
 3277SOL    HW110730   0.006   6.024   5.709
 3277SOL    HW210731   0.128   5.976   5.612
 3278SOL     OW10732   1.055   1.271   0.473
 3278SOL    HW110733   1.112   1.344   0.511
 3278SOL    HW210734   1.088   1.248   0.381
 3279SOL     OW10735   2.302   5.927   1.464
 3279SOL    HW110736   2.227   5.872   1.500
 3279SOL    HW210737   2.386   5.874   1.465
 3280SOL     OW10738   2.830   5.700   4.911
 3280SOL    HW110739   2.763   5.627   4.916
 3280SOL    HW210740   2.860   5.712   4.816
 3281SOL     OW10741   2.084   6.210   0.643
 3281SOL    HW110742   2.064   6.114   0.660
 3281SOL    HW210743   2.171   6.218   0.594
 3282SOL     OW10744   2.114   5.972   2.569
 3282SOL    HW110745   2.129   5.875   2.591
 3282SOL    HW210746   2.135   5.988   2.473
 3283SOL     OW10747   1.863   0.017   4.139
 3283SOL    HW110748   1.919   0.046   4.217
 3283SOL    HW210749   1.916   6.981   4.082
 3284SOL     OW10750   1.147   4.549   5.988
 3284SOL    HW110751   1.214   4.604   6.038
 3284SOL    HW210752   1.184   4.523   5.899
 3285SOL     OW10753   0.311   2.251   4.862
 3285SOL    HW110754   0.381   2.227   4.795
 3285SOL    HW210755   0.305   2.179   4.931
 3286SOL     OW10756   4.229   4.953   5.874
 3286SOL    HW110757   4.226   4.995   5.964
 3286SOL    HW210758   4.320   4.964   5.834
 3287SOL     OW10759   0.132   4.129   1.749
 3287SOL    HW110760   0.096   4.111   1.657
 3287SOL    HW210761   0.072   4.089   1.817
 3288SOL     OW10762   1.477   6.531   6.206
 3288SOL    HW110763   1.443   6.452   6.256
 3288SOL    HW210764   1.488   6.608   6.269
 3289SOL     OW10765   1.262   5.402   4.653
 3289SOL    HW110766   1.286   5.478   4.593
 3289SOL    HW210767   1.216   5.330   4.600
 3290SOL     OW10768   0.025   4.373   3.307
 3290SOL    HW110769   0.121   4.353   3.286
 3290SOL    HW210770   7.005   4.400   3.223
 3291SOL     OW10771   1.768   0.017   1.488
 3291SOL    HW110772   1.686   0.039   1.435
 3291SOL    HW210773   1.783   6.946   1.486
 3292SOL     OW10774   0.575   5.534   4.905
 3292SOL    HW110775   0.581   5.571   4.812
 3292SOL    HW210776   0.558   5.436   4.901
 3293SOL     OW10777   6.258   0.602   2.238
 3293SOL    HW110778   6.350   0.625   2.269
 3293SOL    HW210779   6.236   0.656   2.157
 3294SOL     OW10780   0.674   0.076   0.699
 3294SOL    HW110781   0.592   0.059   0.753
 3294SOL    HW210782   0.752   0.092   0.761
 3295SOL     OW10783   1.485   2.088   6.366
 3295SOL    HW110784   1.419   2.101   6.292
 3295SOL    HW210785   1.576   2.113   6.334
 3296SOL     OW10786   0.807   6.614   2.261
 3296SOL    HW110787   0.720   6.584   2.221
 3296SOL    HW210788   0.848   6.538   2.311
 3297SOL     OW10789   2.725   1.612   6.071
 3297SOL    HW110790   2.681   1.632   6.159
 3297SOL    HW210791   2.721   1.693   6.012
 3298SOL     OW10792   6.328   4.045   2.760
 3298SOL    HW110793   6.324   3.974   2.830
 3298SOL    HW210794   6.418   4.089   2.762
 3299SOL     OW10795   1.216   0.926   5.204
 3299SOL    HW110796   1.292   0.861   5.204
 3299SOL    HW210797   1.142   0.891   5.260
 3300SOL     OW10798   0.293   0.311   4.626
 3300SOL    HW110799   0.230   0.317   4.704
 3300SOL    HW210800   0.283   0.221   4.583
 3301SOL     OW10801   0.554   3.553   2.564
 3301SOL    HW110802   0.464   3.509   2.563
 3301SOL    HW210803   0.619   3.497   2.511
 3302SOL     OW10804   1.064   5.751   5.177
 3302SOL    HW110805   1.119   5.798   5.108
 3302SOL    HW210806   1.046   5.812   5.254
 3303SOL     OW10807   3.087   3.633   3.567
 3303SOL    HW110808   3.078   3.562   3.637
 3303SOL    HW210809   3.014   3.623   3.500
 3304SOL     OW10810   2.062   0.840   3.457
 3304SOL    HW110811   2.083   0.743   3.465
 3304SOL    HW210812   2.104   0.877   3.373
 3305SOL     OW10813   0.637   2.291   0.809
 3305SOL    HW110814   0.588   2.247   0.885
 3305SOL    HW210815   0.605   2.386   0.800
 3306SOL     OW10816   1.052   3.506   1.963
 3306SOL    HW110817   1.104   3.441   1.908
 3306SOL    HW210818   0.976   3.458   2.007
 3307SOL     OW10819   0.642   6.041   1.067
 3307SOL    HW110820   0.628   6.007   0.975
 3307SOL    HW210821   0.734   6.018   1.098
 3308SOL     OW10822   5.933   6.588   0.458
 3308SOL    HW110823   5.856   6.617   0.401
 3308SOL    HW210824   5.998   6.664   0.466
 3309SOL     OW10825   1.706   5.355   1.893
 3309SOL    HW110826   1.720   5.281   1.960
 3309SOL    HW210827   1.660   5.319   1.812
 3310SOL     OW10828   1.466   6.622   2.127
 3310SOL    HW110829   1.529   6.657   2.058
 3310SOL    HW210830   1.518   6.576   2.199
 3311SOL     OW10831   4.091   6.501   0.920
 3311SOL    HW110832   4.021   6.467   0.857
 3311SOL    HW210833   4.071   6.595   0.945
 3312SOL     OW10834   2.088   3.223   6.827
 3312SOL    HW110835   2.180   3.263   6.830
 3312SOL    HW210836   2.089   3.134   6.873
 3313SOL     OW10837   6.427   6.513   5.128
 3313SOL    HW110838   6.462   6.528   5.035
 3313SOL    HW210839   6.437   6.417   5.152
 3314SOL     OW10840   0.139   3.624   6.862
 3314SOL    HW110841   0.114   3.663   6.950
 3314SOL    HW210842   0.162   3.698   6.798
 3315SOL     OW10843   6.393   3.843   3.277
 3315SOL    HW110844   6.370   3.921   3.336
 3315SOL    HW210845   6.492   3.840   3.264
 3316SOL     OW10846   4.363   1.783   0.392
 3316SOL    HW110847   4.323   1.705   0.343
 3316SOL    HW210848   4.423   1.748   0.464
 3317SOL     OW10849   3.993   2.882   1.792
 3317SOL    HW110850   4.061   2.955   1.797
 3317SOL    HW210851   4.033   2.802   1.747
 3318SOL     OW10852   2.363   5.249   4.725
 3318SOL    HW110853   2.344   5.176   4.792
 3318SOL    HW210854   2.449   5.293   4.748
 3319SOL     OW10855   6.925   6.183   6.614
 3319SOL    HW110856   6.904   6.209   6.708
 3319SOL    HW210857   6.844   6.200   6.557
 3320SOL     OW10858   0.653   1.020   6.834
 3320SOL    HW110859   0.601   0.934   6.832
 3320SOL    HW210860   0.661   1.056   6.741
 3321SOL     OW10861   3.979   3.801   4.196
 3321SOL    HW110862   3.957   3.852   4.279
 3321SOL    HW210863   3.984   3.864   4.118
 3322SOL     OW10864   4.313   2.925   1.273
 3322SOL    HW110865   4.324   2.989   1.197
 3322SOL    HW210866   4.298   2.832   1.237
 3323SOL     OW10867   2.932   4.744   6.951
 3323SOL    HW110868   2.858   4.811   6.957
 3323SOL    HW210869   2.897   4.660   6.909
 3324SOL     OW10870   6.086   2.971   1.769
 3324SOL    HW110871   6.029   3.027   1.828
 3324SOL    HW210872   6.183   2.985   1.791
 3325SOL     OW10873   1.073   3.716   6.359
 3325SOL    HW110874   1.004   3.788   6.349
 3325SOL    HW210875   1.164   3.754   6.345
 3326SOL     OW10876   6.909   0.738   1.436
 3326SOL    HW110877   6.914   0.640   1.418
 3326SOL    HW210878   6.838   0.756   1.504
 3327SOL     OW10879   4.157   6.217   1.464
 3327SOL    HW110880   4.241   6.264   1.491
 3327SOL    HW210881   4.084   6.237   1.529
 3328SOL     OW10882   5.523   0.103   4.109
 3328SOL    HW110883   5.467   0.056   4.041
 3328SOL    HW210884   5.563   0.037   4.172
 3329SOL     OW10885   5.309   0.923   6.746
 3329SOL    HW110886   5.386   0.868   6.713
 3329SOL    HW210887   5.276   0.886   6.832
 3330SOL     OW10888   0.280   6.556   3.309
 3330SOL    HW110889   0.298   6.500   3.228
 3330SOL    HW210890   0.264   6.650   3.281
 3331SOL     OW10891   1.370   3.583   2.889
 3331SOL    HW110892   1.450   3.641   2.879
 3331SOL    HW210893   1.377   3.505   2.827
 3332SOL     OW10894   2.992   5.196   6.982
 3332SOL    HW110895   3.008   5.208   0.053
 3332SOL    HW210896   2.925   5.264   6.950
 3333SOL     OW10897   2.338   3.185   1.730
 3333SOL    HW110898   2.366   3.269   1.778
 3333SOL    HW210899   2.241   3.191   1.707
 3334SOL     OW10900   1.881   2.173   2.206
 3334SOL    HW110901   1.879   2.124   2.293
 3334SOL    HW210902   1.795   2.222   2.194
 3335SOL     OW10903   3.819   4.232   5.154
 3335SOL    HW110904   3.747   4.302   5.160
 3335SOL    HW210905   3.776   4.142   5.142
 3336SOL     OW10906   4.721   5.907   5.182
 3336SOL    HW110907   4.701   5.905   5.084
 3336SOL    HW210908   4.819   5.926   5.196
 3337SOL     OW10909   3.874   2.967   3.080
 3337SOL    HW110910   3.839   3.001   2.992
 3337SOL    HW210911   3.802   2.914   3.126
 3338SOL     OW10912   2.565   3.318   1.185
 3338SOL    HW110913   2.638   3.251   1.204
 3338SOL    HW210914   2.499   3.318   1.260
 3339SOL     OW10915   1.456   0.160   6.845
 3339SOL    HW110916   1.494   0.248   6.871
 3339SOL    HW210917   1.470   0.145   6.747
 3340SOL     OW10918   3.660   0.961   5.780
 3340SOL    HW110919   3.755   0.936   5.761
 3340SOL    HW210920   3.656   1.029   5.853
 3341SOL     OW10921   1.200   4.569   2.024
 3341SOL    HW110922   1.297   4.549   2.035
 3341SOL    HW210923   1.158   4.584   2.113
 3342SOL     OW10924   6.439   0.888   2.419
 3342SOL    HW110925   6.536   0.899   2.437
 3342SOL    HW210926   6.415   0.936   2.335
 3343SOL     OW10927   3.871   5.526   0.470
 3343SOL    HW110928   3.807   5.602   0.465
 3343SOL    HW210929   3.943   5.538   0.402
 3344SOL     OW10930   1.004   3.368   1.512
 3344SOL    HW110931   1.071   3.365   1.438
 3344SOL    HW210932   1.011   3.284   1.567
 3345SOL     OW10933   5.879   5.388   1.248
 3345SOL    HW110934   5.892   5.363   1.152
 3345SOL    HW210935   5.783   5.409   1.264
 3346SOL     OW10936   1.223   0.579   0.139
 3346SOL    HW110937   1.195   0.674   0.127
 3346SOL    HW210938   1.319   0.569   0.112
 3347SOL     OW10939   0.796   3.891   5.751
 3347SOL    HW110940   0.776   3.819   5.685
 3347SOL    HW210941   0.866   3.951   5.713
 3348SOL     OW10942   3.514   4.280   6.016
 3348SOL    HW110943   3.557   4.251   6.102
 3348SOL    HW210944   3.452   4.357   6.034
 3349SOL     OW10945   2.218   5.486   2.344
 3349SOL    HW110946   2.250   5.559   2.403
 3349SOL    HW210947   2.195   5.523   2.254
 3350SOL     OW10948   1.517   5.088   4.171
 3350SOL    HW110949   1.463   5.151   4.227
 3350SOL    HW210950   1.456   5.037   4.110
 3351SOL     OW10951   5.631   0.863   1.820
 3351SOL    HW110952   5.702   0.838   1.754
 3351SOL    HW210953   5.674   0.892   1.906
 3352SOL     OW10954   5.522   1.585   6.810
 3352SOL    HW110955   5.474   1.599   6.896
 3352SOL    HW210956   5.470   1.627   6.736
 3353SOL     OW10957   3.959   0.388   0.095
 3353SOL    HW110958   3.871   0.397   0.049
 3353SOL    HW210959   3.965   0.299   0.139
 3354SOL     OW10960   2.967   3.985   6.953
 3354SOL    HW110961   2.916   4.028   0.001
 3354SOL    HW210962   2.930   3.893   6.937
 3355SOL     OW10963   1.174   0.175   4.708
 3355SOL    HW110964   1.085   0.131   4.724
 3355SOL    HW210965   1.162   0.254   4.648
 3356SOL     OW10966   1.991   0.867   6.761
 3356SOL    HW110967   2.088   0.846   6.770
 3356SOL    HW210968   1.968   0.875   6.664
 3357SOL     OW10969   3.478   3.064   3.050
 3357SOL    HW110970   3.438   3.083   3.140
 3357SOL    HW210971   3.515   3.148   3.011
 3358SOL     OW10972   0.388   1.012   2.070
 3358SOL    HW110973   0.291   1.026   2.050
 3358SOL    HW210974   0.432   0.964   1.994
 3359SOL     OW10975   1.071   6.505   4.850
 3359SOL    HW110976   1.045   6.596   4.819
 3359SOL    HW210977   1.094   6.447   4.771
 3360SOL     OW10978   1.883   4.866   4.008
 3360SOL    HW110979   1.896   4.775   3.970
 3360SOL    HW210980   1.970   4.897   4.048
 3361SOL     OW10981   6.516   6.592   5.381
 3361SOL    HW110982   6.512   6.578   5.282
 3361SOL    HW210983   6.423   6.608   5.415
 3362SOL     OW10984   3.787   0.341   3.854
 3362SOL    HW110985   3.863   0.370   3.797
 3362SOL    HW210986   3.802   0.372   3.948
 3363SOL     OW10987   5.747   4.278   0.074
 3363SOL    HW110988   5.730   4.326   7.015
 3363SOL    HW210989   5.673   4.298   0.138
 3364SOL     OW10990   1.602   3.316   1.950
 3364SOL    HW110991   1.597   3.414   1.966
 3364SOL    HW210992   1.673   3.276   2.008
 3365SOL     OW10993   0.927   3.516   2.501
 3365SOL    HW110994   0.934   3.605   2.544
 3365SOL    HW210995   0.882   3.525   2.412
 3366SOL     OW10996   5.914   3.354   4.735
 3366SOL    HW110997   5.969   3.271   4.747
 3366SOL    HW210998   5.973   3.428   4.701
 3367SOL     OW10999   3.554   2.831   3.780
 3367SOL    HW111000   3.558   2.731   3.771
 3367SOL    HW211001   3.462   2.859   3.806
 3368SOL     OW11002   2.922   0.903   3.053
 3368SOL    HW111003   2.965   0.952   3.129
 3368SOL    HW211004   2.828   0.937   3.041
 3369SOL     OW11005   4.837   2.520   0.697
 3369SOL    HW111006   4.866   2.531   0.792
 3369SOL    HW211007   4.860   2.427   0.666
 3370SOL     OW11008   0.428   5.304   2.797
 3370SOL    HW111009   0.476   5.297   2.884
 3370SOL    HW211010   0.387   5.216   2.774
 3371SOL     OW11011   2.186   2.782   1.498
 3371SOL    HW111012   2.278   2.744   1.493
 3371SOL    HW211013   2.122   2.721   1.451
 3372SOL     OW11014   5.822   3.557   3.127
 3372SOL    HW111015   5.739   3.599   3.091
 3372SOL    HW211016   5.799   3.495   3.202
 3373SOL     OW11017   0.209   3.786   1.622
 3373SOL    HW111018   0.155   3.864   1.591
 3373SOL    HW211019   0.165   3.745   1.702
 3374SOL     OW11020   0.694   6.211   4.073
 3374SOL    HW111021   0.712   6.113   4.063
 3374SOL    HW211022   0.708   6.256   3.985
 3375SOL     OW11023   0.527   5.793   6.317
 3375SOL    HW111024   0.578   5.875   6.344
 3375SOL    HW211025   0.546   5.719   6.381
 3376SOL     OW11026   3.169   3.007   4.796
 3376SOL    HW111027   3.200   3.005   4.891
 3376SOL    HW211028   3.157   2.914   4.763
 3377SOL     OW11029   0.007   5.235   4.514
 3377SOL    HW111030   0.103   5.262   4.526
 3377SOL    HW211031   7.012   5.163   4.580
 3378SOL     OW11032   1.500   5.942   0.922
 3378SOL    HW111033   1.495   5.954   0.822
 3378SOL    HW211034   1.519   5.847   0.943
 3379SOL     OW11035   6.199   3.971   4.377
 3379SOL    HW111036   6.271   3.935   4.436
 3379SOL    HW211037   6.240   4.017   4.298
 3380SOL     OW11038   2.603   4.938   0.998
 3380SOL    HW111039   2.508   4.955   0.972
 3380SOL    HW211040   2.617   4.840   1.012
 3381SOL     OW11041   2.616   3.893   6.158
 3381SOL    HW111042   2.692   3.905   6.094
 3381SOL    HW211043   2.563   3.979   6.163
 3382SOL     OW11044   6.388   4.194   6.929
 3382SOL    HW111045   6.411   4.249   7.009
 3382SOL    HW211046   6.313   4.132   6.951
 3383SOL     OW11047   3.766   5.271   0.472
 3383SOL    HW111048   3.798   5.366   0.473
 3383SOL    HW211049   3.709   5.256   0.391
 3384SOL     OW11050   2.516   3.140   6.459
 3384SOL    HW111051   2.463   3.062   6.425
 3384SOL    HW211052   2.499   3.219   6.400
 3385SOL     OW11053   6.026   2.468   4.238
 3385SOL    HW111054   6.118   2.431   4.224
 3385SOL    HW211055   6.022   2.516   4.326
 3386SOL     OW11056   0.277   6.058   4.384
 3386SOL    HW111057   0.228   5.979   4.346
 3386SOL    HW211058   0.282   6.130   4.315
 3387SOL     OW11059   6.270   1.038   3.113
 3387SOL    HW111060   6.270   1.084   3.025
 3387SOL    HW211061   6.178   1.040   3.152
 3388SOL     OW11062   6.694   3.888   0.937
 3388SOL    HW111063   6.668   3.855   0.847
 3388SOL    HW211064   6.621   3.945   0.975
 3389SOL     OW11065   5.827   5.466   6.371
 3389SOL    HW111066   5.876   5.400   6.314
 3389SOL    HW211067   5.739   5.427   6.399
 3390SOL     OW11068   2.798   5.705   0.289
 3390SOL    HW111069   2.884   5.655   0.286
 3390SOL    HW211070   2.815   5.800   0.315
 3391SOL     OW11071   4.823   4.018   4.786
 3391SOL    HW111072   4.838   3.925   4.753
 3391SOL    HW211073   4.795   4.077   4.710
 3392SOL     OW11074   4.390   6.361   6.334
 3392SOL    HW111075   4.445   6.394   6.411
 3392SOL    HW211076   4.313   6.307   6.369
 3393SOL     OW11077   4.108   6.061   0.734
 3393SOL    HW111078   4.082   6.078   0.639
 3393SOL    HW211079   4.208   6.061   0.741
 3394SOL     OW11080   3.463   5.136   1.578
 3394SOL    HW111081   3.434   5.089   1.495
 3394SOL    HW211082   3.395   5.205   1.603
 3395SOL     OW11083   2.050   6.535   3.054
 3395SOL    HW111084   1.969   6.590   3.036
 3395SOL    HW211085   2.034   6.478   3.135
 3396SOL     OW11086   4.590   0.159   3.792
 3396SOL    HW111087   4.686   0.134   3.776
 3396SOL    HW211088   4.578   0.184   3.889
 3397SOL     OW11089   2.216   5.671   0.261
 3397SOL    HW111090   2.213   5.753   0.204
 3397SOL    HW211091   2.148   5.606   0.230
 3398SOL     OW11092   6.841   1.431   5.945
 3398SOL    HW111093   6.766   1.436   6.011
 3398SOL    HW211094   6.928   1.419   5.994
 3399SOL     OW11095   6.596   5.643   2.170
 3399SOL    HW111096   6.664   5.711   2.142
 3399SOL    HW211097   6.510   5.661   2.123
 3400SOL     OW11098   3.895   3.038   5.308
 3400SOL    HW111099   3.828   3.039   5.381
 3400SOL    HW211100   3.872   2.966   5.242
 3401SOL     OW11101   0.335   3.640   4.122
 3401SOL    HW111102   0.339   3.736   4.094
 3401SOL    HW211103   0.300   3.585   4.047
 3402SOL     OW11104   6.033   3.556   0.634
 3402SOL    HW111105   5.984   3.482   0.680
 3402SOL    HW211106   6.088   3.519   0.560
 3403SOL     OW11107   4.900   6.549   6.743
 3403SOL    HW111108   4.921   6.517   6.836
 3403SOL    HW211109   4.822   6.610   6.746
 3404SOL     OW11110   5.111   5.451   3.350
 3404SOL    HW111111   5.024   5.464   3.398
 3404SOL    HW211112   5.166   5.534   3.359
 3405SOL     OW11113   4.025   6.012   0.192
 3405SOL    HW111114   4.042   6.093   0.249
 3405SOL    HW211115   4.110   5.960   0.182
 3406SOL     OW11116   3.354   5.584   1.504
 3406SOL    HW111117   3.352   5.617   1.409
 3406SOL    HW211118   3.270   5.534   1.524
 3407SOL     OW11119   0.933   3.700   6.976
 3407SOL    HW111120   0.928   3.764   6.899
 3407SOL    HW211121   1.027   3.667   6.985
 3408SOL     OW11122   4.586   0.015   3.302
 3408SOL    HW111123   4.529   6.970   3.264
 3408SOL    HW211124   4.558   0.033   3.396
 3409SOL     OW11125   3.984   1.565   6.705
 3409SOL    HW111126   4.006   1.616   6.623
 3409SOL    HW211127   3.977   1.467   6.684
 3410SOL     OW11128   6.459   0.590   2.768
 3410SOL    HW111129   6.398   0.635   2.703
 3410SOL    HW211130   6.421   0.597   2.860
 3411SOL     OW11131   6.075   3.011   5.919
 3411SOL    HW111132   5.978   3.018   5.896
 3411SOL    HW211133   6.129   3.011   5.835
 3412SOL     OW11134   5.550   3.071   2.641
 3412SOL    HW111135   5.576   3.142   2.707
 3412SOL    HW211136   5.615   2.995   2.646
 3413SOL     OW11137   6.999   2.008   0.603
 3413SOL    HW111138   7.014   2.057   0.517
 3413SOL    HW211139   0.043   1.939   0.615
 3414SOL     OW11140   3.755   3.411   2.148
 3414SOL    HW111141   3.793   3.503   2.133
 3414SOL    HW211142   3.782   3.351   2.073
 3415SOL     OW11143   2.408   1.661   5.790
 3415SOL    HW111144   2.383   1.732   5.856
 3415SOL    HW211145   2.464   1.701   5.718
 3416SOL     OW11146   6.277   6.882   6.286
 3416SOL    HW111147   6.216   6.956   6.314
 3416SOL    HW211148   6.364   6.920   6.257
 3417SOL     OW11149   6.108   0.330   2.586
 3417SOL    HW111150   6.193   0.294   2.547
 3417SOL    HW211151   6.031   0.273   2.556
 3418SOL     OW11152   3.891   5.328   0.853
 3418SOL    HW111153   3.901   5.397   0.925
 3418SOL    HW211154   3.967   5.337   0.788
 3419SOL     OW11155   2.586   4.621   4.930
 3419SOL    HW111156   2.674   4.629   4.977
 3419SOL    HW211157   2.520   4.576   4.990
 3420SOL     OW11158   4.536   1.248   2.427
 3420SOL    HW111159   4.534   1.190   2.345
 3420SOL    HW211160   4.587   1.332   2.406
 3421SOL     OW11161   0.041   2.074   5.190
 3421SOL    HW111162   0.121   2.045   5.139
 3421SOL    HW211163   7.026   1.994   5.235
 3422SOL     OW11164   3.393   6.544   1.403
 3422SOL    HW111165   3.304   6.541   1.449
 3422SOL    HW211166   3.466   6.547   1.471
 3423SOL     OW11167   2.568   4.208   5.615
 3423SOL    HW111168   2.545   4.156   5.697
 3423SOL    HW211169   2.543   4.156   5.534
 3424SOL     OW11170   5.140   1.124   2.292
 3424SOL    HW111171   5.136   1.127   2.391
 3424SOL    HW211172   5.051   1.098   2.255
 3425SOL     OW11173   6.525   3.195   6.187
 3425SOL    HW111174   6.477   3.214   6.101
 3425SOL    HW211175   6.542   3.281   6.235
 3426SOL     OW11176   6.016   4.336   0.039
 3426SOL    HW111177   6.019   4.436   0.035
 3426SOL    HW211178   5.924   4.307   0.065
 3427SOL     OW11179   1.823   1.891   6.433
 3427SOL    HW111180   1.804   1.903   6.531
 3427SOL    HW211181   1.922   1.882   6.419
 3428SOL     OW11182   5.390   0.260   4.992
 3428SOL    HW111183   5.305   0.280   4.944
 3428SOL    HW211184   5.466   0.259   4.927
 3429SOL     OW11185   4.241   0.235   0.779
 3429SOL    HW111186   4.300   0.154   0.775
 3429SOL    HW211187   4.151   0.213   0.741
 3430SOL     OW11188   2.501   4.149   6.151
 3430SOL    HW111189   2.520   4.237   6.193
 3430SOL    HW211190   2.403   4.139   6.135
 3431SOL     OW11191   0.846   4.338   2.614
 3431SOL    HW111192   0.893   4.252   2.631
 3431SOL    HW211193   0.820   4.380   2.701
 3432SOL     OW11194   0.658   4.711   0.123
 3432SOL    HW111195   0.698   4.628   0.162
 3432SOL    HW211196   0.710   4.791   0.153
 3433SOL     OW11197   1.174   0.893   0.107
 3433SOL    HW111198   1.104   0.958   0.079
 3433SOL    HW211199   1.256   0.905   0.050
 3434SOL     OW11200   3.505   2.488   1.734
 3434SOL    HW111201   3.458   2.460   1.651
 3434SOL    HW211202   3.559   2.412   1.770
 3435SOL     OW11203   1.605   2.333   1.004
 3435SOL    HW111204   1.671   2.336   1.078
 3435SOL    HW211205   1.566   2.241   0.998
 3436SOL     OW11206   3.715   6.492   6.296
 3436SOL    HW111207   3.800   6.508   6.246
 3436SOL    HW211208   3.638   6.522   6.240
 3437SOL     OW11209   1.269   6.659   6.982
 3437SOL    HW111210   1.181   6.653   6.935
 3437SOL    HW211211   1.260   6.622   0.048
 3438SOL     OW11212   2.528   3.843   0.876
 3438SOL    HW111213   2.509   3.755   0.831
 3438SOL    HW211214   2.575   3.904   0.811
 3439SOL     OW11215   3.106   6.397   0.414
 3439SOL    HW111216   3.168   6.420   0.340
 3439SOL    HW211217   3.106   6.298   0.428
 3440SOL     OW11218   3.697   3.539   5.531
 3440SOL    HW111219   3.627   3.548   5.601
 3440SOL    HW211220   3.739   3.449   5.538
 3441SOL     OW11221   7.027   5.019   4.683
 3441SOL    HW111222   6.948   5.064   4.725
 3441SOL    HW211223   0.036   4.950   4.745
 3442SOL     OW11224   1.331   2.890   1.057
 3442SOL    HW111225   1.372   2.801   1.077
 3442SOL    HW211226   1.402   2.960   1.057
 3443SOL     OW11227   0.561   5.693   2.259
 3443SOL    HW111228   0.648   5.728   2.292
 3443SOL    HW211229   0.487   5.724   2.319
 3444SOL     OW11230   6.909   3.656   6.176
 3444SOL    HW111231   6.906   3.638   6.275
 3444SOL    HW211232   6.983   3.602   6.135
 3445SOL     OW11233   6.151   4.724   4.769
 3445SOL    HW111234   6.224   4.793   4.763
 3445SOL    HW211235   6.184   4.646   4.821
 3446SOL     OW11236   4.549   1.640   0.552
 3446SOL    HW111237   4.557   1.684   0.642
 3446SOL    HW211238   4.567   1.542   0.562
 3447SOL     OW11239   5.596   0.843   6.629
 3447SOL    HW111240   5.581   0.806   6.537
 3447SOL    HW211241   5.671   0.793   6.673
 3448SOL     OW11242   0.753   4.601   5.498
 3448SOL    HW111243   0.817   4.610   5.422
 3448SOL    HW211244   0.680   4.538   5.473
 3449SOL     OW11245   0.512   3.964   5.434
 3449SOL    HW111246   0.533   3.869   5.410
 3449SOL    HW211247   0.562   3.989   5.517
 3450SOL     OW11248   2.924   6.780   2.189
 3450SOL    HW111249   2.853   6.802   2.121
 3450SOL    HW211250   2.880   6.756   2.276
 3451SOL     OW11251   2.048   2.493   1.024
 3451SOL    HW111252   1.985   2.452   0.959
 3451SOL    HW211253   2.025   2.589   1.037
 3452SOL     OW11254   4.772   1.412   5.787
 3452SOL    HW111255   4.789   1.501   5.831
 3452SOL    HW211256   4.689   1.372   5.824
 3453SOL     OW11257   4.296   6.615   6.387
 3453SOL    HW111258   4.372   6.579   6.333
 3453SOL    HW211259   4.229   6.542   6.403
 3454SOL     OW11260   0.601   3.336   2.243
 3454SOL    HW111261   0.691   3.295   2.252
 3454SOL    HW211262   0.534   3.283   2.295
 3455SOL     OW11263   0.387   3.590   6.455
 3455SOL    HW111264   0.437   3.558   6.535
 3455SOL    HW211265   0.293   3.612   6.481
 3456SOL     OW11266   4.879   5.434   3.750
 3456SOL    HW111267   4.881   5.361   3.819
 3456SOL    HW211268   4.824   5.510   3.784
 3457SOL     OW11269   4.331   4.676   0.083
 3457SOL    HW111270   4.316   4.608   0.155
 3457SOL    HW211271   4.247   4.729   0.069
 3458SOL     OW11272   4.053   1.642   1.758
 3458SOL    HW111273   4.123   1.707   1.726
 3458SOL    HW211274   3.972   1.692   1.788
 3459SOL     OW11275   5.700   6.100   2.110
 3459SOL    HW111276   5.640   6.164   2.061
 3459SOL    HW211277   5.708   6.015   2.058
 3460SOL     OW11278   3.899   1.887   5.219
 3460SOL    HW111279   3.858   1.813   5.272
 3460SOL    HW211280   3.847   1.902   5.135
 3461SOL     OW11281   4.796   5.264   3.946
 3461SOL    HW111282   4.862   5.219   4.006
 3461SOL    HW211283   4.744   5.195   3.896
 3462SOL     OW11284   0.817   4.207   6.377
 3462SOL    HW111285   0.832   4.161   6.464
 3462SOL    HW211286   0.718   4.216   6.361
 3463SOL     OW11287   5.509   3.608   0.231
 3463SOL    HW111288   5.541   3.702   0.233
 3463SOL    HW211289   5.566   3.555   0.169
 3464SOL     OW11290   0.268   4.453   3.858
 3464SOL    HW111291   0.249   4.544   3.897
 3464SOL    HW211292   0.330   4.462   3.781
 3465SOL     OW11293   0.747   2.315   2.395
 3465SOL    HW111294   0.833   2.338   2.439
 3465SOL    HW211295   0.715   2.226   2.429
 3466SOL     OW11296   6.925   3.552   4.232
 3466SOL    HW111297   6.956   3.627   4.290
 3466SOL    HW211298   7.004   3.501   4.199
 3467SOL     OW11299   1.578   2.721   5.740
 3467SOL    HW111300   1.582   2.621   5.742
 3467SOL    HW211301   1.666   2.757   5.709
 3468SOL     OW11302   5.082   6.509   1.952
 3468SOL    HW111303   5.003   6.453   1.927
 3468SOL    HW211304   5.122   6.549   1.870
 3469SOL     OW11305   5.555   4.122   0.695
 3469SOL    HW111306   5.614   4.048   0.662
 3469SOL    HW211307   5.478   4.082   0.745
 3470SOL     OW11308   6.508   4.937   1.174
 3470SOL    HW111309   6.428   4.900   1.127
 3470SOL    HW211310   6.479   4.984   1.257
 3471SOL     OW11311   3.830   7.002   4.513
 3471SOL    HW111312   3.930   6.999   4.507
 3471SOL    HW211313   3.800   0.067   4.536
 3472SOL     OW11314   4.174   0.885   5.058
 3472SOL    HW111315   4.179   0.981   5.085
 3472SOL    HW211316   4.243   0.867   4.988
 3473SOL     OW11317   4.084   0.020   3.799
 3473SOL    HW111318   4.086   0.073   3.883
 3473SOL    HW211319   4.096   0.080   3.720
 3474SOL     OW11320   4.850   4.545   0.778
 3474SOL    HW111321   4.770   4.491   0.804
 3474SOL    HW211322   4.929   4.486   0.768
 3475SOL     OW11323   1.866   5.988   4.893
 3475SOL    HW111324   1.887   6.002   4.796
 3475SOL    HW211325   1.774   5.950   4.902
 3476SOL     OW11326   4.302   1.562   5.023
 3476SOL    HW111327   4.229   1.567   4.954
 3476SOL    HW211328   4.280   1.624   5.099
 3477SOL     OW11329   4.634   5.424   1.740
 3477SOL    HW111330   4.634   5.522   1.759
 3477SOL    HW211331   4.707   5.403   1.675
 3478SOL     OW11332   4.093   4.261   0.240
 3478SOL    HW111333   4.169   4.198   0.260
 3478SOL    HW211334   4.059   4.244   0.147
 3479SOL     OW11335   1.290   0.250   0.786
 3479SOL    HW111336   1.349   0.189   0.734
 3479SOL    HW211337   1.224   0.197   0.839
 3480SOL     OW11338   1.419   6.929   3.921
 3480SOL    HW111339   1.421   6.837   3.962
 3480SOL    HW211340   1.512   6.958   3.899
 3481SOL     OW11341   1.619   6.246   6.886
 3481SOL    HW111342   1.578   6.206   6.804
 3481SOL    HW211343   1.582   6.338   6.901
 3482SOL     OW11344   0.703   2.017   2.155
 3482SOL    HW111345   0.611   2.057   2.160
 3482SOL    HW211346   0.722   1.968   2.240
 3483SOL     OW11347   3.635   1.686   0.439
 3483SOL    HW111348   3.567   1.683   0.366
 3483SOL    HW211349   3.620   1.608   0.501
 3484SOL     OW11350   3.952   3.610   3.782
 3484SOL    HW111351   4.002   3.526   3.808
 3484SOL    HW211352   3.854   3.591   3.780
 3485SOL     OW11353   5.993   1.786   5.329
 3485SOL    HW111354   5.934   1.857   5.290
 3485SOL    HW211355   6.085   1.822   5.341
 3486SOL     OW11356   5.155   0.607   2.596
 3486SOL    HW111357   5.202   0.646   2.675
 3486SOL    HW211358   5.201   0.636   2.512
 3487SOL     OW11359   0.713   0.787   0.917
 3487SOL    HW111360   0.774   0.758   0.844
 3487SOL    HW211361   0.662   0.867   0.888
 3488SOL     OW11362   6.670   3.475   4.383
 3488SOL    HW111363   6.748   3.448   4.327
 3488SOL    HW211364   6.694   3.467   4.480
 3489SOL     OW11365   2.379   5.118   7.020
 3489SOL    HW111366   2.342   5.030   0.024
 3489SOL    HW211367   2.446   5.152   0.059
 3490SOL     OW11368   4.123   3.227   1.150
 3490SOL    HW111369   4.024   3.212   1.146
 3490SOL    HW211370   4.167   3.180   1.073
 3491SOL     OW11371   6.664   3.412   5.739
 3491SOL    HW111372   6.734   3.410   5.668
 3491SOL    HW211373   6.708   3.427   5.828
 3492SOL     OW11374   6.063   4.671   6.816
 3492SOL    HW111375   6.109   4.584   6.797
 3492SOL    HW211376   6.127   4.746   6.802
 3493SOL     OW11377   0.030   4.830   1.909
 3493SOL    HW111378   6.990   4.904   1.913
 3493SOL    HW211379   7.011   4.743   1.927
 3494SOL     OW11380   2.666   6.716   0.978
 3494SOL    HW111381   2.755   6.721   0.931
 3494SOL    HW211382   2.635   6.808   1.000
 3495SOL     OW11383   5.519   4.014   6.898
 3495SOL    HW111384   5.469   3.942   6.850
 3495SOL    HW211385   5.607   3.978   6.929
 3496SOL     OW11386   0.509   4.776   0.865
 3496SOL    HW111387   0.502   4.676   0.857
 3496SOL    HW211388   0.605   4.802   0.867
 3497SOL     OW11389   4.103   6.943   4.477
 3497SOL    HW111390   4.137   6.855   4.445
 3497SOL    HW211391   4.180   6.999   4.508
 3498SOL     OW11392   1.083   1.864   0.526
 3498SOL    HW111393   1.120   1.941   0.579
 3498SOL    HW211394   1.030   1.805   0.587
 3499SOL     OW11395   0.386   4.230   4.582
 3499SOL    HW111396   0.350   4.248   4.674
 3499SOL    HW211397   0.330   4.159   4.538
 3500SOL     OW11398   6.177   3.384   0.469
 3500SOL    HW111399   6.089   3.346   0.441
 3500SOL    HW211400   6.220   3.428   0.390
 3501SOL     OW11401   0.859   4.151   3.163
 3501SOL    HW111402   0.953   4.180   3.182
 3501SOL    HW211403   0.859   4.058   3.126
 3502SOL     OW11404   0.588   4.927   1.737
 3502SOL    HW111405   0.513   4.974   1.784
 3502SOL    HW211406   0.608   4.841   1.784
 3503SOL     OW11407   3.533   0.226   3.618
 3503SOL    HW111408   3.541   0.283   3.700
 3503SOL    HW211409   3.484   0.277   3.547
 3504SOL     OW11410   2.357   2.614   3.223
 3504SOL    HW111411   2.348   2.531   3.168
 3504SOL    HW211412   2.453   2.644   3.222
 3505SOL     OW11413   4.541   6.647   4.811
 3505SOL    HW111414   4.527   6.607   4.721
 3505SOL    HW211415   4.486   6.730   4.820
 3506SOL     OW11416   5.721   5.098   2.503
 3506SOL    HW111417   5.632   5.101   2.456
 3506SOL    HW211418   5.738   5.187   2.546
 3507SOL     OW11419   0.015   0.383   5.871
 3507SOL    HW111420   0.014   0.483   5.877
 3507SOL    HW211421   6.949   0.350   5.855
 3508SOL     OW11422   6.190   4.143   0.104
 3508SOL    HW111423   6.129   4.217   0.075
 3508SOL    HW211424   6.241   4.171   0.185
 3509SOL     OW11425   6.136   0.619   0.015
 3509SOL    HW111426   6.144   0.719   0.018
 3509SOL    HW211427   6.050   0.594   6.997
 3510SOL     OW11428   2.038   2.294   2.449
 3510SOL    HW111429   1.956   2.239   2.465
 3510SOL    HW211430   2.117   2.251   2.493
 3511SOL     OW11431   0.750   0.983   4.717
 3511SOL    HW111432   0.815   1.057   4.734
 3511SOL    HW211433   0.798   0.904   4.679
 3512SOL     OW11434   3.043   2.883   1.040
 3512SOL    HW111435   3.068   2.835   0.956
 3512SOL    HW211436   2.944   2.887   1.049
 3513SOL     OW11437   5.248   4.184   0.934
 3513SOL    HW111438   5.194   4.212   1.013
 3513SOL    HW211439   5.325   4.246   0.923
 3514SOL     OW11440   2.097   6.789   2.209
 3514SOL    HW111441   2.011   6.756   2.247
 3514SOL    HW211442   2.150   6.713   2.172
 3515SOL     OW11443   3.912   6.245   3.733
 3515SOL    HW111444   3.817   6.214   3.740
 3515SOL    HW211445   3.915   6.330   3.681
 3516SOL     OW11446   2.065   1.391   0.682
 3516SOL    HW111447   2.056   1.487   0.658
 3516SOL    HW211448   1.981   1.359   0.725
 3517SOL     OW11449   0.564   0.745   6.586
 3517SOL    HW111450   0.650   0.694   6.580
 3517SOL    HW211451   0.487   0.681   6.576
 3518SOL     OW11452   4.499   3.713   5.817
 3518SOL    HW111453   4.516   3.811   5.815
 3518SOL    HW211454   4.433   3.688   5.747
 3519SOL     OW11455   3.371   6.581   0.548
 3519SOL    HW111456   3.318   6.607   0.467
 3519SOL    HW211457   3.368   6.656   0.614
 3520SOL     OW11458   3.767   4.978   1.348
 3520SOL    HW111459   3.796   4.909   1.415
 3520SOL    HW211460   3.752   5.065   1.394
 3521SOL     OW11461   6.409   2.175   6.495
 3521SOL    HW111462   6.317   2.155   6.530
 3521SOL    HW211463   6.475   2.173   6.571
 3522SOL     OW11464   2.896   0.787   0.439
 3522SOL    HW111465   2.805   0.804   0.476
 3522SOL    HW211466   2.963   0.790   0.514
 3523SOL     OW11467   2.684   4.381   5.281
 3523SOL    HW111468   2.703   4.292   5.323
 3523SOL    HW211469   2.769   4.423   5.250
 3524SOL     OW11470   2.680   0.325   2.074
 3524SOL    HW111471   2.629   0.245   2.108
 3524SOL    HW211472   2.773   0.324   2.110
 3525SOL     OW11473   1.445   4.091   2.421
 3525SOL    HW111474   1.438   4.017   2.488
 3525SOL    HW211475   1.426   4.179   2.465
 3526SOL     OW11476   4.161   6.605   3.228
 3526SOL    HW111477   4.104   6.641   3.154
 3526SOL    HW211478   4.215   6.679   3.268
 3527SOL     OW11479   5.370   3.093   6.224
 3527SOL    HW111480   5.444   3.160   6.220
 3527SOL    HW211481   5.409   3.001   6.233
 3528SOL     OW11482   1.508   6.788   4.693
 3528SOL    HW111483   1.423   6.840   4.690
 3528SOL    HW211484   1.512   6.734   4.778
 3529SOL     OW11485   3.748   6.050   0.123
 3529SOL    HW111486   3.814   6.116   0.088
 3529SOL    HW211487   3.796   5.975   0.168
 3530SOL     OW11488   2.207   6.749   3.134
 3530SOL    HW111489   2.160   6.832   3.104
 3530SOL    HW211490   2.149   6.670   3.118
 3531SOL     OW11491   5.351   4.517   0.118
 3531SOL    HW111492   5.296   4.440   0.087
 3531SOL    HW211493   5.292   4.586   0.160
 3532SOL     OW11494   1.930   6.587   0.451
 3532SOL    HW111495   1.967   6.498   0.423
 3532SOL    HW211496   1.916   6.644   0.371
 3533SOL     OW11497   1.624   0.846   3.790
 3533SOL    HW111498   1.567   0.845   3.708
 3533SOL    HW211499   1.708   0.896   3.772
 3534SOL     OW11500   5.148   0.622   5.246
 3534SOL    HW111501   5.214   0.571   5.192
 3534SOL    HW211502   5.063   0.632   5.194
 3535SOL     OW11503   5.030   6.383   6.957
 3535SOL    HW111504   5.088   6.364   0.009
 3535SOL    HW211505   4.934   6.378   6.985
 3536SOL     OW11506   0.741   3.760   2.838
 3536SOL    HW111507   0.791   3.781   2.754
 3536SOL    HW211508   0.651   3.724   2.814
 3537SOL     OW11509   3.024   4.689   1.268
 3537SOL    HW111510   3.106   4.728   1.310
 3537SOL    HW211511   2.981   4.627   1.333
 3538SOL     OW11512   4.008   0.874   3.487
 3538SOL    HW111513   3.917   0.913   3.493
 3538SOL    HW211514   4.002   0.777   3.464
 3539SOL     OW11515   5.488   5.789   6.521
 3539SOL    HW111516   5.471   5.782   6.423
 3539SOL    HW211517   5.540   5.709   6.552
 3540SOL     OW11518   2.920   4.579   6.016
 3540SOL    HW111519   2.951   4.598   6.110
 3540SOL    HW211520   2.860   4.653   5.986
 3541SOL     OW11521   1.378   2.645   1.671
 3541SOL    HW111522   1.395   2.727   1.616
 3541SOL    HW211523   1.434   2.648   1.754
 3542SOL     OW11524   5.971   1.822   6.492
 3542SOL    HW111525   5.950   1.796   6.398
 3542SOL    HW211526   6.021   1.748   6.537
 3543SOL     OW11527   0.740   2.112   3.858
 3543SOL    HW111528   0.779   2.176   3.924
 3543SOL    HW211529   0.647   2.139   3.835
 3544SOL     OW11530   2.845   4.451   0.303
 3544SOL    HW111531   2.878   4.517   0.236
 3544SOL    HW211532   2.900   4.367   0.297
 3545SOL     OW11533   3.987   6.641   0.553
 3545SOL    HW111534   3.991   6.624   0.455
 3545SOL    HW211535   3.915   6.709   0.572
 3546SOL     OW11536   6.791   4.249   1.386
 3546SOL    HW111537   6.754   4.342   1.390
 3546SOL    HW211538   6.733   4.191   1.329
 3547SOL     OW11539   0.914   4.127   5.007
 3547SOL    HW111540   0.828   4.087   4.976
 3547SOL    HW211541   0.985   4.056   5.007
 3548SOL     OW11542   6.281   0.306   5.893
 3548SOL    HW111543   6.325   0.388   5.856
 3548SOL    HW211544   6.335   0.271   5.969
 3549SOL     OW11545   2.252   6.212   6.636
 3549SOL    HW111546   2.245   6.120   6.675
 3549SOL    HW211547   2.211   6.213   6.545
 3550SOL     OW11548   5.652   1.195   5.636
 3550SOL    HW111549   5.664   1.208   5.734
 3550SOL    HW211550   5.624   1.282   5.594
 3551SOL     OW11551   5.210   1.891   4.789
 3551SOL    HW111552   5.200   1.946   4.871
 3551SOL    HW211553   5.307   1.887   4.763
 3552SOL     OW11554   6.624   0.127   3.665
 3552SOL    HW111555   6.693   0.163   3.727
 3552SOL    HW211556   6.567   0.201   3.630
 3553SOL     OW11557   6.250   6.051   6.538
 3553SOL    HW111558   6.208   6.067   6.627
 3553SOL    HW211559   6.294   6.135   6.506
 3554SOL     OW11560   4.813   4.300   0.168
 3554SOL    HW111561   4.836   4.291   0.265
 3554SOL    HW211562   4.816   4.210   0.124
 3555SOL     OW11563   2.507   1.476   5.151
 3555SOL    HW111564   2.572   1.400   5.156
 3555SOL    HW211565   2.427   1.455   5.208
 3556SOL     OW11566   5.572   1.162   0.508
 3556SOL    HW111567   5.584   1.083   0.448
 3556SOL    HW211568   5.556   1.244   0.453
 3557SOL     OW11569   5.347   6.333   1.780
 3557SOL    HW111570   5.434   6.357   1.821
 3557SOL    HW211571   5.322   6.240   1.806
 3558SOL     OW11572   3.455   5.507   2.190
 3558SOL    HW111573   3.502   5.555   2.115
 3558SOL    HW211574   3.520   5.449   2.239
 3559SOL     OW11575   3.919   6.304   6.593
 3559SOL    HW111576   3.881   6.294   6.501
 3559SOL    HW211577   3.881   6.233   6.653
 3560SOL     OW11578   1.652   5.446   4.262
 3560SOL    HW111579   1.557   5.453   4.230
 3560SOL    HW211580   1.670   5.519   4.328
 3561SOL     OW11581   4.608   3.564   5.449
 3561SOL    HW111582   4.618   3.603   5.358
 3561SOL    HW211583   4.661   3.617   5.515
 3562SOL     OW11584   2.960   1.480   0.694
 3562SOL    HW111585   2.992   1.460   0.601
 3562SOL    HW211586   2.866   1.448   0.704
 3563SOL     OW11587   6.809   2.385   6.624
 3563SOL    HW111588   6.804   2.474   6.669
 3563SOL    HW211589   6.797   2.396   6.525
 3564SOL     OW11590   6.358   3.458   2.702
 3564SOL    HW111591   6.325   3.365   2.685
 3564SOL    HW211592   6.282   3.515   2.731
 3565SOL     OW11593   4.926   5.928   6.039
 3565SOL    HW111594   4.957   5.987   6.113
 3565SOL    HW211595   4.866   5.857   6.076
 3566SOL     OW11596   1.321   1.171   5.359
 3566SOL    HW111597   1.265   1.100   5.315
 3566SOL    HW211598   1.417   1.151   5.343
 3567SOL     OW11599   6.815   3.982   6.889
 3567SOL    HW111600   6.826   3.984   6.989
 3567SOL    HW211601   6.843   3.892   6.855
 3568SOL     OW11602   4.948   3.850   5.718
 3568SOL    HW111603   4.951   3.915   5.642
 3568SOL    HW211604   4.971   3.899   5.803
 3569SOL     OW11605   1.643   0.299   3.569
 3569SOL    HW111606   1.681   0.391   3.578
 3569SOL    HW211607   1.600   0.271   3.654
 3570SOL     OW11608   5.966   1.563   4.212
 3570SOL    HW111609   5.877   1.605   4.233
 3570SOL    HW211610   6.004   1.605   4.129
 3571SOL     OW11611   6.682   6.177   4.843
 3571SOL    HW111612   6.694   6.142   4.750
 3571SOL    HW211613   6.708   6.107   4.909
 3572SOL     OW11614   6.102   6.385   5.667
 3572SOL    HW111615   6.053   6.383   5.579
 3572SOL    HW211616   6.080   6.303   5.719
 3573SOL     OW11617   0.790   2.356   1.780
 3573SOL    HW111618   0.769   2.338   1.684
 3573SOL    HW211619   0.707   2.385   1.827
 3574SOL     OW11620   6.134   3.781   0.260
 3574SOL    HW111621   6.053   3.770   0.318
 3574SOL    HW211622   6.109   3.828   0.176
 3575SOL     OW11623   6.209   5.881   2.018
 3575SOL    HW111624   6.273   5.951   2.047
 3575SOL    HW211625   6.249   5.791   2.033
 3576SOL     OW11626   6.922   0.934   6.715
 3576SOL    HW111627   6.836   0.884   6.707
 3576SOL    HW211628   6.923   0.984   6.802
 3577SOL     OW11629   2.530   3.991   6.867
 3577SOL    HW111630   2.624   4.023   6.854
 3577SOL    HW211631   2.531   3.899   6.904
 3578SOL     OW11632   3.585   4.344   1.767
 3578SOL    HW111633   3.574   4.329   1.668
 3578SOL    HW211634   3.574   4.442   1.786
 3579SOL     OW11635   1.661   4.396   4.626
 3579SOL    HW111636   1.674   4.489   4.590
 3579SOL    HW211637   1.583   4.396   4.690
 3580SOL     OW11638   6.952   3.255   1.280
 3580SOL    HW111639   6.893   3.313   1.337
 3580SOL    HW211640   6.908   3.238   1.192
 3581SOL     OW11641   6.044   1.083   3.238
 3581SOL    HW111642   5.955   1.109   3.202
 3581SOL    HW211643   6.032   1.033   3.324
 3582SOL     OW11644   0.153   0.377   5.174
 3582SOL    HW111645   0.220   0.324   5.227
 3582SOL    HW211646   0.071   0.322   5.160
 3583SOL     OW11647   1.447   5.305   1.402
 3583SOL    HW111648   1.372   5.322   1.466
 3583SOL    HW211649   1.533   5.296   1.453
 3584SOL     OW11650   5.533   0.337   5.754
 3584SOL    HW111651   5.528   0.294   5.844
 3584SOL    HW211652   5.528   0.436   5.764
 3585SOL     OW11653   2.089   4.804   3.780
 3585SOL    HW111654   2.041   4.892   3.771
 3585SOL    HW211655   2.132   4.781   3.693
 3586SOL     OW11656   0.987   0.977   6.133
 3586SOL    HW111657   0.944   1.046   6.075
 3586SOL    HW211658   0.916   0.923   6.179
 3587SOL     OW11659   3.847   6.503   6.864
 3587SOL    HW111660   3.941   6.525   6.891
 3587SOL    HW211661   3.806   6.581   6.818
 3588SOL     OW11662   1.935   1.744   5.206
 3588SOL    HW111663   2.010   1.678   5.197
 3588SOL    HW211664   1.867   1.727   5.135
 3589SOL     OW11665   3.547   0.557   4.796
 3589SOL    HW111666   3.496   0.482   4.754
 3589SOL    HW211667   3.584   0.616   4.724
 3590SOL     OW11668   1.406   5.167   6.932
 3590SOL    HW111669   1.428   5.145   7.027
 3590SOL    HW211670   1.490   5.162   6.877
 3591SOL     OW11671   5.418   2.171   5.469
 3591SOL    HW111672   5.430   2.163   5.370
 3591SOL    HW211673   5.322   2.192   5.490
 3592SOL     OW11674   5.312   2.263   1.900
 3592SOL    HW111675   5.264   2.218   1.825
 3592SOL    HW211676   5.255   2.335   1.938
 3593SOL     OW11677   0.954   5.111   4.248
 3593SOL    HW111678   0.864   5.155   4.257
 3593SOL    HW211679   0.990   5.129   4.157
 3594SOL     OW11680   4.130   1.587   4.834
 3594SOL    HW111681   4.117   1.685   4.823
 3594SOL    HW211682   4.041   1.541   4.832
 3595SOL     OW11683   1.932   6.366   5.905
 3595SOL    HW111684   1.841   6.408   5.902
 3595SOL    HW211685   1.976   6.390   5.992
 3596SOL     OW11686   0.292   3.955   3.625
 3596SOL    HW111687   0.201   3.976   3.662
 3596SOL    HW211688   0.344   3.902   3.692
 3597SOL     OW11689   3.613   6.866   3.786
 3597SOL    HW111690   3.540   6.931   3.761
 3597SOL    HW211691   3.684   6.914   3.838
 3598SOL     OW11692   1.545   0.478   0.340
 3598SOL    HW111693   1.591   0.391   0.325
 3598SOL    HW211694   1.571   0.516   0.429
 3599SOL     OW11695   6.828   1.513   4.063
 3599SOL    HW111696   6.840   1.477   3.971
 3599SOL    HW211697   6.739   1.559   4.069
 3600SOL     OW11698   6.922   0.453   1.409
 3600SOL    HW111699   6.881   0.449   1.318
 3600SOL    HW211700   7.006   0.398   1.410
 3601SOL     OW11701   5.968   3.291   5.617
 3601SOL    HW111702   5.937   3.236   5.539
 3601SOL    HW211703   5.891   3.341   5.656
 3602SOL     OW11704   2.486   1.718   0.949
 3602SOL    HW111705   2.509   1.749   1.042
 3602SOL    HW211706   2.570   1.708   0.896
 3603SOL     OW11707   4.301   5.315   4.422
 3603SOL    HW111708   4.318   5.368   4.506
 3603SOL    HW211709   4.366   5.239   4.417
 3604SOL     OW11710   0.049   4.045   3.719
 3604SOL    HW111711   7.024   4.105   3.658
 3604SOL    HW211712   7.014   3.976   3.759
 3605SOL     OW11713   5.912   2.760   6.380
 3605SOL    HW111714   5.931   2.712   6.466
 3605SOL    HW211715   5.848   2.835   6.397
 3606SOL     OW11716   1.742   4.387   3.603
 3606SOL    HW111717   1.833   4.408   3.640
 3606SOL    HW211718   1.749   4.307   3.543
 3607SOL     OW11719   4.254   6.884   0.158
 3607SOL    HW111720   4.170   6.864   0.108
 3607SOL    HW211721   4.234   6.945   0.235
 3608SOL     OW11722   0.319   2.950   2.628
 3608SOL    HW111723   0.281   2.984   2.542
 3608SOL    HW211724   0.413   2.919   2.612
 3609SOL     OW11725   6.336   0.121   4.841
 3609SOL    HW111726   6.336   0.175   4.757
 3609SOL    HW211727   6.339   0.024   4.818
 3610SOL     OW11728   1.737   5.733   5.251
 3610SOL    HW111729   1.677   5.807   5.220
 3610SOL    HW211730   1.832   5.758   5.230
 3611SOL     OW11731   4.505   5.069   5.739
 3611SOL    HW111732   4.480   5.152   5.690
 3611SOL    HW211733   4.548   5.092   5.826
 3612SOL     OW11734   1.593   6.414   0.712
 3612SOL    HW111735   1.530   6.462   0.773
 3612SOL    HW211736   1.683   6.458   0.717
 3613SOL     OW11737   4.864   4.934   6.362
 3613SOL    HW111738   4.781   4.968   6.318
 3613SOL    HW211739   4.941   4.994   6.339
 3614SOL     OW11740   3.755   3.702   4.398
 3614SOL    HW111741   3.750   3.715   4.299
 3614SOL    HW211742   3.726   3.609   4.420
 3615SOL     OW11743   6.164   6.613   6.163
 3615SOL    HW111744   6.204   6.705   6.166
 3615SOL    HW211745   6.168   6.579   6.069
 3616SOL     OW11746   6.133   0.754   4.915
 3616SOL    HW111747   6.144   0.840   4.865
 3616SOL    HW211748   6.221   0.709   4.924
 3617SOL     OW11749   6.533   0.254   0.097
 3617SOL    HW111750   6.622   0.265   0.142
 3617SOL    HW211751   6.520   0.159   0.071
 3618SOL     OW11752   2.899   0.142   6.345
 3618SOL    HW111753   2.847   0.224   6.369
 3618SOL    HW211754   2.947   0.107   6.425
 3619SOL     OW11755   5.088   4.173   4.156
 3619SOL    HW111756   4.989   4.174   4.146
 3619SOL    HW211757   5.113   4.117   4.235
 3620SOL     OW11758   5.881   1.048   4.811
 3620SOL    HW111759   5.849   1.056   4.717
 3620SOL    HW211760   5.910   1.137   4.845
 3621SOL     OW11761   1.425   3.649   5.963
 3621SOL    HW111762   1.407   3.564   6.012
 3621SOL    HW211763   1.498   3.699   6.010
 3622SOL     OW11764   0.383   3.643   0.770
 3622SOL    HW111765   0.296   3.676   0.807
 3622SOL    HW211766   0.372   3.548   0.740
 3623SOL     OW11767   0.265   5.469   4.325
 3623SOL    HW111768   0.285   5.529   4.247
 3623SOL    HW211769   0.347   5.460   4.382
 3624SOL     OW11770   1.713   1.357   1.603
 3624SOL    HW111771   1.667   1.276   1.567
 3624SOL    HW211772   1.697   1.435   1.542
 3625SOL     OW11773   0.854   3.241   4.747
 3625SOL    HW111774   0.865   3.337   4.723
 3625SOL    HW211775   0.758   3.221   4.764
 3626SOL     OW11776   2.715   3.891   5.283
 3626SOL    HW111777   2.626   3.897   5.238
 3626SOL    HW211778   2.718   3.807   5.338
 3627SOL     OW11779   3.297   2.900   3.732
 3627SOL    HW111780   3.326   2.988   3.694
 3627SOL    HW211781   3.200   2.886   3.713
 3628SOL     OW11782   2.876   5.525   3.020
 3628SOL    HW111783   2.787   5.506   2.979
 3628SOL    HW211784   2.947   5.522   2.950
 3629SOL     OW11785   5.705   2.308   4.936
 3629SOL    HW111786   5.728   2.317   4.839
 3629SOL    HW211787   5.662   2.392   4.968
 3630SOL     OW11788   5.798   1.448   4.499
 3630SOL    HW111789   5.711   1.465   4.545
 3630SOL    HW211790   5.865   1.516   4.529
 3631SOL     OW11791   2.362   0.510   4.082
 3631SOL    HW111792   2.375   0.455   4.164
 3631SOL    HW211793   2.416   0.472   4.007
 3632SOL     OW11794   4.005   6.773   6.589
 3632SOL    HW111795   4.042   6.839   6.654
 3632SOL    HW211796   3.982   6.820   6.503
 3633SOL     OW11797   1.629   3.224   5.816
 3633SOL    HW111798   1.540   3.181   5.799
 3633SOL    HW211799   1.699   3.153   5.828
 3634SOL     OW11800   3.048   6.115   5.645
 3634SOL    HW111801   2.988   6.062   5.703
 3634SOL    HW211802   3.142   6.083   5.655
 3635SOL     OW11803   1.947   1.158   4.876
 3635SOL    HW111804   1.863   1.113   4.907
 3635SOL    HW211805   2.025   1.118   4.923
 3636SOL     OW11806   1.774   5.591   6.494
 3636SOL    HW111807   1.684   5.571   6.455
 3636SOL    HW211808   1.804   5.681   6.464
 3637SOL     OW11809   5.460   1.622   1.564
 3637SOL    HW111810   5.494   1.604   1.656
 3637SOL    HW211811   5.451   1.536   1.514
 3638SOL     OW11812   6.218   4.380   3.686
 3638SOL    HW111813   6.127   4.402   3.720
 3638SOL    HW211814   6.276   4.461   3.692
 3639SOL     OW11815   2.897   5.472   0.078
 3639SOL    HW111816   2.958   5.530   0.025
 3639SOL    HW211817   2.805   5.510   0.076
 3640SOL     OW11818   3.444   6.336   1.197
 3640SOL    HW111819   3.465   6.395   1.276
 3640SOL    HW211820   3.529   6.297   1.161
 3641SOL     OW11821   2.503   0.170   4.736
 3641SOL    HW111822   2.463   0.112   4.806
 3641SOL    HW211823   2.598   0.191   4.760
 3642SOL     OW11824   6.287   6.834   2.725
 3642SOL    HW111825   6.255   6.785   2.644
 3642SOL    HW211826   6.213   6.890   2.762
 3643SOL     OW11827   3.331   4.547   6.029
 3643SOL    HW111828   3.255   4.498   5.986
 3643SOL    HW211829   3.372   4.609   5.962
 3644SOL     OW11830   6.732   0.291   0.269
 3644SOL    HW111831   6.798   0.334   0.330
 3644SOL    HW211832   6.640   0.299   0.309
 3645SOL     OW11833   3.658   6.615   2.762
 3645SOL    HW111834   3.632   6.521   2.738
 3645SOL    HW211835   3.671   6.668   2.679
 3646SOL     OW11836   6.711   5.503   4.062
 3646SOL    HW111837   6.659   5.583   4.088
 3646SOL    HW211838   6.788   5.530   4.004
 3647SOL     OW11839   1.985   2.608   1.756
 3647SOL    HW111840   2.059   2.540   1.753
 3647SOL    HW211841   2.023   2.699   1.741
 3648SOL     OW11842   3.009   5.625   3.286
 3648SOL    HW111843   2.956   5.594   3.206
 3648SOL    HW211844   2.947   5.666   3.353
 3649SOL     OW11845   3.431   3.382   2.286
 3649SOL    HW111846   3.339   3.357   2.319
 3649SOL    HW211847   3.448   3.336   2.199
 3650SOL     OW11848   6.143   6.804   1.454
 3650SOL    HW111849   6.096   6.722   1.419
 3650SOL    HW211850   6.194   6.781   1.537
 3651SOL     OW11851   1.556   6.083   2.456
 3651SOL    HW111852   1.499   6.001   2.460
 3651SOL    HW211853   1.565   6.112   2.361
 3652SOL     OW11854   4.479   5.311   3.115
 3652SOL    HW111855   4.509   5.323   3.020
 3652SOL    HW211856   4.388   5.270   3.116
 3653SOL     OW11857   0.105   2.792   4.523
 3653SOL    HW111858   0.155   2.716   4.483
 3653SOL    HW211859   0.143   2.814   4.613
 3654SOL     OW11860   1.621   5.821   1.254
 3654SOL    HW111861   1.693   5.774   1.203
 3654SOL    HW211862   1.607   5.912   1.216
 3655SOL     OW11863   1.014   0.427   4.027
 3655SOL    HW111864   0.920   0.417   4.059
 3655SOL    HW211865   1.042   0.343   3.979
 3656SOL     OW11866   2.556   1.726   2.572
 3656SOL    HW111867   2.654   1.712   2.556
 3656SOL    HW211868   2.542   1.809   2.626
 3657SOL     OW11869   3.561   5.075   1.856
 3657SOL    HW111870   3.516   5.088   1.767
 3657SOL    HW211871   3.561   4.978   1.879
 3658SOL     OW11872   1.901   5.493   5.719
 3658SOL    HW111873   1.854   5.556   5.780
 3658SOL    HW211874   1.839   5.420   5.691
 3659SOL     OW11875   1.261   4.268   0.436
 3659SOL    HW111876   1.182   4.237   0.383
 3659SOL    HW211877   1.344   4.231   0.395
 3660SOL     OW11878   4.453   5.123   1.112
 3660SOL    HW111879   4.460   5.053   1.183
 3660SOL    HW211880   4.371   5.105   1.057
 3661SOL     OW11881   5.242   1.509   0.498
 3661SOL    HW111882   5.163   1.570   0.497
 3661SOL    HW211883   5.326   1.562   0.485
 3662SOL     OW11884   2.709   6.434   5.379
 3662SOL    HW111885   2.630   6.448   5.319
 3662SOL    HW211886   2.732   6.520   5.425
 3663SOL     OW11887   0.850   3.893   6.325
 3663SOL    HW111888   0.764   3.866   6.281
 3663SOL    HW211889   0.869   3.990   6.305
 3664SOL     OW11890   3.928   0.970   0.866
 3664SOL    HW111891   3.894   0.911   0.793
 3664SOL    HW211892   4.020   0.939   0.893
 3665SOL     OW11893   1.135   6.460   5.762
 3665SOL    HW111894   1.141   6.555   5.790
 3665SOL    HW211895   1.056   6.417   5.806
 3666SOL     OW11896   0.618   5.371   3.649
 3666SOL    HW111897   0.605   5.384   3.747
 3666SOL    HW211898   0.546   5.312   3.613
 3667SOL     OW11899   6.856   1.602   6.756
 3667SOL    HW111900   6.921   1.639   6.823
 3667SOL    HW211901   6.849   1.666   6.679
 3668SOL     OW11902   1.679   6.187   1.782
 3668SOL    HW111903   1.745   6.147   1.719
 3668SOL    HW211904   1.715   6.181   1.876
 3669SOL     OW11905   6.277   2.148   3.474
 3669SOL    HW111906   6.373   2.161   3.498
 3669SOL    HW211907   6.240   2.070   3.525
 3670SOL     OW11908   2.353   5.252   5.999
 3670SOL    HW111909   2.339   5.176   5.935
 3670SOL    HW211910   2.281   5.249   6.069
 3671SOL     OW11911   1.057   0.700   3.190
 3671SOL    HW111912   1.139   0.705   3.133
 3671SOL    HW211913   1.079   0.656   3.278
 3672SOL     OW11914   6.946   6.969   0.819
 3672SOL    HW111915   7.004   6.893   0.847
 3672SOL    HW211916   6.955   6.985   0.721
 3673SOL     OW11917   4.420   0.273   6.990
 3673SOL    HW111918   4.451   0.260   0.057
 3673SOL    HW211919   4.322   0.258   6.984
 3674SOL     OW11920   1.177   6.414   0.878
 3674SOL    HW111921   1.169   6.328   0.827
 3674SOL    HW211922   1.098   6.425   0.938
 3675SOL     OW11923   1.777   1.846   4.324
 3675SOL    HW111924   1.858   1.901   4.348
 3675SOL    HW211925   1.731   1.817   4.408
 3676SOL     OW11926   2.303   5.332   3.044
 3676SOL    HW111927   2.226   5.340   3.108
 3676SOL    HW211928   2.268   5.307   2.953
 3677SOL     OW11929   6.612   6.787   4.032
 3677SOL    HW111930   6.532   6.847   4.030
 3677SOL    HW211931   6.688   6.836   4.075
 3678SOL     OW11932   1.150   1.500   3.817
 3678SOL    HW111933   1.223   1.566   3.837
 3678SOL    HW211934   1.094   1.534   3.742
 3679SOL     OW11935   0.012   1.454   1.604
 3679SOL    HW111936   0.024   1.372   1.548
 3679SOL    HW211937   0.051   1.533   1.557
 3680SOL     OW11938   7.010   3.951   4.583
 3680SOL    HW111939   6.995   3.984   4.677
 3680SOL    HW211940   6.921   3.934   4.540
 3681SOL     OW11941   5.659   6.147   4.559
 3681SOL    HW111942   5.676   6.227   4.616
 3681SOL    HW211943   5.560   6.135   4.546
 3682SOL     OW11944   0.548   2.388   6.668
 3682SOL    HW111945   0.527   2.454   6.740
 3682SOL    HW211946   0.491   2.307   6.679
 3683SOL     OW11947   5.676   5.939   3.339
 3683SOL    HW111948   5.695   6.000   3.263
 3683SOL    HW211949   5.713   5.977   3.424
 3684SOL     OW11950   1.686   3.195   0.511
 3684SOL    HW111951   1.659   3.174   0.604
 3684SOL    HW211952   1.773   3.149   0.489
 3685SOL     OW11953   6.549   6.840   6.519
 3685SOL    HW111954   6.580   6.929   6.486
 3685SOL    HW211955   6.471   6.852   6.580
 3686SOL     OW11956   5.883   4.653   1.244
 3686SOL    HW111957   5.927   4.575   1.199
 3686SOL    HW211958   5.824   4.619   1.318
 3687SOL     OW11959   2.668   1.448   6.751
 3687SOL    HW111960   2.654   1.352   6.774
 3687SOL    HW211961   2.625   1.506   6.820
 3688SOL     OW11962   0.310   3.425   6.918
 3688SOL    HW111963   0.257   3.390   6.995
 3688SOL    HW211964   0.272   3.513   6.889
 3689SOL     OW11965   2.716   0.994   3.620
 3689SOL    HW111966   2.644   0.975   3.554
 3689SOL    HW211967   2.780   1.061   3.581
 3690SOL     OW11968   5.330   6.321   5.250
 3690SOL    HW111969   5.246   6.274   5.279
 3690SOL    HW211970   5.312   6.419   5.246
 3691SOL     OW11971   3.752   2.508   0.275
 3691SOL    HW111972   3.850   2.500   0.291
 3691SOL    HW211973   3.713   2.576   0.336
 3692SOL     OW11974   1.819   0.383   6.733
 3692SOL    HW111975   1.903   0.435   6.743
 3692SOL    HW211976   1.832   0.290   6.769
 3693SOL     OW11977   2.817   1.902   3.310
 3693SOL    HW111978   2.901   1.954   3.331
 3693SOL    HW211979   2.752   1.913   3.385
 3694SOL     OW11980   2.229   5.857   2.862
 3694SOL    HW111981   2.158   5.792   2.887
 3694SOL    HW211982   2.222   5.938   2.920
 3695SOL     OW11983   1.515   2.298   1.939
 3695SOL    HW111984   1.526   2.392   1.909
 3695SOL    HW211985   1.491   2.240   1.861
 3696SOL     OW11986   3.159   6.359   5.625
 3696SOL    HW111987   3.184   6.370   5.721
 3696SOL    HW211988   3.096   6.281   5.616
 3697SOL     OW11989   5.666   6.914   4.250
 3697SOL    HW111990   5.603   6.842   4.221
 3697SOL    HW211991   5.756   6.874   4.268
 3698SOL     OW11992   2.587   0.320   5.792
 3698SOL    HW111993   2.594   0.319   5.693
 3698SOL    HW211994   2.663   0.267   5.831
 3699SOL     OW11995   1.334   3.868   1.890
 3699SOL    HW111996   1.383   3.822   1.964
 3699SOL    HW211997   1.250   3.818   1.870
 3700SOL     OW11998   0.675   0.015   4.251
 3700SOL    HW111999   0.618   0.097   4.256
 3700SOL    HW212000   0.766   0.039   4.216
 3701SOL     OW12001   5.777   0.835   3.396
 3701SOL    HW112002   5.875   0.853   3.405
 3701SOL    HW212003   5.760   0.738   3.414
 3702SOL     OW12004   3.972   0.926   0.050
 3702SOL    HW112005   4.019   0.959   0.132
 3702SOL    HW212006   3.996   0.830   0.034
 3703SOL     OW12007   4.451   4.963   6.745
 3703SOL    HW112008   4.461   5.027   6.669
 3703SOL    HW212009   4.401   4.882   6.714
 3704SOL     OW12010   2.278   0.595   1.814
 3704SOL    HW112011   2.340   0.673   1.817
 3704SOL    HW212012   2.191   0.622   1.772
 3705SOL     OW12013   5.494   0.940   4.345
 3705SOL    HW112014   5.446   0.938   4.257
 3705SOL    HW212015   5.448   1.004   4.406
 3706SOL     OW12016   1.975   1.829   3.876
 3706SOL    HW112017   1.896   1.793   3.926
 3706SOL    HW212018   1.952   1.840   3.780
 3707SOL     OW12019   4.313   2.691   5.326
 3707SOL    HW112020   4.279   2.634   5.252
 3707SOL    HW212021   4.404   2.726   5.302
 3708SOL     OW12022   5.985   6.908   5.988
 3708SOL    HW112023   6.059   6.867   6.042
 3708SOL    HW212024   5.897   6.890   6.033
 3709SOL     OW12025   4.578   0.271   0.182
 3709SOL    HW112026   4.579   0.348   0.246
 3709SOL    HW212027   4.670   0.234   0.173
 3710SOL     OW12028   6.880   5.004   1.163
 3710SOL    HW112029   6.960   4.980   1.107
 3710SOL    HW212030   6.803   5.025   1.104
 3711SOL     OW12031   6.895   5.299   2.965
 3711SOL    HW112032   6.851   5.237   2.900
 3711SOL    HW212033   6.976   5.339   2.923
 3712SOL     OW12034   2.049   0.031   0.614
 3712SOL    HW112035   1.961   0.021   0.569
 3712SOL    HW212036   2.121   7.017   0.557
 3713SOL     OW12037   3.955   5.689   6.279
 3713SOL    HW112038   4.029   5.740   6.236
 3713SOL    HW212039   3.897   5.649   6.208
 3714SOL     OW12040   3.961   1.120   5.464
 3714SOL    HW112041   4.050   1.160   5.443
 3714SOL    HW212042   3.971   1.045   5.529
 3715SOL     OW12043   5.184   3.842   4.033
 3715SOL    HW112044   5.221   3.934   4.018
 3715SOL    HW212045   5.228   3.802   4.114
 3716SOL     OW12046   0.237   1.486   4.250
 3716SOL    HW112047   0.169   1.508   4.181
 3716SOL    HW212048   0.316   1.547   4.241
 3717SOL     OW12049   5.237   0.065   0.027
 3717SOL    HW112050   5.147   0.097   7.024
 3717SOL    HW212051   5.264   7.013   7.000
 3718SOL     OW12052   0.572   5.731   0.550
 3718SOL    HW112053   0.525   5.816   0.576
 3718SOL    HW212054   0.562   5.664   0.624
 3719SOL     OW12055   4.096   5.093   5.651
 3719SOL    HW112056   4.126   5.070   5.744
 3719SOL    HW212057   4.135   5.027   5.586
 3720SOL     OW12058   0.028   1.907   5.641
 3720SOL    HW112059   0.047   1.969   5.717
 3720SOL    HW212060   0.053   1.814   5.667
 3721SOL     OW12061   4.104   3.422   0.667
 3721SOL    HW112062   4.077   3.441   0.572
 3721SOL    HW212063   4.177   3.485   0.694
 3722SOL     OW12064   5.971   5.694   1.991
 3722SOL    HW112065   6.038   5.767   1.985
 3722SOL    HW212066   5.989   5.638   2.072
 3723SOL     OW12067   4.371   1.280   0.398
 3723SOL    HW112068   4.461   1.325   0.394
 3723SOL    HW212069   4.300   1.348   0.411
 3724SOL     OW12070   0.222   5.302   5.447
 3724SOL    HW112071   0.124   5.288   5.459
 3724SOL    HW212072   0.242   5.399   5.442
 3725SOL     OW12073   6.601   6.899   0.866
 3725SOL    HW112074   6.697   6.910   0.895
 3725SOL    HW212075   6.598   6.844   0.782
 3726SOL     OW12076   5.684   3.077   1.262
 3726SOL    HW112077   5.719   2.988   1.292
 3726SOL    HW212078   5.747   3.149   1.292
 3727SOL     OW12079   2.448   2.827   5.351
 3727SOL    HW112080   2.480   2.913   5.311
 3727SOL    HW212081   2.420   2.765   5.278
 3728SOL     OW12082   0.457   2.963   6.747
 3728SOL    HW112083   0.413   3.036   6.695
 3728SOL    HW212084   0.492   2.894   6.684
 3729SOL     OW12085   0.335   2.983   3.146
 3729SOL    HW112086   0.381   2.951   3.063
 3729SOL    HW212087   0.380   2.943   3.227
 3730SOL     OW12088   2.609   0.717   0.080
 3730SOL    HW112089   2.626   0.790   0.146
 3730SOL    HW212090   2.665   0.638   0.102
 3731SOL     OW12091   2.871   6.520   6.473
 3731SOL    HW112092   2.776   6.495   6.457
 3731SOL    HW212093   2.893   6.505   6.570
 3732SOL     OW12094   2.123   3.871   4.756
 3732SOL    HW112095   2.043   3.916   4.794
 3732SOL    HW212096   2.196   3.938   4.742
 3733SOL     OW12097   2.363   3.792   1.081
 3733SOL    HW112098   2.357   3.692   1.075
 3733SOL    HW212099   2.435   3.824   1.019
 3734SOL     OW12100   5.477   0.413   2.805
 3734SOL    HW112101   5.550   0.355   2.768
 3734SOL    HW212102   5.482   0.412   2.905
 3735SOL     OW12103   3.508   1.758   2.021
 3735SOL    HW112104   3.435   1.709   1.974
 3735SOL    HW212105   3.478   1.851   2.041
 3736SOL     OW12106   4.802   1.252   6.401
 3736SOL    HW112107   4.840   1.319   6.465
 3736SOL    HW212108   4.706   1.234   6.424
 3737SOL     OW12109   4.308   6.709   3.453
 3737SOL    HW112110   4.268   6.744   3.538
 3737SOL    HW212111   4.390   6.762   3.431
 3738SOL     OW12112   0.486   6.898   3.957
 3738SOL    HW112113   0.465   6.995   3.961
 3738SOL    HW212114   0.454   6.861   3.870
 3739SOL     OW12115   0.591   4.028   2.229
 3739SOL    HW112116   0.553   4.102   2.174
 3739SOL    HW212117   0.526   3.952   2.231
 3740SOL     OW12118   5.152   1.473   6.511
 3740SOL    HW112119   5.191   1.403   6.571
 3740SOL    HW212120   5.053   1.479   6.525
 3741SOL     OW12121   3.872   2.168   6.703
 3741SOL    HW112122   3.808   2.234   6.741
 3741SOL    HW212123   3.859   2.162   6.604
 3742SOL     OW12124   3.009   3.677   5.674
 3742SOL    HW112125   3.040   3.756   5.727
 3742SOL    HW212126   3.069   3.665   5.594
 3743SOL     OW12127   0.586   5.624   6.110
 3743SOL    HW112128   0.604   5.676   6.026
 3743SOL    HW212129   0.530   5.680   6.172
 3744SOL     OW12130   6.970   5.596   3.117
 3744SOL    HW112131   7.007   5.688   3.125
 3744SOL    HW212132   6.877   5.594   3.154
 3745SOL     OW12133   5.048   5.741   1.735
 3745SOL    HW112134   5.008   5.694   1.814
 3745SOL    HW212135   5.006   5.831   1.725
 3746SOL     OW12136   4.156   1.709   2.552
 3746SOL    HW112137   4.164   1.627   2.496
 3746SOL    HW212138   4.088   1.770   2.511
 3747SOL     OW12139   2.757   0.000   0.632
 3747SOL    HW112140   2.809   6.970   0.695
 3747SOL    HW212141   2.659   7.008   0.643
 3748SOL     OW12142   5.984   0.893   2.241
 3748SOL    HW112143   5.946   0.849   2.323
 3748SOL    HW212144   5.992   0.992   2.258
 3749SOL     OW12145   1.384   0.221   5.563
 3749SOL    HW112146   1.460   0.156   5.554
 3749SOL    HW212147   1.418   0.314   5.555
 3750SOL     OW12148   0.313   4.332   6.841
 3750SOL    HW112149   0.272   4.241   6.836
 3750SOL    HW212150   0.407   4.324   6.873
 3751SOL     OW12151   1.650   4.047   1.584
 3751SOL    HW112152   1.575   4.113   1.578
 3751SOL    HW212153   1.648   4.003   1.674
 3752SOL     OW12154   5.323   6.662   6.605
 3752SOL    HW112155   5.243   6.708   6.568
 3752SOL    HW212156   5.365   6.606   6.533
 3753SOL     OW12157   0.111   0.611   3.625
 3753SOL    HW112158   0.146   0.559   3.547
 3753SOL    HW212159   0.185   0.665   3.664
 3754SOL     OW12160   2.455   1.307   0.784
 3754SOL    HW112161   2.449   1.266   0.693
 3754SOL    HW212162   2.382   1.374   0.795
 3755SOL     OW12163   3.291   5.012   4.326
 3755SOL    HW112164   3.279   5.108   4.352
 3755SOL    HW212165   3.203   4.975   4.295
 3756SOL     OW12166   1.682   6.319   0.415
 3756SOL    HW112167   1.660   6.303   0.512
 3756SOL    HW212168   1.631   6.398   0.382
 3757SOL     OW12169   0.029   4.488   1.117
 3757SOL    HW112170   0.107   4.468   1.176
 3757SOL    HW212171   6.972   4.486   1.171
 3758SOL     OW12172   2.445   6.789   4.052
 3758SOL    HW112173   2.346   6.777   4.056
 3758SOL    HW212174   2.474   6.853   4.122
 3759SOL     OW12175   5.158   0.206   4.112
 3759SOL    HW112176   5.150   0.210   4.012
 3759SOL    HW212177   5.142   0.296   4.151
 3760SOL     OW12178   1.457   0.996   3.089
 3760SOL    HW112179   1.440   1.084   3.134
 3760SOL    HW212180   1.402   0.989   3.007
 3761SOL     OW12181   4.994   0.995   4.653
 3761SOL    HW112182   4.999   0.943   4.738
 3761SOL    HW212183   4.917   1.059   4.658
 3762SOL     OW12184   7.004   3.008   3.584
 3762SOL    HW112185   0.022   3.076   3.528
 3762SOL    HW212186   6.946   3.053   3.652
 3763SOL     OW12187   0.744   4.384   6.959
 3763SOL    HW112188   0.698   4.368   0.019
 3763SOL    HW212189   0.699   4.331   6.888
 3764SOL     OW12190   2.691   0.551   2.801
 3764SOL    HW112191   2.647   0.637   2.775
 3764SOL    HW212192   2.738   0.512   2.722
 3765SOL     OW12193   5.576   2.692   2.732
 3765SOL    HW112194   5.477   2.697   2.736
 3765SOL    HW212195   5.616   2.773   2.775
 3766SOL     OW12196   1.415   3.343   2.162
 3766SOL    HW112197   1.403   3.358   2.064
 3766SOL    HW212198   1.421   3.431   2.209
 3767SOL     OW12199   1.267   5.566   6.068
 3767SOL    HW112200   1.186   5.513   6.093
 3767SOL    HW212201   1.254   5.661   6.094
 3768SOL     OW12202   1.732   0.142   2.492
 3768SOL    HW112203   1.685   0.203   2.427
 3768SOL    HW212204   1.686   0.054   2.494
 3769SOL     OW12205   5.293   5.588   4.044
 3769SOL    HW112206   5.341   5.503   4.062
 3769SOL    HW212207   5.353   5.665   4.064
 3770SOL     OW12208   2.043   0.844   1.293
 3770SOL    HW112209   2.058   0.764   1.352
 3770SOL    HW212210   2.032   0.926   1.349
 3771SOL     OW12211   6.331   5.555   5.229
 3771SOL    HW112212   6.285   5.547   5.317
 3771SOL    HW212213   6.381   5.470   5.210
 3772SOL     OW12214   1.333   5.783   1.198
 3772SOL    HW112215   1.431   5.762   1.197
 3772SOL    HW212216   1.311   5.843   1.120
 3773SOL     OW12217   5.213   5.127   6.511
 3773SOL    HW112218   5.181   5.221   6.525
 3773SOL    HW212219   5.171   5.091   6.427
 3774SOL     OW12220   6.571   5.163   1.817
 3774SOL    HW112221   6.547   5.259   1.803
 3774SOL    HW212222   6.531   5.132   1.903
 3775SOL     OW12223   4.745   5.227   4.904
 3775SOL    HW112224   4.657   5.262   4.872
 3775SOL    HW212225   4.771   5.273   4.989
 3776SOL     OW12226   4.311   2.794   5.886
 3776SOL    HW112227   4.222   2.798   5.931
 3776SOL    HW212228   4.382   2.823   5.950
 3777SOL     OW12229   3.043   4.874   4.693
 3777SOL    HW112230   3.024   4.945   4.625
 3777SOL    HW212231   2.990   4.792   4.671
 3778SOL     OW12232   3.485   5.641   6.622
 3778SOL    HW112233   3.419   5.617   6.694
 3778SOL    HW212234   3.574   5.602   6.645
 3779SOL     OW12235   0.036   4.997   6.921
 3779SOL    HW112236   0.016   4.981   6.825
 3779SOL    HW212237   0.086   4.919   6.958
 3780SOL     OW12238   5.621   4.040   1.539
 3780SOL    HW112239   5.677   3.972   1.586
 3780SOL    HW212240   5.526   4.032   1.569
 3781SOL     OW12241   2.503   6.343   4.941
 3781SOL    HW112242   2.526   6.247   4.958
 3781SOL    HW212243   2.587   6.397   4.938
 3782SOL     OW12244   4.118   5.045   1.267
 3782SOL    HW112245   4.025   5.072   1.244
 3782SOL    HW212246   4.157   4.990   1.193
 3783SOL     OW12247   4.827   5.586   4.843
 3783SOL    HW112248   4.906   5.641   4.871
 3783SOL    HW212249   4.859   5.509   4.788
 3784SOL     OW12250   5.929   2.577   4.818
 3784SOL    HW112251   5.969   2.531   4.898
 3784SOL    HW212252   5.947   2.675   4.823
 3785SOL     OW12253   1.596   2.829   3.277
 3785SOL    HW112254   1.587   2.928   3.289
 3785SOL    HW212255   1.567   2.782   3.360
 3786SOL     OW12256   2.000   3.637   4.722
 3786SOL    HW112257   2.066   3.582   4.774
 3786SOL    HW212258   2.031   3.732   4.720
 3787SOL     OW12259   4.968   6.883   4.138
 3787SOL    HW112260   4.929   6.843   4.056
 3787SOL    HW212261   4.996   6.809   4.201
 3788SOL     OW12262   5.107   2.341   5.078
 3788SOL    HW112263   5.028   2.281   5.067
 3788SOL    HW212264   5.094   2.399   5.158
 3789SOL     OW12265   2.533   2.584   1.711
 3789SOL    HW112266   2.445   2.543   1.686
 3789SOL    HW212267   2.567   2.540   1.794
 3790SOL     OW12268   0.353   6.500   1.856
 3790SOL    HW112269   0.446   6.526   1.881
 3790SOL    HW212270   0.290   6.572   1.883
 3791SOL     OW12271   4.951   1.129   5.926
 3791SOL    HW112272   4.906   1.169   5.846
 3791SOL    HW212273   4.889   1.133   6.005
 3792SOL     OW12274   6.954   0.280   4.563
 3792SOL    HW112275   6.859   0.250   4.555
 3792SOL    HW212276   7.013   0.215   4.514
 3793SOL     OW12277   4.385   4.885   0.293
 3793SOL    HW112278   4.473   4.852   0.326
 3793SOL    HW212279   4.363   4.839   0.206
 3794SOL     OW12280   0.692   4.629   6.125
 3794SOL    HW112281   0.734   4.719   6.140
 3794SOL    HW212282   0.760   4.558   6.141
 3795SOL     OW12283   2.839   6.133   1.218
 3795SOL    HW112284   2.795   6.141   1.128
 3795SOL    HW212285   2.778   6.166   1.289
 3796SOL     OW12286   4.394   1.031   0.293
 3796SOL    HW112287   4.417   1.034   0.196
 3796SOL    HW212288   4.360   1.121   0.322
 3797SOL     OW12289   0.450   3.828   1.746
 3797SOL    HW112290   0.377   3.818   1.679
 3797SOL    HW212291   0.435   3.912   1.799
 3798SOL     OW12292   1.620   5.694   3.733
 3798SOL    HW112293   1.542   5.727   3.786
 3798SOL    HW212294   1.612   5.724   3.638
 3799SOL     OW12295   6.997   0.976   3.447
 3799SOL    HW112296   0.047   0.926   3.409
 3799SOL    HW212297   6.927   0.990   3.376
 3800SOL     OW12298   5.647   2.299   3.076
 3800SOL    HW112299   5.596   2.367   3.023
 3800SOL    HW212300   5.591   2.268   3.153
 3801SOL     OW12301   6.243   1.340   1.178
 3801SOL    HW112302   6.160   1.353   1.125
 3801SOL    HW212303   6.273   1.245   1.172
 3802SOL     OW12304   6.034   3.602   1.693
 3802SOL    HW112305   6.039   3.633   1.788
 3802SOL    HW212306   6.082   3.667   1.634
 3803SOL     OW12307   3.521   3.804   4.534
 3803SOL    HW112308   3.616   3.779   4.514
 3803SOL    HW212309   3.516   3.900   4.561
 3804SOL     OW12310   4.153   6.231   3.872
 3804SOL    HW112311   4.161   6.199   3.966
 3804SOL    HW212312   4.056   6.237   3.847
 3805SOL     OW12313   2.314   2.488   6.803
 3805SOL    HW112314   2.312   2.476   6.902
 3805SOL    HW212315   2.237   2.439   6.762
 3806SOL     OW12316   2.583   5.003   1.368
 3806SOL    HW112317   2.560   4.908   1.346
 3806SOL    HW212318   2.636   5.006   1.453
 3807SOL     OW12319   1.864   4.080   3.820
 3807SOL    HW112320   1.868   3.982   3.842
 3807SOL    HW212321   1.880   4.133   3.903
 3808SOL     OW12322   2.949   6.593   5.729
 3808SOL    HW112323   2.949   6.512   5.670
 3808SOL    HW212324   2.879   6.584   5.799
 3809SOL     OW12325   5.338   2.253   1.559
 3809SOL    HW112326   5.424   2.303   1.567
 3809SOL    HW212327   5.346   2.185   1.486
 3810SOL     OW12328   5.012   2.112   2.311
 3810SOL    HW112329   4.941   2.054   2.352
 3810SOL    HW212330   4.973   2.163   2.235
 3811SOL     OW12331   0.549   5.650   5.463
 3811SOL    HW112332   0.618   5.647   5.536
 3811SOL    HW212333   0.595   5.654   5.374
 3812SOL     OW12334   4.887   5.626   0.545
 3812SOL    HW112335   4.944   5.590   0.471
 3812SOL    HW212336   4.815   5.560   0.566
 3813SOL     OW12337   6.016   4.610   0.050
 3813SOL    HW112338   6.029   4.653   6.987
 3813SOL    HW212339   5.993   4.680   0.117
 3814SOL     OW12340   0.255   0.500   4.967
 3814SOL    HW112341   0.214   0.436   5.032
 3814SOL    HW212342   0.182   0.550   4.920
 3815SOL     OW12343   6.387   3.680   5.825
 3815SOL    HW112344   6.403   3.654   5.920
 3815SOL    HW212345   6.473   3.707   5.782
 3816SOL     OW12346   6.740   6.149   1.348
 3816SOL    HW112347   6.789   6.066   1.323
 3816SOL    HW212348   6.658   6.157   1.292
 3817SOL     OW12349   4.690   3.483   1.785
 3817SOL    HW112350   4.707   3.562   1.727
 3817SOL    HW212351   4.761   3.476   1.855
 3818SOL     OW12352   6.112   6.221   2.685
 3818SOL    HW112353   6.065   6.147   2.637
 3818SOL    HW212354   6.078   6.309   2.651
 3819SOL     OW12355   6.171   3.907   3.806
 3819SOL    HW112356   6.260   3.867   3.827
 3819SOL    HW212357   6.170   4.002   3.836
 3820SOL     OW12358   3.019   6.105   5.042
 3820SOL    HW112359   2.965   6.169   4.987
 3820SOL    HW212360   3.111   6.141   5.055
 3821SOL     OW12361   0.849   0.499   0.182
 3821SOL    HW112362   0.784   0.467   0.112
 3821SOL    HW212363   0.872   0.424   0.243
 3822SOL     OW12364   4.679   0.572   1.919
 3822SOL    HW112365   4.670   0.494   1.857
 3822SOL    HW212366   4.747   0.551   1.989
 3823SOL     OW12367   5.789   6.148   6.347
 3823SOL    HW112368   5.702   6.196   6.343
 3823SOL    HW212369   5.864   6.215   6.347
 3824SOL     OW12370   2.416   2.801   0.017
 3824SOL    HW112371   2.393   2.894   0.045
 3824SOL    HW212372   2.340   2.739   0.039
 3825SOL     OW12373   0.886   4.787   5.682
 3825SOL    HW112374   0.979   4.777   5.646
 3825SOL    HW212375   0.825   4.725   5.633
 3826SOL     OW12376   5.550   4.500   4.022
 3826SOL    HW112377   5.582   4.590   3.991
 3826SOL    HW212378   5.611   4.466   4.094
 3827SOL     OW12379   0.356   2.144   0.783
 3827SOL    HW112380   0.448   2.132   0.745
 3827SOL    HW212381   0.362   2.201   0.865
 3828SOL     OW12382   3.600   3.327   3.570
 3828SOL    HW112383   3.583   3.378   3.655
 3828SOL    HW212384   3.697   3.303   3.564
 3829SOL     OW12385   1.284   3.534   1.682
 3829SOL    HW112386   1.260   3.455   1.739
 3829SOL    HW212387   1.209   3.553   1.618
 3830SOL     OW12388   5.714   0.767   3.987
 3830SOL    HW112389   5.734   0.756   3.890
 3830SOL    HW212390   5.719   0.863   4.013
 3831SOL     OW12391   4.801   1.851   3.603
 3831SOL    HW112392   4.702   1.861   3.602
 3831SOL    HW212393   4.829   1.785   3.532
 3832SOL     OW12394   6.686   0.927   3.262
 3832SOL    HW112395   6.692   1.011   3.315
 3832SOL    HW212396   6.604   0.930   3.204
 3833SOL     OW12397   1.819   1.909   5.391
 3833SOL    HW112398   1.757   1.979   5.356
 3833SOL    HW212399   1.857   1.857   5.314
 3834SOL     OW12400   4.801   3.704   1.076
 3834SOL    HW112401   4.831   3.649   1.155
 3834SOL    HW212402   4.860   3.784   1.066
 3835SOL     OW12403   4.322   5.583   4.999
 3835SOL    HW112404   4.251   5.521   5.034
 3835SOL    HW212405   4.345   5.650   5.070
 3836SOL     OW12406   6.928   6.141   5.806
 3836SOL    HW112407   6.858   6.148   5.735
 3836SOL    HW212408   6.899   6.073   5.873
 3837SOL     OW12409   4.694   4.721   5.781
 3837SOL    HW112410   4.656   4.791   5.721
 3837SOL    HW212411   4.730   4.645   5.727
 3838SOL     OW12412   0.834   1.071   4.112
 3838SOL    HW112413   0.862   1.166   4.126
 3838SOL    HW212414   0.904   1.023   4.060
 3839SOL     OW12415   5.159   0.853   3.620
 3839SOL    HW112416   5.112   0.939   3.601
 3839SOL    HW212417   5.106   0.801   3.688
 3840SOL     OW12418   2.578   1.556   6.980
 3840SOL    HW112419   2.583   1.626   0.024
 3840SOL    HW212420   2.504   1.578   6.916
 3841SOL     OW12421   6.105   4.423   4.479
 3841SOL    HW112422   6.168   4.494   4.511
 3841SOL    HW212423   6.061   4.454   4.395
 3842SOL     OW12424   1.578   3.738   5.042
 3842SOL    HW112425   1.516   3.671   5.085
 3842SOL    HW212426   1.566   3.827   5.086
 3843SOL     OW12427   5.152   2.462   0.035
 3843SOL    HW112428   5.140   2.413   6.976
 3843SOL    HW212429   5.246   2.497   0.040
 3844SOL     OW12430   0.293   7.015   1.384
 3844SOL    HW112431   0.267   6.938   1.326
 3844SOL    HW212432   0.260   6.999   1.477
 3845SOL     OW12433   2.098   5.371   0.638
 3845SOL    HW112434   2.034   5.369   0.561
 3845SOL    HW212435   2.178   5.426   0.614
 3846SOL     OW12436   0.724   2.967   2.932
 3846SOL    HW112437   0.755   2.899   2.998
 3846SOL    HW212438   0.778   3.051   2.944
 3847SOL     OW12439   6.546   1.792   6.819
 3847SOL    HW112440   6.496   1.868   6.861
 3847SOL    HW212441   6.512   1.706   6.855
 3848SOL     OW12442   5.490   3.955   2.562
 3848SOL    HW112443   5.544   3.870   2.557
 3848SOL    HW212444   5.527   4.022   2.498
 3849SOL     OW12445   6.882   4.802   6.342
 3849SOL    HW112446   6.924   4.891   6.357
 3849SOL    HW212447   6.783   4.812   6.333
 3850SOL     OW12448   2.751   2.296   1.495
 3850SOL    HW112449   2.802   2.281   1.580
 3850SOL    HW212450   2.751   2.212   1.441
 3851SOL     OW12451   0.407   5.924   2.082
 3851SOL    HW112452   0.371   5.984   2.154
 3851SOL    HW212453   0.489   5.878   2.116
 3852SOL     OW12454   2.228   6.793   5.376
 3852SOL    HW112455   2.201   6.721   5.312
 3852SOL    HW212456   2.322   6.777   5.406
 3853SOL     OW12457   3.075   6.999   3.000
 3853SOL    HW112458   3.156   6.976   3.054
 3853SOL    HW212459   3.100   0.041   2.932
 3854SOL     OW12460   1.289   1.996   2.301
 3854SOL    HW112461   1.215   2.030   2.359
 3854SOL    HW212462   1.283   2.039   2.211
 3855SOL     OW12463   3.630   6.646   0.452
 3855SOL    HW112464   3.663   6.580   0.385
 3855SOL    HW212465   3.552   6.607   0.502
 3856SOL     OW12466   0.306   2.744   6.601
 3856SOL    HW112467   0.327   2.740   6.699
 3856SOL    HW212468   0.208   2.731   6.588
 3857SOL     OW12469   2.122   0.497   6.448
 3857SOL    HW112470   2.097   0.416   6.502
 3857SOL    HW212471   2.065   0.501   6.365
 3858SOL     OW12472   4.507   0.364   4.265
 3858SOL    HW112473   4.593   0.410   4.287
 3858SOL    HW212474   4.432   0.429   4.273
 3859SOL     OW12475   6.446   0.023   2.156
 3859SOL    HW112476   6.346   0.024   2.152
 3859SOL    HW212477   6.477   6.959   2.182
 3860SOL     OW12478   1.215   6.660   3.996
 3860SOL    HW112479   1.260   6.666   3.907
 3860SOL    HW212480   1.284   6.650   4.068
 3861SOL     OW12481   2.810   5.900   1.733
 3861SOL    HW112482   2.760   5.833   1.787
 3861SOL    HW212483   2.789   5.888   1.636
 3862SOL     OW12484   2.112   0.077   3.904
 3862SOL    HW112485   2.035   0.141   3.895
 3862SOL    HW212486   2.077   7.014   3.929
 3863SOL     OW12487   3.713   0.339   0.430
 3863SOL    HW112488   3.779   0.294   0.369
 3863SOL    HW212489   3.639   0.275   0.452
 3864SOL     OW12490   2.444   0.446   4.986
 3864SOL    HW112491   2.425   0.539   4.955
 3864SOL    HW212492   2.373   0.384   4.952
 3865SOL     OW12493   3.551   0.827   0.549
 3865SOL    HW112494   3.614   0.871   0.486
 3865SOL    HW212495   3.457   0.841   0.517
 3866SOL     OW12496   2.515   2.191   6.560
 3866SOL    HW112497   2.608   2.195   6.594
 3866SOL    HW212498   2.516   2.195   6.460
 3867SOL     OW12499   0.558   3.316   1.931
 3867SOL    HW112500   0.632   3.284   1.873
 3867SOL    HW212501   0.531   3.409   1.903
 3868SOL     OW12502   4.276   0.506   0.288
 3868SOL    HW112503   4.179   0.487   0.300
 3868SOL    HW212504   4.329   0.460   0.359
 3869SOL     OW12505   5.903   2.233   3.589
 3869SOL    HW112506   5.967   2.232   3.512
 3869SOL    HW212507   5.948   2.198   3.671
 3870SOL     OW12508   0.616   0.421   4.365
 3870SOL    HW112509   0.666   0.363   4.430
 3870SOL    HW212510   0.532   0.454   4.407
 3871SOL     OW12511   2.456   4.940   4.644
 3871SOL    HW112512   2.415   5.030   4.633
 3871SOL    HW212513   2.529   4.928   4.577
 3872SOL     OW12514   2.781   3.706   5.542
 3872SOL    HW112515   2.864   3.682   5.593
 3872SOL    HW212516   2.712   3.634   5.555
 3873SOL     OW12517   4.790   1.834   0.528
 3873SOL    HW112518   4.705   1.786   0.506
 3873SOL    HW212519   4.776   1.893   0.607
 3874SOL     OW12520   3.061   1.105   6.776
 3874SOL    HW112521   3.074   1.075   6.681
 3874SOL    HW212522   3.018   1.195   6.776
 3875SOL     OW12523   1.303   2.442   6.178
 3875SOL    HW112524   1.324   2.344   6.185
 3875SOL    HW212525   1.380   2.490   6.136
 3876SOL     OW12526   4.002   5.280   1.397
 3876SOL    HW112527   4.067   5.208   1.421
 3876SOL    HW212528   4.039   5.369   1.424
 3877SOL     OW12529   6.485   1.404   0.144
 3877SOL    HW112530   6.540   1.411   0.228
 3877SOL    HW212531   6.416   1.477   0.144
 3878SOL     OW12532   4.636   0.704   4.356
 3878SOL    HW112533   4.566   0.706   4.285
 3878SOL    HW212534   4.697   0.782   4.345
 3879SOL     OW12535   5.385   5.296   0.442
 3879SOL    HW112536   5.453   5.335   0.379
 3879SOL    HW212537   5.428   5.225   0.497
 3880SOL     OW12538   4.387   4.659   4.093
 3880SOL    HW112539   4.349   4.721   4.161
 3880SOL    HW212540   4.475   4.694   4.061
 3881SOL     OW12541   0.733   4.094   0.524
 3881SOL    HW112542   0.719   4.109   0.426
 3881SOL    HW212543   0.726   3.996   0.544
 3882SOL     OW12544   0.845   1.730   6.903
 3882SOL    HW112545   0.928   1.710   6.956
 3882SOL    HW212546   0.807   1.817   6.933
 3883SOL     OW12547   5.271   6.199   2.621
 3883SOL    HW112548   5.282   6.279   2.562
 3883SOL    HW212549   5.292   6.225   2.716
 3884SOL     OW12550   0.632   4.700   1.866
 3884SOL    HW112551   0.688   4.617   1.861
 3884SOL    HW212552   0.569   4.693   1.943
 3885SOL     OW12553   5.411   6.061   3.040
 3885SOL    HW112554   5.348   5.986   3.061
 3885SOL    HW212555   5.497   6.047   3.090
 3886SOL     OW12556   3.662   6.471   5.883
 3886SOL    HW112557   3.627   6.397   5.825
 3886SOL    HW212558   3.610   6.473   5.969
 3887SOL     OW12559   0.303   6.418   2.341
 3887SOL    HW112560   0.309   6.517   2.328
 3887SOL    HW212561   0.243   6.399   2.419
 3888SOL     OW12562   6.221   5.715   4.202
 3888SOL    HW112563   6.265   5.626   4.192
 3888SOL    HW212564   6.249   5.757   4.288
 3889SOL     OW12565   4.875   3.415   6.408
 3889SOL    HW112566   4.821   3.335   6.433
 3889SOL    HW212567   4.824   3.471   6.343
 3890SOL     OW12568   5.355   2.946   4.222
 3890SOL    HW112569   5.408   2.871   4.262
 3890SOL    HW212570   5.349   3.022   4.287
 3891SOL     OW12571   6.341   5.298   3.288
 3891SOL    HW112572   6.259   5.241   3.298
 3891SOL    HW212573   6.412   5.245   3.241
 3892SOL     OW12574   0.203   2.057   1.514
 3892SOL    HW112575   0.227   2.144   1.557
 3892SOL    HW212576   0.104   2.050   1.508
 3893SOL     OW12577   3.999   3.407   1.878
 3893SOL    HW112578   3.950   3.439   1.959
 3893SOL    HW212579   4.062   3.479   1.848
 3894SOL     OW12580   4.477   0.460   6.320
 3894SOL    HW112581   4.385   0.476   6.358
 3894SOL    HW212582   4.535   0.419   6.391
 3895SOL     OW12583   2.138   6.861   4.372
 3895SOL    HW112584   2.104   6.819   4.456
 3895SOL    HW212585   2.091   6.949   4.358
 3896SOL     OW12586   1.119   0.799   6.737
 3896SOL    HW112587   1.019   0.793   6.738
 3896SOL    HW212588   1.152   0.817   6.830
 3897SOL     OW12589   4.761   6.168   1.809
 3897SOL    HW112590   4.817   6.250   1.817
 3897SOL    HW212591   4.727   6.160   1.715
 3898SOL     OW12592   4.261   2.852   0.093
 3898SOL    HW112593   4.289   2.939   0.135
 3898SOL    HW212594   4.279   2.856   7.021
 3899SOL     OW12595   3.615   6.219   6.622
 3899SOL    HW112596   3.673   6.197   6.543
 3899SOL    HW212597   3.556   6.141   6.641
 3900SOL     OW12598   5.150   3.806   3.177
 3900SOL    HW112599   5.054   3.784   3.156
 3900SOL    HW212600   5.169   3.781   3.272
 3901SOL     OW12601   2.606   0.385   0.090
 3901SOL    HW112602   2.593   0.380   7.018
 3901SOL    HW212603   2.621   0.293   0.126
 3902SOL     OW12604   6.490   3.032   2.615
 3902SOL    HW112605   6.484   2.939   2.579
 3902SOL    HW212606   6.410   3.050   2.673
 3903SOL     OW12607   3.304   5.372   6.585
 3903SOL    HW112608   3.334   5.398   6.677
 3903SOL    HW212609   3.250   5.288   6.591
 3904SOL     OW12610   0.768   0.335   7.011
 3904SOL    HW112611   0.846   0.276   0.003
 3904SOL    HW212612   0.753   0.340   6.912
 3905SOL     OW12613   6.919   5.882   5.421
 3905SOL    HW112614   6.982   5.914   5.491
 3905SOL    HW212615   6.940   5.787   5.398
 3906SOL     OW12616   6.097   6.670   5.430
 3906SOL    HW112617   6.070   6.582   5.391
 3906SOL    HW212618   6.162   6.655   5.504
 3907SOL     OW12619   6.173   1.343   4.087
 3907SOL    HW112620   6.178   1.437   4.122
 3907SOL    HW212621   6.078   1.320   4.066
 3908SOL     OW12622   1.601   2.493   5.490
 3908SOL    HW112623   1.679   2.430   5.483
 3908SOL    HW212624   1.626   2.581   5.451
 3909SOL     OW12625   6.159   5.395   4.190
 3909SOL    HW112626   6.144   5.454   4.269
 3909SOL    HW212627   6.140   5.300   4.215
 3910SOL     OW12628   3.824   3.845   3.129
 3910SOL    HW112629   3.724   3.839   3.132
 3910SOL    HW212630   3.858   3.870   3.219
 3911SOL     OW12631   6.224   1.914   5.651
 3911SOL    HW112632   6.144   1.974   5.658
 3911SOL    HW212633   6.294   1.945   5.715
 3912SOL     OW12634   5.477   2.509   6.114
 3912SOL    HW112635   5.446   2.452   6.191
 3912SOL    HW212636   5.452   2.464   6.028
 3913SOL     OW12637   1.009   6.818   0.462
 3913SOL    HW112638   1.039   6.855   0.550
 3913SOL    HW212639   0.928   6.761   0.476
 3914SOL     OW12640   3.132   6.185   6.535
 3914SOL    HW112641   3.073   6.113   6.498
 3914SOL    HW212642   3.226   6.152   6.539
 3915SOL     OW12643   6.126   5.523   1.639
 3915SOL    HW112644   6.196   5.453   1.647
 3915SOL    HW212645   6.170   5.613   1.637
 3916SOL     OW12646   1.296   0.025   2.912
 3916SOL    HW112647   1.290   0.119   2.945
 3916SOL    HW212648   1.324   6.992   2.987
 3917SOL     OW12649   1.909   0.160   6.844
 3917SOL    HW112650   1.986   0.136   6.785
 3917SOL    HW212651   1.899   0.091   6.915
 3918SOL     OW12652   5.433   4.337   1.610
 3918SOL    HW112653   5.479   4.253   1.580
 3918SOL    HW212654   5.348   4.312   1.657
 3919SOL     OW12655   3.275   6.746   0.308
 3919SOL    HW112656   3.291   6.668   0.248
 3919SOL    HW212657   3.323   6.826   0.272
 3920SOL     OW12658   2.149   1.838   6.814
 3920SOL    HW112659   2.227   1.782   6.842
 3920SOL    HW212660   2.089   1.853   6.893
 3921SOL     OW12661   1.458   3.735   1.653
 3921SOL    HW112662   1.434   3.819   1.700
 3921SOL    HW212663   1.401   3.660   1.687
 3922SOL     OW12664   0.825   4.833   1.164
 3922SOL    HW112665   0.897   4.894   1.198
 3922SOL    HW212666   0.834   4.744   1.208
 3923SOL     OW12667   0.130   0.295   0.016
 3923SOL    HW112668   0.212   0.279   0.072
 3923SOL    HW212669   0.053   0.246   0.056
 3924SOL     OW12670   6.953   4.577   4.581
 3924SOL    HW112671   7.010   4.504   4.543
 3924SOL    HW212672   7.009   4.640   4.635
 3925SOL     OW12673   1.987   5.301   2.333
 3925SOL    HW112674   1.992   5.247   2.249
 3925SOL    HW212675   2.080   5.330   2.359
 3926SOL     OW12676   4.632   4.400   2.191
 3926SOL    HW112677   4.634   4.500   2.186
 3926SOL    HW212678   4.554   4.365   2.139
 3927SOL     OW12679   0.464   3.288   6.245
 3927SOL    HW112680   0.538   3.334   6.294
 3927SOL    HW212681   0.402   3.245   6.310
 3928SOL     OW12682   5.646   5.582   6.603
 3928SOL    HW112683   5.745   5.596   6.610
 3928SOL    HW212684   5.622   5.492   6.640
 3929SOL     OW12685   0.895   1.426   5.111
 3929SOL    HW112686   0.948   1.446   5.194
 3929SOL    HW212687   0.845   1.509   5.083
 3930SOL     OW12688   1.971   1.505   3.442
 3930SOL    HW112689   1.928   1.418   3.468
 3930SOL    HW212690   2.026   1.491   3.360
 3931SOL     OW12691   6.108   1.606   1.365
 3931SOL    HW112692   6.147   1.665   1.294
 3931SOL    HW212693   6.105   1.512   1.333
 3932SOL     OW12694   1.284   2.175   4.576
 3932SOL    HW112695   1.239   2.234   4.509
 3932SOL    HW212696   1.288   2.082   4.541
 3933SOL     OW12697   1.214   6.680   5.987
 3933SOL    HW112698   1.267   6.757   6.022
 3933SOL    HW212699   1.253   6.594   6.020
 3934SOL     OW12700   5.527   0.431   6.214
 3934SOL    HW112701   5.613   0.400   6.174
 3934SOL    HW212702   5.536   0.525   6.246
 3935SOL     OW12703   4.637   0.720   0.641
 3935SOL    HW112704   4.592   0.634   0.618
 3935SOL    HW212705   4.627   0.784   0.565
 3936SOL     OW12706   0.007   5.302   3.454
 3936SOL    HW112707   6.939   5.331   3.449
 3936SOL    HW212708   0.062   5.376   3.494
 3937SOL     OW12709   0.622   1.148   2.838
 3937SOL    HW112710   0.595   1.224   2.779
 3937SOL    HW212711   0.618   1.177   2.934
 3938SOL     OW12712   0.018   1.815   2.974
 3938SOL    HW112713   0.046   1.811   3.070
 3938SOL    HW212714   0.060   1.739   2.924
 3939SOL     OW12715   2.870   1.645   2.020
 3939SOL    HW112716   2.779   1.651   1.977
 3939SOL    HW212717   2.864   1.671   2.116
 3940SOL     OW12718   3.715   3.579   1.324
 3940SOL    HW112719   3.808   3.580   1.360
 3940SOL    HW212720   3.654   3.535   1.390
 3941SOL     OW12721   4.045   4.219   6.110
 3941SOL    HW112722   3.965   4.172   6.147
 3941SOL    HW212723   4.022   4.314   6.089
 3942SOL     OW12724   6.605   6.365   6.134
 3942SOL    HW112725   6.533   6.386   6.200
 3942SOL    HW212726   6.689   6.412   6.159
 3943SOL     OW12727   0.544   3.692   4.404
 3943SOL    HW112728   0.574   3.647   4.488
 3943SOL    HW212729   0.624   3.722   4.352
 3944SOL     OW12730   5.058   2.606   4.175
 3944SOL    HW112731   4.981   2.550   4.205
 3944SOL    HW212732   5.052   2.620   4.076
 3945SOL     OW12733   6.767   1.012   1.237
 3945SOL    HW112734   6.738   0.954   1.161
 3945SOL    HW212735   6.860   0.987   1.264
 3946SOL     OW12736   4.293   4.856   3.043
 3946SOL    HW112737   4.228   4.863   2.968
 3946SOL    HW212738   4.299   4.945   3.089
 3947SOL     OW12739   5.667   5.669   0.192
 3947SOL    HW112740   5.615   5.751   0.171
 3947SOL    HW212741   5.675   5.658   0.291
 3948SOL     OW12742   6.072   4.447   1.550
 3948SOL    HW112743   6.041   4.445   1.455
 3948SOL    HW212744   5.994   4.434   1.611
 3949SOL     OW12745   4.424   5.963   3.509
 3949SOL    HW112746   4.428   5.974   3.410
 3949SOL    HW212747   4.460   5.873   3.534
 3950SOL     OW12748   1.546   5.681   0.966
 3950SOL    HW112749   1.640   5.679   1.002
 3950SOL    HW212750   1.533   5.607   0.901
 3951SOL     OW12751   5.468   0.285   1.951
 3951SOL    HW112752   5.508   0.246   1.867
 3951SOL    HW212753   5.504   0.236   2.030
 3952SOL     OW12754   6.517   2.674   0.483
 3952SOL    HW112755   6.518   2.750   0.548
 3952SOL    HW212756   6.577   2.601   0.516
 3953SOL     OW12757   3.962   3.889   2.150
 3953SOL    HW112758   3.944   3.979   2.190
 3953SOL    HW212759   3.948   3.819   2.219
 3954SOL     OW12760   3.722   4.626   5.678
 3954SOL    HW112761   3.786   4.701   5.697
 3954SOL    HW212762   3.701   4.624   5.581
 3955SOL     OW12763   3.722   0.369   5.492
 3955SOL    HW112764   3.624   0.385   5.488
 3955SOL    HW212765   3.754   0.336   5.403
 3956SOL     OW12766   1.604   1.037   1.913
 3956SOL    HW112767   1.580   0.970   1.983
 3956SOL    HW212768   1.555   1.123   1.932
 3957SOL     OW12769   3.721   0.518   4.376
 3957SOL    HW112770   3.695   0.611   4.400
 3957SOL    HW212771   3.641   0.459   4.379
 3958SOL     OW12772   6.000   1.506   5.360
 3958SOL    HW112773   6.008   1.602   5.334
 3958SOL    HW212774   6.065   1.451   5.308
 3959SOL     OW12775   4.926   5.163   0.702
 3959SOL    HW112776   4.829   5.138   0.709
 3959SOL    HW212777   4.977   5.089   0.659
 3960SOL     OW12778   5.507   2.128   4.541
 3960SOL    HW112779   5.472   2.120   4.447
 3960SOL    HW212780   5.448   2.190   4.593
 3961SOL     OW12781   5.529   6.620   3.719
 3961SOL    HW112782   5.541   6.648   3.815
 3961SOL    HW212783   5.544   6.522   3.710
 3962SOL     OW12784   0.400   4.965   5.239
 3962SOL    HW112785   0.333   5.012   5.182
 3962SOL    HW212786   0.483   4.947   5.186
 3963SOL     OW12787   4.652   6.694   1.773
 3963SOL    HW112788   4.588   6.636   1.824
 3963SOL    HW212789   4.722   6.728   1.836
 3964SOL     OW12790   4.991   3.590   3.438
 3964SOL    HW112791   4.922   3.658   3.461
 3964SOL    HW212792   5.082   3.632   3.440
 3965SOL     OW12793   4.890   3.800   4.592
 3965SOL    HW112794   4.862   3.803   4.496
 3965SOL    HW212795   4.895   3.705   4.623
 3966SOL     OW12796   2.682   6.051   6.665
 3966SOL    HW112797   2.652   6.143   6.691
 3966SOL    HW212798   2.678   6.042   6.565
 3967SOL     OW12799   2.459   5.096   3.069
 3967SOL    HW112800   2.404   5.177   3.048
 3967SOL    HW212801   2.475   5.045   2.985
 3968SOL     OW12802   4.427   0.472   0.782
 3968SOL    HW112803   4.387   0.563   0.768
 3968SOL    HW212804   4.364   0.416   0.837
 3969SOL     OW12805   1.902   5.832   1.949
 3969SOL    HW112806   1.843   5.894   1.898
 3969SOL    HW212807   1.899   5.741   1.907
 3970SOL     OW12808   5.400   6.398   2.452
 3970SOL    HW112809   5.486   6.420   2.406
 3970SOL    HW212810   5.324   6.440   2.401
 3971SOL     OW12811   3.005   5.575   4.050
 3971SOL    HW112812   2.907   5.555   4.046
 3971SOL    HW212813   3.023   5.665   4.010
 3972SOL     OW12814   2.045   4.011   0.341
 3972SOL    HW112815   2.041   4.049   0.433
 3972SOL    HW212816   2.021   4.083   0.275
 3973SOL     OW12817   1.094   5.675   0.539
 3973SOL    HW112818   1.184   5.717   0.523
 3973SOL    HW212819   1.106   5.578   0.559
 3974SOL     OW12820   2.267   0.523   5.736
 3974SOL    HW112821   2.291   0.556   5.645
 3974SOL    HW212822   2.344   0.537   5.798
 3975SOL     OW12823   5.027   2.062   6.118
 3975SOL    HW112824   5.032   2.080   6.020
 3975SOL    HW212825   4.939   2.094   6.154
 3976SOL     OW12826   1.874   5.788   2.230
 3976SOL    HW112827   1.913   5.834   2.151
 3976SOL    HW212828   1.774   5.791   2.225
 3977SOL     OW12829   0.330   3.207   6.729
 3977SOL    HW112830   0.265   3.219   6.654
 3977SOL    HW212831   0.319   3.281   6.795
 3978SOL     OW12832   6.886   4.392   3.979
 3978SOL    HW112833   6.838   4.352   3.901
 3978SOL    HW212834   6.960   4.451   3.946
 3979SOL     OW12835   3.454   0.136   6.433
 3979SOL    HW112836   3.480   0.057   6.489
 3979SOL    HW212837   3.371   0.176   6.471
 3980SOL     OW12838   5.752   6.478   6.076
 3980SOL    HW112839   5.676   6.467   6.013
 3980SOL    HW212840   5.835   6.437   6.038
 3981SOL     OW12841   4.934   6.757   0.369
 3981SOL    HW112842   4.960   6.663   0.348
 3981SOL    HW212843   5.016   6.812   0.387
 3982SOL     OW12844   2.590   6.686   2.824
 3982SOL    HW112845   2.614   6.783   2.824
 3982SOL    HW212846   2.673   6.631   2.826
 3983SOL     OW12847   4.505   5.724   3.678
 3983SOL    HW112848   4.547   5.710   3.588
 3983SOL    HW212849   4.479   5.636   3.717
 3984SOL     OW12850   6.544   2.326   2.690
 3984SOL    HW112851   6.452   2.290   2.678
 3984SOL    HW212852   6.547   2.386   2.769
 3985SOL     OW12853   3.480   5.529   6.087
 3985SOL    HW112854   3.492   5.458   6.018
 3985SOL    HW212855   3.442   5.489   6.170
 3986SOL     OW12856   5.385   1.044   1.892
 3986SOL    HW112857   5.473   1.048   1.844
 3986SOL    HW212858   5.393   0.987   1.973
 3987SOL     OW12859   3.101   4.824   5.524
 3987SOL    HW112860   3.088   4.764   5.445
 3987SOL    HW212861   3.019   4.824   5.581
 3988SOL     OW12862   4.492   5.435   0.284
 3988SOL    HW112863   4.457   5.490   0.207
 3988SOL    HW212864   4.467   5.340   0.270
 3989SOL     OW12865   6.425   2.072   6.866
 3989SOL    HW112866   6.454   2.135   6.795
 3989SOL    HW212867   6.364   2.120   6.930
 3990SOL     OW12868   5.473   2.552   1.772
 3990SOL    HW112869   5.414   2.496   1.831
 3990SOL    HW212870   5.507   2.630   1.824
 3991SOL     OW12871   0.159   0.815   3.337
 3991SOL    HW112872   0.167   0.721   3.368
 3991SOL    HW212873   0.243   0.864   3.359
 3992SOL     OW12874   2.962   2.648   1.217
 3992SOL    HW112875   3.036   2.712   1.198
 3992SOL    HW212876   2.939   2.650   1.314
 3993SOL     OW12877   1.712   3.544   1.589
 3993SOL    HW112878   1.635   3.483   1.606
 3993SOL    HW212879   1.682   3.639   1.601
 3994SOL     OW12880   2.863   0.090   5.488
 3994SOL    HW112881   2.916   0.110   5.406
 3994SOL    HW212882   2.814   0.172   5.518
 3995SOL     OW12883   1.324   2.957   4.987
 3995SOL    HW112884   1.393   2.894   5.021
 3995SOL    HW212885   1.337   2.971   4.889
 3996SOL     OW12886   0.099   6.589   4.776
 3996SOL    HW112887   0.160   6.524   4.820
 3996SOL    HW212888   0.106   6.678   4.821
 3997SOL     OW12889   5.916   0.595   4.569
 3997SOL    HW112890   5.860   0.589   4.487
 3997SOL    HW212891   5.864   0.642   4.641
 3998SOL     OW12892   4.398   2.459   3.655
 3998SOL    HW112893   4.452   2.375   3.648
 3998SOL    HW212894   4.459   2.536   3.675
 3999SOL     OW12895   6.212   1.982   4.996
 3999SOL    HW112896   6.274   1.948   5.066
 3999SOL    HW212897   6.230   2.079   4.979
 4000SOL     OW12898   3.811   0.165   3.574
 4000SOL    HW112899   3.823   0.235   3.645
 4000SOL    HW212900   3.713   0.155   3.554
 4001SOL     OW12901   0.688   2.215   3.134
 4001SOL    HW112902   0.727   2.189   3.222
 4001SOL    HW212903   0.708   2.144   3.067
 4002SOL     OW12904   2.008   3.642   1.976
 4002SOL    HW112905   1.952   3.637   1.893
 4002SOL    HW212906   2.092   3.591   1.963
 4003SOL     OW12907   3.536   0.951   4.796
 4003SOL    HW112908   3.548   0.984   4.889
 4003SOL    HW212909   3.489   1.020   4.741
 4004SOL     OW12910   6.761   1.576   5.308
 4004SOL    HW112911   6.822   1.569   5.387
 4004SOL    HW212912   6.672   1.611   5.337
 4005SOL     OW12913   5.232   5.211   6.163
 4005SOL    HW112914   5.331   5.200   6.171
 4005SOL    HW212915   5.212   5.293   6.110
 4006SOL     OW12916   3.668   5.740   2.337
 4006SOL    HW112917   3.577   5.750   2.376
 4006SOL    HW212918   3.679   5.803   2.260
 4007SOL     OW12919   6.583   2.232   6.714
 4007SOL    HW112920   6.622   2.141   6.704
 4007SOL    HW212921   6.656   2.300   6.704
 4008SOL     OW12922   2.774   2.388   5.319
 4008SOL    HW112923   2.708   2.461   5.342
 4008SOL    HW212924   2.756   2.308   5.376
 4009SOL     OW12925   4.110   3.200   2.579
 4009SOL    HW112926   4.159   3.238   2.658
 4009SOL    HW212927   4.023   3.249   2.568
 4010SOL     OW12928   2.196   3.244   6.467
 4010SOL    HW112929   2.141   3.161   6.465
 4010SOL    HW212930   2.290   3.222   6.441
 4011SOL     OW12931   0.808   2.327   1.255
 4011SOL    HW112932   0.773   2.389   1.326
 4011SOL    HW212933   0.804   2.373   1.167
 4012SOL     OW12934   6.573   3.523   3.742
 4012SOL    HW112935   6.646   3.468   3.700
 4012SOL    HW212936   6.504   3.462   3.781
 4013SOL     OW12937   4.656   2.422   3.259
 4013SOL    HW112938   4.561   2.417   3.290
 4013SOL    HW212939   4.672   2.512   3.217
 4014SOL     OW12940   5.508   5.818   2.689
 4014SOL    HW112941   5.564   5.795   2.769
 4014SOL    HW212942   5.542   5.902   2.647
 4015SOL     OW12943   4.839   3.673   6.636
 4015SOL    HW112944   4.930   3.631   6.628
 4015SOL    HW212945   4.840   3.765   6.597
 4016SOL     OW12946   3.282   6.430   5.152
 4016SOL    HW112947   3.362   6.481   5.120
 4016SOL    HW212948   3.259   6.459   5.246
 4017SOL     OW12949   6.572   5.952   6.877
 4017SOL    HW112950   6.635   5.878   6.900
 4017SOL    HW212951   6.572   5.965   6.778
 4018SOL     OW12952   2.708   6.159   0.948
 4018SOL    HW112953   2.627   6.208   0.979
 4018SOL    HW212954   2.684   6.101   0.870
 4019SOL     OW12955   5.614   4.999   3.471
 4019SOL    HW112956   5.555   4.995   3.552
 4019SOL    HW212957   5.561   5.032   3.393
 4020SOL     OW12958   5.420   2.138   5.196
 4020SOL    HW112959   5.460   2.114   5.108
 4020SOL    HW212960   5.433   2.236   5.213
 4021SOL     OW12961   3.873   4.605   6.482
 4021SOL    HW112962   3.881   4.603   6.582
 4021SOL    HW212963   3.816   4.682   6.455
 4022SOL     OW12964   5.229   0.325   1.205
 4022SOL    HW112965   5.209   0.400   1.268
 4022SOL    HW212966   5.289   0.259   1.250
 4023SOL     OW12967   6.987   0.667   5.480
 4023SOL    HW112968   0.003   0.602   5.418
 4023SOL    HW212969   6.889   0.649   5.484
 4024SOL     OW12970   3.727   4.921   4.356
 4024SOL    HW112971   3.725   4.919   4.456
 4024SOL    HW212972   3.805   4.867   4.324
 4025SOL     OW12973   1.669   4.354   2.753
 4025SOL    HW112974   1.765   4.328   2.744
 4025SOL    HW212975   1.658   4.414   2.833
 4026SOL     OW12976   5.086   6.404   4.295
 4026SOL    HW112977   5.119   6.377   4.385
 4026SOL    HW212978   5.155   6.461   4.250
 4027SOL     OW12979   4.403   5.477   1.521
 4027SOL    HW112980   4.460   5.471   1.603
 4027SOL    HW212981   4.435   5.411   1.454
 4028SOL     OW12982   2.798   7.012   4.013
 4028SOL    HW112983   2.716   0.007   4.066
 4028SOL    HW212984   2.777   7.023   3.915
 4029SOL     OW12985   2.256   4.100   3.963
 4029SOL    HW112986   2.289   4.050   4.043
 4029SOL    HW212987   2.257   4.198   3.982
 4030SOL     OW12988   1.218   1.296   5.956
 4030SOL    HW112989   1.150   1.244   6.009
 4030SOL    HW212990   1.176   1.379   5.920
 4031SOL     OW12991   4.913   5.454   4.612
 4031SOL    HW112992   5.012   5.464   4.619
 4031SOL    HW212993   4.889   5.424   4.520
 4032SOL     OW12994   5.299   0.011   4.554
 4032SOL    HW112995   5.245   7.018   4.472
 4032SOL    HW212996   5.310   0.110   4.564
 4033SOL     OW12997   3.066   3.775   5.219
 4033SOL    HW112998   3.144   3.794   5.160
 4033SOL    HW212999   3.026   3.686   5.194
 4034SOL     OW13000   6.496   2.363   4.037
 4034SOL    HW113001   6.480   2.461   4.025
 4034SOL    HW213002   6.556   2.348   4.116
 4035SOL     OW13003   0.306   5.597   0.792
 4035SOL    HW113004   0.344   5.533   0.859
 4035SOL    HW213005   0.321   5.690   0.823
 4036SOL     OW13006   6.472   6.306   3.023
 4036SOL    HW113007   6.554   6.336   2.975
 4036SOL    HW213008   6.430   6.384   3.068
 4037SOL     OW13009   6.709   4.582   6.150
 4037SOL    HW113010   6.779   4.519   6.117
 4037SOL    HW213011   6.700   4.573   6.250
 4038SOL     OW13012   6.444   5.072   3.980
 4038SOL    HW113013   6.412   5.064   3.885
 4038SOL    HW213014   6.544   5.068   3.982
 4039SOL     OW13015   4.506   5.615   0.534
 4039SOL    HW113016   4.550   5.596   0.446
 4039SOL    HW213017   4.544   5.554   0.603
 4040SOL     OW13018   3.965   6.321   1.066
 4040SOL    HW113019   4.008   6.231   1.061
 4040SOL    HW213020   4.035   6.392   1.055
 4041SOL     OW13021   1.139   0.048   3.558
 4041SOL    HW113022   1.041   0.069   3.567
 4041SOL    HW213023   1.193   0.129   3.580
 4042SOL     OW13024   6.051   5.229   2.427
 4042SOL    HW113025   6.141   5.209   2.465
 4042SOL    HW213026   5.994   5.273   2.497
 4043SOL     OW13027   6.129   3.626   1.955
 4043SOL    HW113028   6.133   3.528   1.974
 4043SOL    HW213029   6.221   3.660   1.938
 4044SOL     OW13030   6.915   5.892   3.463
 4044SOL    HW113031   6.986   5.921   3.398
 4044SOL    HW213032   6.825   5.911   3.425
 4045SOL     OW13033   2.034   4.660   5.389
 4045SOL    HW113034   2.028   4.746   5.439
 4045SOL    HW213035   1.979   4.591   5.435
 4046SOL     OW13036   0.421   3.072   0.859
 4046SOL    HW113037   0.347   3.121   0.905
 4046SOL    HW213038   0.500   3.064   0.921
 4047SOL     OW13039   3.122   4.067   1.674
 4047SOL    HW113040   3.182   4.055   1.753
 4047SOL    HW213041   3.099   3.977   1.637
 4048SOL     OW13042   4.718   2.248   1.130
 4048SOL    HW113043   4.725   2.286   1.222
 4048SOL    HW213044   4.635   2.280   1.086
 4049SOL     OW13045   6.824   0.904   5.818
 4049SOL    HW113046   6.864   0.813   5.811
 4049SOL    HW213047   6.862   0.963   5.747
 4050SOL     OW13048   2.114   0.365   1.560
 4050SOL    HW113049   2.058   0.319   1.492
 4050SOL    HW213050   2.186   0.304   1.592
 4051SOL     OW13051   1.790   4.557   1.016
 4051SOL    HW113052   1.784   4.458   1.031
 4051SOL    HW213053   1.699   4.593   0.996
 4052SOL     OW13054   1.519   6.376   1.656
 4052SOL    HW113055   1.576   6.297   1.678
 4052SOL    HW213056   1.441   6.347   1.601
 4053SOL     OW13057   2.992   4.774   3.207
 4053SOL    HW113058   2.923   4.811   3.270
 4053SOL    HW213059   3.082   4.777   3.250
 4054SOL     OW13060   5.263   1.913   6.902
 4054SOL    HW113061   5.363   1.913   6.906
 4054SOL    HW213062   5.226   1.925   6.994
 4055SOL     OW13063   4.582   2.891   0.574
 4055SOL    HW113064   4.597   2.866   0.478
 4055SOL    HW213065   4.628   2.977   0.594
 4056SOL     OW13066   3.856   3.171   1.111
 4056SOL    HW113067   3.805   3.253   1.086
 4056SOL    HW213068   3.805   3.090   1.083
 4057SOL     OW13069   6.443   2.547   0.144
 4057SOL    HW113070   6.408   2.615   0.208
 4057SOL    HW213071   6.481   2.470   0.195
 4058SOL     OW13072   1.716   1.052   5.000
 4058SOL    HW113073   1.651   1.042   4.924
 4058SOL    HW213074   1.666   1.053   5.086
 4059SOL     OW13075   6.072   1.544   4.910
 4059SOL    HW113076   6.156   1.585   4.875
 4059SOL    HW213077   6.000   1.612   4.915
 4060SOL     OW13078   3.885   6.004   4.940
 4060SOL    HW113079   3.829   5.943   4.884
 4060SOL    HW213080   3.969   6.026   4.891
 4061SOL     OW13081   2.501   3.003   1.619
 4061SOL    HW113082   2.496   2.994   1.519
 4061SOL    HW213083   2.425   3.059   1.651
 4062SOL     OW13084   3.921   6.263   3.054
 4062SOL    HW113085   3.932   6.218   3.143
 4062SOL    HW213086   3.881   6.354   3.068
 4063SOL     OW13087   2.519   5.316   6.234
 4063SOL    HW113088   2.433   5.330   6.186
 4063SOL    HW213089   2.552   5.223   6.219
 4064SOL     OW13090   6.322   0.183   4.262
 4064SOL    HW113091   6.369   0.262   4.223
 4064SOL    HW213092   6.228   0.207   4.283
 4065SOL     OW13093   6.260   4.987   0.178
 4065SOL    HW113094   6.245   4.896   0.218
 4065SOL    HW213095   6.246   5.057   0.248
 4066SOL     OW13096   6.496   5.118   2.071
 4066SOL    HW113097   6.406   5.080   2.094
 4066SOL    HW213098   6.496   5.217   2.090
 4067SOL     OW13099   6.158   0.754   1.372
 4067SOL    HW113100   6.139   0.750   1.273
 4067SOL    HW213101   6.145   0.848   1.404
 4068SOL     OW13102   5.786   1.070   4.537
 4068SOL    HW113103   5.775   1.013   4.456
 4068SOL    HW213104   5.708   1.131   4.547
 4069SOL     OW13105   6.381   5.824   1.376
 4069SOL    HW113106   6.353   5.730   1.358
 4069SOL    HW213107   6.434   5.828   1.460
 4070SOL     OW13108   0.207   3.773   3.064
 4070SOL    HW113109   0.140   3.726   3.007
 4070SOL    HW213110   0.215   3.727   3.152
 4071SOL     OW13111   2.430   0.538   3.669
 4071SOL    HW113112   2.513   0.592   3.679
 4071SOL    HW213113   2.440   0.452   3.720
 4072SOL     OW13114   0.917   0.120   4.278
 4072SOL    HW113115   0.910   0.208   4.231
 4072SOL    HW213116   1.013   0.092   4.282
 4073SOL     OW13117   3.192   5.228   1.462
 4073SOL    HW113118   3.115   5.276   1.420
 4073SOL    HW213119   3.278   5.267   1.428
 4074SOL     OW13120   0.554   3.039   0.603
 4074SOL    HW113121   0.545   2.940   0.586
 4074SOL    HW213122   0.493   3.066   0.677
 4075SOL     OW13123   5.058   0.609   3.806
 4075SOL    HW113124   5.107   0.557   3.736
 4075SOL    HW213125   4.968   0.568   3.822
 4076SOL     OW13126   1.551   2.523   3.332
 4076SOL    HW113127   1.482   2.543   3.263
 4076SOL    HW213128   1.519   2.553   3.421
 4077SOL     OW13129   3.064   1.118   1.013
 4077SOL    HW113130   3.078   1.153   0.921
 4077SOL    HW213131   3.032   1.192   1.072
 4078SOL     OW13132   5.089   4.017   2.315
 4078SOL    HW113133   4.998   3.992   2.347
 4078SOL    HW213134   5.110   4.110   2.345
 4079SOL     OW13135   6.239   0.526   4.344
 4079SOL    HW113136   6.324   0.503   4.296
 4079SOL    HW213137   6.259   0.543   4.440
 4080SOL     OW13138   3.748   3.026   2.840
 4080SOL    HW113139   3.764   3.125   2.831
 4080SOL    HW213140   3.703   2.992   2.758
 4081SOL     OW13141   2.410   2.503   6.532
 4081SOL    HW113142   2.384   2.454   6.615
 4081SOL    HW213143   2.339   2.491   6.463
 4082SOL     OW13144   1.358   2.481   5.597
 4082SOL    HW113145   1.343   2.391   5.636
 4082SOL    HW213146   1.452   2.488   5.564
 4083SOL     OW13147   6.045   5.397   3.130
 4083SOL    HW113148   5.992   5.457   3.190
 4083SOL    HW213149   6.000   5.308   3.124
 4084SOL     OW13150   4.617   0.688   2.297
 4084SOL    HW113151   4.625   0.590   2.315
 4084SOL    HW213152   4.528   0.708   2.257
 4085SOL     OW13153   2.829   4.765   2.559
 4085SOL    HW113154   2.774   4.754   2.476
 4085SOL    HW213155   2.923   4.786   2.534
 4086SOL     OW13156   6.402   4.863   4.750
 4086SOL    HW113157   6.442   4.799   4.684
 4086SOL    HW213158   6.413   4.956   4.716
 4087SOL     OW13159   1.846   0.305   1.821
 4087SOL    HW113160   1.850   0.394   1.866
 4087SOL    HW213161   1.930   0.254   1.839
 4088SOL     OW13162   6.862   2.268   5.521
 4088SOL    HW113163   6.954   2.265   5.561
 4088SOL    HW213164   6.837   2.176   5.489
 4089SOL     OW13165   1.041   0.932   2.527
 4089SOL    HW113166   1.049   0.880   2.612
 4089SOL    HW213167   0.970   1.002   2.536
 4090SOL     OW13168   2.385   2.786   5.608
 4090SOL    HW113169   2.425   2.773   5.517
 4090SOL    HW213170   2.338   2.701   5.635
 4091SOL     OW13171   3.327   5.856   1.943
 4091SOL    HW113172   3.262   5.903   1.883
 4091SOL    HW213173   3.279   5.820   2.022
 4092SOL     OW13174   4.876   2.257   5.837
 4092SOL    HW113175   4.854   2.312   5.918
 4092SOL    HW213176   4.974   2.237   5.836
 4093SOL     OW13177   5.353   4.369   3.479
 4093SOL    HW113178   5.441   4.339   3.444
 4093SOL    HW213179   5.356   4.375   3.578
 4094SOL     OW13180   0.383   6.239   6.983
 4094SOL    HW113181   0.318   6.247   0.032
 4094SOL    HW213182   0.411   6.330   6.954
 4095SOL     OW13183   1.339   5.195   0.620
 4095SOL    HW113184   1.325   5.198   0.719
 4095SOL    HW213185   1.254   5.168   0.575
 4096SOL     OW13186   0.708   0.482   6.337
 4096SOL    HW113187   0.787   0.468   6.278
 4096SOL    HW213188   0.646   0.548   6.295
 4097SOL     OW13189   6.848   3.867   4.847
 4097SOL    HW113190   6.760   3.877   4.801
 4097SOL    HW213191   6.883   3.775   4.831
 4098SOL     OW13192   0.783   5.131   1.645
 4098SOL    HW113193   0.718   5.063   1.678
 4098SOL    HW213194   0.793   5.203   1.713
 4099SOL     OW13195   6.193   3.788   5.652
 4099SOL    HW113196   6.244   3.753   5.731
 4099SOL    HW213197   6.096   3.796   5.675
 4100SOL     OW13198   1.820   2.063   2.752
 4100SOL    HW113199   1.820   2.074   2.652
 4100SOL    HW213200   1.908   2.025   2.781
 4101SOL     OW13201   6.403   5.633   0.026
 4101SOL    HW113202   6.374   5.711   0.082
 4101SOL    HW213203   6.503   5.625   0.029
 4102SOL     OW13204   1.082   5.943   0.443
 4102SOL    HW113205   1.032   5.858   0.461
 4102SOL    HW213206   1.017   6.016   0.419
 4103SOL     OW13207   2.063   6.321   3.241
 4103SOL    HW113208   2.067   6.337   3.340
 4103SOL    HW213209   2.150   6.284   3.210
 4104SOL     OW13210   1.949   6.124   5.104
 4104SOL    HW113211   1.964   6.048   5.168
 4104SOL    HW213212   1.925   6.089   5.014
 4105SOL     OW13213   4.671   0.425   2.356
 4105SOL    HW113214   4.693   0.428   2.454
 4105SOL    HW213215   4.661   0.330   2.327
 4106SOL     OW13216   1.288   0.565   2.573
 4106SOL    HW113217   1.205   0.531   2.529
 4106SOL    HW213218   1.364   0.504   2.551
 4107SOL     OW13219   1.443   0.805   1.184
 4107SOL    HW113220   1.496   0.797   1.100
 4107SOL    HW213221   1.499   0.778   1.262
 4108SOL     OW13222   6.229   6.200   5.926
 4108SOL    HW113223   6.206   6.121   5.870
 4108SOL    HW213224   6.326   6.222   5.915
 4109SOL     OW13225   5.278   6.176   4.288
 4109SOL    HW113226   5.184   6.154   4.313
 4109SOL    HW213227   5.305   6.123   4.208
 4110SOL     OW13228   5.218   2.702   0.547
 4110SOL    HW113229   5.276   2.653   0.482
 4110SOL    HW213230   5.127   2.716   0.508
 4111SOL     OW13231   6.118   4.919   4.376
 4111SOL    HW113232   6.088   5.013   4.360
 4111SOL    HW213233   6.159   4.912   4.467
 4112SOL     OW13234   4.026   6.200   4.330
 4112SOL    HW113235   3.950   6.215   4.267
 4112SOL    HW213236   3.990   6.185   4.422
 4113SOL     OW13237   4.132   5.559   4.547
 4113SOL    HW113238   4.082   5.477   4.521
 4113SOL    HW213239   4.186   5.591   4.469
 4114SOL     OW13240   0.363   0.765   1.638
 4114SOL    HW113241   0.417   0.837   1.681
 4114SOL    HW213242   0.380   0.678   1.684
 4115SOL     OW13243   4.609   5.988   3.786
 4115SOL    HW113244   4.532   6.038   3.747
 4115SOL    HW213245   4.603   5.891   3.761
 4116SOL     OW13246   5.311   3.450   3.073
 4116SOL    HW113247   5.345   3.399   2.994
 4116SOL    HW213248   5.285   3.543   3.045
 4117SOL     OW13249   1.421   0.956   3.520
 4117SOL    HW113250   1.342   0.951   3.460
 4117SOL    HW213251   1.485   1.024   3.486
 4118SOL     OW13252   0.786   6.619   0.565
 4118SOL    HW113253   0.821   6.571   0.646
 4118SOL    HW213254   0.770   6.552   0.493
 4119SOL     OW13255   0.410   0.543   4.518
 4119SOL    HW113256   0.360   0.627   4.540
 4119SOL    HW213257   0.362   0.465   4.559
 4120SOL     OW13258   2.411   0.831   6.335
 4120SOL    HW113259   2.408   0.774   6.417
 4120SOL    HW213260   2.397   0.773   6.254
 4121SOL     OW13261   6.839   0.608   2.198
 4121SOL    HW113262   6.922   0.654   2.231
 4121SOL    HW213263   6.777   0.675   2.159
 4122SOL     OW13264   0.605   4.854   2.967
 4122SOL    HW113265   0.554   4.833   2.884
 4122SOL    HW213266   0.553   4.824   3.047
 4123SOL     OW13267   5.053   4.311   1.108
 4123SOL    HW113268   4.969   4.363   1.125
 4123SOL    HW213269   5.102   4.299   1.194
 4124SOL     OW13270   6.430   6.347   7.013
 4124SOL    HW113271   6.434   6.270   6.950
 4124SOL    HW213272   6.338   6.353   0.026
 4125SOL     OW13273   6.629   2.913   0.266
 4125SOL    HW113274   6.534   2.908   0.297
 4125SOL    HW213275   6.639   2.859   0.181
 4126SOL     OW13276   0.545   3.548   3.847
 4126SOL    HW113277   0.507   3.458   3.822
 4126SOL    HW213278   0.579   3.545   3.941
 4127SOL     OW13279   4.938   2.251   3.863
 4127SOL    HW113280   4.921   2.154   3.879
 4127SOL    HW213281   4.870   2.305   3.912
 4128SOL     OW13282   6.790   2.775   6.474
 4128SOL    HW113283   6.722   2.726   6.528
 4128SOL    HW213284   6.798   2.869   6.507
 4129SOL     OW13285   3.370   1.851   1.357
 4129SOL    HW113286   3.429   1.779   1.393
 4129SOL    HW213287   3.277   1.817   1.349
 4130SOL     OW13288   6.363   2.968   0.336
 4130SOL    HW113289   6.284   2.986   0.393
 4130SOL    HW213290   6.420   3.051   0.330
 4131SOL     OW13291   5.487   0.122   3.244
 4131SOL    HW113292   5.469   0.066   3.325
 4131SOL    HW213293   5.501   0.217   3.272
 4132SOL     OW13294   6.544   5.118   3.256
 4132SOL    HW113295   6.635   5.138   3.221
 4132SOL    HW213296   6.551   5.069   3.343
 4133SOL     OW13297   5.502   6.919   2.807
 4133SOL    HW113298   5.506   6.952   2.902
 4133SOL    HW213299   5.592   6.888   2.778
 4134SOL     OW13300   1.568   3.394   1.169
 4134SOL    HW113301   1.569   3.463   1.097
 4134SOL    HW213302   1.650   3.403   1.226
 4135SOL     OW13303   6.092   1.024   1.245
 4135SOL    HW113304   6.158   1.008   1.172
 4135SOL    HW213305   5.999   1.016   1.209
 4136SOL     OW13306   0.398   4.335   0.926
 4136SOL    HW113307   0.479   4.305   0.876
 4136SOL    HW213308   0.426   4.373   1.015
 4137SOL     OW13309   0.815   2.644   6.515
 4137SOL    HW113310   0.722   2.669   6.542
 4137SOL    HW213311   0.820   2.637   6.415
 4138SOL     OW13312   4.120   6.920   6.776
 4138SOL    HW113313   4.218   6.927   6.757
 4138SOL    HW213314   4.076   7.006   6.753
 4139SOL     OW13315   2.240   4.024   2.791
 4139SOL    HW113316   2.213   4.048   2.698
 4139SOL    HW213317   2.340   4.025   2.798
 4140SOL     OW13318   2.299   0.380   6.929
 4140SOL    HW113319   2.251   0.399   7.015
 4140SOL    HW213320   2.375   0.444   6.919
 4141SOL     OW13321   5.253   0.965   6.403
 4141SOL    HW113322   5.173   1.022   6.423
 4141SOL    HW213323   5.298   0.999   6.321
 4142SOL     OW13324   6.464   5.000   2.458
 4142SOL    HW113325   6.478   4.956   2.547
 4142SOL    HW213326   6.455   4.931   2.387
 4143SOL     OW13327   6.433   3.866   6.329
 4143SOL    HW113328   6.415   3.863   6.231
 4143SOL    HW213329   6.521   3.824   6.348
 4144SOL     OW13330   4.802   1.707   1.535
 4144SOL    HW113331   4.741   1.646   1.584
 4144SOL    HW213332   4.888   1.716   1.586
 4145SOL     OW13333   6.555   0.261   1.603
 4145SOL    HW113334   6.470   0.218   1.634
 4145SOL    HW213335   6.614   0.192   1.562
 4146SOL     OW13336   4.778   0.273   1.261
 4146SOL    HW113337   4.739   0.230   1.179
 4146SOL    HW213338   4.841   0.345   1.234
 4147SOL     OW13339   4.677   4.823   6.838
 4147SOL    HW113340   4.605   4.888   6.817
 4147SOL    HW213341   4.665   4.787   6.931
 4148SOL     OW13342   2.917   1.347   5.421
 4148SOL    HW113343   2.825   1.344   5.458
 4148SOL    HW213344   2.938   1.439   5.390
 4149SOL     OW13345   1.165   3.858   6.821
 4149SOL    HW113346   1.254   3.893   6.793
 4149SOL    HW213347   1.116   3.823   6.741
 4150SOL     OW13348   5.530   1.408   0.374
 4150SOL    HW113349   5.511   1.379   0.280
 4150SOL    HW213350   5.504   1.504   0.385
 4151SOL     OW13351   2.546   5.631   4.900
 4151SOL    HW113352   2.455   5.590   4.898
 4151SOL    HW213353   2.540   5.728   4.876
 4152SOL     OW13354   2.873   4.441   1.385
 4152SOL    HW113355   2.774   4.443   1.380
 4152SOL    HW213356   2.904   4.492   1.466
 4153SOL     OW13357   6.529   5.830   1.955
 4153SOL    HW113358   6.462   5.903   1.962
 4153SOL    HW213359   6.620   5.869   1.941
 4154SOL     OW13360   1.036   6.886   4.028
 4154SOL    HW113361   1.068   6.956   4.093
 4154SOL    HW213362   1.110   6.823   4.008
 4155SOL     OW13363   0.061   0.523   1.812
 4155SOL    HW113364   0.106   0.540   1.900
 4155SOL    HW213365   7.023   0.597   1.794
 4156SOL     OW13366   0.250   5.215   6.023
 4156SOL    HW113367   0.217   5.125   6.053
 4156SOL    HW213368   0.350   5.210   6.010
 4157SOL     OW13369   5.736   5.916   1.133
 4157SOL    HW113370   5.761   5.874   1.220
 4157SOL    HW213371   5.639   5.940   1.135
 4158SOL     OW13372   0.607   3.026   1.062
 4158SOL    HW113373   0.701   2.997   1.076
 4158SOL    HW213374   0.566   3.054   1.149
 4159SOL     OW13375   3.161   0.603   4.434
 4159SOL    HW113376   3.194   0.510   4.421
 4159SOL    HW213377   3.238   0.663   4.456
 4160SOL     OW13378   0.806   6.531   6.223
 4160SOL    HW113379   0.857   6.478   6.291
 4160SOL    HW213380   0.718   6.486   6.205
 4161SOL     OW13381   3.274   3.294   2.800
 4161SOL    HW113382   3.267   3.263   2.706
 4161SOL    HW213383   3.241   3.223   2.862
 4162SOL     OW13384   5.380   5.213   1.599
 4162SOL    HW113385   5.404   5.196   1.695
 4162SOL    HW213386   5.431   5.150   1.540
 4163SOL     OW13387   4.095   6.168   1.865
 4163SOL    HW113388   4.084   6.230   1.788
 4163SOL    HW213389   4.105   6.074   1.832
 4164SOL     OW13390   6.617   1.464   6.130
 4164SOL    HW113391   6.586   1.381   6.177
 4164SOL    HW213392   6.625   1.539   6.195
 4165SOL     OW13393   3.815   1.143   4.621
 4165SOL    HW113394   3.870   1.226   4.632
 4165SOL    HW213395   3.825   1.087   4.703
 4166SOL     OW13396   6.180   2.051   1.248
 4166SOL    HW113397   6.118   2.129   1.256
 4166SOL    HW213398   6.247   2.069   1.176
 4167SOL     OW13399   3.927   5.340   4.585
 4167SOL    HW113400   3.946   5.244   4.608
 4167SOL    HW213401   3.884   5.385   4.664
 4168SOL     OW13402   4.749   3.863   0.394
 4168SOL    HW113403   4.807   3.782   0.379
 4168SOL    HW213404   4.658   3.834   0.423
 4169SOL     OW13405   5.571   2.771   6.157
 4169SOL    HW113406   5.521   2.684   6.150
 4169SOL    HW213407   5.560   2.808   6.249
 4170SOL     OW13408   0.572   2.350   5.053
 4170SOL    HW113409   0.475   2.370   5.044
 4170SOL    HW213410   0.624   2.401   4.984
 4171SOL     OW13411   0.875   1.716   6.628
 4171SOL    HW113412   0.828   1.723   6.717
 4171SOL    HW213413   0.970   1.690   6.643
 4172SOL     OW13414   2.943   3.337   0.642
 4172SOL    HW113415   2.974   3.247   0.613
 4172SOL    HW213416   2.872   3.328   0.711
 4173SOL     OW13417   4.907   1.455   6.124
 4173SOL    HW113418   4.826   1.488   6.173
 4173SOL    HW213419   4.892   1.360   6.096
 4174SOL     OW13420   4.622   0.074   4.473
 4174SOL    HW113421   4.657   0.047   4.383
 4174SOL    HW213422   4.630   0.173   4.484
 4175SOL     OW13423   1.117   4.396   6.542
 4175SOL    HW113424   1.166   4.331   6.483
 4175SOL    HW213425   1.060   4.455   6.485
 4176SOL     OW13426   5.154   6.593   6.283
 4176SOL    HW113427   5.098   6.634   6.355
 4176SOL    HW213428   5.251   6.610   6.301
 4177SOL     OW13429   4.326   4.585   2.765
 4177SOL    HW113430   4.423   4.590   2.739
 4177SOL    HW213431   4.271   4.565   2.683
 4178SOL     OW13432   4.136   5.809   1.126
 4178SOL    HW113433   4.221   5.853   1.096
 4178SOL    HW213434   4.148   5.709   1.124
 4179SOL     OW13435   4.516   2.869   6.877
 4179SOL    HW113436   4.517   2.769   6.879
 4179SOL    HW213437   4.600   2.905   6.918
 4180SOL     OW13438   4.012   3.356   0.384
 4180SOL    HW113439   4.101   3.384   0.346
 4180SOL    HW213440   3.939   3.402   0.333
 4181SOL     OW13441   4.970   6.986   5.818
 4181SOL    HW113442   4.956   0.053   5.786
 4181SOL    HW213443   4.882   6.940   5.827
 4182SOL     OW13444   0.764   6.146   5.183
 4182SOL    HW113445   0.857   6.129   5.151
 4182SOL    HW213446   0.767   6.192   5.271
 4183SOL     OW13447   4.050   1.813   0.891
 4183SOL    HW113448   4.029   1.910   0.889
 4183SOL    HW213449   3.971   1.761   0.861
 4184SOL     OW13450   3.840   5.718   3.729
 4184SOL    HW113451   3.937   5.708   3.749
 4184SOL    HW213452   3.790   5.740   3.813
 4185SOL     OW13453   4.847   3.785   3.524
 4185SOL    HW113454   4.764   3.833   3.554
 4185SOL    HW213455   4.913   3.782   3.599
 4186SOL     OW13456   1.608   5.522   0.299
 4186SOL    HW113457   1.557   5.504   0.383
 4186SOL    HW213458   1.547   5.515   0.221
 4187SOL     OW13459   1.816   3.376   6.422
 4187SOL    HW113460   1.864   3.374   6.510
 4187SOL    HW213461   1.797   3.282   6.393
 4188SOL     OW13462   4.524   6.951   6.975
 4188SOL    HW113463   4.602   7.013   6.969
 4188SOL    HW213464   4.484   6.938   6.884
 4189SOL     OW13465   4.366   5.382   3.568
 4189SOL    HW113466   4.339   5.472   3.535
 4189SOL    HW213467   4.464   5.382   3.589
 4190SOL     OW13468   6.811   6.465   1.358
 4190SOL    HW113469   6.787   6.392   1.294
 4190SOL    HW213470   6.809   6.553   1.311
 4191SOL     OW13471   4.755   3.189   6.478
 4191SOL    HW113472   4.685   3.223   6.415
 4191SOL    HW213473   4.710   3.138   6.551
 4192SOL     OW13474   1.722   3.772   0.117
 4192SOL    HW113475   1.798   3.811   0.066
 4192SOL    HW213476   1.636   3.794   0.071
 4193SOL     OW13477   0.518   0.479   0.384
 4193SOL    HW113478   0.475   0.554   0.334
 4193SOL    HW213479   0.533   0.402   0.322
 4194SOL     OW13480   5.415   1.733   5.939
 4194SOL    HW113481   5.515   1.736   5.943
 4194SOL    HW213482   5.385   1.763   5.848
 4195SOL     OW13483   3.737   0.413   0.720
 4195SOL    HW113484   3.663   0.479   0.730
 4195SOL    HW213485   3.740   0.380   0.626
 4196SOL     OW13486   6.214   2.820   2.317
 4196SOL    HW113487   6.251   2.907   2.287
 4196SOL    HW213488   6.179   2.769   2.239
 4197SOL     OW13489   3.626   0.419   6.708
 4197SOL    HW113490   3.558   0.465   6.650
 4197SOL    HW213491   3.709   0.403   6.655
 4198SOL     OW13492   6.403   2.535   2.546
 4198SOL    HW113493   6.416   2.487   2.460
 4198SOL    HW213494   6.450   2.486   2.619
 4199SOL     OW13495   0.219   3.970   6.324
 4199SOL    HW113496   0.258   3.993   6.234
 4199SOL    HW213497   0.119   3.975   6.319
 4200SOL     OW13498   4.653   1.463   3.971
 4200SOL    HW113499   4.637   1.556   4.004
 4200SOL    HW213500   4.628   1.457   3.875
 4201SOL     OW13501   5.855   0.059   3.838
 4201SOL    HW113502   5.825   0.129   3.774
 4201SOL    HW213503   5.916   0.100   3.906
 4202SOL     OW13504   4.719   3.645   1.595
 4202SOL    HW113505   4.633   3.696   1.606
 4202SOL    HW213506   4.796   3.706   1.615
 4203SOL     OW13507   6.222   4.226   5.167
 4203SOL    HW113508   6.176   4.163   5.230
 4203SOL    HW213509   6.169   4.311   5.160
 4204SOL     OW13510   1.791   3.981   6.476
 4204SOL    HW113511   1.816   4.078   6.466
 4204SOL    HW213512   1.784   3.959   6.573
 4205SOL     OW13513   4.392   6.678   6.654
 4205SOL    HW113514   4.393   6.583   6.685
 4205SOL    HW213515   4.353   6.682   6.562
 4206SOL     OW13516   1.894   2.230   4.379
 4206SOL    HW113517   1.950   2.178   4.314
 4206SOL    HW213518   1.851   2.307   4.331
 4207SOL     OW13519   0.587   1.879   2.383
 4207SOL    HW113520   0.561   1.850   2.291
 4207SOL    HW213521   0.667   1.826   2.412
 4208SOL     OW13522   2.128   2.358   3.837
 4208SOL    HW113523   2.101   2.376   3.742
 4208SOL    HW213524   2.129   2.259   3.853
 4209SOL     OW13525   6.152   6.413   2.018
 4209SOL    HW113526   6.227   6.390   1.956
 4209SOL    HW213527   6.116   6.329   2.058
 4210SOL     OW13528   3.105   3.935   4.842
 4210SOL    HW113529   3.018   3.945   4.890
 4210SOL    HW213530   3.093   3.871   4.766
 4211SOL     OW13531   4.077   2.669   5.487
 4211SOL    HW113532   4.149   2.712   5.432
 4211SOL    HW213533   4.112   2.646   5.577
 4212SOL     OW13534   0.029   1.734   3.244
 4212SOL    HW113535   0.127   1.755   3.247
 4212SOL    HW213536   7.013   1.763   3.329
 4213SOL     OW13537   3.081   0.432   4.230
 4213SOL    HW113538   3.099   0.479   4.143
 4213SOL    HW213539   3.092   0.497   4.306
 4214SOL     OW13540   0.030   6.168   3.113
 4214SOL    HW113541   0.035   6.175   3.213
 4214SOL    HW213542   6.964   6.147   3.085
 4215SOL     OW13543   5.670   6.980   5.808
 4215SOL    HW113544   5.753   0.000   5.838
 4215SOL    HW213545   5.602   0.021   5.781
 4216SOL     OW13546   2.580   5.680   2.223
 4216SOL    HW113547   2.513   5.664   2.295
 4216SOL    HW213548   2.547   5.640   2.137
 4217SOL     OW13549   1.676   0.359   2.692
 4217SOL    HW113550   1.712   0.316   2.776
 4217SOL    HW213551   1.724   0.321   2.613
 4218SOL     OW13552   3.130   1.482   0.241
 4218SOL    HW113553   3.218   1.434   0.238
 4218SOL    HW213554   3.114   1.528   0.154
 4219SOL     OW13555   3.657   5.415   2.655
 4219SOL    HW113556   3.627   5.324   2.626
 4219SOL    HW213557   3.712   5.457   2.583
 4220SOL     OW13558   5.402   1.754   1.111
 4220SOL    HW113559   5.324   1.803   1.148
 4220SOL    HW213560   5.373   1.697   1.034
 4221SOL     OW13561   1.116   6.061   0.761
 4221SOL    HW113562   1.202   6.065   0.711
 4221SOL    HW213563   1.067   6.148   0.751
 4222SOL     OW13564   4.930   2.964   3.686
 4222SOL    HW113565   4.909   3.001   3.777
 4222SOL    HW213566   4.912   2.866   3.685
 4223SOL     OW13567   3.938   3.656   2.335
 4223SOL    HW113568   3.987   3.569   2.339
 4223SOL    HW213569   3.914   3.684   2.428
 4224SOL     OW13570   4.482   5.100   4.395
 4224SOL    HW113571   4.487   5.106   4.494
 4224SOL    HW213572   4.574   5.087   4.357
 4225SOL     OW13573   1.008   1.680   5.981
 4225SOL    HW113574   1.072   1.708   6.052
 4225SOL    HW213575   1.056   1.626   5.912
 4226SOL     OW13576   0.592   5.673   5.114
 4226SOL    HW113577   0.595   5.619   5.030
 4226SOL    HW213578   0.655   5.750   5.108
 4227SOL     OW13579   4.394   6.051   1.747
 4227SOL    HW113580   4.412   5.980   1.679
 4227SOL    HW213581   4.448   6.032   1.829
 4228SOL     OW13582   1.328   5.146   3.799
 4228SOL    HW113583   1.280   5.208   3.736
 4228SOL    HW213584   1.397   5.197   3.849
 4229SOL     OW13585   5.974   5.522   5.685
 4229SOL    HW113586   5.991   5.530   5.784
 4229SOL    HW213587   5.948   5.428   5.664
 4230SOL     OW13588   0.128   0.927   2.028
 4230SOL    HW113589   0.057   0.929   1.958
 4230SOL    HW213590   0.145   0.832   2.056
 4231SOL     OW13591   6.797   1.439   6.503
 4231SOL    HW113592   6.715   1.491   6.480
 4231SOL    HW213593   6.842   1.480   6.582
 4232SOL     OW13594   1.479   5.287   3.948
 4232SOL    HW113595   1.459   5.366   4.006
 4232SOL    HW213596   1.567   5.248   3.975
 4233SOL     OW13597   4.409   5.595   2.040
 4233SOL    HW113598   4.310   5.582   2.035
 4233SOL    HW213599   4.429   5.674   2.098
 4234SOL     OW13600   3.097   5.188   5.868
 4234SOL    HW113601   3.029   5.121   5.838
 4234SOL    HW213602   3.052   5.275   5.887
 4235SOL     OW13603   0.082   5.931   6.036
 4235SOL    HW113604   0.166   5.911   6.086
 4235SOL    HW213605   0.061   6.029   6.044
 4236SOL     OW13606   0.495   5.012   2.733
 4236SOL    HW113607   0.548   5.001   2.816
 4236SOL    HW213608   0.536   4.958   2.659
 4237SOL     OW13609   0.582   4.894   4.164
 4237SOL    HW113610   0.540   4.804   4.172
 4237SOL    HW213611   0.511   4.964   4.161
 4238SOL     OW13612   3.762   6.766   2.562
 4238SOL    HW113613   3.781   6.677   2.520
 4238SOL    HW213614   3.734   6.830   2.491
 4239SOL     OW13615   4.321   1.306   3.935
 4239SOL    HW113616   4.361   1.323   4.025
 4239SOL    HW213617   4.303   1.393   3.890
 4240SOL     OW13618   6.072   6.632   2.144
 4240SOL    HW113619   6.097   6.561   2.077
 4240SOL    HW213620   6.155   6.676   2.178
 4241SOL     OW13621   6.069   4.053   0.399
 4241SOL    HW113622   6.079   4.017   0.491
 4241SOL    HW213623   6.119   3.994   0.335
 4242SOL     OW13624   2.870   1.674   3.686
 4242SOL    HW113625   2.959   1.662   3.641
 4242SOL    HW213626   2.860   1.769   3.715
 4243SOL     OW13627   4.857   0.447   2.832
 4243SOL    HW113628   4.891   0.438   2.926
 4243SOL    HW213629   4.913   0.514   2.783
 4244SOL     OW13630   3.621   2.985   4.045
 4244SOL    HW113631   3.579   2.955   3.960
 4244SOL    HW213632   3.707   3.031   4.025
 4245SOL     OW13633   5.805   1.302   6.656
 4245SOL    HW113634   5.885   1.274   6.604
 4245SOL    HW213635   5.730   1.322   6.593
 4246SOL     OW13636   0.249   3.660   0.227
 4246SOL    HW113637   0.331   3.716   0.212
 4246SOL    HW213638   0.268   3.591   0.297
 4247SOL     OW13639   7.019   5.753   4.950
 4247SOL    HW113640   6.952   5.690   4.912
 4247SOL    HW213641   0.084   5.717   4.935
 4248SOL     OW13642   2.036   3.614   5.367
 4248SOL    HW113643   1.942   3.634   5.341
 4248SOL    HW213644   2.082   3.566   5.292
 4249SOL     OW13645   5.585   4.213   5.909
 4249SOL    HW113646   5.597   4.280   5.982
 4249SOL    HW213647   5.510   4.241   5.849
 4250SOL     OW13648   0.850   4.629   3.003
 4250SOL    HW113649   0.857   4.710   2.945
 4250SOL    HW213650   0.871   4.654   3.097
 4251SOL     OW13651   5.453   3.796   0.493
 4251SOL    HW113652   5.462   3.739   0.411
 4251SOL    HW213653   5.420   3.887   0.467
 4252SOL     OW13654   0.505   6.181   5.436
 4252SOL    HW113655   0.528   6.272   5.401
 4252SOL    HW213656   0.473   6.123   5.361
 4253SOL     OW13657   4.147   5.993   2.717
 4253SOL    HW113658   4.069   6.023   2.771
 4253SOL    HW213659   4.179   6.069   2.660
 4254SOL     OW13660   2.994   4.220   1.249
 4254SOL    HW113661   2.942   4.288   1.301
 4254SOL    HW213662   2.970   4.227   1.152
 4255SOL     OW13663   0.390   2.084   4.319
 4255SOL    HW113664   0.410   2.122   4.409
 4255SOL    HW213665   0.291   2.087   4.302
 4256SOL     OW13666   1.721   0.654   1.673
 4256SOL    HW113667   1.737   0.601   1.756
 4256SOL    HW213668   1.720   0.752   1.695
 4257SOL     OW13669   4.028   2.082   4.659
 4257SOL    HW113670   4.078   2.128   4.733
 4257SOL    HW213671   4.043   2.132   4.574
 4258SOL     OW13672   5.062   6.922   2.485
 4258SOL    HW113673   4.976   6.942   2.438
 4258SOL    HW213674   5.103   7.008   2.517
 4259SOL     OW13675   2.092   2.890   0.662
 4259SOL    HW113676   2.034   2.817   0.624
 4259SOL    HW213677   2.167   2.909   0.599
 4260SOL     OW13678   4.592   5.692   3.439
 4260SOL    HW113679   4.679   5.724   3.400
 4260SOL    HW213680   4.533   5.659   3.365
 4261SOL     OW13681   2.206   1.103   2.797
 4261SOL    HW113682   2.184   1.196   2.825
 4261SOL    HW213683   2.123   1.058   2.762
 4262SOL     OW13684   6.906   5.797   6.472
 4262SOL    HW113685   6.828   5.854   6.496
 4262SOL    HW213686   6.988   5.829   6.519
 4263SOL     OW13687   3.615   5.203   5.952
 4263SOL    HW113688   3.584   5.112   5.927
 4263SOL    HW213689   3.690   5.231   5.893
 4264SOL     OW13690   0.022   0.066   0.578
 4264SOL    HW113691   0.121   0.080   0.582
 4264SOL    HW213692   7.026   0.017   0.493
 4265SOL     OW13693   0.074   2.620   0.367
 4265SOL    HW113694   7.009   2.605   0.403
 4265SOL    HW213695   0.119   2.693   0.419
 4266SOL     OW13696   3.185   4.764   0.933
 4266SOL    HW113697   3.234   4.795   1.015
 4266SOL    HW213698   3.112   4.700   0.960
 4267SOL     OW13699   1.799   4.158   5.765
 4267SOL    HW113700   1.832   4.081   5.821
 4267SOL    HW213701   1.801   4.242   5.820
 4268SOL     OW13702   1.399   1.153   0.428
 4268SOL    HW113703   1.367   1.060   0.443
 4268SOL    HW213704   1.412   1.168   0.330
 4269SOL     OW13705   3.504   3.739   0.476
 4269SOL    HW113706   3.549   3.676   0.413
 4269SOL    HW213707   3.424   3.779   0.431
 4270SOL     OW13708   3.670   2.678   5.629
 4270SOL    HW113709   3.590   2.697   5.686
 4270SOL    HW213710   3.731   2.615   5.676
 4271SOL     OW13711   0.910   6.879   7.006
 4271SOL    HW113712   0.846   6.825   6.952
 4271SOL    HW213713   0.983   6.913   6.946
 4272SOL     OW13714   0.033   3.953   4.029
 4272SOL    HW113715   0.003   3.994   4.115
 4272SOL    HW213716   6.982   3.943   3.968
 4273SOL     OW13717   5.798   5.983   4.725
 4273SOL    HW113718   5.734   6.030   4.663
 4273SOL    HW213719   5.844   6.051   4.783
 4274SOL     OW13720   2.149   0.264   4.179
 4274SOL    HW113721   2.155   0.232   4.085
 4274SOL    HW213722   2.076   0.333   4.187
 4275SOL     OW13723   1.245   6.989   6.694
 4275SOL    HW113724   1.302   6.955   6.769
 4275SOL    HW213725   1.224   6.914   6.632
 4276SOL     OW13726   2.052   4.265   2.031
 4276SOL    HW113727   2.131   4.268   2.093
 4276SOL    HW213728   2.064   4.332   1.958
 4277SOL     OW13729   0.860   5.286   3.480
 4277SOL    HW113730   0.803   5.304   3.560
 4277SOL    HW213731   0.935   5.352   3.477
 4278SOL     OW13732   0.304   6.559   5.470
 4278SOL    HW113733   0.221   6.525   5.426
 4278SOL    HW213734   0.376   6.570   5.401
 4279SOL     OW13735   3.405   5.376   4.168
 4279SOL    HW113736   3.391   5.286   4.208
 4279SOL    HW213737   3.481   5.422   4.215
 4280SOL     OW13738   4.924   3.378   3.652
 4280SOL    HW113739   4.927   3.471   3.687
 4280SOL    HW213740   4.925   3.380   3.552
 4281SOL     OW13741   2.494   3.751   5.435
 4281SOL    HW113742   2.472   3.763   5.338
 4281SOL    HW213743   2.525   3.837   5.473
 4282SOL     OW13744   1.096   2.450   1.045
 4282SOL    HW113745   0.998   2.459   1.031
 4282SOL    HW213746   1.120   2.478   1.138
 4283SOL     OW13747   2.024   0.561   4.317
 4283SOL    HW113748   2.027   0.580   4.219
 4283SOL    HW213749   1.962   0.485   4.335
 4284SOL     OW13750   6.303   2.204   2.703
 4284SOL    HW113751   6.264   2.163   2.621
 4284SOL    HW213752   6.247   2.180   2.782
 4285SOL     OW13753   0.897   6.102   6.054
 4285SOL    HW113754   0.896   6.059   6.145
 4285SOL    HW213755   0.988   6.095   6.015
 4286SOL     OW13756   5.557   5.294   6.965
 4286SOL    HW113757   5.568   5.391   6.989
 4286SOL    HW213758   5.542   5.285   6.866
 4287SOL     OW13759   4.773   6.566   5.246
 4287SOL    HW113760   4.756   6.544   5.150
 4287SOL    HW213761   4.737   6.493   5.304
 4288SOL     OW13762   1.945   6.852   2.776
 4288SOL    HW113763   1.884   6.777   2.800
 4288SOL    HW213764   1.956   6.854   2.676
 4289SOL     OW13765   5.695   3.507   0.737
 4289SOL    HW113766   5.643   3.473   0.659
 4289SOL    HW213767   5.653   3.592   0.771
 4290SOL     OW13768   2.081   0.925   2.293
 4290SOL    HW113769   2.135   0.992   2.241
 4290SOL    HW213770   2.141   0.877   2.357
 4291SOL     OW13771   6.205   4.893   0.995
 4291SOL    HW113772   6.250   4.933   0.915
 4291SOL    HW213773   6.124   4.842   0.965
 4292SOL     OW13774   6.061   5.673   6.315
 4292SOL    HW113775   6.058   5.591   6.258
 4292SOL    HW213776   6.123   5.659   6.392
 4293SOL     OW13777   6.760   2.500   6.881
 4293SOL    HW113778   6.690   2.433   6.903
 4293SOL    HW213779   6.838   2.490   6.942
 4294SOL     OW13780   5.066   2.461   5.343
 4294SOL    HW113781   4.985   2.483   5.396
 4294SOL    HW213782   5.145   2.509   5.381
 4295SOL     OW13783   3.930   6.753   4.868
 4295SOL    HW113784   4.002   6.699   4.824
 4295SOL    HW213785   3.873   6.796   4.798
 4296SOL     OW13786   2.320   1.522   0.885
 4296SOL    HW113787   2.380   1.599   0.907
 4296SOL    HW213788   2.245   1.520   0.951
 4297SOL     OW13789   5.369   0.818   6.002
 4297SOL    HW113790   5.340   0.725   5.978
 4297SOL    HW213791   5.382   0.871   5.919
 4298SOL     OW13792   3.047   5.564   1.515
 4298SOL    HW113793   3.077   5.658   1.501
 4298SOL    HW213794   2.955   5.563   1.554
 4299SOL     OW13795   0.568   3.985   6.693
 4299SOL    HW113796   0.513   4.015   6.615
 4299SOL    HW213797   0.651   3.940   6.660
 4300SOL     OW13798   5.769   0.574   6.419
 4300SOL    HW113799   5.792   0.482   6.450
 4300SOL    HW213800   5.822   0.641   6.470
 4301SOL     OW13801   2.873   1.385   0.250
 4301SOL    HW113802   2.967   1.420   0.257
 4301SOL    HW213803   2.838   1.403   0.158
 4302SOL     OW13804   0.619   6.486   0.375
 4302SOL    HW113805   0.658   6.395   0.392
 4302SOL    HW213806   0.631   6.509   0.278
 4303SOL     OW13807   7.014   3.440   2.092
 4303SOL    HW113808   6.967   3.526   2.111
 4303SOL    HW213809   6.947   3.368   2.076
 4304SOL     OW13810   3.373   2.870   4.450
 4304SOL    HW113811   3.391   2.801   4.380
 4304SOL    HW213812   3.457   2.892   4.499
 4305SOL     OW13813   6.555   1.572   4.088
 4305SOL    HW113814   6.554   1.479   4.124
 4305SOL    HW213815   6.462   1.602   4.068
 4306SOL     OW13816   6.346   5.788   6.048
 4306SOL    HW113817   6.265   5.842   6.024
 4306SOL    HW213818   6.426   5.849   6.053
 4307SOL     OW13819   4.944   3.003   6.410
 4307SOL    HW113820   4.912   2.971   6.321
 4307SOL    HW213821   4.889   3.082   6.439
 4308SOL     OW13822   4.883   6.467   4.855
 4308SOL    HW113823   4.884   6.498   4.760
 4308SOL    HW213824   4.790   6.472   4.891
 4309SOL     OW13825   1.142   1.483   0.617
 4309SOL    HW113826   1.133   1.480   0.716
 4309SOL    HW213827   1.208   1.555   0.592
 4310SOL     OW13828   1.183   0.874   2.279
 4310SOL    HW113829   1.126   0.889   2.360
 4310SOL    HW213830   1.201   0.777   2.268
 4311SOL     OW13831   1.776   6.046   4.029
 4311SOL    HW113832   1.788   5.997   4.115
 4311SOL    HW213833   1.688   6.020   3.988
 4312SOL     OW13834   2.060   5.182   2.094
 4312SOL    HW113835   2.039   5.087   2.070
 4312SOL    HW213836   2.137   5.214   2.039
 4313SOL     OW13837   5.086   0.736   1.985
 4313SOL    HW113838   5.055   0.710   2.076
 4313SOL    HW213839   5.186   0.747   1.986
 4314SOL     OW13840   4.886   3.214   2.741
 4314SOL    HW113841   4.875   3.143   2.671
 4314SOL    HW213842   4.931   3.176   2.821
 4315SOL     OW13843   2.564   1.601   1.969
 4315SOL    HW113844   2.581   1.576   2.064
 4315SOL    HW213845   2.479   1.654   1.962
 4316SOL     OW13846   6.749   6.989   2.491
 4316SOL    HW113847   6.743   6.965   2.588
 4316SOL    HW213848   6.798   0.048   2.481
 4317SOL     OW13849   3.901   1.170   2.954
 4317SOL    HW113850   3.832   1.173   3.027
 4317SOL    HW213851   3.989   1.199   2.991
 4318SOL     OW13852   0.253   2.778   4.097
 4318SOL    HW113853   0.297   2.767   4.008
 4318SOL    HW213854   0.242   2.688   4.140
 4319SOL     OW13855   2.473   3.499   5.819
 4319SOL    HW113856   2.466   3.514   5.720
 4319SOL    HW213857   2.488   3.586   5.866
 4320SOL     OW13858   0.370   5.739   2.481
 4320SOL    HW113859   0.397   5.819   2.534
 4320SOL    HW213860   0.272   5.722   2.493
 4321SOL     OW13861   1.114   0.282   5.176
 4321SOL    HW113862   1.066   0.252   5.093
 4321SOL    HW213863   1.048   0.297   5.249
 4322SOL     OW13864   5.966   0.932   0.582
 4322SOL    HW113865   5.965   1.025   0.620
 4322SOL    HW213866   5.872   0.898   0.574
 4323SOL     OW13867   6.884   2.668   3.932
 4323SOL    HW113868   6.875   2.685   4.030
 4323SOL    HW213869   6.793   2.662   3.891
 4324SOL     OW13870   6.345   4.387   5.763
 4324SOL    HW113871   6.336   4.290   5.739
 4324SOL    HW213872   6.314   4.400   5.857
 4325SOL     OW13873   1.887   2.135   6.096
 4325SOL    HW113874   1.961   2.069   6.109
 4325SOL    HW213875   1.880   2.160   6.000
 4326SOL     OW13876   6.258   2.339   6.067
 4326SOL    HW113877   6.190   2.308   6.134
 4326SOL    HW213878   6.260   2.439   6.064
 4327SOL     OW13879   6.059   6.971   2.800
 4327SOL    HW113880   5.989   6.932   2.741
 4327SOL    HW213881   6.031   0.036   2.829
 4328SOL     OW13882   5.310   5.176   0.742
 4328SOL    HW113883   5.401   5.165   0.701
 4328SOL    HW213884   5.312   5.255   0.804
 4329SOL     OW13885   3.376   1.757   5.885
 4329SOL    HW113886   3.406   1.772   5.791
 4329SOL    HW213887   3.454   1.765   5.947
 4330SOL     OW13888   1.095   0.320   6.516
 4330SOL    HW113889   1.120   0.377   6.594
 4330SOL    HW213890   1.098   0.224   6.543
 4331SOL     OW13891   6.049   2.616   0.231
 4331SOL    HW113892   6.048   2.698   0.173
 4331SOL    HW213893   6.135   2.613   0.283
 4332SOL     OW13894   5.370   3.422   1.138
 4332SOL    HW113895   5.371   3.432   1.038
 4332SOL    HW213896   5.450   3.470   1.176
 4333SOL     OW13897   5.322   1.267   5.289
 4333SOL    HW113898   5.291   1.196   5.352
 4333SOL    HW213899   5.296   1.243   5.196
 4334SOL     OW13900   4.672   1.082   1.925
 4334SOL    HW113901   4.729   1.105   2.003
 4334SOL    HW213902   4.727   1.037   1.855
 4335SOL     OW13903   3.388   3.909   5.431
 4335SOL    HW113904   3.442   3.863   5.361
 4335SOL    HW213905   3.325   3.974   5.387
 4336SOL     OW13906   1.314   6.201   4.264
 4336SOL    HW113907   1.317   6.237   4.171
 4336SOL    HW213908   1.253   6.122   4.267
 4337SOL     OW13909   0.337   4.886   0.670
 4337SOL    HW113910   0.315   4.849   0.580
 4337SOL    HW213911   0.420   4.842   0.705
 4338SOL     OW13912   6.677   6.553   3.918
 4338SOL    HW113913   6.763   6.506   3.937
 4338SOL    HW213914   6.674   6.639   3.969
 4339SOL     OW13915   6.391   1.043   6.355
 4339SOL    HW113916   6.413   1.039   6.258
 4339SOL    HW213917   6.374   0.951   6.390
 4340SOL     OW13918   4.718   3.007   1.623
 4340SOL    HW113919   4.680   2.974   1.710
 4340SOL    HW213920   4.650   2.994   1.551
 4341SOL     OW13921   0.504   4.514   0.690
 4341SOL    HW113922   0.458   4.478   0.772
 4341SOL    HW213923   0.450   4.491   0.609
 4342SOL     OW13924   7.025   3.170   3.016
 4342SOL    HW113925   6.979   3.181   3.104
 4342SOL    HW213926   0.055   3.088   3.018
 4343SOL     OW13927   2.509   1.697   1.225
 4343SOL    HW113928   2.431   1.644   1.260
 4343SOL    HW213929   2.537   1.764   1.294
 4344SOL     OW13930   1.938   4.166   2.803
 4344SOL    HW113931   1.935   4.095   2.732
 4344SOL    HW213932   2.011   4.231   2.782
 4345SOL     OW13933   2.452   2.114   5.905
 4345SOL    HW113934   2.536   2.159   5.934
 4345SOL    HW213935   2.393   2.180   5.858
 4346SOL     OW13936   1.166   2.765   1.408
 4346SOL    HW113937   1.127   2.703   1.476
 4346SOL    HW213938   1.094   2.828   1.377
 4347SOL     OW13939   6.531   5.969   2.901
 4347SOL    HW113940   6.611   5.979   2.842
 4347SOL    HW213941   6.449   5.959   2.845
 4348SOL     OW13942   0.773   3.795   6.602
 4348SOL    HW113943   0.745   3.709   6.559
 4348SOL    HW213944   0.866   3.786   6.637
 4349SOL     OW13945   6.979   0.438   3.777
 4349SOL    HW113946   6.994   0.512   3.712
 4349SOL    HW213947   0.040   0.404   3.810
 4350SOL     OW13948   5.159   1.556   3.553
 4350SOL    HW113949   5.081   1.529   3.609
 4350SOL    HW213950   5.193   1.476   3.503
 4351SOL     OW13951   2.601   6.494   0.811
 4351SOL    HW113952   2.653   6.506   0.726
 4351SOL    HW213953   2.616   6.573   0.870
 4352SOL     OW13954   6.533   1.435   1.887
 4352SOL    HW113955   6.516   1.376   1.807
 4352SOL    HW213956   6.486   1.522   1.873
 4353SOL     OW13957   3.625   5.670   0.390
 4353SOL    HW113958   3.602   5.761   0.355
 4353SOL    HW213959   3.600   5.665   0.487
 4354SOL     OW13960   1.564   0.338   0.974
 4354SOL    HW113961   1.476   0.317   1.017
 4354SOL    HW213962   1.550   0.354   0.876
 4355SOL     OW13963   5.247   0.803   0.827
 4355SOL    HW113964   5.278   0.742   0.754
 4355SOL    HW213965   5.180   0.867   0.791
 4356SOL     OW13966   3.822   4.218   0.442
 4356SOL    HW113967   3.816   4.139   0.502
 4356SOL    HW213968   3.890   4.202   0.371
 4357SOL     OW13969   6.526   1.029   6.895
 4357SOL    HW113970   6.569   0.946   6.929
 4357SOL    HW213971   6.581   1.108   6.921
 4358SOL     OW13972   0.600   0.330   1.547
 4358SOL    HW113973   0.543   0.397   1.498
 4358SOL    HW213974   0.591   0.345   1.645
 4359SOL     OW13975   6.282   2.314   4.205
 4359SOL    HW113976   6.275   2.226   4.251
 4359SOL    HW213977   6.351   2.309   4.133
 4360SOL     OW13978   1.918   3.278   1.136
 4360SOL    HW113979   1.864   3.245   1.058
 4360SOL    HW213980   1.857   3.295   1.213
 4361SOL     OW13981   4.914   1.681   2.025
 4361SOL    HW113982   4.823   1.689   2.065
 4361SOL    HW213983   4.975   1.635   2.089
 4362SOL     OW13984   5.712   4.442   4.241
 4362SOL    HW113985   5.752   4.351   4.236
 4362SOL    HW213986   5.655   4.449   4.324
 4363SOL     OW13987   5.036   1.883   5.856
 4363SOL    HW113988   5.029   1.827   5.939
 4363SOL    HW213989   5.127   1.871   5.816
 4364SOL     OW13990   3.626   4.035   5.098
 4364SOL    HW113991   3.606   3.958   5.159
 4364SOL    HW213992   3.660   3.999   5.011
 4365SOL     OW13993   2.825   1.078   1.310
 4365SOL    HW113994   2.807   1.136   1.390
 4365SOL    HW213995   2.767   0.996   1.315
 4366SOL     OW13996   5.521   5.039   1.430
 4366SOL    HW113997   5.588   4.973   1.464
 4366SOL    HW213998   5.552   5.075   1.342
 4367SOL     OW13999   0.899   6.347   6.950
 4367SOL    HW114000   0.933   6.255   6.966
 4367SOL    HW214001   0.970   6.402   6.906
 4368SOL     OW14002   5.366   3.851   1.913
 4368SOL    HW114003   5.346   3.865   2.010
 4368SOL    HW214004   5.426   3.772   1.902
 4369SOL     OW14005   3.197   6.065   1.763
 4369SOL    HW114006   3.230   6.008   1.688
 4369SOL    HW214007   3.100   6.086   1.749
 4370SOL     OW14008   5.940   5.299   2.805
 4370SOL    HW114009   5.926   5.256   2.894
 4370SOL    HW214010   6.035   5.286   2.776
 4371SOL     OW14011   6.900   1.964   2.498
 4371SOL    HW114012   6.901   1.918   2.586
 4371SOL    HW214013   6.840   1.915   2.435
 4372SOL     OW14014   4.838   6.906   3.244
 4372SOL    HW114015   4.792   6.850   3.175
 4372SOL    HW214016   4.777   6.921   3.321
 4373SOL     OW14017   0.345   1.903   6.436
 4373SOL    HW114018   0.336   1.830   6.368
 4373SOL    HW214019   0.255   1.923   6.475
 4374SOL     OW14020   2.875   2.332   0.925
 4374SOL    HW114021   2.920   2.308   1.011
 4374SOL    HW214022   2.915   2.278   0.850
 4375SOL     OW14023   3.073   6.795   4.373
 4375SOL    HW114024   3.145   6.733   4.341
 4375SOL    HW214025   3.029   6.838   4.294
 4376SOL     OW14026   6.329   1.703   3.989
 4376SOL    HW114027   6.230   1.700   3.975
 4376SOL    HW214028   6.362   1.796   3.974
 4377SOL     OW14029   5.553   5.331   6.663
 4377SOL    HW114030   5.604   5.306   6.581
 4377SOL    HW214031   5.462   5.363   6.638
 4378SOL     OW14032   2.424   1.202   3.378
 4378SOL    HW114033   2.389   1.209   3.472
 4378SOL    HW214034   2.504   1.260   3.369
 4379SOL     OW14035   3.252   1.900   5.321
 4379SOL    HW114036   3.243   1.808   5.282
 4379SOL    HW214037   3.164   1.930   5.356
 4380SOL     OW14038   0.552   1.055   2.266
 4380SOL    HW114039   0.646   1.023   2.257
 4380SOL    HW214040   0.499   1.025   2.186
 4381SOL     OW14041   1.529   5.837   6.419
 4381SOL    HW114042   1.505   5.748   6.381
 4381SOL    HW214043   1.628   5.846   6.423
 4382SOL     OW14044   6.959   4.431   4.961
 4382SOL    HW114045   6.964   4.397   4.867
 4382SOL    HW214046   7.022   4.508   4.973
 4383SOL     OW14047   6.281   3.307   6.645
 4383SOL    HW114048   6.185   3.279   6.640
 4383SOL    HW214049   6.290   3.382   6.711
 4384SOL     OW14050   5.752   6.834   3.826
 4384SOL    HW114051   5.819   6.907   3.823
 4384SOL    HW214052   5.754   6.783   3.740
 4385SOL     OW14053   4.524   1.243   5.210
 4385SOL    HW114054   4.442   1.299   5.226
 4385SOL    HW214055   4.499   1.147   5.206
 4386SOL     OW14056   1.792   3.598   4.932
 4386SOL    HW114057   1.861   3.642   4.875
 4386SOL    HW214058   1.717   3.662   4.948
 4387SOL     OW14059   6.807   1.926   0.799
 4387SOL    HW114060   6.843   1.999   0.741
 4387SOL    HW214061   6.860   1.843   0.784
 4388SOL     OW14062   5.069   3.320   6.599
 4388SOL    HW114063   5.132   3.273   6.538
 4388SOL    HW214064   5.008   3.378   6.545
 4389SOL     OW14065   0.702   3.184   0.824
 4389SOL    HW114066   0.709   3.138   0.736
 4389SOL    HW214067   0.792   3.184   0.869
 4390SOL     OW14068   6.306   1.399   0.822
 4390SOL    HW114069   6.212   1.407   0.858
 4390SOL    HW214070   6.368   1.380   0.898
 4391SOL     OW14071   1.621   6.045   1.138
 4391SOL    HW114072   1.719   6.050   1.123
 4391SOL    HW214073   1.575   6.019   1.053
 4392SOL     OW14074   1.540   2.803   5.482
 4392SOL    HW114075   1.528   2.775   5.577
 4392SOL    HW214076   1.460   2.774   5.429
 4393SOL     OW14077   5.018   0.717   2.248
 4393SOL    HW114078   5.108   0.729   2.290
 4393SOL    HW214079   4.955   0.784   2.285
 4394SOL     OW14080   1.192   0.617   2.213
 4394SOL    HW114081   1.290   0.604   2.227
 4394SOL    HW214082   1.147   0.529   2.202
 4395SOL     OW14083   2.932   5.079   1.876
 4395SOL    HW114084   2.855   5.139   1.899
 4395SOL    HW214085   3.017   5.131   1.879
 4396SOL     OW14086   3.152   0.639   3.288
 4396SOL    HW114087   3.100   0.596   3.214
 4396SOL    HW214088   3.218   0.703   3.250
 4397SOL     OW14089   3.662   1.784   4.532
 4397SOL    HW114090   3.656   1.772   4.631
 4397SOL    HW214091   3.576   1.757   4.490
 4398SOL     OW14092   1.778   2.793   4.946
 4398SOL    HW114093   1.875   2.768   4.954
 4398SOL    HW214094   1.743   2.763   4.858
 4399SOL     OW14095   2.782   6.769   1.629
 4399SOL    HW114096   2.692   6.778   1.670
 4399SOL    HW214097   2.837   6.704   1.682
 4400SOL     OW14098   2.297   5.515   4.867
 4400SOL    HW114099   2.288   5.429   4.817
 4400SOL    HW214100   2.255   5.589   4.814
 4401SOL     OW14101   3.192   6.874   6.939
 4401SOL    HW114102   3.104   6.869   6.987
 4401SOL    HW214103   3.237   6.785   6.943
 4402SOL     OW14104   1.803   0.582   3.541
 4402SOL    HW114105   1.711   0.620   3.545
 4402SOL    HW214106   1.858   0.621   3.615
 4403SOL     OW14107   1.181   4.859   2.175
 4403SOL    HW114108   1.096   4.899   2.142
 4403SOL    HW214109   1.166   4.818   2.265
 4404SOL     OW14110   0.188   6.820   6.060
 4404SOL    HW114111   0.158   6.731   6.095
 4404SOL    HW214112   0.288   6.820   6.050
 4405SOL     OW14113   1.701   5.798   2.863
 4405SOL    HW114114   1.698   5.865   2.937
 4405SOL    HW214115   1.725   5.844   2.777
 4406SOL     OW14116   5.981   3.737   2.156
 4406SOL    HW114117   6.027   3.676   2.092
 4406SOL    HW214118   6.034   3.743   2.240
 4407SOL     OW14119   5.660   6.449   2.355
 4407SOL    HW114120   5.753   6.485   2.365
 4407SOL    HW214121   5.663   6.363   2.304
 4408SOL     OW14122   4.283   0.774   0.375
 4408SOL    HW114123   4.272   0.685   0.332
 4408SOL    HW214124   4.345   0.830   0.320
 4409SOL     OW14125   3.056   0.312   3.252
 4409SOL    HW114126   3.117   0.284   3.326
 4409SOL    HW214127   3.101   0.293   3.164
 4410SOL     OW14128   0.551   6.275   1.167
 4410SOL    HW114129   0.453   6.291   1.167
 4410SOL    HW214130   0.572   6.192   1.116
 4411SOL     OW14131   3.647   4.387   5.296
 4411SOL    HW114132   3.671   4.336   5.379
 4411SOL    HW214133   3.560   4.352   5.260
 4412SOL     OW14134   4.542   6.291   2.612
 4412SOL    HW114135   4.573   6.230   2.684
 4412SOL    HW214136   4.614   6.358   2.592
 4413SOL     OW14137   4.445   6.887   3.855
 4413SOL    HW114138   4.365   6.926   3.901
 4413SOL    HW214139   4.524   6.891   3.915
 4414SOL     OW14140   4.955   3.796   1.693
 4414SOL    HW114141   4.898   3.866   1.735
 4414SOL    HW214142   5.003   3.834   1.614
 4415SOL     OW14143   2.045   2.864   1.735
 4415SOL    HW114144   2.094   2.872   1.649
 4415SOL    HW214145   2.103   2.899   1.809
 4416SOL     OW14146   4.785   2.183   3.299
 4416SOL    HW114147   4.718   2.119   3.337
 4416SOL    HW214148   4.741   2.271   3.282
 4417SOL     OW14149   6.787   4.137   2.611
 4417SOL    HW114150   6.852   4.064   2.632
 4417SOL    HW214151   6.836   4.218   2.578
 4418SOL     OW14152   6.323   6.580   5.582
 4418SOL    HW114153   6.277   6.511   5.637
 4418SOL    HW214154   6.379   6.638   5.641
 4419SOL     OW14155   6.045   5.319   6.811
 4419SOL    HW114156   5.962   5.278   6.773
 4419SOL    HW214157   6.026   5.413   6.840
 4420SOL     OW14158   3.330   2.595   1.001
 4420SOL    HW114159   3.358   2.500   0.990
 4420SOL    HW214160   3.316   2.614   1.098
 4421SOL     OW14161   1.765   2.657   6.940
 4421SOL    HW114162   1.740   2.604   6.859
 4421SOL    HW214163   1.784   2.595   7.016
 4422SOL     OW14164   6.361   3.850   6.066
 4422SOL    HW114165   6.377   3.938   6.022
 4422SOL    HW214166   6.270   3.816   6.041
 4423SOL     OW14167   5.707   4.203   4.804
 4423SOL    HW114168   5.643   4.273   4.836
 4423SOL    HW214169   5.667   4.153   4.728
 4424SOL     OW14170   4.592   5.964   3.017
 4424SOL    HW114171   4.675   5.940   3.068
 4424SOL    HW214172   4.618   6.002   2.927
 4425SOL     OW14173   1.375   5.155   1.171
 4425SOL    HW114174   1.429   5.211   1.233
 4425SOL    HW214175   1.311   5.213   1.120
 4426SOL     OW14176   0.772   0.622   4.707
 4426SOL    HW114177   0.779   0.666   4.797
 4426SOL    HW214178   0.782   0.692   4.636
 4427SOL     OW14179   2.297   6.139   2.722
 4427SOL    HW114180   2.265   6.066   2.663
 4427SOL    HW214181   2.388   6.116   2.758
 4428SOL     OW14182   5.426   6.119   3.755
 4428SOL    HW114183   5.504   6.181   3.767
 4428SOL    HW214184   5.361   6.159   3.691
 4429SOL     OW14185   3.118   6.319   2.681
 4429SOL    HW114186   3.144   6.226   2.655
 4429SOL    HW214187   3.200   6.376   2.684
 4430SOL     OW14188   5.208   3.914   5.484
 4430SOL    HW114189   5.187   3.818   5.464
 4430SOL    HW214190   5.122   3.966   5.490
 4431SOL     OW14191   3.189   6.713   4.064
 4431SOL    HW114192   3.231   6.623   4.077
 4431SOL    HW214193   3.259   6.784   4.069
 4432SOL     OW14194   0.457   3.868   6.022
 4432SOL    HW114195   0.555   3.859   6.006
 4432SOL    HW214196   0.435   3.837   6.115
 4433SOL     OW14197   1.106   0.933   5.822
 4433SOL    HW114198   1.029   0.873   5.797
 4433SOL    HW214199   1.114   0.937   5.921
 4434SOL     OW14200   0.189   0.667   2.798
 4434SOL    HW114201   0.205   0.703   2.889
 4434SOL    HW214202   0.093   0.641   2.788
 4435SOL     OW14203   2.483   4.140   0.214
 4435SOL    HW114204   2.519   4.205   0.282
 4435SOL    HW214205   2.434   4.067   0.261
 4436SOL     OW14206   4.327   1.661   1.788
 4436SOL    HW114207   4.368   1.744   1.825
 4436SOL    HW214208   4.302   1.601   1.864
 4437SOL     OW14209   6.463   4.635   0.201
 4437SOL    HW114210   6.369   4.603   0.198
 4437SOL    HW214211   6.508   4.600   0.284
 4438SOL     OW14212   3.855   0.398   5.726
 4438SOL    HW114213   3.882   0.494   5.726
 4438SOL    HW214214   3.801   0.378   5.645
 4439SOL     OW14215   3.082   6.712   2.519
 4439SOL    HW114216   3.167   6.735   2.566
 4439SOL    HW214217   3.079   6.613   2.503
 4440SOL     OW14218   1.366   4.897   6.798
 4440SOL    HW114219   1.293   4.828   6.790
 4440SOL    HW214220   1.358   4.943   6.886
 4441SOL     OW14221   0.169   1.832   0.917
 4441SOL    HW114222   0.087   1.778   0.939
 4441SOL    HW214223   0.216   1.790   0.839
 4442SOL     OW14224   2.122   5.251   6.816
 4442SOL    HW114225   2.179   5.191   6.872
 4442SOL    HW214226   2.035   5.268   6.862
 4443SOL     OW14227   1.028   5.442   6.192
 4443SOL    HW114228   0.929   5.439   6.181
 4443SOL    HW214229   1.050   5.473   6.284
 4444SOL     OW14230   5.804   5.094   6.935
 4444SOL    HW114231   5.742   5.089   7.014
 4444SOL    HW214232   5.899   5.088   6.967
 4445SOL     OW14233   0.668   4.723   0.457
 4445SOL    HW114234   0.717   4.646   0.416
 4445SOL    HW214235   0.733   4.781   0.506
 4446SOL     OW14236   4.660   1.721   1.069
 4446SOL    HW114237   4.661   1.621   1.069
 4446SOL    HW214238   4.622   1.753   1.156
 4447SOL     OW14239   4.770   5.938   5.612
 4447SOL    HW114240   4.739   5.870   5.546
 4447SOL    HW214241   4.851   5.904   5.660
 4448SOL     OW14242   3.824   6.420   1.320
 4448SOL    HW114243   3.886   6.379   1.253
 4448SOL    HW214244   3.825   6.520   1.308
 4449SOL     OW14245   3.458   1.426   5.625
 4449SOL    HW114246   3.444   1.362   5.701
 4449SOL    HW214247   3.447   1.378   5.538
 4450SOL     OW14248   2.769   6.943   6.926
 4450SOL    HW114249   2.694   6.952   6.991
 4450SOL    HW214250   2.749   6.870   6.861
 4451SOL     OW14251   5.155   5.161   3.419
 4451SOL    HW114252   5.189   5.092   3.355
 4451SOL    HW214253   5.151   5.250   3.374
 4452SOL     OW14254   4.474   6.526   4.437
 4452SOL    HW114255   4.513   6.502   4.526
 4452SOL    HW214256   4.421   6.448   4.402
 4453SOL     OW14257   6.213   4.789   0.359
 4453SOL    HW114258   6.122   4.749   0.346
 4453SOL    HW214259   6.267   4.729   0.418
 4454SOL     OW14260   1.440   3.019   0.612
 4454SOL    HW114261   1.349   3.045   0.580
 4454SOL    HW214262   1.503   3.016   0.534
 4455SOL     OW14263   0.937   6.714   5.450
 4455SOL    HW114264   0.952   6.691   5.355
 4455SOL    HW214265   1.012   6.772   5.483
 4456SOL     OW14266   2.694   6.913   4.814
 4456SOL    HW114267   2.668   6.818   4.799
 4456SOL    HW214268   2.740   6.948   4.733
 4457SOL     OW14269   1.684   2.049   4.153
 4457SOL    HW114270   1.650   2.001   4.072
 4457SOL    HW214271   1.726   1.983   4.216
 4458SOL     OW14272   1.039   3.718   6.645
 4458SOL    HW114273   1.081   3.635   6.682
 4458SOL    HW214274   1.048   3.719   6.545
 4459SOL     OW14275   0.829   2.737   3.033
 4459SOL    HW114276   0.811   2.646   3.071
 4459SOL    HW214277   0.921   2.766   3.058
 4460SOL     OW14278   6.969   2.483   4.645
 4460SOL    HW114279   7.010   2.406   4.696
 4460SOL    HW214280   6.947   2.556   4.709
 4461SOL     OW14281   1.875   0.856   0.798
 4461SOL    HW114282   1.872   0.816   0.890
 4461SOL    HW214283   1.908   0.950   0.803
 4462SOL     OW14284   6.667   3.843   3.133
 4462SOL    HW114285   6.751   3.883   3.098
 4462SOL    HW214286   6.645   3.760   3.081
 4463SOL     OW14287   5.802   1.954   0.255
 4463SOL    HW114288   5.787   2.011   0.174
 4463SOL    HW214289   5.739   1.876   0.252
 4464SOL     OW14290   6.876   4.588   1.291
 4464SOL    HW114291   6.784   4.569   1.326
 4464SOL    HW214292   6.931   4.628   1.364
 4465SOL     OW14293   3.771   5.631   1.906
 4465SOL    HW114294   3.789   5.536   1.928
 4465SOL    HW214295   3.672   5.646   1.899
 4466SOL     OW14296   1.812   2.064   2.454
 4466SOL    HW114297   1.718   2.098   2.443
 4466SOL    HW214298   1.817   1.969   2.423
 4467SOL     OW14299   5.148   5.786   2.849
 4467SOL    HW114300   5.192   5.793   2.939
 4467SOL    HW214301   5.170   5.867   2.795
 4468SOL     OW14302   1.841   3.103   1.699
 4468SOL    HW114303   1.903   3.105   1.621
 4468SOL    HW214304   1.829   3.009   1.731
 4469SOL     OW14305   2.414   6.182   1.374
 4469SOL    HW114306   2.401   6.084   1.386
 4469SOL    HW214307   2.509   6.206   1.395
 4470SOL     OW14308   2.089   6.947   2.998
 4470SOL    HW114309   2.015   6.921   2.937
 4470SOL    HW214310   2.162   6.990   2.945
 4471SOL     OW14311   0.745   0.014   6.503
 4471SOL    HW114312   0.702   0.094   6.461
 4471SOL    HW214313   0.760   6.971   6.435
 4472SOL     OW14314   1.679   2.917   0.729
 4472SOL    HW114315   1.672   2.876   0.821
 4472SOL    HW214316   1.587   2.940   0.696
 4473SOL     OW14317   0.225   2.532   4.578
 4473SOL    HW114318   0.125   2.524   4.587
 4473SOL    HW214319   0.262   2.579   4.657
 4474SOL     OW14320   3.085   6.043   1.126
 4474SOL    HW114321   2.988   6.062   1.146
 4474SOL    HW214322   3.104   5.947   1.144
 4475SOL     OW14323   1.237   4.050   1.187
 4475SOL    HW114324   1.278   4.140   1.173
 4475SOL    HW214325   1.151   4.060   1.238
 4476SOL     OW14326   5.637   1.024   3.993
 4476SOL    HW114327   5.648   1.007   3.895
 4476SOL    HW214328   5.540   1.035   4.015
 4477SOL     OW14329   1.252   0.618   4.752
 4477SOL    HW114330   1.181   0.683   4.779
 4477SOL    HW214331   1.329   0.625   4.816
 4478SOL     OW14332   1.739   6.900   1.048
 4478SOL    HW114333   1.707   6.986   1.087
 4478SOL    HW214334   1.705   6.891   0.954
 4479SOL     OW14335   1.780   1.898   6.708
 4479SOL    HW114336   1.801   1.949   6.791
 4479SOL    HW214337   1.682   1.906   6.688
 4480SOL     OW14338   1.443   6.532   3.819
 4480SOL    HW114339   1.429   6.586   3.737
 4480SOL    HW214340   1.500   6.452   3.798
 4481SOL     OW14341   1.903   3.907   5.905
 4481SOL    HW114342   1.894   3.986   5.967
 4481SOL    HW214343   1.999   3.880   5.901
 4482SOL     OW14344   2.459   6.772   1.301
 4482SOL    HW114345   2.418   6.752   1.390
 4482SOL    HW214346   2.476   6.870   1.294
 4483SOL     OW14347   1.634   3.937   0.541
 4483SOL    HW114348   1.705   3.903   0.603
 4483SOL    HW214349   1.563   3.867   0.530
 4484SOL     OW14350   2.155   1.124   0.003
 4484SOL    HW114351   2.162   1.223   7.014
 4484SOL    HW214352   2.246   1.086   0.018
 4485SOL     OW14353   6.546   2.625   5.233
 4485SOL    HW114354   6.476   2.697   5.234
 4485SOL    HW214355   6.636   2.667   5.245
 4486SOL     OW14356   4.940   4.886   4.609
 4486SOL    HW114357   4.906   4.980   4.620
 4486SOL    HW214358   4.922   4.835   4.693
 4487SOL     OW14359   0.573   2.721   6.616
 4487SOL    HW114360   0.482   2.723   6.574
 4487SOL    HW214361   0.578   2.646   6.682
 4488SOL     OW14362   0.458   4.171   3.545
 4488SOL    HW114363   0.388   4.104   3.569
 4488SOL    HW214364   0.434   4.260   3.584
 4489SOL     OW14365   3.838   5.968   6.279
 4489SOL    HW114366   3.935   5.988   6.260
 4489SOL    HW214367   3.830   5.927   6.370
 4490SOL     OW14368   5.276   1.299   1.824
 4490SOL    HW114369   5.178   1.286   1.844
 4490SOL    HW214370   5.325   1.215   1.847
 4491SOL     OW14371   1.199   2.888   2.936
 4491SOL    HW114372   1.230   2.876   3.031
 4491SOL    HW214373   1.152   2.976   2.928
 4492SOL     OW14374   7.013   0.804   2.325
 4492SOL    HW114375   0.015   0.895   2.297
 4492SOL    HW214376   0.067   0.746   2.338
 4493SOL     OW14377   5.647   1.369   5.888
 4493SOL    HW114378   5.588   1.378   5.807
 4493SOL    HW214379   5.590   1.369   5.970
 4494SOL     OW14380   1.418   0.360   1.645
 4494SOL    HW114381   1.374   0.373   1.557
 4494SOL    HW214382   1.516   0.341   1.631
 4495SOL     OW14383   4.569   6.218   0.825
 4495SOL    HW114384   4.560   6.167   0.910
 4495SOL    HW214385   4.603   6.310   0.846
 4496SOL     OW14386   2.971   6.197   6.151
 4496SOL    HW114387   3.066   6.186   6.182
 4496SOL    HW214388   2.964   6.166   6.057
 4497SOL     OW14389   3.638   1.114   6.011
 4497SOL    HW114390   3.579   1.112   6.092
 4497SOL    HW214391   3.700   1.192   6.018
 4498SOL     OW14392   0.258   5.161   4.850
 4498SOL    HW114393   0.285   5.182   4.756
 4498SOL    HW214394   0.158   5.158   4.856
 4499SOL     OW14395   5.774   1.351   1.906
 4499SOL    HW114396   5.769   1.362   1.807
 4499SOL    HW214397   5.688   1.311   1.939
 4500SOL     OW14398   4.079   5.506   0.272
 4500SOL    HW114399   4.136   5.554   0.206
 4500SOL    HW214400   4.064   5.412   0.243
 4501SOL     OW14401   6.102   0.575   2.455
 4501SOL    HW114402   6.097   0.479   2.485
 4501SOL    HW214403   6.137   0.579   2.361
 4502SOL     OW14404   6.880   3.789   6.720
 4502SOL    HW114405   6.977   3.768   6.732
 4502SOL    HW214406   6.868   3.842   6.636
 4503SOL     OW14407   3.119   1.465   2.752
 4503SOL    HW114408   3.101   1.374   2.713
 4503SOL    HW214409   3.069   1.475   2.838
 4504SOL     OW14410   0.167   2.035   2.828
 4504SOL    HW114411   0.262   2.025   2.799
 4504SOL    HW214412   0.138   1.951   2.874
 4505SOL     OW14413   5.821   3.844   3.713
 4505SOL    HW114414   5.873   3.838   3.798
 4505SOL    HW214415   5.876   3.807   3.638
 4506SOL     OW14416   5.199   2.922   5.683
 4506SOL    HW114417   5.256   2.890   5.758
 4506SOL    HW214418   5.224   3.016   5.659
 4507SOL     OW14419   6.215   2.248   3.219
 4507SOL    HW114420   6.230   2.239   3.318
 4507SOL    HW214421   6.297   2.215   3.171
 4508SOL     OW14422   0.059   4.750   1.032
 4508SOL    HW114423   0.055   4.651   1.044
 4508SOL    HW214424   0.044   4.773   0.936
 4509SOL     OW14425   5.099   2.526   1.908
 4509SOL    HW114426   5.095   2.603   1.971
 4509SOL    HW214427   5.117   2.559   1.815
 4510SOL     OW14428   4.041   1.030   4.448
 4510SOL    HW114429   3.952   1.033   4.494
 4510SOL    HW214430   4.055   0.940   4.408
 4511SOL     OW14431   7.021   4.976   6.650
 4511SOL    HW114432   0.002   4.876   6.646
 4511SOL    HW214433   7.026   5.013   6.557
 4512SOL     OW14434   3.112   3.605   5.420
 4512SOL    HW114435   3.038   3.546   5.387
 4512SOL    HW214436   3.112   3.691   5.368
 4513SOL     OW14437   0.450   0.011   0.870
 4513SOL    HW114438   0.445   6.994   0.960
 4513SOL    HW214439   0.392   0.093   0.870
 4514SOL     OW14440   4.228   4.820   6.634
 4514SOL    HW114441   4.225   4.849   6.539
 4514SOL    HW214442   4.141   4.777   6.659
 4515SOL     OW14443   3.877   0.743   6.309
 4515SOL    HW114444   3.870   0.655   6.355
 4515SOL    HW214445   3.796   0.798   6.329
 4516SOL     OW14446   3.047   2.410   5.541
 4516SOL    HW114447   3.019   2.336   5.479
 4516SOL    HW214448   3.017   2.388   5.633
 4517SOL     OW14449   3.900   0.846   5.585
 4517SOL    HW114450   3.907   0.765   5.643
 4517SOL    HW214451   3.943   0.829   5.497
 4518SOL     OW14452   0.980   6.431   1.068
 4518SOL    HW114453   1.012   6.525   1.066
 4518SOL    HW214454   0.884   6.429   1.097
 4519SOL     OW14455   4.723   6.835   0.219
 4519SOL    HW114456   4.808   6.806   0.264
 4519SOL    HW214457   4.721   6.935   0.214
 4520SOL     OW14458   4.379   5.819   5.793
 4520SOL    HW114459   4.393   5.905   5.744
 4520SOL    HW214460   4.399   5.832   5.890
 4521SOL     OW14461   4.391   2.251   4.077
 4521SOL    HW114462   4.455   2.229   4.150
 4521SOL    HW214463   4.412   2.341   4.039
 4522SOL     OW14464   5.616   4.017   3.618
 4522SOL    HW114465   5.640   4.054   3.528
 4522SOL    HW214466   5.678   3.942   3.641
 4523SOL     OW14467   6.921   2.989   5.886
 4523SOL    HW114468   7.020   2.977   5.891
 4523SOL    HW214469   6.885   3.006   5.978
 4524SOL     OW14470   1.614   3.578   2.006
 4524SOL    HW114471   1.562   3.655   2.043
 4524SOL    HW214472   1.702   3.571   2.054
 4525SOL     OW14473   3.746   2.440   5.732
 4525SOL    HW114474   3.705   2.377   5.666
 4525SOL    HW214475   3.795   2.388   5.802
 4526SOL     OW14476   1.253   6.871   5.748
 4526SOL    HW114477   1.299   6.787   5.776
 4526SOL    HW214478   1.156   6.864   5.770
 4527SOL     OW14479   0.271   1.242   2.663
 4527SOL    HW114480   0.261   1.146   2.635
 4527SOL    HW214481   0.185   1.290   2.649
 4528SOL     OW14482   4.779   0.805   5.170
 4528SOL    HW114483   4.835   0.729   5.136
 4528SOL    HW214484   4.782   0.880   5.104
 4529SOL     OW14485   2.194   1.105   3.970
 4529SOL    HW114486   2.169   1.091   4.066
 4529SOL    HW214487   2.281   1.153   3.964
 4530SOL     OW14488   4.209   5.961   6.616
 4530SOL    HW114489   4.301   5.940   6.584
 4530SOL    HW214490   4.144   5.897   6.575
 4531SOL     OW14491   1.681   6.143   5.122
 4531SOL    HW114492   1.780   6.162   5.125
 4531SOL    HW214493   1.634   6.219   5.077
 4532SOL     OW14494   6.098   1.453   2.780
 4532SOL    HW114495   6.152   1.463   2.697
 4532SOL    HW214496   6.156   1.417   2.853
 4533SOL     OW14497   2.528   0.383   0.794
 4533SOL    HW114498   2.469   0.441   0.736
 4533SOL    HW214499   2.494   0.384   0.888
 4534SOL     OW14500   5.001   1.508   3.987
 4534SOL    HW114501   4.985   1.502   3.888
 4534SOL    HW214502   4.971   1.598   4.020
 4535SOL     OW14503   1.679   0.509   0.581
 4535SOL    HW114504   1.597   0.526   0.635
 4535SOL    HW214505   1.756   0.559   0.620
 4536SOL     OW14506   3.322   0.153   5.790
 4536SOL    HW114507   3.233   0.130   5.750
 4536SOL    HW214508   3.324   0.126   5.886
 4537SOL     OW14509   2.918   3.436   3.239
 4537SOL    HW114510   2.945   3.518   3.291
 4537SOL    HW214511   2.945   3.447   3.144
 4538SOL     OW14512   0.168   2.448   0.722
 4538SOL    HW114513   0.233   2.440   0.646
 4538SOL    HW214514   0.214   2.426   0.808
 4539SOL     OW14515   1.472   5.927   5.473
 4539SOL    HW114516   1.462   5.907   5.571
 4539SOL    HW214517   1.562   5.895   5.442
 4540SOL     OW14518   1.447   2.283   0.200
 4540SOL    HW114519   1.419   2.226   0.123
 4540SOL    HW214520   1.462   2.226   0.281
 4541SOL     OW14521   4.071   2.956   6.340
 4541SOL    HW114522   3.997   2.890   6.352
 4541SOL    HW214523   4.034   3.048   6.335
 4542SOL     OW14524   0.086   1.898   6.635
 4542SOL    HW114525   0.088   1.923   6.732
 4542SOL    HW214526   0.138   1.814   6.621
 4543SOL     OW14527   3.903   1.765   0.454
 4543SOL    HW114528   3.812   1.728   0.436
 4543SOL    HW214529   3.946   1.714   0.528
 4544SOL     OW14530   5.358   6.682   0.737
 4544SOL    HW114531   5.410   6.602   0.767
 4544SOL    HW214532   5.260   6.661   0.741
 4545SOL     OW14533   2.130   2.751   5.211
 4545SOL    HW114534   2.215   2.698   5.213
 4545SOL    HW214535   2.095   2.754   5.117
 4546SOL     OW14536   3.089   0.694   5.556
 4546SOL    HW114537   3.013   0.706   5.492
 4546SOL    HW214538   3.165   0.752   5.528
 4547SOL     OW14539   0.146   7.000   0.118
 4547SOL    HW114540   0.096   6.956   0.193
 4547SOL    HW214541   0.210   0.040   0.156
 4548SOL     OW14542   2.862   1.761   2.281
 4548SOL    HW114543   2.942   1.821   2.288
 4548SOL    HW214544   2.849   1.714   2.368
 4549SOL     OW14545   0.798   3.439   4.240
 4549SOL    HW114546   0.863   3.453   4.165
 4549SOL    HW214547   0.709   3.476   4.214
 4550SOL     OW14548   2.063   5.272   4.243
 4550SOL    HW114549   2.136   5.207   4.221
 4550SOL    HW214550   2.019   5.246   4.329
 4551SOL     OW14551   2.229   2.336   5.210
 4551SOL    HW114552   2.302   2.273   5.183
 4551SOL    HW214553   2.251   2.377   5.299
 4552SOL     OW14554   5.327   1.264   0.610
 4552SOL    HW114555   5.305   1.355   0.575
 4552SOL    HW214556   5.411   1.231   0.567
 4553SOL     OW14557   0.398   5.800   6.976
 4553SOL    HW114558   0.377   5.886   7.023
 4553SOL    HW214559   0.355   5.724   7.024
 4554SOL     OW14560   6.534   6.653   2.825
 4554SOL    HW114561   6.458   6.706   2.789
 4554SOL    HW214562   6.556   6.578   2.762
 4555SOL     OW14563   0.824   1.110   1.041
 4555SOL    HW114564   0.743   1.087   0.987
 4555SOL    HW214565   0.807   1.193   1.094
 4556SOL     OW14566   5.480   4.835   4.229
 4556SOL    HW114567   5.530   4.789   4.155
 4556SOL    HW214568   5.494   4.784   4.314
 4557SOL     OW14569   0.667   5.199   4.217
 4557SOL    HW114570   0.642   5.202   4.120
 4557SOL    HW214571   0.589   5.165   4.270
 4558SOL     OW14572   1.184   4.030   4.789
 4558SOL    HW114573   1.089   4.020   4.760
 4558SOL    HW214574   1.236   4.080   4.720
 4559SOL     OW14575   0.014   2.896   4.037
 4559SOL    HW114576   7.005   2.834   3.968
 4559SOL    HW214577   0.113   2.883   4.046
 4560SOL     OW14578   5.250   4.185   2.838
 4560SOL    HW114579   5.272   4.273   2.882
 4560SOL    HW214580   5.309   4.114   2.875
 4561SOL     OW14581   4.761   2.431   3.553
 4561SOL    HW114582   4.753   2.465   3.459
 4561SOL    HW214583   4.857   2.421   3.576
 4562SOL     OW14584   3.378   1.164   0.420
 4562SOL    HW114585   3.454   1.179   0.484
 4562SOL    HW214586   3.353   1.067   0.421
 4563SOL     OW14587   0.471   4.411   2.275
 4563SOL    HW114588   0.397   4.470   2.308
 4563SOL    HW214589   0.439   4.317   2.268
 4564SOL     OW14590   2.084   3.540   2.229
 4564SOL    HW114591   2.137   3.459   2.202
 4564SOL    HW214592   2.055   3.589   2.148
 4565SOL     OW14593   1.935   6.421   6.264
 4565SOL    HW114594   1.838   6.394   6.260
 4565SOL    HW214595   1.955   6.460   6.353
 4566SOL     OW14596   6.707   4.137   3.389
 4566SOL    HW114597   6.700   4.039   3.369
 4566SOL    HW214598   6.788   4.153   3.445
 4567SOL     OW14599   0.227   0.065   6.659
 4567SOL    HW114600   0.239   7.019   6.593
 4567SOL    HW214601   0.155   0.040   6.725
 4568SOL     OW14602   1.416   5.127   3.225
 4568SOL    HW114603   1.422   5.097   3.320
 4568SOL    HW214604   1.452   5.055   3.165
 4569SOL     OW14605   1.972   1.115   3.260
 4569SOL    HW114606   2.068   1.087   3.257
 4569SOL    HW214607   1.952   1.154   3.350
 4570SOL     OW14608   5.252   5.455   1.550
 4570SOL    HW114609   5.283   5.362   1.571
 4570SOL    HW214610   5.328   5.510   1.517
 4571SOL     OW14611   2.418   3.292   6.274
 4571SOL    HW114612   2.423   3.265   6.178
 4571SOL    HW214613   2.396   3.389   6.280
 4572SOL     OW14614   3.399   3.195   2.084
 4572SOL    HW114615   3.366   3.102   2.069
 4572SOL    HW214616   3.498   3.196   2.091
 4573SOL     OW14617   2.911   5.266   0.805
 4573SOL    HW114618   2.973   5.204   0.853
 4573SOL    HW214619   2.939   5.360   0.819
 4574SOL     OW14620   4.850   1.091   2.135
 4574SOL    HW114621   4.934   1.062   2.090
 4574SOL    HW214622   4.819   1.019   2.198
 4575SOL     OW14623   0.674   0.010   5.847
 4575SOL    HW114624   0.730   0.043   5.923
 4575SOL    HW214625   0.711   6.950   5.814
 4576SOL     OW14626   3.043   4.573   6.316
 4576SOL    HW114627   3.060   4.670   6.337
 4576SOL    HW214628   3.125   4.520   6.337
 4577SOL     OW14629   1.016   1.822   2.056
 4577SOL    HW114630   0.988   1.917   2.068
 4577SOL    HW214631   0.937   1.762   2.070
 4578SOL     OW14632   1.413   1.489   2.055
 4578SOL    HW114633   1.348   1.450   1.991
 4578SOL    HW214634   1.375   1.571   2.097
 4579SOL     OW14635   4.412   0.360   3.470
 4579SOL    HW114636   4.373   0.448   3.441
 4579SOL    HW214637   4.507   0.373   3.496
 4580SOL     OW14638   0.320   1.352   1.223
 4580SOL    HW114639   0.266   1.433   1.199
 4580SOL    HW214640   0.325   1.345   1.323
 4581SOL     OW14641   2.897   0.446   0.998
 4581SOL    HW114642   2.829   0.507   0.957
 4581SOL    HW214643   2.975   0.437   0.936
 4582SOL     OW14644   6.430   0.876   4.000
 4582SOL    HW114645   6.466   0.925   3.921
 4582SOL    HW214646   6.505   0.843   4.057
 4583SOL     OW14647   2.125   0.542   0.403
 4583SOL    HW114648   2.190   0.546   0.479
 4583SOL    HW214649   2.089   0.450   0.394
 4584SOL     OW14650   0.689   1.709   4.284
 4584SOL    HW114651   0.612   1.698   4.221
 4584SOL    HW214652   0.766   1.749   4.234
 4585SOL     OW14653   1.771   3.056   2.909
 4585SOL    HW114654   1.851   3.081   2.855
 4585SOL    HW214655   1.773   2.958   2.928
 4586SOL     OW14656   5.966   5.118   6.474
 4586SOL    HW114657   5.917   5.157   6.552
 4586SOL    HW214658   6.026   5.187   6.434
 4587SOL     OW14659   3.325   3.425   5.450
 4587SOL    HW114660   3.239   3.472   5.429
 4587SOL    HW214661   3.307   3.329   5.469
 4588SOL     OW14662   3.356   3.878   6.452
 4588SOL    HW114663   3.264   3.839   6.442
 4588SOL    HW214664   3.418   3.808   6.489
 4589SOL     OW14665   5.901   6.580   2.342
 4589SOL    HW114666   5.967   6.585   2.267
 4589SOL    HW214667   5.899   6.667   2.391
 4590SOL     OW14668   3.763   5.602   1.609
 4590SOL    HW114669   3.769   5.574   1.705
 4590SOL    HW214670   3.679   5.565   1.569
 4591SOL     OW14671   2.555   0.681   5.341
 4591SOL    HW114672   2.630   0.645   5.285
 4591SOL    HW214673   2.590   0.753   5.401
 4592SOL     OW14674   2.279   1.551   3.878
 4592SOL    HW114675   2.280   1.651   3.890
 4592SOL    HW214676   2.267   1.507   3.966
 4593SOL     OW14677   1.380   5.380   4.352
 4593SOL    HW114678   1.321   5.437   4.410
 4593SOL    HW214679   1.388   5.289   4.392
 4594SOL     OW14680   2.162   0.056   3.256
 4594SOL    HW114681   2.231   0.029   3.324
 4594SOL    HW214682   2.121   7.001   3.216
 4595SOL     OW14683   5.307   2.239   6.127
 4595SOL    HW114684   5.226   2.181   6.131
 4595SOL    HW214685   5.343   2.239   6.033
 4596SOL     OW14686   0.225   0.669   2.323
 4596SOL    HW114687   0.246   0.597   2.389
 4596SOL    HW214688   0.305   0.727   2.310
 4597SOL     OW14689   2.579   5.917   0.819
 4597SOL    HW114690   2.532   5.883   0.901
 4597SOL    HW214691   2.512   5.957   0.756
 4598SOL     OW14692   0.747   4.408   0.596
 4598SOL    HW114693   0.673   4.476   0.604
 4598SOL    HW214694   0.718   4.323   0.640
 4599SOL     OW14695   3.931   6.372   1.699
 4599SOL    HW114696   3.867   6.300   1.671
 4599SOL    HW214697   3.883   6.441   1.752
 4600SOL     OW14698   0.685   6.614   6.610
 4600SOL    HW114699   0.633   6.640   6.529
 4600SOL    HW214700   0.638   6.540   6.658
 4601SOL     OW14701   1.808   0.685   5.328
 4601SOL    HW114702   1.830   0.751   5.256
 4601SOL    HW214703   1.754   0.729   5.399
 4602SOL     OW14704   2.813   1.994   5.728
 4602SOL    HW114705   2.831   2.091   5.710
 4602SOL    HW214706   2.868   1.964   5.806
 4603SOL     OW14707   4.625   0.176   1.057
 4603SOL    HW114708   4.563   0.100   1.038
 4603SOL    HW214709   4.619   0.243   0.983
 4604SOL     OW14710   0.082   0.095   4.414
 4604SOL    HW114711   0.100   7.024   4.427
 4604SOL    HW214712   0.168   0.142   4.397
 4605SOL     OW14713   3.540   0.235   1.236
 4605SOL    HW114714   3.467   0.173   1.266
 4605SOL    HW214715   3.524   0.264   1.142
 4606SOL     OW14716   6.888   6.680   5.177
 4606SOL    HW114717   6.986   6.674   5.159
 4606SOL    HW214718   6.873   6.728   5.263
 4607SOL     OW14719   1.765   1.935   0.811
 4607SOL    HW114720   1.782   1.985   0.896
 4607SOL    HW214721   1.671   1.900   0.811
 4608SOL     OW14722   0.178   2.755   4.806
 4608SOL    HW114723   0.221   2.779   4.892
 4608SOL    HW214724   0.092   2.707   4.823
 4609SOL     OW14725   4.964   5.230   6.805
 4609SOL    HW114726   4.909   5.261   6.727
 4609SOL    HW214727   5.051   5.280   6.806
 4610SOL     OW14728   5.311   4.807   0.357
 4610SOL    HW114729   5.257   4.739   0.307
 4610SOL    HW214730   5.346   4.875   0.293
 4611SOL     OW14731   0.257   1.152   6.529
 4611SOL    HW114732   0.347   1.123   6.562
 4611SOL    HW214733   0.187   1.091   6.566
 4612SOL     OW14734   2.102   1.540   1.848
 4612SOL    HW114735   2.048   1.522   1.930
 4612SOL    HW214736   2.122   1.454   1.802
 4613SOL     OW14737   1.444   4.925   1.567
 4613SOL    HW114738   1.542   4.912   1.581
 4613SOL    HW214739   1.394   4.903   1.651
 4614SOL     OW14740   6.623   4.401   4.081
 4614SOL    HW114741   6.722   4.418   4.076
 4614SOL    HW214742   6.608   4.305   4.106
 4615SOL     OW14743   1.293   3.876   6.378
 4615SOL    HW114744   1.380   3.844   6.416
 4615SOL    HW214745   1.311   3.945   6.308
 4616SOL     OW14746   0.537   2.896   5.667
 4616SOL    HW114747   0.551   2.911   5.765
 4616SOL    HW214748   0.439   2.888   5.648
 4617SOL     OW14749   0.070   2.471   3.915
 4617SOL    HW114750   0.004   2.538   3.949
 4617SOL    HW214751   0.071   2.391   3.976
 4618SOL     OW14752   2.001   4.304   5.594
 4618SOL    HW114753   2.077   4.284   5.656
 4618SOL    HW214754   1.915   4.275   5.636
 4619SOL     OW14755   4.581   6.401   6.537
 4619SOL    HW114756   4.681   6.395   6.541
 4619SOL    HW214757   4.544   6.402   6.630
 4620SOL     OW14758   0.664   4.927   2.145
 4620SOL    HW114759   0.611   4.848   2.115
 4620SOL    HW214760   0.606   4.987   2.201
 4621SOL     OW14761   3.619   0.158   2.505
 4621SOL    HW114762   3.570   0.232   2.550
 4621SOL    HW214763   3.636   0.182   2.410
 4622SOL     OW14764   5.668   6.762   0.515
 4622SOL    HW114765   5.686   6.686   0.577
 4622SOL    HW214766   5.707   6.846   0.552
 4623SOL     OW14767   3.183   4.804   1.463
 4623SOL    HW114768   3.238   4.749   1.525
 4623SOL    HW214769   3.124   4.865   1.517
 4624SOL     OW14770   4.470   1.174   2.123
 4624SOL    HW114771   4.489   1.114   2.046
 4624SOL    HW214772   4.531   1.253   2.120
 4625SOL     OW14773   1.954   6.405   1.338
 4625SOL    HW114774   2.005   6.348   1.403
 4625SOL    HW214775   1.867   6.433   1.379
 4626SOL     OW14776   4.203   3.473   1.547
 4626SOL    HW114777   4.185   3.395   1.488
 4626SOL    HW214778   4.289   3.459   1.596
 4627SOL     OW14779   5.515   0.251   5.438
 4627SOL    HW114780   5.607   0.238   5.473
 4627SOL    HW214781   5.458   0.294   5.508
 4628SOL     OW14782   5.809   4.661   3.785
 4628SOL    HW114783   5.886   4.598   3.779
 4628SOL    HW214784   5.724   4.611   3.772
 4629SOL     OW14785   1.882   5.590   0.321
 4629SOL    HW114786   1.916   5.675   0.281
 4629SOL    HW214787   1.783   5.587   0.315
 4630SOL     OW14788   2.109   3.503   1.324
 4630SOL    HW114789   2.159   3.492   1.410
 4630SOL    HW214790   2.156   3.454   1.251
 4631SOL     OW14791   6.918   0.854   3.136
 4631SOL    HW114792   6.851   0.865   3.210
 4631SOL    HW214793   6.960   0.764   3.142
 4632SOL     OW14794   3.598   4.920   3.005
 4632SOL    HW114795   3.525   4.987   2.991
 4632SOL    HW214796   3.592   4.850   2.934
 4633SOL     OW14797   4.987   1.378   4.634
 4633SOL    HW114798   4.926   1.300   4.643
 4633SOL    HW214799   5.010   1.413   4.725
 4634SOL     OW14800   3.846   3.824   5.427
 4634SOL    HW114801   3.887   3.734   5.445
 4634SOL    HW214802   3.852   3.881   5.509
 4635SOL     OW14803   4.438   6.420   1.175
 4635SOL    HW114804   4.413   6.384   1.086
 4635SOL    HW214805   4.453   6.519   1.168
 4636SOL     OW14806   1.174   5.284   6.890
 4636SOL    HW114807   1.103   5.223   6.926
 4636SOL    HW214808   1.264   5.249   6.915
 4637SOL     OW14809   3.218   1.401   3.622
 4637SOL    HW114810   3.255   1.391   3.530
 4637SOL    HW214811   3.137   1.459   3.620
 4638SOL     OW14812   4.114   4.851   7.014
 4638SOL    HW114813   4.175   4.925   6.988
 4638SOL    HW214814   4.053   4.829   6.938
 4639SOL     OW14815   3.852   2.094   1.840
 4639SOL    HW114816   3.783   2.158   1.875
 4639SOL    HW214817   3.841   2.085   1.741
 4640SOL     OW14818   6.058   3.922   0.041
 4640SOL    HW114819   6.103   4.005   0.072
 4640SOL    HW214820   6.042   3.927   6.969
 4641SOL     OW14821   1.587   5.703   4.497
 4641SOL    HW114822   1.633   5.623   4.534
 4641SOL    HW214823   1.507   5.724   4.552
 4642SOL     OW14824   6.585   0.941   4.800
 4642SOL    HW114825   6.516   0.990   4.746
 4642SOL    HW214826   6.541   0.864   4.847
 4643SOL     OW14827   0.620   2.025   6.803
 4643SOL    HW114828   0.664   1.958   6.863
 4643SOL    HW214829   0.613   1.987   6.711
 4644SOL     OW14830   1.481   0.636   0.716
 4644SOL    HW114831   1.484   0.690   0.633
 4644SOL    HW214832   1.396   0.582   0.718
 4645SOL     OW14833   6.560   1.728   4.622
 4645SOL    HW114834   6.615   1.647   4.603
 4645SOL    HW214835   6.473   1.721   4.573
 4646SOL     OW14836   2.348   4.416   3.922
 4646SOL    HW114837   2.281   4.487   3.945
 4646SOL    HW214838   2.322   4.372   3.837
 4647SOL     OW14839   1.305   6.695   1.266
 4647SOL    HW114840   1.326   6.597   1.258
 4647SOL    HW214841   1.250   6.710   1.348
 4648SOL     OW14842   2.401   1.501   4.403
 4648SOL    HW114843   2.491   1.486   4.362
 4648SOL    HW214844   2.408   1.492   4.503
 4649SOL     OW14845   5.782   1.548   0.071
 4649SOL    HW114846   5.779   1.449   0.058
 4649SOL    HW214847   5.847   1.571   0.143
 4650SOL     OW14848   5.408   6.540   0.971
 4650SOL    HW114849   5.469   6.544   1.051
 4650SOL    HW214850   5.316   6.566   0.999
 4651SOL     OW14851   6.962   3.340   6.316
 4651SOL    HW114852   6.926   3.265   6.373
 4651SOL    HW214853   6.995   3.302   6.230
 4652SOL     OW14854   0.131   6.645   5.104
 4652SOL    HW114855   0.173   6.611   5.020
 4652SOL    HW214856   0.194   6.708   5.149
 4653SOL     OW14857   6.691   5.755   0.682
 4653SOL    HW114858   6.755   5.724   0.612
 4653SOL    HW214859   6.736   5.821   0.742
 4654SOL     OW14860   0.856   0.359   5.881
 4654SOL    HW114861   0.841   0.320   5.972
 4654SOL    HW214862   0.949   0.338   5.851
 4655SOL     OW14863   5.014   2.961   1.634
 4655SOL    HW114864   4.933   2.926   1.682
 4655SOL    HW214865   4.986   2.998   1.545
 4656SOL     OW14866   6.651   0.937   1.727
 4656SOL    HW114867   6.739   0.984   1.734
 4656SOL    HW214868   6.654   0.872   1.652
 4657SOL     OW14869   3.390   1.141   3.557
 4657SOL    HW114870   3.360   1.120   3.650
 4657SOL    HW214871   3.394   1.056   3.504
 4658SOL     OW14872   1.351   2.137   6.136
 4658SOL    HW114873   1.285   2.063   6.142
 4658SOL    HW214874   1.416   2.118   6.062
 4659SOL     OW14875   1.747   4.389   0.017
 4659SOL    HW114876   1.699   4.407   6.958
 4659SOL    HW214877   1.682   4.396   0.093
 4660SOL     OW14878   1.118   5.423   3.074
 4660SOL    HW114879   1.184   5.348   3.075
 4660SOL    HW214880   1.150   5.495   3.013
 4661SOL     OW14881   0.604   1.502   6.106
 4661SOL    HW114882   0.509   1.502   6.075
 4661SOL    HW214883   0.664   1.536   6.033
 4662SOL     OW14884   1.993   0.511   5.420
 4662SOL    HW114885   1.920   0.571   5.386
 4662SOL    HW214886   1.976   0.417   5.389
 4663SOL     OW14887   1.290   0.177   0.296
 4663SOL    HW114888   1.250   0.186   0.205
 4663SOL    HW214889   1.389   0.169   0.288
 4664SOL     OW14890   6.036   0.328   6.303
 4664SOL    HW114891   6.085   0.415   6.309
 4664SOL    HW214892   5.943   0.343   6.272
 4665SOL     OW14893   1.295   0.266   3.599
 4665SOL    HW114894   1.316   0.284   3.503
 4665SOL    HW214895   1.236   0.338   3.634
 4666SOL     OW14896   2.189   1.862   5.048
 4666SOL    HW114897   2.204   1.763   5.057
 4666SOL    HW214898   2.104   1.886   5.096
 4667SOL     OW14899   6.188   4.407   1.145
 4667SOL    HW114900   6.214   4.332   1.084
 4667SOL    HW214901   6.230   4.492   1.113
 4668SOL     OW14902   4.868   1.698   4.645
 4668SOL    HW114903   4.773   1.727   4.633
 4668SOL    HW214904   4.886   1.618   4.587
 4669SOL     OW14905   5.406   6.846   6.104
 4669SOL    HW114906   5.349   6.769   6.075
 4669SOL    HW214907   5.494   6.812   6.137
 4670SOL     OW14908   0.455   2.771   0.094
 4670SOL    HW114909   0.356   2.776   0.102
 4670SOL    HW214910   0.484   2.675   0.099
 4671SOL     OW14911   0.682   2.981   1.427
 4671SOL    HW114912   0.745   3.033   1.370
 4671SOL    HW214913   0.689   3.012   1.522
 4672SOL     OW14914   3.205   4.129   6.857
 4672SOL    HW114915   3.127   4.071   6.880
 4672SOL    HW214916   3.274   4.076   6.810
 4673SOL     OW14917   6.236   0.971   0.528
 4673SOL    HW114918   6.142   0.947   0.554
 4673SOL    HW214919   6.291   0.888   0.523
 4674SOL     OW14920   0.417   2.696   1.081
 4674SOL    HW114921   0.413   2.759   1.159
 4674SOL    HW214922   0.391   2.745   0.998
 4675SOL     OW14923   1.927   5.517   6.743
 4675SOL    HW114924   1.995   5.446   6.724
 4675SOL    HW214925   1.898   5.559   6.657
 4676SOL     OW14926   0.888   6.587   3.923
 4676SOL    HW114927   0.914   6.492   3.902
 4676SOL    HW214928   0.971   6.642   3.937
 4677SOL     OW14929   3.801   6.979   0.121
 4677SOL    HW114930   3.742   6.924   0.180
 4677SOL    HW214931   3.750   0.029   0.084
 4678SOL     OW14932   2.205   4.450   6.589
 4678SOL    HW114933   2.198   4.392   6.507
 4678SOL    HW214934   2.253   4.400   6.661
 4679SOL     OW14935   2.777   6.545   5.932
 4679SOL    HW114936   2.776   6.539   6.032
 4679SOL    HW214937   2.746   6.458   5.893
 4680SOL     OW14938   1.649   4.569   0.428
 4680SOL    HW114939   1.710   4.499   0.463
 4680SOL    HW214940   1.639   4.643   0.495
 4681SOL     OW14941   6.766   5.781   4.813
 4681SOL    HW114942   6.686   5.723   4.801
 4681SOL    HW214943   6.836   5.756   4.746
 4682SOL     OW14944   3.891   6.466   0.740
 4682SOL    HW114945   3.824   6.396   0.713
 4682SOL    HW214946   3.905   6.528   0.663
 4683SOL     OW14947   6.650   4.460   3.516
 4683SOL    HW114948   6.615   4.367   3.505
 4683SOL    HW214949   6.582   4.516   3.562
 4684SOL     OW14950   1.624   1.353   5.063
 4684SOL    HW114951   1.698   1.309   5.115
 4684SOL    HW214952   1.647   1.352   4.965
 4685SOL     OW14953   5.138   4.325   5.031
 4685SOL    HW114954   5.081   4.352   5.108
 4685SOL    HW214955   5.081   4.290   4.956
 4686SOL     OW14956   5.353   6.149   0.660
 4686SOL    HW114957   5.278   6.108   0.609
 4686SOL    HW214958   5.316   6.200   0.738
 4687SOL     OW14959   5.444   6.659   4.521
 4687SOL    HW114960   5.466   6.570   4.482
 4687SOL    HW214961   5.495   6.673   4.605
 4688SOL     OW14962   1.041   2.217   0.215
 4688SOL    HW114963   1.118   2.154   0.224
 4688SOL    HW214964   0.959   2.174   0.253
 4689SOL     OW14965   1.542   5.431   5.039
 4689SOL    HW114966   1.458   5.381   5.022
 4689SOL    HW214967   1.611   5.369   5.077
 4690SOL     OW14968   1.718   2.042   0.580
 4690SOL    HW114969   1.750   2.004   0.667
 4690SOL    HW214970   1.624   2.014   0.564
 4691SOL     OW14971   3.879   4.464   0.565
 4691SOL    HW114972   3.791   4.478   0.610
 4691SOL    HW214973   3.872   4.389   0.500
 4692SOL     OW14974   0.280   5.979   3.163
 4692SOL    HW114975   0.250   6.074   3.150
 4692SOL    HW214976   0.356   5.960   3.101
 4693SOL     OW14977   0.760   0.709   3.946
 4693SOL    HW114978   0.679   0.705   4.004
 4693SOL    HW214979   0.841   0.727   4.003
 4694SOL     OW14980   1.388   1.112   6.316
 4694SOL    HW114981   1.381   1.124   6.217
 4694SOL    HW214982   1.387   1.202   6.361
 4695SOL     OW14983   2.934   3.033   1.505
 4695SOL    HW114984   2.965   3.042   1.600
 4695SOL    HW214985   2.871   2.956   1.497
 4696SOL     OW14986   5.670   3.399   0.427
 4696SOL    HW114987   5.693   3.494   0.404
 4696SOL    HW214988   5.571   3.388   0.429
 4697SOL     OW14989   0.768   4.963   0.145
 4697SOL    HW114990   0.742   4.976   0.240
 4697SOL    HW214991   0.768   5.051   0.098
 4698SOL     OW14992   6.124   3.401   1.503
 4698SOL    HW114993   6.179   3.393   1.586
 4698SOL    HW214994   6.171   3.353   1.428
 4699SOL     OW14995   6.450   0.009   3.404
 4699SOL    HW114996   6.357   0.034   3.377
 4699SOL    HW214997   6.446   6.970   3.479
 4700SOL     OW14998   5.754   6.637   0.257
 4700SOL    HW114999   5.800   6.609   0.173
 4700SOL    HW215000   5.665   6.593   0.263
 4701SOL     OW15001   0.238   1.019   0.604
 4701SOL    HW115002   0.308   1.084   0.633
 4701SOL    HW215003   0.186   1.058   0.527
 4702SOL     OW15004   2.682   3.450   0.160
 4702SOL    HW115005   2.754   3.519   0.164
 4702SOL    HW215006   2.693   3.386   0.237
 4703SOL     OW15007   1.291   1.401   1.176
 4703SOL    HW115008   1.379   1.445   1.157
 4703SOL    HW215009   1.289   1.311   1.133
 4704SOL     OW15010   4.549   0.017   0.255
 4704SOL    HW115011   4.531   0.115   0.248
 4704SOL    HW215012   4.601   7.026   0.339
 4705SOL     OW15013   3.182   3.961   3.784
 4705SOL    HW115014   3.126   3.924   3.858
 4705SOL    HW215015   3.240   4.034   3.821
 4706SOL     OW15016   4.558   5.263   1.342
 4706SOL    HW115017   4.595   5.174   1.367
 4706SOL    HW215018   4.510   5.256   1.255
 4707SOL     OW15019   3.616   6.343   1.475
 4707SOL    HW115020   3.685   6.344   1.403
 4707SOL    HW215021   3.655   6.300   1.557
 4708SOL     OW15022   1.702   2.458   2.484
 4708SOL    HW115023   1.677   2.431   2.391
 4708SOL    HW215024   1.789   2.506   2.483
 4709SOL     OW15025   3.489   3.706   6.593
 4709SOL    HW115026   3.443   3.629   6.548
 4709SOL    HW215027   3.545   3.672   6.669
 4710SOL     OW15028   5.170   2.509   0.738
 4710SOL    HW115029   5.235   2.530   0.812
 4710SOL    HW215030   5.167   2.585   0.674
 4711SOL     OW15031   3.261   6.540   3.095
 4711SOL    HW115032   3.200   6.593   3.036
 4711SOL    HW215033   3.210   6.464   3.136
 4712SOL     OW15034   1.332   4.539   0.438
 4712SOL    HW115035   1.428   4.513   0.439
 4712SOL    HW215036   1.275   4.457   0.439
 4713SOL     OW15037   2.336   6.119   0.910
 4713SOL    HW115038   2.313   6.022   0.919
 4713SOL    HW215039   2.332   6.163   0.999
 4714SOL     OW15040   3.160   2.328   0.541
 4714SOL    HW115041   3.157   2.425   0.514
 4714SOL    HW215042   3.240   2.312   0.598
 4715SOL     OW15043   5.579   4.059   4.595
 4715SOL    HW115044   5.639   3.979   4.600
 4715SOL    HW215045   5.578   4.092   4.500
 4716SOL     OW15046   3.074   5.324   0.250
 4716SOL    HW115047   3.004   5.367   0.194
 4716SOL    HW215048   3.048   5.329   0.346
 4717SOL     OW15049   1.032   5.602   4.009
 4717SOL    HW115050   1.020   5.679   3.946
 4717SOL    HW215051   1.097   5.537   3.970
 4718SOL     OW15052   5.505   1.085   6.452
 4718SOL    HW115053   5.574   1.031   6.501
 4718SOL    HW215054   5.419   1.034   6.450
 4719SOL     OW15055   4.159   3.157   1.826
 4719SOL    HW115056   4.247   3.165   1.779
 4719SOL    HW215057   4.134   3.246   1.864
 4720SOL     OW15058   2.985   0.881   4.220
 4720SOL    HW115059   3.074   0.922   4.243
 4720SOL    HW215060   2.915   0.952   4.219
 4721SOL     OW15061   0.914   1.716   0.717
 4721SOL    HW115062   0.921   1.768   0.802
 4721SOL    HW215063   0.885   1.622   0.737
 4722SOL     OW15064   2.720   0.201   1.818
 4722SOL    HW115065   2.727   0.264   1.740
 4722SOL    HW215066   2.716   0.254   1.903
 4723SOL     OW15067   2.875   6.826   6.498
 4723SOL    HW115068   2.970   6.857   6.495
 4723SOL    HW215069   2.861   6.754   6.431
 4724SOL     OW15070   4.107   4.888   1.728
 4724SOL    HW115071   4.065   4.846   1.808
 4724SOL    HW215072   4.198   4.850   1.714
 4725SOL     OW15073   5.981   5.623   3.279
 4725SOL    HW115074   5.912   5.582   3.338
 4725SOL    HW215075   6.062   5.646   3.333
 4726SOL     OW15076   0.519   6.189   5.726
 4726SOL    HW115077   0.565   6.152   5.646
 4726SOL    HW215078   0.542   6.134   5.806
 4727SOL     OW15079   6.957   6.539   0.541
 4727SOL    HW115080   6.879   6.502   0.592
 4727SOL    HW215081   0.012   6.533   0.596
 4728SOL     OW15082   0.044   1.430   0.140
 4728SOL    HW115083   0.068   1.336   0.115
 4728SOL    HW215084   6.973   1.434   0.159
 4729SOL     OW15085   2.964   0.346   0.654
 4729SOL    HW115086   2.941   0.303   0.567
 4729SOL    HW215087   2.910   0.429   0.666
 4730SOL     OW15088   2.240   0.607   5.465
 4730SOL    HW115089   2.262   0.659   5.383
 4730SOL    HW215090   2.148   0.568   5.457
 4731SOL     OW15091   5.677   2.010   6.020
 4731SOL    HW115092   5.702   1.962   5.936
 4731SOL    HW215093   5.593   1.969   6.057
 4732SOL     OW15094   0.515   1.611   0.724
 4732SOL    HW115095   0.508   1.615   0.824
 4732SOL    HW215096   0.433   1.648   0.683
 4733SOL     OW15097   6.676   3.076   3.993
 4733SOL    HW115098   6.606   3.115   4.052
 4733SOL    HW215099   6.760   3.062   4.045
 4734SOL     OW15100   5.138   4.599   5.855
 4734SOL    HW115101   5.117   4.538   5.932
 4734SOL    HW215102   5.131   4.694   5.886
 4735SOL     OW15103   0.192   4.722   3.902
 4735SOL    HW115104   0.279   4.770   3.909
 4735SOL    HW215105   0.118   4.781   3.936
 4736SOL     OW15106   1.837   0.607   1.244
 4736SOL    HW115107   1.813   0.510   1.248
 4736SOL    HW215108   1.775   0.660   1.303
 4737SOL     OW15109   3.485   5.662   1.793
 4737SOL    HW115110   3.458   5.657   1.697
 4737SOL    HW215111   3.411   5.702   1.847
 4738SOL     OW15112   0.303   6.165   2.850
 4738SOL    HW115113   0.304   6.265   2.855
 4738SOL    HW215114   0.270   6.136   2.761
 4739SOL     OW15115   4.694   0.640   1.454
 4739SOL    HW115116   4.665   0.700   1.528
 4739SOL    HW215117   4.774   0.680   1.408
 4740SOL     OW15118   0.868   2.592   3.825
 4740SOL    HW115119   0.793   2.526   3.812
 4740SOL    HW215120   0.954   2.549   3.799
 4741SOL     OW15121   4.027   4.297   1.110
 4741SOL    HW115122   4.101   4.245   1.068
 4741SOL    HW215123   4.065   4.374   1.160
 4742SOL     OW15124   3.543   1.251   0.660
 4742SOL    HW115125   3.449   1.234   0.688
 4742SOL    HW215126   3.606   1.205   0.723
 4743SOL     OW15127   1.899   5.034   0.564
 4743SOL    HW115128   1.949   5.066   0.484
 4743SOL    HW215129   1.818   5.090   0.579
 4744SOL     OW15130   2.430   5.526   1.303
 4744SOL    HW115131   2.370   5.534   1.223
 4744SOL    HW215132   2.449   5.429   1.321
 4745SOL     OW15133   1.182   3.497   0.262
 4745SOL    HW115134   1.193   3.529   0.168
 4745SOL    HW215135   1.168   3.575   0.323
 4746SOL     OW15136   4.528   5.657   4.488
 4746SOL    HW115137   4.454   5.670   4.422
 4746SOL    HW215138   4.519   5.566   4.530
 4747SOL     OW15139   2.018   1.125   0.355
 4747SOL    HW115140   2.015   1.136   0.455
 4747SOL    HW215141   2.075   1.198   0.316
 4748SOL     OW15142   2.130   6.496   1.697
 4748SOL    HW115143   2.141   6.411   1.646
 4748SOL    HW215144   2.126   6.476   1.795
 4749SOL     OW15145   2.838   2.152   0.117
 4749SOL    HW115146   2.897   2.192   0.188
 4749SOL    HW215147   2.875   2.063   0.089
 4750SOL     OW15148   5.060   2.679   5.056
 4750SOL    HW115149   5.139   2.730   5.022
 4750SOL    HW215150   5.050   2.696   5.154
 4751SOL     OW15151   4.713   0.492   3.192
 4751SOL    HW115152   4.726   0.394   3.205
 4751SOL    HW215153   4.746   0.542   3.272
 4752SOL     OW15154   4.940   1.884   6.531
 4752SOL    HW115155   4.945   1.849   6.437
 4752SOL    HW215156   4.844   1.897   6.556
 4753SOL     OW15157   3.070   6.469   4.979
 4753SOL    HW115158   3.018   6.393   4.941
 4753SOL    HW215159   3.155   6.435   5.020
 4754SOL     OW15160   4.624   4.519   6.439
 4754SOL    HW115161   4.599   4.562   6.525
 4754SOL    HW215162   4.641   4.589   6.370
 4755SOL     OW15163   0.645   0.854   1.409
 4755SOL    HW115164   0.657   0.764   1.452
 4755SOL    HW215165   0.718   0.870   1.343
 4756SOL     OW15166   6.443   4.147   5.470
 4756SOL    HW115167   6.509   4.078   5.500
 4756SOL    HW215168   6.482   4.200   5.395
 4757SOL     OW15169   1.998   3.705   0.398
 4757SOL    HW115170   1.900   3.689   0.383
 4757SOL    HW215171   2.023   3.794   0.358
 4758SOL     OW15172   2.246   5.729   3.421
 4758SOL    HW115173   2.281   5.638   3.445
 4758SOL    HW215174   2.297   5.766   3.344
 4759SOL     OW15175   0.084   6.582   1.741
 4759SOL    HW115176   0.000   6.568   1.689
 4759SOL    HW215177   0.127   6.493   1.760
 4760SOL     OW15178   1.564   5.664   0.600
 4760SOL    HW115179   1.544   5.761   0.618
 4760SOL    HW215180   1.546   5.611   0.683
 4761SOL     OW15181   5.839   6.481   1.919
 4761SOL    HW115182   5.859   6.567   1.871
 4761SOL    HW215183   5.854   6.494   2.017
 4762SOL     OW15184   2.162   0.341   2.287
 4762SOL    HW115185   2.224   0.316   2.213
 4762SOL    HW215186   2.083   0.279   2.287
 4763SOL     OW15187   5.932   5.518   2.493
 4763SOL    HW115188   5.860   5.477   2.550
 4763SOL    HW215189   6.002   5.558   2.553
 4764SOL     OW15190   5.102   2.392   0.486
 4764SOL    HW115191   5.142   2.429   0.569
 4764SOL    HW215192   5.052   2.308   0.507
 4765SOL     OW15193   3.777   1.760   5.681
 4765SOL    HW115194   3.680   1.785   5.678
 4765SOL    HW215195   3.826   1.825   5.740
 4766SOL     OW15196   1.110   0.415   4.627
 4766SOL    HW115197   1.019   0.388   4.657
 4766SOL    HW215198   1.144   0.489   4.685
 4767SOL     OW15199   2.119   3.974   3.035
 4767SOL    HW115200   2.166   4.032   3.101
 4767SOL    HW215201   2.151   3.995   2.943
 4768SOL     OW15202   4.649   2.687   6.401
 4768SOL    HW115203   4.703   2.665   6.482
 4768SOL    HW215204   4.583   2.758   6.423
 4769SOL     OW15205   1.791   3.457   0.543
 4769SOL    HW115206   1.738   3.533   0.505
 4769SOL    HW215207   1.770   3.373   0.494
 4770SOL     OW15208   0.425   1.681   4.147
 4770SOL    HW115209   0.437   1.777   4.122
 4770SOL    HW215210   0.436   1.624   4.066
 4771SOL     OW15211   2.010   6.863   3.988
 4771SOL    HW115212   2.094   6.820   4.022
 4771SOL    HW215213   1.985   6.823   3.900
 4772SOL     OW15214   3.060   5.400   2.571
 4772SOL    HW115215   3.042   5.485   2.521
 4772SOL    HW215216   3.146   5.360   2.539
 4773SOL     OW15217   2.760   4.912   5.163
 4773SOL    HW115218   2.754   4.898   5.064
 4773SOL    HW215219   2.855   4.905   5.192
 4774SOL     OW15220   0.919   4.572   0.939
 4774SOL    HW115221   0.870   4.505   0.995
 4774SOL    HW215222   0.923   4.539   0.845
 4775SOL     OW15223   6.128   6.122   5.195
 4775SOL    HW115224   6.135   6.080   5.285
 4775SOL    HW215225   6.045   6.091   5.149
 4776SOL     OW15226   0.405   1.218   6.033
 4776SOL    HW115227   0.314   1.206   5.992
 4776SOL    HW215228   0.395   1.241   6.130
 4777SOL     OW15229   2.311   0.298   2.524
 4777SOL    HW115230   2.245   0.291   2.449
 4777SOL    HW215231   2.299   0.386   2.570
 4778SOL     OW15232   1.662   1.441   0.461
 4778SOL    HW115233   1.700   1.353   0.490
 4778SOL    HW215234   1.677   1.453   0.362
 4779SOL     OW15235   4.990   0.495   4.727
 4779SOL    HW115236   4.926   0.557   4.681
 4779SOL    HW215237   4.966   0.401   4.706
 4780SOL     OW15238   4.901   2.661   4.826
 4780SOL    HW115239   4.976   2.681   4.889
 4780SOL    HW215240   4.851   2.580   4.857
 4781SOL     OW15241   1.855   5.692   1.625
 4781SOL    HW115242   1.884   5.615   1.682
 4781SOL    HW215243   1.774   5.666   1.572
 4782SOL     OW15244   6.949   6.629   4.420
 4782SOL    HW115245   6.855   6.596   4.413
 4782SOL    HW215246   6.997   6.613   4.333
 4783SOL     OW15247   0.109   3.586   5.968
 4783SOL    HW115248   0.196   3.571   6.014
 4783SOL    HW215249   0.095   3.684   5.954
 4784SOL     OW15250   5.155   3.710   6.828
 4784SOL    HW115251   5.095   3.779   6.869
 4784SOL    HW215252   5.109   3.621   6.827
 4785SOL     OW15253   0.729   0.196   4.526
 4785SOL    HW115254   0.757   0.145   4.445
 4785SOL    HW215255   0.676   0.137   4.587
 4786SOL     OW15256   0.637   6.025   0.779
 4786SOL    HW115257   0.582   6.014   0.696
 4786SOL    HW215258   0.699   5.947   0.788
 4787SOL     OW15259   4.421   1.248   4.184
 4787SOL    HW115260   4.403   1.186   4.261
 4787SOL    HW215261   4.517   1.278   4.188
 4788SOL     OW15262   0.115   6.224   0.678
 4788SOL    HW115263   0.137   6.322   0.687
 4788SOL    HW215264   0.023   6.214   0.640
 4789SOL     OW15265   5.920   0.766   2.547
 4789SOL    HW115266   5.869   0.719   2.619
 4789SOL    HW215267   5.990   0.705   2.511
 4790SOL     OW15268   6.764   1.779   5.128
 4790SOL    HW115269   6.681   1.788   5.073
 4790SOL    HW215270   6.752   1.706   5.195
 4791SOL     OW15271   0.945   0.144   0.101
 4791SOL    HW115272   0.960   0.118   0.196
 4791SOL    HW215273   0.898   0.071   0.053
 4792SOL     OW15274   1.729   3.463   2.333
 4792SOL    HW115275   1.771   3.435   2.247
 4792SOL    HW215276   1.774   3.546   2.367
 4793SOL     OW15277   1.341   3.945   5.867
 4793SOL    HW115278   1.248   3.934   5.834
 4793SOL    HW215279   1.374   3.857   5.903
 4794SOL     OW15280   4.607   1.785   4.632
 4794SOL    HW115281   4.542   1.711   4.648
 4794SOL    HW215282   4.566   1.871   4.661
 4795SOL     OW15283   6.946   0.895   6.436
 4795SOL    HW115284   6.869   0.929   6.382
 4795SOL    HW215285   6.931   0.915   6.533
 4796SOL     OW15286   4.743   1.116   5.421
 4796SOL    HW115287   4.669   1.178   5.397
 4796SOL    HW215288   4.808   1.163   5.481
 4797SOL     OW15289   1.786   5.083   5.841
 4797SOL    HW115290   1.692   5.062   5.814
 4797SOL    HW215291   1.820   5.010   5.901
 4798SOL     OW15292   3.876   5.780   0.098
 4798SOL    HW115293   3.943   5.840   0.141
 4798SOL    HW215294   3.857   5.702   0.158
 4799SOL     OW15295   4.539   2.636   0.164
 4799SOL    HW115296   4.561   2.548   0.122
 4799SOL    HW215297   4.577   2.639   0.256
 4800SOL     OW15298   0.231   4.627   6.894
 4800SOL    HW115299   0.248   4.533   6.863
 4800SOL    HW215300   0.215   4.686   6.815
 4801SOL     OW15301   5.322   2.130   2.127
 4801SOL    HW115302   5.263   2.191   2.179
 4801SOL    HW215303   5.337   2.168   2.035
 4802SOL     OW15304   6.712   0.164   4.503
 4802SOL    HW115305   6.719   0.064   4.499
 4802SOL    HW215306   6.641   0.190   4.568
 4803SOL     OW15307   4.918   4.046   5.500
 4803SOL    HW115308   4.871   4.013   5.418
 4803SOL    HW215309   4.965   4.132   5.480
 4804SOL     OW15310   5.447   2.264   0.605
 4804SOL    HW115311   5.532   2.211   0.598
 4804SOL    HW215312   5.369   2.204   0.588
 4805SOL     OW15313   6.242   1.641   6.914
 4805SOL    HW115314   6.166   1.576   6.923
 4805SOL    HW215315   6.274   1.642   6.820
 4806SOL     OW15316   1.259   1.272   3.425
 4806SOL    HW115317   1.232   1.245   3.518
 4806SOL    HW215318   1.252   1.371   3.416
 4807SOL     OW15319   6.957   4.389   5.792
 4807SOL    HW115320   7.006   4.302   5.802
 4807SOL    HW215321   6.931   4.401   5.696
 4808SOL     OW15322   3.622   5.888   2.108
 4808SOL    HW115323   3.548   5.867   2.044
 4808SOL    HW215324   3.652   5.983   2.095
 4809SOL     OW15325   2.793   3.286   1.529
 4809SOL    HW115326   2.742   3.281   1.615
 4809SOL    HW215327   2.831   3.197   1.507
 4810SOL     OW15328   1.426   5.525   4.117
 4810SOL    HW115329   1.412   5.622   4.096
 4810SOL    HW215330   1.391   5.505   4.208
 4811SOL     OW15331   3.378   3.791   4.256
 4811SOL    HW115332   3.385   3.814   4.354
 4811SOL    HW215333   3.339   3.700   4.246
 4812SOL     OW15334   1.796   6.681   3.016
 4812SOL    HW115335   1.824   6.746   3.087
 4812SOL    HW215336   1.709   6.640   3.041
 4813SOL     OW15337   0.622   1.511   5.456
 4813SOL    HW115338   0.551   1.462   5.404
 4813SOL    HW215339   0.712   1.491   5.417
 4814SOL     OW15340   6.375   3.634   1.495
 4814SOL    HW115341   6.292   3.690   1.497
 4814SOL    HW215342   6.361   3.552   1.550
 4815SOL     OW15343   5.955   4.676   2.341
 4815SOL    HW115344   5.939   4.639   2.433
 4815SOL    HW215345   5.967   4.776   2.347
 4816SOL     OW15346   3.292   1.085   2.415
 4816SOL    HW115347   3.216   1.026   2.391
 4816SOL    HW215348   3.378   1.037   2.402
 4817SOL     OW15349   3.835   1.545   0.962
 4817SOL    HW115350   3.824   1.615   0.893
 4817SOL    HW215351   3.931   1.541   0.991
 4818SOL     OW15352   4.018   0.045   4.908
 4818SOL    HW115353   4.102   0.099   4.919
 4818SOL    HW215354   3.991   0.044   4.812
 4819SOL     OW15355   2.962   1.049   0.348
 4819SOL    HW115356   2.957   1.099   0.435
 4819SOL    HW215357   2.966   0.951   0.366
 4820SOL     OW15358   5.778   4.225   1.724
 4820SOL    HW115359   5.732   4.212   1.811
 4820SOL    HW215360   5.730   4.173   1.653
 4821SOL     OW15361   0.044   5.643   1.740
 4821SOL    HW115362   0.109   5.600   1.803
 4821SOL    HW215363   0.092   5.707   1.681
 4822SOL     OW15364   1.115   3.750   1.801
 4822SOL    HW115365   1.020   3.772   1.777
 4822SOL    HW215366   1.117   3.666   1.855
 4823SOL     OW15367   1.635   1.104   3.426
 4823SOL    HW115368   1.705   1.112   3.356
 4823SOL    HW215369   1.665   1.151   3.509
 4824SOL     OW15370   5.671   2.866   1.647
 4824SOL    HW115371   5.585   2.855   1.597
 4824SOL    HW215372   5.739   2.910   1.588
 4825SOL     OW15373   0.045   3.250   3.449
 4825SOL    HW115374   0.138   3.241   3.413
 4825SOL    HW215375   0.044   3.318   3.522
 4826SOL     OW15376   6.848   6.364   6.807
 4826SOL    HW115377   6.895   6.421   6.738
 4826SOL    HW215378   6.853   6.409   6.896
 4827SOL     OW15379   5.336   1.199   0.892
 4827SOL    HW115380   5.300   1.218   0.801
 4827SOL    HW215381   5.293   1.259   0.959
 4828SOL     OW15382   5.025   3.464   6.813
 4828SOL    HW115383   5.027   3.392   6.744
 4828SOL    HW215384   4.998   3.424   6.901
 4829SOL     OW15385   3.840   6.946   5.078
 4829SOL    HW115386   3.757   6.905   5.038
 4829SOL    HW215387   3.884   7.004   5.010
 4830SOL     OW15388   4.158   6.402   5.021
 4830SOL    HW115389   4.185   6.375   4.929
 4830SOL    HW215390   4.236   6.441   5.069
 4831SOL     OW15391   6.053   3.285   5.955
 4831SOL    HW115392   6.142   3.323   5.979
 4831SOL    HW215393   6.061   3.186   5.944
 4832SOL     OW15394   1.641   2.847   6.103
 4832SOL    HW115395   1.616   2.927   6.048
 4832SOL    HW215396   1.740   2.843   6.113
 4833SOL     OW15397   5.939   1.755   2.987
 4833SOL    HW115398   5.884   1.699   2.924
 4833SOL    HW215399   6.021   1.787   2.939
 4834SOL     OW15400   5.730   1.056   3.260
 4834SOL    HW115401   5.747   0.974   3.316
 4834SOL    HW215402   5.722   1.136   3.320
 4835SOL     OW15403   1.753   0.670   5.740
 4835SOL    HW115404   1.664   0.714   5.750
 4835SOL    HW215405   1.749   0.603   5.665
 4836SOL     OW15406   5.320   2.950   1.798
 4836SOL    HW115407   5.221   2.944   1.782
 4836SOL    HW215408   5.368   2.904   1.724
 4837SOL     OW15409   0.317   3.511   1.396
 4837SOL    HW115410   0.290   3.602   1.365
 4837SOL    HW215411   0.414   3.497   1.378
 4838SOL     OW15412   2.585   5.216   2.747
 4838SOL    HW115413   2.570   5.143   2.813
 4838SOL    HW215414   2.642   5.182   2.672
 4839SOL     OW15415   0.606   0.029   6.976
 4839SOL    HW115416   0.678   0.054   6.911
 4839SOL    HW215417   0.612   0.087   0.030
 4840SOL     OW15418   6.385   6.923   6.728
 4840SOL    HW115419   6.414   7.008   6.772
 4840SOL    HW215420   6.294   6.898   6.762
 4841SOL     OW15421   2.698   6.071   2.320
 4841SOL    HW115422   2.757   6.018   2.381
 4841SOL    HW215423   2.727   6.056   2.225
 4842SOL     OW15424   3.886   6.656   1.227
 4842SOL    HW115425   3.973   6.684   1.187
 4842SOL    HW215426   3.824   6.628   1.154
 4843SOL     OW15427   1.096   3.039   6.666
 4843SOL    HW115428   1.109   3.057   6.569
 4843SOL    HW215429   1.009   3.078   6.696
 4844SOL     OW15430   0.309   1.689   5.789
 4844SOL    HW115431   0.254   1.658   5.867
 4844SOL    HW215432   0.384   1.745   5.821
 4845SOL     OW15433   5.673   5.012   3.766
 4845SOL    HW115434   5.582   4.999   3.728
 4845SOL    HW215435   5.696   5.109   3.767
 4846SOL     OW15436   0.499   5.234   0.459
 4846SOL    HW115437   0.487   5.271   0.551
 4846SOL    HW215438   0.414   5.246   0.407
 4847SOL     OW15439   4.842   2.442   4.234
 4847SOL    HW115440   4.766   2.496   4.268
 4847SOL    HW215441   4.823   2.413   4.140
 4848SOL     OW15442   2.786   2.040   1.991
 4848SOL    HW115443   2.826   2.023   1.900
 4848SOL    HW215444   2.833   2.117   2.033
 4849SOL     OW15445   1.167   6.806   6.512
 4849SOL    HW115446   1.086   6.751   6.532
 4849SOL    HW215447   1.150   6.864   6.432
 4850SOL     OW15448   4.245   0.664   3.174
 4850SOL    HW115449   4.203   0.588   3.124
 4850SOL    HW215450   4.320   0.702   3.120
 4851SOL     OW15451   5.357   0.796   5.060
 4851SOL    HW115452   5.289   0.836   5.121
 4851SOL    HW215453   5.421   0.741   5.112
 4852SOL     OW15454   2.045   2.081   1.410
 4852SOL    HW115455   2.049   2.171   1.367
 4852SOL    HW215456   1.987   2.085   1.491
 4853SOL     OW15457   3.093   1.708   1.628
 4853SOL    HW115458   3.104   1.796   1.581
 4853SOL    HW215459   3.000   1.700   1.663
 4854SOL     OW15460   3.995   0.263   0.532
 4854SOL    HW115461   4.044   0.200   0.471
 4854SOL    HW215462   3.934   0.211   0.591
 4855SOL     OW15463   0.124   2.560   2.740
 4855SOL    HW115464   0.065   2.515   2.806
 4855SOL    HW215465   0.121   2.659   2.754
 4856SOL     OW15466   1.841   4.126   3.058
 4856SOL    HW115467   1.847   4.158   2.963
 4856SOL    HW215468   1.915   4.061   3.076
 4857SOL     OW15469   0.395   1.269   6.325
 4857SOL    HW115470   0.494   1.271   6.335
 4857SOL    HW215471   0.356   1.205   6.391
 4858SOL     OW15472   1.268   0.564   3.995
 4858SOL    HW115473   1.268   0.639   3.928
 4858SOL    HW215474   1.175   0.530   4.007
 4859SOL     OW15475   3.195   5.739   5.668
 4859SOL    HW115476   3.246   5.825   5.659
 4859SOL    HW215477   3.224   5.692   5.751
 4860SOL     OW15478   4.268   4.069   0.238
 4860SOL    HW115479   4.277   4.018   0.323
 4860SOL    HW215480   4.274   4.006   0.160
 4861SOL     OW15481   5.181   3.638   5.392
 4861SOL    HW115482   5.167   3.571   5.320
 4861SOL    HW215483   5.253   3.606   5.454
 4862SOL     OW15484   1.066   6.191   1.143
 4862SOL    HW115485   1.045   6.282   1.106
 4862SOL    HW215486   1.140   6.150   1.090
 4863SOL     OW15487   5.019   4.490   6.653
 4863SOL    HW115488   5.080   4.458   6.581
 4863SOL    HW215489   5.074   4.532   6.726
 4864SOL     OW15490   3.247   0.948   4.267
 4864SOL    HW115491   3.289   0.950   4.176
 4864SOL    HW215492   3.305   0.997   4.332
 4865SOL     OW15493   1.969   6.538   4.891
 4865SOL    HW115494   2.065   6.530   4.917
 4865SOL    HW215495   1.949   6.632   4.865
 4866SOL     OW15496   6.624   4.087   6.491
 4866SOL    HW115497   6.547   4.054   6.435
 4866SOL    HW215498   6.588   4.138   6.569
 4867SOL     OW15499   4.676   0.445   2.617
 4867SOL    HW115500   4.729   0.433   2.701
 4867SOL    HW215501   4.658   0.542   2.602
 4868SOL     OW15502   6.851   4.305   0.951
 4868SOL    HW115503   6.922   4.319   1.019
 4868SOL    HW215504   6.874   4.226   0.895
 4869SOL     OW15505   0.543   0.935   0.531
 4869SOL    HW115506   0.595   0.850   0.517
 4869SOL    HW215507   0.602   1.013   0.510
 4870SOL     OW15508   0.524   6.711   2.036
 4870SOL    HW115509   0.493   6.738   1.945
 4870SOL    HW215510   0.579   6.628   2.028
 4871SOL     OW15511   1.919   1.357   3.907
 4871SOL    HW115512   1.977   1.369   3.987
 4871SOL    HW215513   1.958   1.407   3.830
 4872SOL     OW15514   5.815   6.328   3.009
 4872SOL    HW115515   5.904   6.284   3.006
 4872SOL    HW215516   5.769   6.318   2.920
 4873SOL     OW15517   6.366   5.370   4.998
 4873SOL    HW115518   6.308   5.443   5.034
 4873SOL    HW215519   6.421   5.331   5.071
 4874SOL     OW15520   4.988   3.116   2.953
 4874SOL    HW115521   4.988   3.016   2.952
 4874SOL    HW215522   5.053   3.149   3.022
 4875SOL     OW15523   5.459   6.278   5.014
 4875SOL    HW115524   5.550   6.320   5.007
 4875SOL    HW215525   5.426   6.285   5.108
 4876SOL     OW15526   1.563   1.009   2.453
 4876SOL    HW115527   1.504   0.931   2.473
 4876SOL    HW215528   1.507   1.088   2.427
 4877SOL     OW15529   6.941   1.512   5.504
 4877SOL    HW115530   7.013   1.452   5.470
 4877SOL    HW215531   6.880   1.460   5.563
 4878SOL     OW15532   6.806   3.240   2.100
 4878SOL    HW115533   6.775   3.220   2.193
 4878SOL    HW215534   6.746   3.195   2.034
 4879SOL     OW15535   5.995   1.043   2.650
 4879SOL    HW115536   5.953   0.953   2.657
 4879SOL    HW215537   5.925   1.111   2.627
 4880SOL     OW15538   6.327   2.777   6.623
 4880SOL    HW115539   6.391   2.804   6.695
 4880SOL    HW215540   6.238   2.820   6.640
 4881SOL     OW15541   1.766   2.676   1.589
 4881SOL    HW115542   1.831   2.649   1.660
 4881SOL    HW215543   1.717   2.759   1.617
 4882SOL     OW15544   4.388   2.212   4.370
 4882SOL    HW115545   4.336   2.128   4.356
 4882SOL    HW215546   4.336   2.274   4.428
 4883SOL     OW15547   5.953   4.303   0.659
 4883SOL    HW115548   5.981   4.391   0.622
 4883SOL    HW215549   5.885   4.262   0.599
 4884SOL     OW15550   1.519   0.062   1.368
 4884SOL    HW115551   1.576   0.075   1.287
 4884SOL    HW215552   1.427   0.095   1.349
 4885SOL     OW15553   1.451   4.262   0.046
 4885SOL    HW115554   1.477   4.310   0.129
 4885SOL    HW215555   1.488   4.310   6.994
 4886SOL     OW15556   2.639   1.108   2.194
 4886SOL    HW115557   2.583   1.053   2.255
 4886SOL    HW215558   2.619   1.204   2.207
 4887SOL     OW15559   5.906   6.319   0.738
 4887SOL    HW115560   5.821   6.268   0.724
 4887SOL    HW215561   5.984   6.256   0.737
 4888SOL     OW15562   4.158   0.169   2.523
 4888SOL    HW115563   4.105   0.102   2.472
 4888SOL    HW215564   4.117   0.183   2.613
 4889SOL     OW15565   6.867   3.149   3.770
 4889SOL    HW115566   6.957   3.165   3.810
 4889SOL    HW215567   6.807   3.108   3.839
 4890SOL     OW15568   6.625   1.362   4.352
 4890SOL    HW115569   6.662   1.433   4.412
 4890SOL    HW215570   6.530   1.342   4.379
 4891SOL     OW15571   2.873   5.323   6.465
 4891SOL    HW115572   2.857   5.378   6.383
 4891SOL    HW215573   2.911   5.235   6.439
 4892SOL     OW15574   5.083   5.514   2.811
 4892SOL    HW115575   4.984   5.501   2.806
 4892SOL    HW215576   5.103   5.611   2.819
 4893SOL     OW15577   0.941   3.205   0.970
 4893SOL    HW115578   0.995   3.209   0.886
 4893SOL    HW215579   0.953   3.289   1.022
 4894SOL     OW15580   5.229   6.570   1.698
 4894SOL    HW115581   5.289   6.504   1.743
 4894SOL    HW215582   5.203   6.536   1.608
 4895SOL     OW15583   0.092   4.642   5.045
 4895SOL    HW115584   0.068   4.738   5.058
 4895SOL    HW215585   0.178   4.622   5.091
 4896SOL     OW15586   1.831   4.817   4.705
 4896SOL    HW115587   1.912   4.843   4.652
 4896SOL    HW215588   1.829   4.870   4.790
 4897SOL     OW15589   1.700   0.162   5.248
 4897SOL    HW115590   1.627   0.141   5.313
 4897SOL    HW215591   1.661   0.170   5.156
 4898SOL     OW15592   5.489   1.371   3.631
 4898SOL    HW115593   5.473   1.470   3.626
 4898SOL    HW215594   5.405   1.323   3.605
 4899SOL     OW15595   6.680   6.948   1.712
 4899SOL    HW115596   6.623   7.009   1.766
 4899SOL    HW215597   6.702   6.990   1.625
 4900SOL     OW15598   3.853   5.909   5.552
 4900SOL    HW115599   3.932   5.856   5.519
 4900SOL    HW215600   3.842   5.895   5.650
 4901SOL     OW15601   1.190   0.776   6.230
 4901SOL    HW115602   1.161   0.711   6.159
 4901SOL    HW215603   1.137   0.861   6.220
 4902SOL     OW15604   2.248   0.276   5.383
 4902SOL    HW115605   2.230   0.338   5.459
 4902SOL    HW215606   2.172   0.282   5.317
 4903SOL     OW15607   4.933   3.725   2.705
 4903SOL    HW115608   4.928   3.626   2.692
 4903SOL    HW215609   5.026   3.750   2.732
 4904SOL     OW15610   1.482   6.873   0.340
 4904SOL    HW115611   1.570   6.858   0.384
 4904SOL    HW215612   1.497   6.905   0.246
 4905SOL     OW15613   3.037   6.498   3.485
 4905SOL    HW115614   3.075   6.495   3.578
 4905SOL    HW215615   2.947   6.540   3.487
 4906SOL     OW15616   4.953   3.587   4.837
 4906SOL    HW115617   5.022   3.515   4.837
 4906SOL    HW215618   4.907   3.588   4.926
 4907SOL     OW15619   4.144   2.071   0.319
 4907SOL    HW115620   4.058   2.071   0.370
 4907SOL    HW215621   4.214   2.022   0.372
 4908SOL     OW15622   3.596   0.089   0.503
 4908SOL    HW115623   3.503   0.096   0.540
 4908SOL    HW215624   3.606   0.001   0.456
 4909SOL     OW15625   5.318   5.095   4.652
 4909SOL    HW115626   5.339   5.051   4.739
 4909SOL    HW215627   5.267   5.031   4.594
 4910SOL     OW15628   4.623   2.083   5.997
 4910SOL    HW115629   4.684   2.015   6.037
 4910SOL    HW215630   4.671   2.135   5.926
 4911SOL     OW15631   6.712   3.278   2.390
 4911SOL    HW115632   6.716   3.362   2.444
 4911SOL    HW215633   6.727   3.199   2.450
 4912SOL     OW15634   5.516   2.539   4.137
 4912SOL    HW115635   5.603   2.568   4.178
 4912SOL    HW215636   5.483   2.611   4.076
 4913SOL     OW15637   0.978   4.027   5.619
 4913SOL    HW115638   1.074   4.003   5.610
 4913SOL    HW215639   0.962   4.116   5.575
 4914SOL     OW15640   4.287   0.926   3.573
 4914SOL    HW115641   4.302   0.980   3.656
 4914SOL    HW215642   4.188   0.911   3.561
 4915SOL     OW15643   3.625   4.961   5.580
 4915SOL    HW115644   3.529   4.938   5.565
 4915SOL    HW215645   3.641   4.973   5.678
 4916SOL     OW15646   5.330   2.319   4.189
 4916SOL    HW115647   5.305   2.274   4.103
 4916SOL    HW215648   5.365   2.410   4.170
 4917SOL     OW15649   3.973   6.662   0.266
 4917SOL    HW115650   3.892   6.680   0.210
 4917SOL    HW215651   4.036   6.602   0.217
 4918SOL     OW15652   5.896   5.052   3.371
 4918SOL    HW115653   5.933   5.124   3.430
 4918SOL    HW215654   5.803   5.031   3.399
 4919SOL     OW15655   3.110   3.973   2.171
 4919SOL    HW115656   3.088   3.895   2.112
 4919SOL    HW215657   3.093   4.058   2.121
 4920SOL     OW15658   6.074   1.712   5.902
 4920SOL    HW115659   6.057   1.747   5.994
 4920SOL    HW215660   6.158   1.751   5.866
 4921SOL     OW15661   0.306   0.195   2.763
 4921SOL    HW115662   0.314   0.295   2.767
 4921SOL    HW215663   0.264   0.168   2.676
 4922SOL     OW15664   3.050   1.638   6.230
 4922SOL    HW115665   3.102   1.685   6.158
 4922SOL    HW215666   2.957   1.673   6.232
 4923SOL     OW15667   3.371   1.303   2.063
 4923SOL    HW115668   3.304   1.251   2.010
 4923SOL    HW215669   3.463   1.273   2.040
 4924SOL     OW15670   2.323   0.715   5.205
 4924SOL    HW115671   2.338   0.713   5.106
 4924SOL    HW215672   2.409   0.699   5.253
 4925SOL     OW15673   6.277   6.013   3.590
 4925SOL    HW115674   6.239   5.962   3.668
 4925SOL    HW215675   6.367   6.049   3.615
 4926SOL     OW15676   5.120   2.475   1.067
 4926SOL    HW115677   5.041   2.506   1.015
 4926SOL    HW215678   5.201   2.526   1.037
 4927SOL     OW15679   3.200   1.906   6.556
 4927SOL    HW115680   3.245   1.978   6.609
 4927SOL    HW215681   3.186   1.938   6.462
 4928SOL     OW15682   6.663   2.539   1.048
 4928SOL    HW115683   6.760   2.547   1.073
 4928SOL    HW215684   6.638   2.615   0.988
 4929SOL     OW15685   0.731   6.553   5.523
 4929SOL    HW115686   0.821   6.577   5.485
 4929SOL    HW215687   0.659   6.595   5.467
 4930SOL     OW15688   5.414   5.861   2.035
 4930SOL    HW115689   5.369   5.875   2.123
 4930SOL    HW215690   5.513   5.849   2.050
 4931SOL     OW15691   6.544   6.068   0.738
 4931SOL    HW115692   6.499   6.156   0.728
 4931SOL    HW215693   6.487   5.997   0.695
 4932SOL     OW15694   3.675   3.354   2.398
 4932SOL    HW115695   3.579   3.364   2.372
 4932SOL    HW215696   3.734   3.370   2.319
 4933SOL     OW15697   1.961   0.251   5.322
 4933SOL    HW115698   1.937   0.231   5.417
 4933SOL    HW215699   1.882   0.235   5.264
 4934SOL     OW15700   4.067   5.820   2.268
 4934SOL    HW115701   4.013   5.803   2.186
 4934SOL    HW215702   4.005   5.838   2.345
 4935SOL     OW15703   0.333   0.700   5.634
 4935SOL    HW115704   0.425   0.720   5.602
 4935SOL    HW215705   0.294   0.625   5.581
 4936SOL     OW15706   4.163   2.726   0.942
 4936SOL    HW115707   4.145   2.665   0.865
 4936SOL    HW215708   4.090   2.794   0.949
 4937SOL     OW15709   4.786   2.507   5.425
 4937SOL    HW115710   4.783   2.409   5.405
 4937SOL    HW215711   4.716   2.554   5.372
 4938SOL     OW15712   4.019   5.181   6.042
 4938SOL    HW115713   3.965   5.232   5.975
 4938SOL    HW215714   3.982   5.198   6.133
 4939SOL     OW15715   4.682   3.431   5.959
 4939SOL    HW115716   4.701   3.401   5.866
 4939SOL    HW215717   4.697   3.530   5.967
 4940SOL     OW15718   2.292   5.975   4.087
 4940SOL    HW115719   2.324   5.927   4.006
 4940SOL    HW215720   2.357   6.046   4.113
 4941SOL     OW15721   5.739   0.350   0.937
 4941SOL    HW115722   5.837   0.368   0.937
 4941SOL    HW215723   5.691   0.425   0.982
 4942SOL     OW15724   4.855   2.933   5.827
 4942SOL    HW115725   4.823   2.845   5.861
 4942SOL    HW215726   4.950   2.925   5.796
 4943SOL     OW15727   5.200   2.582   1.395
 4943SOL    HW115728   5.181   2.491   1.431
 4943SOL    HW215729   5.166   2.651   1.459
 4944SOL     OW15730   2.208   4.221   2.261
 4944SOL    HW115731   2.199   4.125   2.234
 4944SOL    HW215732   2.198   4.228   2.361
 4945SOL     OW15733   6.895   6.412   4.776
 4945SOL    HW115734   6.874   6.395   4.872
 4945SOL    HW215735   6.988   6.448   4.768
 4946SOL     OW15736   0.310   4.596   2.391
 4946SOL    HW115737   0.379   4.593   2.463
 4946SOL    HW215738   0.272   4.688   2.384
 4947SOL     OW15739   6.302   0.136   1.639
 4947SOL    HW115740   6.339   0.072   1.572
 4947SOL    HW215741   6.349   0.123   1.726
 4948SOL     OW15742   2.277   0.963   2.098
 4948SOL    HW115743   2.368   0.986   2.065
 4948SOL    HW215744   2.209   0.990   2.030
 4949SOL     OW15745   5.107   1.766   4.560
 4949SOL    HW115746   5.007   1.770   4.559
 4949SOL    HW215747   5.141   1.806   4.645
 4950SOL     OW15748   3.168   5.120   5.282
 4950SOL    HW115749   3.130   5.038   5.240
 4950SOL    HW215750   3.262   5.133   5.252
 4951SOL     OW15751   4.590   1.984   4.023
 4951SOL    HW115752   4.607   2.044   4.101
 4951SOL    HW215753   4.525   2.028   3.961
 4952SOL     OW15754   0.030   4.882   5.165
 4952SOL    HW115755   0.103   4.945   5.138
 4952SOL    HW215756   0.014   4.889   5.263
 4953SOL     OW15757   1.875   5.557   1.863
 4953SOL    HW115758   1.962   5.526   1.900
 4953SOL    HW215759   1.805   5.487   1.878
 4954SOL     OW15760   6.593   6.311   6.673
 4954SOL    HW115761   6.680   6.340   6.713
 4954SOL    HW215762   6.610   6.264   6.586
 4955SOL     OW15763   1.152   0.581   0.953
 4955SOL    HW115764   1.114   0.614   0.867
 4955SOL    HW215765   1.208   0.653   0.994
 4956SOL     OW15766   6.229   6.861   4.438
 4956SOL    HW115767   6.312   6.907   4.406
 4956SOL    HW215768   6.194   6.801   4.365
 4957SOL     OW15769   2.255   6.246   3.634
 4957SOL    HW115770   2.289   6.154   3.651
 4957SOL    HW215771   2.232   6.290   3.722
 4958SOL     OW15772   0.543   6.435   6.739
 4958SOL    HW115773   0.473   6.424   6.668
 4958SOL    HW215774   0.504   6.483   6.817
 4959SOL     OW15775   0.406   1.214   0.675
 4959SOL    HW115776   0.491   1.212   0.623
 4959SOL    HW215777   0.396   1.303   0.720
 4960SOL     OW15778   3.712   6.507   4.847
 4960SOL    HW115779   3.795   6.562   4.860
 4960SOL    HW215780   3.738   6.411   4.837
 4961SOL     OW15781   4.479   0.499   6.050
 4961SOL    HW115782   4.490   0.504   6.149
 4961SOL    HW215783   4.520   0.414   6.016
 4962SOL     OW15784   6.585   2.399   2.021
 4962SOL    HW115785   6.605   2.439   1.932
 4962SOL    HW215786   6.493   2.360   2.021
 4963SOL     OW15787   6.948   4.034   1.311
 4963SOL    HW115788   6.879   3.962   1.303
 4963SOL    HW215789   6.907   4.116   1.349
 4964SOL     OW15790   3.935   6.548   2.846
 4964SOL    HW115791   3.867   6.504   2.906
 4964SOL    HW215792   3.888   6.609   2.782
 4965SOL     OW15793   0.165   6.473   4.493
 4965SOL    HW115794   0.124   6.528   4.566
 4965SOL    HW215795   0.094   6.450   4.425
 4966SOL     OW15796   3.818   5.478   4.826
 4966SOL    HW115797   3.813   5.576   4.846
 4966SOL    HW215798   3.853   5.429   4.906
 4967SOL     OW15799   4.626   2.261   6.469
 4967SOL    HW115800   4.711   2.254   6.520
 4967SOL    HW215801   4.549   2.260   6.532
 4968SOL     OW15802   5.798   3.949   6.186
 4968SOL    HW115803   5.881   3.955   6.130
 4968SOL    HW215804   5.817   3.988   6.276
 4969SOL     OW15805   0.403   2.149   1.295
 4969SOL    HW115806   0.349   2.121   1.374
 4969SOL    HW215807   0.406   2.074   1.228
 4970SOL     OW15808   1.024   3.053   5.931
 4970SOL    HW115809   0.933   3.053   5.973
 4970SOL    HW215810   1.093   3.035   6.001
 4971SOL     OW15811   0.228   5.558   3.882
 4971SOL    HW115812   0.198   5.462   3.879
 4971SOL    HW215813   0.252   5.588   3.790
 4972SOL     OW15814   1.708   2.123   5.250
 4972SOL    HW115815   1.726   2.071   5.166
 4972SOL    HW215816   1.699   2.220   5.228
 4973SOL     OW15817   6.103   5.994   2.917
 4973SOL    HW115818   6.058   5.933   2.982
 4973SOL    HW215819   6.095   6.089   2.948
 4974SOL     OW15820   4.446   6.716   1.159
 4974SOL    HW115821   4.457   6.804   1.205
 4974SOL    HW215822   4.414   6.730   1.065
 4975SOL     OW15823   4.892   5.754   6.959
 4975SOL    HW115824   4.977   5.806   6.961
 4975SOL    HW215825   4.912   5.656   6.963
 4976SOL     OW15826   3.242   1.320   4.781
 4976SOL    HW115827   3.340   1.334   4.797
 4976SOL    HW215828   3.218   1.354   4.690
 4977SOL     OW15829   3.150   3.307   6.885
 4977SOL    HW115830   3.114   3.282   6.795
 4977SOL    HW215831   3.089   3.272   6.956
 4978SOL     OW15832   6.033   3.567   6.236
 4978SOL    HW115833   5.933   3.568   6.225
 4978SOL    HW215834   6.075   3.619   6.162
 4979SOL     OW15835   1.223   2.874   4.087
 4979SOL    HW115836   1.143   2.926   4.057
 4979SOL    HW215837   1.210   2.777   4.065
 4980SOL     OW15838   3.454   5.635   3.196
 4980SOL    HW115839   3.391   5.588   3.258
 4980SOL    HW215840   3.508   5.567   3.146
 4981SOL     OW15841   5.149   6.503   5.800
 4981SOL    HW115842   5.094   6.542   5.727
 4981SOL    HW215843   5.115   6.411   5.821
 4982SOL     OW15844   2.573   2.188   0.133
 4982SOL    HW115845   2.671   2.167   0.131
 4982SOL    HW215846   2.561   2.287   0.137
 4983SOL     OW15847   6.041   2.876   4.853
 4983SOL    HW115848   6.086   2.850   4.938
 4983SOL    HW215849   6.080   2.825   4.777
 4984SOL     OW15850   4.749   4.123   2.946
 4984SOL    HW115851   4.698   4.155   3.027
 4984SOL    HW215852   4.785   4.032   2.964
 4985SOL     OW15853   5.309   4.314   2.281
 4985SOL    HW115854   5.343   4.245   2.216
 4985SOL    HW215855   5.349   4.297   2.371
 4986SOL     OW15856   4.383   4.603   3.046
 4986SOL    HW115857   4.367   4.538   2.972
 4986SOL    HW215858   4.337   4.689   3.026
 4987SOL     OW15859   0.414   4.077   1.394
 4987SOL    HW115860   0.414   4.135   1.476
 4987SOL    HW215861   0.359   4.121   1.323
 4988SOL     OW15862   1.325   1.835   5.149
 4988SOL    HW115863   1.276   1.756   5.186
 4988SOL    HW215864   1.364   1.887   5.225
 4989SOL     OW15865   6.863   0.934   0.585
 4989SOL    HW115866   6.848   0.876   0.504
 4989SOL    HW215867   6.917   1.014   0.558
 4990SOL     OW15868   0.951   1.940   6.152
 4990SOL    HW115869   0.927   2.028   6.193
 4990SOL    HW215870   1.047   1.920   6.170
 4991SOL     OW15871   2.154   2.128   4.587
 4991SOL    HW115872   2.118   2.218   4.607
 4991SOL    HW215873   2.179   2.082   4.673
 4992SOL     OW15874   4.176   0.828   4.330
 4992SOL    HW115875   4.246   0.834   4.258
 4992SOL    HW215876   4.107   0.761   4.304
 4993SOL     OW15877   2.022   6.027   3.931
 4993SOL    HW115878   1.932   6.028   3.974
 4993SOL    HW215879   2.087   5.977   3.989
 4994SOL     OW15880   0.822   6.856   2.421
 4994SOL    HW115881   0.804   6.778   2.362
 4994SOL    HW215882   0.880   6.828   2.497
 4995SOL     OW15883   6.199   3.110   5.703
 4995SOL    HW115884   6.132   3.181   5.679
 4995SOL    HW215885   6.285   3.154   5.728
 4996SOL     OW15886   0.370   1.311   4.030
 4996SOL    HW115887   0.312   1.389   4.056
 4996SOL    HW215888   0.444   1.302   4.096
 4997SOL     OW15889   0.098   2.013   4.350
 4997SOL    HW115890   0.076   1.950   4.276
 4997SOL    HW215891   0.014   2.054   4.385
 4998SOL     OW15892   0.942   5.473   5.524
 4998SOL    HW115893   0.979   5.476   5.431
 4998SOL    HW215894   0.933   5.378   5.553
 4999SOL     OW15895   6.021   4.960   0.625
 4999SOL    HW115896   6.116   4.990   0.618
 4999SOL    HW215897   5.961   5.030   0.588
 5000SOL     OW15898   6.950   5.847   3.895
 5000SOL    HW115899   6.857   5.810   3.897
 5000SOL    HW215900   6.957   5.915   3.822
 5001SOL     OW15901   4.558   4.397   5.247
 5001SOL    HW115902   4.561   4.391   5.147
 5001SOL    HW215903   4.501   4.322   5.283
 5002SOL     OW15904   2.190   1.946   1.613
 5002SOL    HW115905   2.281   1.937   1.653
 5002SOL    HW215906   2.189   2.022   1.548
 5003SOL     OW15907   6.963   5.146   4.269
 5003SOL    HW115908   6.970   5.187   4.360
 5003SOL    HW215909   0.026   5.145   4.226
 5004SOL     OW15910   2.788   4.483   6.328
 5004SOL    HW115911   2.883   4.512   6.342
 5004SOL    HW215912   2.787   4.392   6.285
 5005SOL     OW15913   4.168   2.309   0.152
 5005SOL    HW115914   4.149   2.221   0.196
 5005SOL    HW215915   4.258   2.342   0.181
 5006SOL     OW15916   5.770   4.646   2.776
 5006SOL    HW115917   5.682   4.625   2.819
 5006SOL    HW215918   5.771   4.743   2.750
 5007SOL     OW15919   4.322   1.439   5.296
 5007SOL    HW115920   4.331   1.483   5.207
 5007SOL    HW215921   4.342   1.504   5.369
 5008SOL     OW15922   6.454   0.627   3.884
 5008SOL    HW115923   6.406   0.705   3.924
 5008SOL    HW215924   6.547   0.655   3.859
 5009SOL     OW15925   1.837   6.181   2.876
 5009SOL    HW115926   1.851   6.105   2.812
 5009SOL    HW215927   1.900   6.172   2.953
 5010SOL     OW15928   3.264   3.012   5.050
 5010SOL    HW115929   3.233   3.105   5.069
 5010SOL    HW215930   3.364   3.008   5.059
 5011SOL     OW15931   1.126   2.618   3.160
 5011SOL    HW115932   1.154   2.568   3.241
 5011SOL    HW215933   1.065   2.692   3.186
 5012SOL     OW15934   5.939   3.540   6.826
 5012SOL    HW115935   5.988   3.617   6.784
 5012SOL    HW215936   5.850   3.530   6.783
 5013SOL     OW15937   4.890   1.958   5.404
 5013SOL    HW115938   4.906   1.861   5.390
 5013SOL    HW215939   4.899   1.980   5.502
 5014SOL     OW15940   5.840   6.635   6.625
 5014SOL    HW115941   5.845   6.642   6.525
 5014SOL    HW215942   5.748   6.657   6.656
 5015SOL     OW15943   5.500   2.230   3.292
 5015SOL    HW115944   5.560   2.258   3.368
 5015SOL    HW215945   5.493   2.131   3.291
 5016SOL     OW15946   2.296   6.601   2.117
 5016SOL    HW115947   2.327   6.541   2.190
 5016SOL    HW215948   2.372   6.660   2.088
 5017SOL     OW15949   2.465   2.070   1.975
 5017SOL    HW115950   2.551   2.113   2.003
 5017SOL    HW215951   2.439   2.001   2.043
 5018SOL     OW15952   6.705   5.268   3.727
 5018SOL    HW115953   6.610   5.295   3.708
 5018SOL    HW215954   6.712   5.235   3.821
 5019SOL     OW15955   2.860   5.340   6.092
 5019SOL    HW115956   2.903   5.374   6.008
 5019SOL    HW215957   2.828   5.418   6.146
 5020SOL     OW15958   4.593   5.486   6.706
 5020SOL    HW115959   4.648   5.564   6.675
 5020SOL    HW215960   4.629   5.402   6.665
 5021SOL     OW15961   2.358   4.372   5.655
 5021SOL    HW115962   2.316   4.382   5.565
 5021SOL    HW215963   2.439   4.314   5.647
 5022SOL     OW15964   1.869   4.448   0.760
 5022SOL    HW115965   1.809   4.474   0.837
 5022SOL    HW215966   1.924   4.527   0.733
 5023SOL     OW15967   6.353   2.597   3.986
 5023SOL    HW115968   6.316   2.686   4.013
 5023SOL    HW215969   6.277   2.535   3.966
 5024SOL     OW15970   5.426   3.473   5.525
 5024SOL    HW115971   5.359   3.421   5.578
 5024SOL    HW215972   5.472   3.412   5.460
 5025SOL     OW15973   6.499   1.494   3.335
 5025SOL    HW115974   6.433   1.442   3.280
 5025SOL    HW215975   6.553   1.430   3.390
 5026SOL     OW15976   0.711   6.005   2.720
 5026SOL    HW115977   0.708   6.074   2.792
 5026SOL    HW215978   0.618   5.984   2.689
 5027SOL     OW15979   0.423   6.488   3.758
 5027SOL    HW115980   0.470   6.557   3.813
 5027SOL    HW215981   0.409   6.405   3.813
 5028SOL     OW15982   1.368   0.064   2.470
 5028SOL    HW115983   1.432   7.018   2.494
 5028SOL    HW215984   1.297   0.028   2.410
 5029SOL     OW15985   0.645   1.041   3.135
 5029SOL    HW115986   0.556   1.030   3.178
 5029SOL    HW215987   0.717   1.009   3.198
 5030SOL     OW15988   2.247   5.439   0.050
 5030SOL    HW115989   2.261   5.390   0.136
 5030SOL    HW215990   2.225   5.373   7.005
 5031SOL     OW15991   5.497   1.002   5.502
 5031SOL    HW115992   5.566   1.069   5.531
 5031SOL    HW215993   5.480   1.013   5.404
 5032SOL     OW15994   1.269   6.233   1.796
 5032SOL    HW115995   1.339   6.301   1.816
 5032SOL    HW215996   1.214   6.264   1.719
 5033SOL     OW15997   6.771   4.332   5.347
 5033SOL    HW115998   6.792   4.427   5.326
 5033SOL    HW215999   6.684   4.306   5.306
 5034SOL     OW16000   6.865   3.999   6.489
 5034SOL    HW116001   6.892   4.019   6.395
 5034SOL    HW216002   6.767   4.016   6.501
 5035SOL     OW16003   5.753   4.573   1.457
 5035SOL    HW116004   5.788   4.529   1.540
 5035SOL    HW216005   5.653   4.564   1.454
 5036SOL     OW16006   1.512   0.289   2.064
 5036SOL    HW116007   1.438   0.226   2.039
 5036SOL    HW216008   1.507   0.371   2.007
 5037SOL     OW16009   4.649   2.473   2.736
 5037SOL    HW116010   4.619   2.492   2.830
 5037SOL    HW216011   4.709   2.547   2.705
 5038SOL     OW16012   2.809   5.945   5.484
 5038SOL    HW116013   2.791   5.871   5.419
 5038SOL    HW216014   2.847   6.024   5.436
 5039SOL     OW16015   1.194   1.845   3.075
 5039SOL    HW116016   1.205   1.884   2.983
 5039SOL    HW216017   1.186   1.918   3.142
 5040SOL     OW16018   2.917   3.795   6.053
 5040SOL    HW116019   2.992   3.857   6.077
 5040SOL    HW216020   2.955   3.707   6.026
 5041SOL     OW16021   0.229   5.493   0.317
 5041SOL    HW116022   0.328   5.501   0.307
 5041SOL    HW216023   0.203   5.397   0.314
 5042SOL     OW16024   6.276   1.922   5.966
 5042SOL    HW116025   6.234   1.896   6.054
 5042SOL    HW216026   6.237   2.009   5.936
 5043SOL     OW16027   5.178   0.207   3.393
 5043SOL    HW116028   5.176   0.168   3.301
 5043SOL    HW216029   5.271   0.204   3.428
 5044SOL     OW16030   5.414   4.538   2.865
 5044SOL    HW116031   5.379   4.496   2.781
 5044SOL    HW216032   5.341   4.542   2.933
 5045SOL     OW16033   5.815   3.533   5.101
 5045SOL    HW116034   5.860   3.500   5.184
 5045SOL    HW216035   5.716   3.517   5.108
 5046SOL     OW16036   3.385   3.028   5.403
 5046SOL    HW116037   3.315   2.993   5.340
 5046SOL    HW216038   3.341   3.084   5.474
 5047SOL     OW16039   0.821   1.391   2.233
 5047SOL    HW116040   0.874   1.359   2.311
 5047SOL    HW216041   0.724   1.369   2.247
 5048SOL     OW16042   6.189   3.617   1.007
 5048SOL    HW116043   6.138   3.538   0.973
 5048SOL    HW216044   6.134   3.664   1.077
 5049SOL     OW16045   1.399   1.959   1.524
 5049SOL    HW116046   1.345   1.875   1.522
 5049SOL    HW216047   1.496   1.936   1.510
 5050SOL     OW16048   0.966   3.318   0.679
 5050SOL    HW116049   0.961   3.417   0.692
 5050SOL    HW216050   0.885   3.287   0.628
 5051SOL     OW16051   1.722   3.672   0.375
 5051SOL    HW116052   1.630   3.634   0.389
 5051SOL    HW216053   1.724   3.722   0.288
 5052SOL     OW16054   5.602   3.766   0.739
 5052SOL    HW116055   5.567   3.775   0.646
 5052SOL    HW216056   5.539   3.810   0.803
 5053SOL     OW16057   2.267   4.280   0.773
 5053SOL    HW116058   2.297   4.334   0.852
 5053SOL    HW216059   2.221   4.197   0.805
 5054SOL     OW16060   3.962   6.124   5.296
 5054SOL    HW116061   3.977   6.027   5.276
 5054SOL    HW216062   3.888   6.159   5.239
 5055SOL     OW16063   1.761   1.639   3.665
 5055SOL    HW116064   1.763   1.619   3.763
 5055SOL    HW216065   1.837   1.699   3.641
 5056SOL     OW16066   2.907   2.121   4.993
 5056SOL    HW116067   2.987   2.181   4.994
 5056SOL    HW216068   2.891   2.088   4.900
 5057SOL     OW16069   0.645   4.223   3.005
 5057SOL    HW116070   0.568   4.160   2.995
 5057SOL    HW216071   0.699   4.198   3.086
 5058SOL     OW16072   3.615   2.730   0.403
 5058SOL    HW116073   3.653   2.815   0.367
 5058SOL    HW216074   3.668   2.700   0.482
 5059SOL     OW16075   4.275   1.989   3.300
 5059SOL    HW116076   4.373   2.005   3.286
 5059SOL    HW216077   4.256   1.891   3.300
 5060SOL     OW16078   0.160   3.094   5.571
 5060SOL    HW116079   0.202   3.004   5.587
 5060SOL    HW216080   0.064   3.092   5.598
 5061SOL     OW16081   4.144   2.242   5.837
 5061SOL    HW116082   4.153   2.319   5.774
 5061SOL    HW216083   4.232   2.223   5.880
 5062SOL     OW16084   5.675   1.008   3.714
 5062SOL    HW116085   5.734   0.968   3.644
 5062SOL    HW216086   5.583   1.018   3.678
 5063SOL     OW16087   1.160   1.127   1.410
 5063SOL    HW116088   1.222   1.137   1.332
 5063SOL    HW216089   1.067   1.149   1.381
 5064SOL     OW16090   5.040   5.006   0.927
 5064SOL    HW116091   5.007   5.080   0.868
 5064SOL    HW216092   5.042   5.037   1.022
 5065SOL     OW16093   2.059   1.195   2.089
 5065SOL    HW116094   2.095   1.176   1.997
 5065SOL    HW216095   1.961   1.179   2.090
 5066SOL     OW16096   2.094   5.015   2.809
 5066SOL    HW116097   2.074   5.070   2.728
 5066SOL    HW216098   2.031   4.938   2.814
 5067SOL     OW16099   6.086   2.746   0.825
 5067SOL    HW116100   6.055   2.654   0.850
 5067SOL    HW216101   6.007   2.805   0.810
 5068SOL     OW16102   1.876   5.683   0.605
 5068SOL    HW116103   1.884   5.700   0.507
 5068SOL    HW216104   1.789   5.637   0.624
 5069SOL     OW16105   4.206   5.277   5.346
 5069SOL    HW116106   4.159   5.195   5.315
 5069SOL    HW216107   4.212   5.277   5.446
 5070SOL     OW16108   5.930   3.770   5.031
 5070SOL    HW116109   5.860   3.703   5.056
 5070SOL    HW216110   5.889   3.860   5.024
 5071SOL     OW16111   2.803   6.618   3.543
 5071SOL    HW116112   2.803   6.643   3.639
 5071SOL    HW216113   2.736   6.545   3.528
 5072SOL     OW16114   0.813   1.550   1.665
 5072SOL    HW116115   0.822   1.581   1.570
 5072SOL    HW216116   0.903   1.547   1.708
 5073SOL     OW16117   2.269   1.231   3.165
 5073SOL    HW116118   2.335   1.218   3.240
 5073SOL    HW216119   2.201   1.298   3.193
 5074SOL     OW16120   3.445   2.164   1.798
 5074SOL    HW116121   3.526   2.203   1.841
 5074SOL    HW216122   3.433   2.203   1.707
 5075SOL     OW16123   6.964   3.534   0.666
 5075SOL    HW116124   6.942   3.480   0.585
 5075SOL    HW216125   7.026   3.482   0.725
 5076SOL     OW16126   0.291   0.244   6.196
 5076SOL    HW116127   0.387   0.220   6.176
 5076SOL    HW216128   0.233   0.165   6.176
 5077SOL     OW16129   0.704   4.289   3.994
 5077SOL    HW116130   0.640   4.327   4.062
 5077SOL    HW216131   0.730   4.361   3.929
 5078SOL     OW16132   0.405   1.974   3.804
 5078SOL    HW116133   0.441   1.997   3.894
 5078SOL    HW216134   0.471   2.000   3.734
 5079SOL     OW16135   1.433   3.635   5.697
 5079SOL    HW116136   1.530   3.610   5.700
 5079SOL    HW216137   1.397   3.642   5.791
 5080SOL     OW16138   5.914   5.560   0.266
 5080SOL    HW116139   5.826   5.595   0.235
 5080SOL    HW216140   5.988   5.597   0.210
 5081SOL     OW16141   2.475   4.514   5.169
 5081SOL    HW116142   2.450   4.587   5.233
 5081SOL    HW216143   2.546   4.457   5.211
 5082SOL     OW16144   5.752   5.691   1.286
 5082SOL    HW116145   5.684   5.627   1.250
 5082SOL    HW216146   5.780   5.661   1.377
 5083SOL     OW16147   2.746   0.289   3.951
 5083SOL    HW116148   2.762   0.249   3.861
 5083SOL    HW216149   2.734   0.216   4.019
 5084SOL     OW16150   2.841   3.984   5.607
 5084SOL    HW116151   2.809   3.895   5.576
 5084SOL    HW216152   2.912   3.971   5.677
 5085SOL     OW16153   0.352   4.654   5.168
 5085SOL    HW116154   0.315   4.634   5.259
 5085SOL    HW216155   0.394   4.745   5.167
 5086SOL     OW16156   1.478   4.998   1.951
 5086SOL    HW116157   1.411   5.060   1.992
 5086SOL    HW216158   1.431   4.935   1.889
 5087SOL     OW16159   6.548   4.855   2.677
 5087SOL    HW116160   6.519   4.764   2.649
 5087SOL    HW216161   6.533   4.867   2.775
 5088SOL     OW16162   4.624   5.531   2.436
 5088SOL    HW116163   4.614   5.542   2.337
 5088SOL    HW216164   4.718   5.554   2.463
 5089SOL     OW16165   4.988   5.858   5.769
 5089SOL    HW116166   5.063   5.807   5.726
 5089SOL    HW216167   4.999   5.856   5.868
 5090SOL     OW16168   2.695   6.669   5.124
 5090SOL    HW116169   2.763   6.608   5.166
 5090SOL    HW216170   2.729   6.763   5.125
 5091SOL     OW16171   6.844   6.427   6.366
 5091SOL    HW116172   6.920   6.367   6.340
 5091SOL    HW216173   6.832   6.498   6.297
 5092SOL     OW16174   3.596   3.464   4.062
 5092SOL    HW116175   3.637   3.544   4.019
 5092SOL    HW216176   3.497   3.478   4.071
 5093SOL     OW16177   2.637   2.217   2.991
 5093SOL    HW116178   2.565   2.162   2.948
 5093SOL    HW216179   2.653   2.299   2.937
 5094SOL     OW16180   1.472   6.025   4.738
 5094SOL    HW116181   1.492   6.122   4.721
 5094SOL    HW216182   1.387   6.017   4.789
 5095SOL     OW16183   6.712   1.094   2.747
 5095SOL    HW116184   6.663   1.009   2.768
 5095SOL    HW216185   6.808   1.074   2.731
 5096SOL     OW16186   6.447   3.282   5.157
 5096SOL    HW116187   6.350   3.283   5.130
 5096SOL    HW216188   6.453   3.292   5.256
 5097SOL     OW16189   1.155   0.464   5.789
 5097SOL    HW116190   1.158   0.484   5.692
 5097SOL    HW216191   1.217   0.388   5.809
 5098SOL     OW16192   3.364   2.993   0.493
 5098SOL    HW116193   3.356   2.971   0.396
 5098SOL    HW216194   3.460   3.000   0.518
 5099SOL     OW16195   1.667   6.451   1.922
 5099SOL    HW116196   1.743   6.471   1.861
 5099SOL    HW216197   1.680   6.360   1.962
 5100SOL     OW16198   4.869   3.235   1.636
 5100SOL    HW116199   4.844   3.297   1.710
 5100SOL    HW216200   4.817   3.150   1.645
 5101SOL     OW16201   3.113   0.113   5.646
 5101SOL    HW116202   3.125   0.076   5.554
 5101SOL    HW216203   3.059   0.196   5.641
 5102SOL     OW16204   5.426   5.369   4.000
 5102SOL    HW116205   5.407   5.382   3.903
 5102SOL    HW216206   5.385   5.284   4.031
 5103SOL     OW16207   0.793   0.577   6.578
 5103SOL    HW116208   0.757   0.528   6.499
 5103SOL    HW216209   0.862   0.643   6.547
 5104SOL     OW16210   3.755   3.066   2.321
 5104SOL    HW116211   3.734   3.159   2.291
 5104SOL    HW216212   3.854   3.053   2.320
 5105SOL     OW16213   4.261   2.948   6.856
 5105SOL    HW116214   4.261   3.041   6.818
 5105SOL    HW216215   4.352   2.907   6.844
 5106SOL     OW16216   3.981   1.996   1.316
 5106SOL    HW116217   4.051   2.045   1.264
 5106SOL    HW216218   3.994   1.898   1.305
 5107SOL     OW16219   5.324   4.729   0.611
 5107SOL    HW116220   5.304   4.767   0.521
 5107SOL    HW216221   5.272   4.777   0.681
 5108SOL     OW16222   3.736   4.649   0.755
 5108SOL    HW116223   3.835   4.660   0.756
 5108SOL    HW216224   3.693   4.738   0.771
 5109SOL     OW16225   1.111   2.628   1.638
 5109SOL    HW116226   1.206   2.619   1.668
 5109SOL    HW216227   1.058   2.550   1.672
 5110SOL     OW16228   4.809   0.234   5.542
 5110SOL    HW116229   4.775   0.141   5.528
 5110SOL    HW216230   4.837   0.246   5.637
 5111SOL     OW16231   0.863   5.284   5.214
 5111SOL    HW116232   0.849   5.225   5.294
 5111SOL    HW216233   0.938   5.348   5.233
 5112SOL     OW16234   0.734   6.559   2.949
 5112SOL    HW116235   0.815   6.500   2.939
 5112SOL    HW216236   0.726   6.588   3.044
 5113SOL     OW16237   2.105   4.233   0.145
 5113SOL    HW116238   2.196   4.196   0.127
 5113SOL    HW216239   2.072   4.282   0.065
 5114SOL     OW16240   4.360   4.779   1.702
 5114SOL    HW116241   4.372   4.691   1.748
 5114SOL    HW216242   4.440   4.836   1.718
 5115SOL     OW16243   2.210   3.941   0.716
 5115SOL    HW116244   2.158   3.856   0.707
 5115SOL    HW216245   2.209   3.971   0.811
 5116SOL     OW16246   0.861   0.169   5.623
 5116SOL    HW116247   0.920   0.152   5.702
 5116SOL    HW216248   0.788   0.232   5.649
 5117SOL     OW16249   0.220   2.182   4.001
 5117SOL    HW116250   0.138   2.203   4.054
 5117SOL    HW216251   0.200   2.109   3.935
 5118SOL     OW16252   4.103   5.260   0.180
 5118SOL    HW116253   4.096   5.305   0.091
 5118SOL    HW216254   4.061   5.170   0.175
 5119SOL     OW16255   5.684   1.470   0.581
 5119SOL    HW116256   5.757   1.404   0.597
 5119SOL    HW216257   5.629   1.439   0.503
 5120SOL     OW16258   5.197   6.635   6.851
 5120SOL    HW116259   5.131   6.560   6.839
 5120SOL    HW216260   5.269   6.627   6.782
 5121SOL     OW16261   1.115   3.587   5.950
 5121SOL    HW116262   1.163   3.565   6.035
 5121SOL    HW216263   1.154   3.533   5.875
 5122SOL     OW16264   4.906   4.891   3.828
 5122SOL    HW116265   4.893   4.864   3.732
 5122SOL    HW216266   4.916   4.990   3.833
 5123SOL     OW16267   4.766   2.828   2.226
 5123SOL    HW116268   4.710   2.833   2.309
 5123SOL    HW216269   4.743   2.905   2.166
 5124SOL     OW16270   1.783   6.461   5.183
 5124SOL    HW116271   1.858   6.407   5.221
 5124SOL    HW216272   1.790   6.555   5.216
 5125SOL     OW16273   6.429   1.843   3.416
 5125SOL    HW116274   6.472   1.804   3.335
 5125SOL    HW216275   6.452   1.940   3.423
 5126SOL     OW16276   1.702   0.383   1.611
 5126SOL    HW116277   1.732   0.477   1.629
 5126SOL    HW216278   1.739   0.322   1.681
 5127SOL     OW16279   2.293   5.893   6.855
 5127SOL    HW116280   2.247   5.813   6.816
 5127SOL    HW216281   2.262   5.907   6.949
 5128SOL     OW16282   6.287   6.892   1.919
 5128SOL    HW116283   6.214   6.905   1.852
 5128SOL    HW216284   6.249   6.898   2.011
 5129SOL     OW16285   6.775   6.706   0.273
 5129SOL    HW116286   6.731   6.617   0.271
 5129SOL    HW216287   6.706   6.778   0.284
 5130SOL     OW16288   6.201   4.960   2.805
 5130SOL    HW116289   6.113   4.951   2.853
 5130SOL    HW216290   6.271   4.989   2.870
 5131SOL     OW16291   2.330   2.438   2.824
 5131SOL    HW116292   2.286   2.470   2.908
 5131SOL    HW216293   2.332   2.511   2.757
 5132SOL     OW16294   3.049   5.858   4.961
 5132SOL    HW116295   3.036   5.946   5.006
 5132SOL    HW216296   2.972   5.798   4.983
 5133SOL     OW16297   3.878   6.440   5.410
 5133SOL    HW116298   3.961   6.383   5.411
 5133SOL    HW216299   3.798   6.381   5.402
 5134SOL     OW16300   6.140   4.189   6.124
 5134SOL    HW116301   6.231   4.206   6.085
 5134SOL    HW216302   6.151   4.133   6.207
 5135SOL     OW16303   5.415   1.278   4.253
 5135SOL    HW116304   5.410   1.294   4.155
 5135SOL    HW216305   5.323   1.278   4.292
 5136SOL     OW16306   3.872   1.074   5.221
 5136SOL    HW116307   3.900   1.080   5.317
 5136SOL    HW216308   3.805   1.145   5.201
 5137SOL     OW16309   3.640   4.007   6.768
 5137SOL    HW116310   3.621   4.082   6.705
 5137SOL    HW216311   3.556   3.957   6.788
 5138SOL     OW16312   2.198   3.266   5.909
 5138SOL    HW116313   2.229   3.194   5.847
 5138SOL    HW216314   2.098   3.269   5.911
 5139SOL     OW16315   0.435   0.127   3.985
 5139SOL    HW116316   0.410   0.153   4.078
 5139SOL    HW216317   0.374   0.172   3.920
 5140SOL     OW16318   3.457   2.731   1.829
 5140SOL    HW116319   3.477   2.635   1.810
 5140SOL    HW216320   3.487   2.788   1.753
 5141SOL     OW16321   0.268   3.566   5.408
 5141SOL    HW116322   0.223   3.593   5.494
 5141SOL    HW216323   0.208   3.506   5.356
 5142SOL     OW16324   5.668   3.102   3.372
 5142SOL    HW116325   5.666   3.034   3.446
 5142SOL    HW216326   5.584   3.157   3.375
 5143SOL     OW16327   0.014   5.474   4.814
 5143SOL    HW116328   0.055   5.514   4.896
 5143SOL    HW216329   0.055   5.515   4.733
 5144SOL     OW16330   2.138   1.246   4.661
 5144SOL    HW116331   2.120   1.233   4.564
 5144SOL    HW216332   2.061   1.211   4.714
 5145SOL     OW16333   3.515   5.857   5.740
 5145SOL    HW116334   3.511   5.794   5.818
 5145SOL    HW216335   3.565   5.813   5.665
 5146SOL     OW16336   2.707   4.906   6.950
 5146SOL    HW116337   2.746   4.950   0.004
 5146SOL    HW216338   2.615   4.873   6.971
 5147SOL     OW16339   6.446   5.123   6.482
 5147SOL    HW116340   6.482   5.216   6.487
 5147SOL    HW216341   6.414   5.095   6.573
 5148SOL     OW16342   0.738   6.917   1.808
 5148SOL    HW116343   0.678   6.840   1.829
 5148SOL    HW216344   0.834   6.889   1.820
 5149SOL     OW16345   6.782   0.556   5.933
 5149SOL    HW116346   6.784   0.457   5.915
 5149SOL    HW216347   6.858   0.600   5.884
 5150SOL     OW16348   1.765   5.098   3.886
 5150SOL    HW116349   1.798   5.006   3.904
 5150SOL    HW216350   1.820   5.165   3.936
 5151SOL     OW16351   4.351   0.906   6.205
 5151SOL    HW116352   4.440   0.948   6.225
 5151SOL    HW216353   4.278   0.959   6.248
 5152SOL     OW16354   0.717   5.047   0.401
 5152SOL    HW116355   0.641   5.109   0.421
 5152SOL    HW216356   0.765   5.024   0.486
 5153SOL     OW16357   1.783   2.033   1.071
 5153SOL    HW116358   1.866   2.068   1.116
 5153SOL    HW216359   1.703   2.080   1.108
 5154SOL     OW16360   1.930   3.900   5.163
 5154SOL    HW116361   2.027   3.890   5.188
 5154SOL    HW216362   1.875   3.846   5.227
 5155SOL     OW16363   3.704   1.068   2.118
 5155SOL    HW116364   3.730   1.009   2.042
 5155SOL    HW216365   3.786   1.097   2.167
 5156SOL     OW16366   5.754   2.439   6.137
 5156SOL    HW116367   5.666   2.486   6.140
 5156SOL    HW216368   5.828   2.506   6.136
 5157SOL     OW16369   5.729   2.605   4.304
 5157SOL    HW116370   5.801   2.536   4.299
 5157SOL    HW216371   5.687   2.603   4.395
 5158SOL     OW16372   3.824   0.776   0.714
 5158SOL    HW116373   3.882   0.722   0.654
 5158SOL    HW216374   3.729   0.744   0.706
 5159SOL     OW16375   1.892   3.334   4.831
 5159SOL    HW116376   1.833   3.265   4.874
 5159SOL    HW216377   1.866   3.424   4.865
 5160SOL     OW16378   1.474   2.799   4.522
 5160SOL    HW116379   1.425   2.726   4.476
 5160SOL    HW216380   1.526   2.852   4.456
 5161SOL     OW16381   1.357   3.383   6.459
 5161SOL    HW116382   1.380   3.344   6.548
 5161SOL    HW216383   1.420   3.458   6.438
 5162SOL     OW16384   6.349   5.585   4.572
 5162SOL    HW116385   6.441   5.577   4.608
 5162SOL    HW216386   6.332   5.679   4.542
 5163SOL     OW16387   5.437   3.983   0.876
 5163SOL    HW116388   5.360   4.042   0.902
 5163SOL    HW216389   5.449   3.912   0.945
 5164SOL     OW16390   5.660   4.954   5.863
 5164SOL    HW116391   5.648   4.873   5.806
 5164SOL    HW216392   5.689   5.031   5.806
 5165SOL     OW16393   6.298   3.605   3.953
 5165SOL    HW116394   6.264   3.632   4.044
 5165SOL    HW216395   6.229   3.549   3.907
 5166SOL     OW16396   1.266   0.154   1.273
 5166SOL    HW116397   1.254   0.248   1.240
 5166SOL    HW216398   1.228   0.146   1.365
 5167SOL     OW16399   1.159   6.844   5.488
 5167SOL    HW116400   1.185   6.934   5.452
 5167SOL    HW216401   1.185   6.838   5.585
 5168SOL     OW16402   3.994   1.868   2.795
 5168SOL    HW116403   4.044   1.904   2.874
 5168SOL    HW216404   4.058   1.850   2.721
 5169SOL     OW16405   3.994   3.932   6.635
 5169SOL    HW116406   3.979   4.013   6.692
 5169SOL    HW216407   4.048   3.957   6.555
 5170SOL     OW16408   4.277   4.725   4.433
 5170SOL    HW116409   4.195   4.669   4.421
 5170SOL    HW216410   4.358   4.668   4.427
 5171SOL     OW16411   2.460   4.465   4.705
 5171SOL    HW116412   2.499   4.509   4.786
 5171SOL    HW216413   2.519   4.390   4.676
 5172SOL     OW16414   2.066   4.627   6.775
 5172SOL    HW116415   2.131   4.598   6.846
 5172SOL    HW216416   2.094   4.590   6.687
 5173SOL     OW16417   6.442   3.555   6.074
 5173SOL    HW116418   6.386   3.634   6.103
 5173SOL    HW216419   6.527   3.554   6.126
 5174SOL     OW16420   1.790   4.427   6.157
 5174SOL    HW116421   1.869   4.426   6.096
 5174SOL    HW216422   1.753   4.519   6.162
 5175SOL     OW16423   0.397   5.319   6.394
 5175SOL    HW116424   0.448   5.261   6.330
 5175SOL    HW216425   0.405   5.414   6.365
 5176SOL     OW16426   5.545   4.247   6.460
 5176SOL    HW116427   5.475   4.223   6.393
 5176SOL    HW216428   5.504   4.251   6.551
 5177SOL     OW16429   5.165   6.208   6.775
 5177SOL    HW116430   5.098   6.261   6.827
 5177SOL    HW216431   5.228   6.163   6.839
 5178SOL     OW16432   2.907   2.255   1.706
 5178SOL    HW116433   2.904   2.328   1.775
 5178SOL    HW216434   2.915   2.167   1.752
 5179SOL     OW16435   3.453   5.988   4.893
 5179SOL    HW116436   3.517   5.921   4.931
 5179SOL    HW216437   3.391   6.020   4.965
 5180SOL     OW16438   2.729   2.379   0.365
 5180SOL    HW116439   2.644   2.381   0.313
 5180SOL    HW216440   2.710   2.389   0.462
 5181SOL     OW16441   2.762   5.602   2.532
 5181SOL    HW116442   2.806   5.586   2.444
 5181SOL    HW216443   2.705   5.524   2.555
 5182SOL     OW16444   4.871   4.195   1.626
 5182SOL    HW116445   4.784   4.150   1.605
 5182SOL    HW216446   4.863   4.243   1.714
 5183SOL     OW16447   3.982   0.872   3.141
 5183SOL    HW116448   4.012   0.946   3.081
 5183SOL    HW216449   4.045   0.794   3.131
 5184SOL     OW16450   1.247   1.780   2.763
 5184SOL    HW116451   1.226   1.869   2.804
 5184SOL    HW216452   1.245   1.788   2.663
 5185SOL     OW16453   3.969   0.393   1.772
 5185SOL    HW116454   3.976   0.335   1.691
 5185SOL    HW216455   4.009   0.482   1.754
 5186SOL     OW16456   5.800   4.755   6.866
 5186SOL    HW116457   5.776   4.825   6.933
 5186SOL    HW216458   5.899   4.750   6.855
 5187SOL     OW16459   5.095   1.973   4.119
 5187SOL    HW116460   5.124   1.969   4.214
 5187SOL    HW216461   5.114   2.064   4.082
 5188SOL     OW16462   1.028   3.135   4.465
 5188SOL    HW116463   0.946   3.163   4.515
 5188SOL    HW216464   1.105   3.127   4.529
 5189SOL     OW16465   4.122   5.451   6.675
 5189SOL    HW116466   4.086   5.440   6.583
 5189SOL    HW216467   4.205   5.507   6.672
 5190SOL     OW16468   1.900   3.019   3.182
 5190SOL    HW116469   1.857   3.058   3.101
 5190SOL    HW216470   1.897   2.919   3.176
 5191SOL     OW16471   4.836   0.897   2.324
 5191SOL    HW116472   4.836   0.951   2.408
 5191SOL    HW216473   4.750   0.848   2.316
 5192SOL     OW16474   5.866   4.585   1.940
 5192SOL    HW116475   5.827   4.515   2.000
 5192SOL    HW216476   5.837   4.676   1.972
 5193SOL     OW16477   4.871   3.886   2.488
 5193SOL    HW116478   4.898   3.811   2.548
 5193SOL    HW216479   4.836   3.962   2.543
 5194SOL     OW16480   5.178   1.811   6.677
 5194SOL    HW116481   5.222   1.876   6.739
 5194SOL    HW216482   5.099   1.854   6.634
 5195SOL     OW16483   6.426   6.273   5.218
 5195SOL    HW116484   6.402   6.267   5.315
 5195SOL    HW216485   6.378   6.202   5.167
 5196SOL     OW16486   0.713   3.074   1.664
 5196SOL    HW116487   0.667   3.162   1.654
 5196SOL    HW216488   0.676   3.026   1.743
 5197SOL     OW16489   3.642   6.030   5.431
 5197SOL    HW116490   3.575   5.956   5.427
 5197SOL    HW216491   3.721   6.001   5.485
 5198SOL     OW16492   4.117   0.381   5.830
 5198SOL    HW116493   4.119   0.466   5.882
 5198SOL    HW216494   4.046   0.387   5.759
 5199SOL     OW16495   0.247   5.096   1.673
 5199SOL    HW116496   0.168   5.147   1.642
 5199SOL    HW216497   0.280   5.037   1.599
 5200SOL     OW16498   0.026   0.032   5.199
 5200SOL    HW116499   0.017   0.026   5.100
 5200SOL    HW216500   6.963   0.054   5.239
 5201SOL     OW16501   5.920   4.760   4.995
 5201SOL    HW116502   5.998   4.807   4.955
 5201SOL    HW216503   5.879   4.699   4.927
 5202SOL     OW16504   3.285   3.172   5.633
 5202SOL    HW116505   3.243   3.109   5.699
 5202SOL    HW216506   3.265   3.266   5.661
 5203SOL     OW16507   1.540   0.613   6.463
 5203SOL    HW116508   1.491   0.696   6.438
 5203SOL    HW216509   1.617   0.637   6.523
 5204SOL     OW16510   2.103   0.661   0.721
 5204SOL    HW116511   2.170   0.712   0.775
 5204SOL    HW216512   2.021   0.717   0.707
 5205SOL     OW16513   6.781   6.713   1.231
 5205SOL    HW116514   6.829   6.797   1.256
 5205SOL    HW216515   6.682   6.728   1.236
 5206SOL     OW16516   1.105   4.700   3.529
 5206SOL    HW116517   1.177   4.633   3.513
 5206SOL    HW216518   1.129   4.786   3.483
 5207SOL     OW16519   5.961   6.621   4.806
 5207SOL    HW116520   5.920   6.600   4.895
 5207SOL    HW216521   6.030   6.552   4.784
 5208SOL     OW16522   6.595   2.073   0.469
 5208SOL    HW116523   6.674   2.061   0.408
 5208SOL    HW216524   6.548   2.159   0.447
 5209SOL     OW16525   5.448   6.629   3.142
 5209SOL    HW116526   5.475   6.714   3.189
 5209SOL    HW216527   5.510   6.555   3.169
 5210SOL     OW16528   5.671   4.820   0.939
 5210SOL    HW116529   5.763   4.795   0.971
 5210SOL    HW216530   5.617   4.853   1.016
 5211SOL     OW16531   5.351   2.294   4.754
 5211SOL    HW116532   5.342   2.375   4.813
 5211SOL    HW216533   5.318   2.214   4.804
 5212SOL     OW16534   6.906   4.128   0.747
 5212SOL    HW116535   6.820   4.082   0.729
 5212SOL    HW216536   6.909   4.215   0.696
 5213SOL     OW16537   4.107   3.566   3.022
 5213SOL    HW116538   4.095   3.582   3.120
 5213SOL    HW216539   4.098   3.652   2.972
 5214SOL     OW16540   5.519   3.291   5.322
 5214SOL    HW116541   5.545   3.362   5.257
 5214SOL    HW216542   5.435   3.246   5.291
 5215SOL     OW16543   0.596   5.173   4.979
 5215SOL    HW116544   0.677   5.179   4.921
 5215SOL    HW216545   0.599   5.245   5.049
 5216SOL     OW16546   5.316   4.879   1.462
 5216SOL    HW116547   5.324   4.858   1.560
 5216SOL    HW216548   5.385   4.947   1.437
 5217SOL     OW16549   4.726   6.768   3.044
 5217SOL    HW116550   4.785   6.697   3.082
 5217SOL    HW216551   4.707   6.747   2.948
 5218SOL     OW16552   6.134   0.152   0.308
 5218SOL    HW116553   6.063   0.102   0.357
 5218SOL    HW216554   6.100   0.242   0.281
 5219SOL     OW16555   3.315   0.995   5.717
 5219SOL    HW116556   3.317   0.955   5.625
 5219SOL    HW216557   3.375   0.943   5.777
 5220SOL     OW16558   1.720   5.219   4.569
 5220SOL    HW116559   1.792   5.233   4.501
 5220SOL    HW216560   1.660   5.145   4.539
 5221SOL     OW16561   5.654   5.987   1.480
 5221SOL    HW116562   5.713   6.045   1.424
 5221SOL    HW216563   5.671   6.005   1.577
 5222SOL     OW16564   0.066   3.683   1.835
 5222SOL    HW116565   7.020   3.681   1.903
 5222SOL    HW216566   0.054   3.607   1.771
 5223SOL     OW16567   6.168   3.051   0.512
 5223SOL    HW116568   6.183   3.128   0.575
 5223SOL    HW216569   6.070   3.031   0.507
 5224SOL     OW16570   0.707   1.241   5.207
 5224SOL    HW116571   0.751   1.325   5.175
 5224SOL    HW216572   0.609   1.257   5.219
 5225SOL     OW16573   6.910   1.666   4.794
 5225SOL    HW116574   6.911   1.752   4.743
 5225SOL    HW216575   6.827   1.660   4.849
 5226SOL     OW16576   0.354   6.246   4.206
 5226SOL    HW116577   0.363   6.224   4.109
 5226SOL    HW216578   0.434   6.298   4.236
 5227SOL     OW16579   0.791   3.919   6.020
 5227SOL    HW116580   0.804   3.928   5.922
 5227SOL    HW216581   0.859   3.975   6.068
 5228SOL     OW16582   0.778   1.894   5.434
 5228SOL    HW116583   0.853   1.958   5.453
 5228SOL    HW216584   0.808   1.801   5.452
 5229SOL     OW16585   3.122   1.637   5.859
 5229SOL    HW116586   3.214   1.675   5.865
 5229SOL    HW216587   3.119   1.549   5.906
 5230SOL     OW16588   6.909   0.170   2.438
 5230SOL    HW116589   6.947   0.261   2.451
 5230SOL    HW216590   6.912   0.147   2.340
 5231SOL     OW16591   6.349   3.534   2.364
 5231SOL    HW116592   6.418   3.585   2.416
 5231SOL    HW216593   6.296   3.597   2.308
 5232SOL     OW16594   1.619   2.449   5.783
 5232SOL    HW116595   1.546   2.390   5.750
 5232SOL    HW216596   1.707   2.403   5.769
 5233SOL     OW16597   3.756   6.553   2.381
 5233SOL    HW116598   3.814   6.588   2.308
 5233SOL    HW216599   3.680   6.501   2.341
 5234SOL     OW16600   3.064   2.258   5.881
 5234SOL    HW116601   3.154   2.291   5.852
 5234SOL    HW216602   3.015   2.220   5.802
 5235SOL     OW16603   2.802   1.742   1.643
 5235SOL    HW116604   2.785   1.807   1.569
 5235SOL    HW216605   2.721   1.684   1.655
 5236SOL     OW16606   3.248   5.174   1.803
 5236SOL    HW116607   3.266   5.223   1.888
 5236SOL    HW216608   3.271   5.077   1.815
 5237SOL     OW16609   1.977   1.788   2.053
 5237SOL    HW116610   1.949   1.835   2.137
 5237SOL    HW216611   2.011   1.696   2.076
 5238SOL     OW16612   0.239   0.509   3.413
 5238SOL    HW116613   0.328   0.516   3.368
 5238SOL    HW216614   0.216   0.413   3.426
 5239SOL     OW16615   2.538   4.214   0.974
 5239SOL    HW116616   2.586   4.235   0.889
 5239SOL    HW216617   2.485   4.130   0.962
 5240SOL     OW16618   1.947   4.340   5.327
 5240SOL    HW116619   2.016   4.327   5.256
 5240SOL    HW216620   1.985   4.314   5.416
 5241SOL     OW16621   1.899   6.419   2.755
 5241SOL    HW116622   1.858   6.336   2.792
 5241SOL    HW216623   1.935   6.474   2.831
 5242SOL     OW16624   3.532   6.879   6.134
 5242SOL    HW116625   3.476   6.920   6.062
 5242SOL    HW216626   3.628   6.880   6.106
 5243SOL     OW16627   2.730   6.318   2.251
 5243SOL    HW116628   2.826   6.345   2.257
 5243SOL    HW216629   2.716   6.233   2.300
 5244SOL     OW16630   4.339   1.284   0.090
 5244SOL    HW116631   4.363   1.361   0.148
 5244SOL    HW216632   4.287   1.316   0.012
 5245SOL     OW16633   3.304   4.164   1.463
 5245SOL    HW116634   3.259   4.151   1.374
 5245SOL    HW216635   3.235   4.165   1.535
 5246SOL     OW16636   5.896   4.113   6.720
 5246SOL    HW116637   5.862   4.056   6.795
 5246SOL    HW216638   5.857   4.080   6.634
 5247SOL     OW16639   4.659   1.613   6.401
 5247SOL    HW116640   4.611   1.661   6.475
 5247SOL    HW216641   4.655   1.669   6.318
 5248SOL     OW16642   5.315   0.929   4.137
 5248SOL    HW116643   5.242   0.861   4.127
 5248SOL    HW216644   5.319   0.986   4.054
 5249SOL     OW16645   0.116   5.315   1.104
 5249SOL    HW116646   0.047   5.368   1.152
 5249SOL    HW216647   0.138   5.232   1.156
 5250SOL     OW16648   2.514   5.755   1.422
 5250SOL    HW116649   2.496   5.666   1.379
 5250SOL    HW216650   2.555   5.817   1.354
 5251SOL     OW16651   0.395   4.758   0.390
 5251SOL    HW116652   0.474   4.723   0.440
 5251SOL    HW216653   0.426   4.804   0.307
 5252SOL     OW16654   3.822   5.894   2.484
 5252SOL    HW116655   3.777   5.840   2.414
 5252SOL    HW216656   3.867   5.834   2.550
 5253SOL     OW16657   7.008   6.012   4.555
 5253SOL    HW116658   6.985   6.109   4.549
 5253SOL    HW216659   0.017   5.992   4.646
 5254SOL     OW16660   4.864   5.946   3.131
 5254SOL    HW116661   4.889   5.921   3.037
 5254SOL    HW216662   4.913   6.030   3.156
 5255SOL     OW16663   6.529   1.719   5.391
 5255SOL    HW116664   6.467   1.797   5.377
 5255SOL    HW216665   6.523   1.689   5.487
 5256SOL     OW16666   6.175   2.137   2.475
 5256SOL    HW116667   6.094   2.197   2.479
 5256SOL    HW216668   6.161   2.067   2.406
 5257SOL     OW16669   4.202   1.803   6.239
 5257SOL    HW116670   4.286   1.751   6.228
 5257SOL    HW216671   4.147   1.797   6.156
 5258SOL     OW16672   4.910   1.419   4.391
 5258SOL    HW116673   4.816   1.386   4.389
 5258SOL    HW216674   4.951   1.397   4.479
 5259SOL     OW16675   6.216   5.246   3.769
 5259SOL    HW116676   6.181   5.307   3.839
 5259SOL    HW216677   6.232   5.155   3.809
 5260SOL     OW16678   1.788   6.759   1.467
 5260SOL    HW116679   1.887   6.747   1.480
 5260SOL    HW216680   1.740   6.679   1.504
 5261SOL     OW16681   5.513   4.717   6.638
 5261SOL    HW116682   5.588   4.653   6.624
 5261SOL    HW216683   5.456   4.685   6.713
 5262SOL     OW16684   1.479   0.982   1.662
 5262SOL    HW116685   1.481   0.884   1.645
 5262SOL    HW216686   1.546   1.005   1.733
 5263SOL     OW16687   1.576   6.297   2.839
 5263SOL    HW116688   1.546   6.333   2.927
 5263SOL    HW216689   1.670   6.264   2.846
 5264SOL     OW16690   6.818   2.217   1.785
 5264SOL    HW116691   6.833   2.232   1.883
 5264SOL    HW216692   6.892   2.161   1.748
 5265SOL     OW16693   6.625   5.733   5.630
 5265SOL    HW116694   6.587   5.647   5.663
 5265SOL    HW216695   6.721   5.740   5.658
 5266SOL     OW16696   1.660   0.003   6.884
 5266SOL    HW116697   1.570   0.045   6.871
 5266SOL    HW216698   1.694   6.999   6.796
 5267SOL     OW16699   5.348   2.031   3.791
 5267SOL    HW116700   5.262   1.993   3.757
 5267SOL    HW216701   5.395   2.080   3.717
 5268SOL     OW16702   5.502   0.339   6.675
 5268SOL    HW116703   5.479   0.326   6.771
 5268SOL    HW216704   5.484   0.435   6.650
 5269SOL     OW16705   1.317   0.103   4.066
 5269SOL    HW116706   1.339   0.197   4.040
 5269SOL    HW216707   1.369   0.040   4.009
 5270SOL     OW16708   0.537   1.698   6.313
 5270SOL    HW116709   0.622   1.750   6.313
 5270SOL    HW216710   0.513   1.675   6.218
 5271SOL     OW16711   1.201   4.821   3.193
 5271SOL    HW116712   1.274   4.772   3.241
 5271SOL    HW216713   1.162   4.890   3.254
 5272SOL     OW16714   3.998   0.669   0.001
 5272SOL    HW116715   3.904   0.639   7.009
 5272SOL    HW216716   4.062   0.600   6.995
 5273SOL     OW16717   2.747   1.939   2.791
 5273SOL    HW116718   2.781   1.847   2.814
 5273SOL    HW216719   2.648   1.940   2.795
 5274SOL     OW16720   5.885   5.115   1.430
 5274SOL    HW116721   5.857   5.098   1.335
 5274SOL    HW216722   5.903   5.212   1.442
 5275SOL     OW16723   4.405   1.720   6.537
 5275SOL    HW116724   4.356   1.734   6.623
 5275SOL    HW216725   4.420   1.809   6.492
 5276SOL     OW16726   4.257   6.722   1.773
 5276SOL    HW116727   4.260   6.801   1.711
 5276SOL    HW216728   4.204   6.648   1.730
 5277SOL     OW16729   1.973   2.378   2.049
 5277SOL    HW116730   1.919   2.460   2.069
 5277SOL    HW216731   1.951   2.306   2.115
 5278SOL     OW16732   4.154   3.551   2.086
 5278SOL    HW116733   4.205   3.589   2.163
 5278SOL    HW216734   4.194   3.584   2.001
 5279SOL     OW16735   1.759   6.180   2.062
 5279SOL    HW116736   1.840   6.139   2.105
 5279SOL    HW216737   1.688   6.192   2.131
 5280SOL     OW16738   3.631   0.608   5.039
 5280SOL    HW116739   3.717   0.559   5.028
 5280SOL    HW216740   3.572   0.592   4.960
 5281SOL     OW16741   0.144   2.691   3.411
 5281SOL    HW116742   0.103   2.770   3.366
 5281SOL    HW216743   0.234   2.672   3.371
 5282SOL     OW16744   4.737   1.395   1.209
 5282SOL    HW116745   4.666   1.403   1.279
 5282SOL    HW216746   4.808   1.463   1.225
 5283SOL     OW16747   4.984   5.091   6.049
 5283SOL    HW116748   5.039   5.054   5.975
 5283SOL    HW216749   5.043   5.141   6.113
 5284SOL     OW16750   4.830   2.955   3.188
 5284SOL    HW116751   4.857   2.995   3.275
 5284SOL    HW216752   4.910   2.940   3.130
 5285SOL     OW16753   4.111   6.252   2.557
 5285SOL    HW116754   4.019   6.280   2.529
 5285SOL    HW216755   4.140   6.174   2.503
 5286SOL     OW16756   2.575   5.408   2.515
 5286SOL    HW116757   2.560   5.387   2.419
 5286SOL    HW216758   2.490   5.440   2.556
 5287SOL     OW16759   0.339   1.509   2.214
 5287SOL    HW116760   0.332   1.532   2.117
 5287SOL    HW216761   0.290   1.578   2.268
 5288SOL     OW16762   4.267   0.824   0.879
 5288SOL    HW116763   4.255   0.791   0.785
 5288SOL    HW216764   4.358   0.863   0.890
 5289SOL     OW16765   1.885   6.043   1.037
 5289SOL    HW116766   1.966   6.083   1.079
 5289SOL    HW216767   1.861   6.094   0.954
 5290SOL     OW16768   5.496   5.944   0.575
 5290SOL    HW116769   5.437   6.012   0.619
 5290SOL    HW216770   5.513   5.971   0.481
 5291SOL     OW16771   1.125   5.511   6.446
 5291SOL    HW116772   1.070   5.493   6.528
 5291SOL    HW216773   1.213   5.465   6.455
 5292SOL     OW16774   5.457   1.964   0.449
 5292SOL    HW116775   5.405   2.026   0.508
 5292SOL    HW216776   5.432   1.980   0.353
 5293SOL     OW16777   1.356   1.672   3.820
 5293SOL    HW116778   1.392   1.706   3.907
 5293SOL    HW216779   1.422   1.688   3.747
 5294SOL     OW16780   4.770   2.719   5.598
 5294SOL    HW116781   4.815   2.697   5.684
 5294SOL    HW216782   4.776   2.640   5.537
 5295SOL     OW16783   6.222   1.104   2.003
 5295SOL    HW116784   6.257   1.195   2.024
 5295SOL    HW216785   6.123   1.110   1.987
 5296SOL     OW16786   0.558   3.398   6.998
 5296SOL    HW116787   0.478   3.432   6.947
 5296SOL    HW216788   0.544   3.302   7.021
 5297SOL     OW16789   1.537   3.108   2.205
 5297SOL    HW116790   1.521   3.072   2.298
 5297SOL    HW216791   1.505   3.202   2.200
 5298SOL     OW16792   1.001   4.719   1.849
 5298SOL    HW116793   1.057   4.654   1.900
 5298SOL    HW216794   1.030   4.720   1.753
 5299SOL     OW16795   3.100   0.565   1.227
 5299SOL    HW116796   3.140   0.614   1.304
 5299SOL    HW216797   3.004   0.546   1.247
 5300SOL     OW16798   0.276   4.971   3.624
 5300SOL    HW116799   0.183   4.939   3.644
 5300SOL    HW216800   0.294   4.963   3.526
 5301SOL     OW16801   4.835   0.585   0.466
 5301SOL    HW116802   4.807   0.572   0.371
 5301SOL    HW216803   4.768   0.640   0.514
 5302SOL     OW16804   6.483   4.314   3.266
 5302SOL    HW116805   6.503   4.228   3.218
 5302SOL    HW216806   6.450   4.294   3.358
 5303SOL     OW16807   1.711   5.075   2.846
 5303SOL    HW116808   1.710   5.174   2.827
 5303SOL    HW216809   1.625   5.034   2.817
 5304SOL     OW16810   4.750   2.247   5.363
 5304SOL    HW116811   4.805   2.165   5.375
 5304SOL    HW216812   4.689   2.235   5.284
 5305SOL     OW16813   2.822   1.279   3.844
 5305SOL    HW116814   2.841   1.322   3.756
 5305SOL    HW216815   2.865   1.189   3.847
 5306SOL     OW16816   2.700   6.533   4.905
 5306SOL    HW116817   2.648   6.584   4.838
 5306SOL    HW216818   2.716   6.590   4.986
 5307SOL     OW16819   3.676   6.887   0.353
 5307SOL    HW116820   3.768   6.893   0.392
 5307SOL    HW216821   3.635   6.799   0.376
 5308SOL     OW16822   0.056   1.072   2.260
 5308SOL    HW116823   0.133   1.129   2.291
 5308SOL    HW216824   0.082   1.026   2.175
 5309SOL     OW16825   3.338   3.587   4.548
 5309SOL    HW116826   3.402   3.664   4.546
 5309SOL    HW216827   3.359   3.524   4.473
 5310SOL     OW16828   5.830   2.811   0.269
 5310SOL    HW116829   5.888   2.729   0.279
 5310SOL    HW216830   5.882   2.883   0.222
 5311SOL     OW16831   0.948   6.607   6.533
 5311SOL    HW116832   0.972   6.515   6.502
 5311SOL    HW216833   0.853   6.608   6.564
 5312SOL     OW16834   0.521   2.950   1.865
 5312SOL    HW116835   0.573   2.876   1.906
 5312SOL    HW216836   0.470   2.999   1.935
 5313SOL     OW16837   0.978   6.286   0.701
 5313SOL    HW116838   0.920   6.352   0.749
 5313SOL    HW216839   0.992   6.318   0.607
 5314SOL     OW16840   3.775   5.573   1.250
 5314SOL    HW116841   3.831   5.518   1.188
 5314SOL    HW216842   3.698   5.518   1.283
 5315SOL     OW16843   5.677   2.705   1.915
 5315SOL    HW116844   5.682   2.764   1.834
 5315SOL    HW216845   5.722   2.618   1.896
 5316SOL     OW16846   5.652   5.391   4.388
 5316SOL    HW116847   5.560   5.351   4.395
 5316SOL    HW216848   5.684   5.387   4.294
 5317SOL     OW16849   6.727   5.762   2.990
 5317SOL    HW116850   6.720   5.745   3.088
 5317SOL    HW216851   6.636   5.765   2.950
 5318SOL     OW16852   0.213   2.555   4.312
 5318SOL    HW116853   0.124   2.525   4.278
 5318SOL    HW216854   0.219   2.534   4.410
 5319SOL     OW16855   3.836   6.952   2.141
 5319SOL    HW116856   3.853   6.867   2.091
 5319SOL    HW216857   3.923   6.986   2.178
 5320SOL     OW16858   6.363   3.320   6.005
 5320SOL    HW116859   6.400   3.410   6.029
 5320SOL    HW216860   6.387   3.299   5.910
 5321SOL     OW16861   2.040   4.575   5.687
 5321SOL    HW116862   2.043   4.499   5.623
 5321SOL    HW216863   1.951   4.577   5.733
 5322SOL     OW16864   2.048   5.943   0.665
 5322SOL    HW116865   2.010   5.872   0.724
 5322SOL    HW216866   2.098   5.900   0.590
 5323SOL     OW16867   5.338   3.434   0.327
 5323SOL    HW116868   5.388   3.515   0.298
 5323SOL    HW216869   5.292   3.453   0.414
 5324SOL     OW16870   3.986   3.606   1.433
 5324SOL    HW116871   4.014   3.629   1.526
 5324SOL    HW216872   4.061   3.559   1.386
 5325SOL     OW16873   4.296   6.352   4.794
 5325SOL    HW116874   4.370   6.389   4.850
 5325SOL    HW216875   4.329   6.270   4.747
 5326SOL     OW16876   6.981   0.398   2.741
 5326SOL    HW116877   7.011   0.345   2.820
 5326SOL    HW216878   6.957   0.491   2.771
 5327SOL     OW16879   0.246   0.283   3.823
 5327SOL    HW116880   0.232   0.215   3.751
 5327SOL    HW216881   0.305   0.356   3.788
 5328SOL     OW16882   3.705   5.077   0.074
 5328SOL    HW116883   3.752   4.990   0.087
 5328SOL    HW216884   3.763   5.151   0.110
 5329SOL     OW16885   0.149   5.640   0.069
 5329SOL    HW116886   0.175   5.602   0.158
 5329SOL    HW216887   0.103   5.727   0.082
 5330SOL     OW16888   3.447   4.099   0.420
 5330SOL    HW116889   3.509   4.165   0.463
 5330SOL    HW216890   3.497   4.043   0.354
 5331SOL     OW16891   5.046   1.648   6.861
 5331SOL    HW116892   4.970   1.710   6.880
 5331SOL    HW216893   5.106   1.690   6.793
 5332SOL     OW16894   5.606   3.123   0.041
 5332SOL    HW116895   5.517   3.112   0.084
 5332SOL    HW216896   5.634   3.037   7.027
 5333SOL     OW16897   1.452   1.037   4.494
 5333SOL    HW116898   1.428   0.940   4.494
 5333SOL    HW216899   1.551   1.047   4.489
 5334SOL     OW16900   3.406   6.127   2.060
 5334SOL    HW116901   3.421   6.133   2.159
 5334SOL    HW216902   3.371   6.036   2.037
 5335SOL     OW16903   0.266   4.576   1.658
 5335SOL    HW116904   0.222   4.658   1.622
 5335SOL    HW216905   0.364   4.580   1.638
 5336SOL     OW16906   1.784   3.223   5.266
 5336SOL    HW116907   1.818   3.166   5.191
 5336SOL    HW216908   1.814   3.317   5.253
 5337SOL     OW16909   0.154   3.434   1.591
 5337SOL    HW116910   0.225   3.452   1.523
 5337SOL    HW216911   0.191   3.378   1.665
 5338SOL     OW16912   6.748   3.551   0.814
 5338SOL    HW116913   6.785   3.547   0.906
 5338SOL    HW216914   6.823   3.552   0.748
 5339SOL     OW16915   5.591   3.132   2.384
 5339SOL    HW116916   5.532   3.063   2.343
 5339SOL    HW216917   5.574   3.137   2.483
 5340SOL     OW16918   4.419   3.406   1.693
 5340SOL    HW116919   4.513   3.439   1.701
 5340SOL    HW216920   4.415   3.309   1.716
 5341SOL     OW16921   4.874   4.818   3.552
 5341SOL    HW116922   4.845   4.725   3.530
 5341SOL    HW216923   4.833   4.883   3.488
 5342SOL     OW16924   6.390   5.769   5.037
 5342SOL    HW116925   6.320   5.743   4.970
 5342SOL    HW216926   6.368   5.727   5.125
 5343SOL     OW16927   3.838   3.260   6.566
 5343SOL    HW116928   3.935   3.238   6.575
 5343SOL    HW216929   3.794   3.253   6.656
 5344SOL     OW16930   6.868   1.333   6.787
 5344SOL    HW116931   6.843   1.430   6.781
 5344SOL    HW216932   6.963   1.322   6.757
 5345SOL     OW16933   4.276   1.140   6.699
 5345SOL    HW116934   4.249   1.060   6.752
 5345SOL    HW216935   4.359   1.119   6.646
 5346SOL     OW16936   3.345   6.216   3.352
 5346SOL    HW116937   3.386   6.167   3.275
 5346SOL    HW216938   3.407   6.288   3.382
 5347SOL     OW16939   5.312   1.607   4.515
 5347SOL    HW116940   5.286   1.511   4.519
 5347SOL    HW216941   5.233   1.664   4.538
 5348SOL     OW16942   4.957   3.088   5.184
 5348SOL    HW116943   4.886   3.025   5.213
 5348SOL    HW216944   4.931   3.181   5.210
 5349SOL     OW16945   0.842   3.918   1.345
 5349SOL    HW116946   0.773   3.872   1.289
 5349SOL    HW216947   0.826   3.898   1.441
 5350SOL     OW16948   0.867   7.005   6.192
 5350SOL    HW116949   0.830   6.929   6.246
 5350SOL    HW216950   0.967   7.002   6.195
 5351SOL     OW16951   0.681   6.225   3.169
 5351SOL    HW116952   0.692   6.171   3.086
 5351SOL    HW216953   0.746   6.301   3.169
 5352SOL     OW16954   1.303   2.757   6.008
 5352SOL    HW116955   1.401   2.743   6.018
 5352SOL    HW216956   1.269   2.704   5.931
 5353SOL     OW16957   3.614   5.558   3.600
 5353SOL    HW116958   3.546   5.629   3.582
 5353SOL    HW216959   3.703   5.600   3.616
 5354SOL     OW16960   3.666   6.011   1.223
 5354SOL    HW116961   3.750   6.010   1.277
 5354SOL    HW216962   3.661   6.096   1.171
 5355SOL     OW16963   4.994   5.975   5.200
 5355SOL    HW116964   5.087   5.983   5.236
 5355SOL    HW216965   4.982   6.038   5.124
 5356SOL     OW16966   1.375   6.167   1.507
 5356SOL    HW116967   1.415   6.167   1.416
 5356SOL    HW216968   1.382   6.076   1.547
 5357SOL     OW16969   6.439   3.060   3.185
 5357SOL    HW116970   6.435   2.992   3.258
 5357SOL    HW216971   6.427   3.015   3.097
 5358SOL     OW16972   6.235   0.511   6.388
 5358SOL    HW116973   6.330   0.480   6.389
 5358SOL    HW216974   6.220   0.570   6.308
 5359SOL     OW16975   2.894   2.621   0.153
 5359SOL    HW116976   2.857   2.540   0.199
 5359SOL    HW216977   2.879   2.701   0.211
 5360SOL     OW16978   5.332   5.643   3.713
 5360SOL    HW116979   5.305   5.652   3.617
 5360SOL    HW216980   5.262   5.684   3.771
 5361SOL     OW16981   1.388   4.454   3.229
 5361SOL    HW116982   1.324   4.406   3.170
 5361SOL    HW216983   1.476   4.407   3.230
 5362SOL     OW16984   6.293   1.448   2.576
 5362SOL    HW116985   6.289   1.355   2.539
 5362SOL    HW216986   6.384   1.486   2.561
 5363SOL     OW16987   5.696   5.978   4.022
 5363SOL    HW116988   5.712   6.051   4.089
 5363SOL    HW216989   5.783   5.936   3.997
 5364SOL     OW16990   4.709   2.424   2.208
 5364SOL    HW116991   4.671   2.345   2.160
 5364SOL    HW216992   4.686   2.508   2.160
 5365SOL     OW16993   2.875   3.902   5.017
 5365SOL    HW116994   2.925   3.890   5.102
 5365SOL    HW216995   2.783   3.937   5.037
 5366SOL     OW16996   6.787   5.386   3.492
 5366SOL    HW116997   6.713   5.452   3.482
 5366SOL    HW216998   6.765   5.321   3.565
 5367SOL     OW16999   6.239   6.126   1.461
 5367SOL    HW117000   6.314   6.191   1.471
 5367SOL    HW217001   6.201   6.105   1.552
 5368SOL     OW17002   0.237   5.868   4.788
 5368SOL    HW117003   0.252   5.846   4.884
 5368SOL    HW217004   0.325   5.886   4.744
 5369SOL     OW17005   4.500   6.655   2.594
 5369SOL    HW117006   4.458   6.627   2.680
 5369SOL    HW217007   4.478   6.587   2.523
 5370SOL     OW17008   1.655   2.914   0.290
 5370SOL    HW117009   1.566   2.876   0.261
 5370SOL    HW217010   1.728   2.874   0.234
 5371SOL     OW17011   6.572   5.693   4.177
 5371SOL    HW117012   6.504   5.644   4.233
 5371SOL    HW217013   6.552   5.791   4.181
 5372SOL     OW17014   2.296   6.704   3.437
 5372SOL    HW117015   2.320   6.607   3.448
 5372SOL    HW217016   2.266   6.720   3.343
 5373SOL     OW17017   3.099   0.974   6.527
 5373SOL    HW117018   3.026   0.908   6.506
 5373SOL    HW217019   3.179   0.924   6.560
 5374SOL     OW17020   1.298   3.911   1.414
 5374SOL    HW117021   1.377   3.849   1.408
 5374SOL    HW217022   1.283   3.956   1.326
 5375SOL     OW17023   2.208   4.555   4.677
 5375SOL    HW117024   2.167   4.504   4.602
 5375SOL    HW217025   2.302   4.524   4.692
 5376SOL     OW17026   0.902   0.285   0.779
 5376SOL    HW117027   0.975   0.329   0.726
 5376SOL    HW217028   0.814   0.303   0.736
 5377SOL     OW17029   1.208   1.740   2.465
 5377SOL    HW117030   1.215   1.775   2.371
 5377SOL    HW217031   1.121   1.769   2.505
 5378SOL     OW17032   4.824   6.970   2.342
 5378SOL    HW117033   4.753   6.902   2.360
 5378SOL    HW217034   4.803   0.027   2.392
 5379SOL     OW17035   2.103   1.934   3.097
 5379SOL    HW117036   2.118   2.010   3.034
 5379SOL    HW217037   2.007   1.931   3.124
 5380SOL     OW17038   5.248   6.198   1.223
 5380SOL    HW117039   5.165   6.249   1.247
 5380SOL    HW217040   5.225   6.126   1.157
 5381SOL     OW17041   3.539   1.826   2.985
 5381SOL    HW117042   3.558   1.744   3.039
 5381SOL    HW217043   3.494   1.894   3.042
 5382SOL     OW17044   3.905   1.192   2.570
 5382SOL    HW117045   3.996   1.149   2.570
 5382SOL    HW217046   3.908   1.276   2.516
 5383SOL     OW17047   2.131   3.252   4.931
 5383SOL    HW117048   2.113   3.192   5.008
 5383SOL    HW217049   2.045   3.292   4.898
 5384SOL     OW17050   5.268   6.072   6.095
 5384SOL    HW117051   5.174   6.061   6.126
 5384SOL    HW217052   5.306   6.156   6.133
 5385SOL     OW17053   3.902   3.452   0.105
 5385SOL    HW117054   3.869   3.541   0.136
 5385SOL    HW217055   3.831   3.406   0.052
 5386SOL     OW17056   4.625   5.122   3.796
 5386SOL    HW117057   4.574   5.046   3.758
 5386SOL    HW217058   4.609   5.204   3.740
 5387SOL     OW17059   1.062   2.288   4.382
 5387SOL    HW117060   1.023   2.371   4.423
 5387SOL    HW217061   0.990   2.235   4.337
 5388SOL     OW17062   6.538   6.401   4.159
 5388SOL    HW117063   6.619   6.458   4.144
 5388SOL    HW217064   6.456   6.451   4.131
 5389SOL     OW17065   5.357   1.310   4.867
 5389SOL    HW117066   5.287   1.285   4.934
 5389SOL    HW217067   5.345   1.254   4.785
 5390SOL     OW17068   5.420   3.966   2.860
 5390SOL    HW117069   5.463   3.948   2.772
 5390SOL    HW217070   5.354   3.894   2.879
 5391SOL     OW17071   4.063   2.552   1.380
 5391SOL    HW117072   4.134   2.607   1.337
 5391SOL    HW217073   4.023   2.491   1.312
 5392SOL     OW17074   5.314   0.299   4.578
 5392SOL    HW117075   5.352   0.315   4.487
 5392SOL    HW217076   5.363   0.354   4.645
 5393SOL     OW17077   4.662   1.182   3.855
 5393SOL    HW117078   4.651   1.200   3.757
 5393SOL    HW217079   4.659   1.269   3.904
 5394SOL     OW17080   0.183   3.140   2.228
 5394SOL    HW117081   0.159   3.044   2.243
 5394SOL    HW217082   0.109   3.186   2.180
 5395SOL     OW17083   0.340   1.761   1.343
 5395SOL    HW117084   0.429   1.804   1.361
 5395SOL    HW217085   0.313   1.781   1.249
 5396SOL     OW17086   3.345   2.970   0.998
 5396SOL    HW117087   3.301   2.882   1.014
 5396SOL    HW217088   3.293   3.021   0.929
 5397SOL     OW17089   0.192   0.362   2.343
 5397SOL    HW117090   0.110   0.388   2.393
 5397SOL    HW217091   0.168   0.303   2.266
 5398SOL     OW17092   6.648   2.677   3.557
 5398SOL    HW117093   6.717   2.739   3.520
 5398SOL    HW217094   6.650   2.682   3.657
 5399SOL     OW17095   2.386   3.082   1.092
 5399SOL    HW117096   2.465   3.127   1.051
 5399SOL    HW217097   2.366   2.998   1.041
 5400SOL     OW17098   4.918   3.040   1.372
 5400SOL    HW117099   4.983   3.018   1.299
 5400SOL    HW217100   4.886   3.135   1.360
 5401SOL     OW17101   5.353   3.024   0.865
 5401SOL    HW117102   5.430   3.003   0.925
 5401SOL    HW217103   5.371   2.985   0.774
 5402SOL     OW17104   1.300   6.845   1.908
 5402SOL    HW117105   1.320   6.779   1.981
 5402SOL    HW217106   1.386   6.879   1.869
 5403SOL     OW17107   5.298   1.934   5.745
 5403SOL    HW117108   5.308   1.888   5.657
 5403SOL    HW217109   5.378   1.992   5.762
 5404SOL     OW17110   4.983   6.476   0.346
 5404SOL    HW117111   5.040   6.467   0.427
 5404SOL    HW217112   5.023   6.425   0.270
 5405SOL     OW17113   0.229   5.182   0.003
 5405SOL    HW117114   0.161   5.254   7.014
 5405SOL    HW217115   0.185   5.093   7.027
 5406SOL     OW17116   2.915   1.500   5.689
 5406SOL    HW117117   3.000   1.545   5.715
 5406SOL    HW217118   2.927   1.453   5.601
 5407SOL     OW17119   1.415   6.612   3.561
 5407SOL    HW117120   1.389   6.709   3.569
 5407SOL    HW217121   1.499   6.605   3.508
 5408SOL     OW17122   2.400   2.144   4.008
 5408SOL    HW117123   2.322   2.108   3.957
 5408SOL    HW217124   2.480   2.086   3.993
 5409SOL     OW17125   0.729   2.593   2.806
 5409SOL    HW117126   0.690   2.648   2.880
 5409SOL    HW217127   0.813   2.548   2.838
 5410SOL     OW17128   6.768   3.047   0.445
 5410SOL    HW117129   6.701   2.982   0.409
 5410SOL    HW217130   6.743   3.072   0.538
 5411SOL     OW17131   3.556   5.511   1.002
 5411SOL    HW117132   3.646   5.553   1.003
 5411SOL    HW217133   3.495   5.564   0.943
 5412SOL     OW17134   1.035   2.504   5.374
 5412SOL    HW117135   0.956   2.520   5.315
 5412SOL    HW217136   1.112   2.472   5.318
 5413SOL     OW17137   0.291   5.339   5.746
 5413SOL    HW117138   0.231   5.290   5.810
 5413SOL    HW217139   0.278   5.303   5.654
 5414SOL     OW17140   5.467   4.800   5.995
 5414SOL    HW117141   5.546   4.823   5.938
 5414SOL    HW217142   5.444   4.703   5.983
 5415SOL     OW17143   1.744   1.814   6.083
 5415SOL    HW117144   1.689   1.756   6.143
 5415SOL    HW217145   1.760   1.902   6.126
 5416SOL     OW17146   3.023   6.236   7.000
 5416SOL    HW117147   2.937   6.220   0.020
 5416SOL    HW217148   3.006   6.250   6.903
 5417SOL     OW17149   6.306   0.612   3.000
 5417SOL    HW117150   6.279   0.529   2.952
 5417SOL    HW217151   6.246   0.687   2.972
 5418SOL     OW17152   6.924   4.052   5.606
 5418SOL    HW117153   6.971   3.997   5.676
 5418SOL    HW217154   6.976   4.135   5.587
 5419SOL     OW17155   3.694   1.949   6.756
 5419SOL    HW117156   3.762   2.022   6.758
 5419SOL    HW217157   3.730   1.870   6.708
 5420SOL     OW17158   1.521   2.144   1.688
 5420SOL    HW117159   1.522   2.212   1.614
 5420SOL    HW217160   1.489   2.056   1.651
 5421SOL     OW17161   4.046   5.242   1.786
 5421SOL    HW117162   3.998   5.164   1.826
 5421SOL    HW217163   4.138   5.215   1.759
 5422SOL     OW17164   2.591   5.414   3.634
 5422SOL    HW117165   2.521   5.485   3.640
 5422SOL    HW217166   2.617   5.384   3.726
 5423SOL     OW17167   4.862   6.675   1.363
 5423SOL    HW117168   4.865   6.742   1.438
 5423SOL    HW217169   4.954   6.639   1.347
 5424SOL     OW17170   4.397   3.427   5.327
 5424SOL    HW117171   4.324   3.474   5.278
 5424SOL    HW217172   4.469   3.493   5.350
 5425SOL     OW17173   1.440   5.346   5.800
 5425SOL    HW117174   1.347   5.334   5.764
 5425SOL    HW217175   1.460   5.274   5.866
 5426SOL     OW17176   6.597   4.264   1.053
 5426SOL    HW117177   6.560   4.344   1.100
 5426SOL    HW217178   6.671   4.292   0.992
 5427SOL     OW17179   4.937   2.710   0.517
 5427SOL    HW117180   4.892   2.648   0.581
 5427SOL    HW217181   4.898   2.802   0.526
 5428SOL     OW17182   4.751   5.578   3.196
 5428SOL    HW117183   4.788   5.666   3.228
 5428SOL    HW217184   4.651   5.585   3.188
 5429SOL     OW17185   3.085   0.021   4.126
 5429SOL    HW117186   2.995   0.000   4.089
 5429SOL    HW217187   3.154   0.014   4.054
 5430SOL     OW17188   1.748   4.033   5.425
 5430SOL    HW117189   1.679   4.005   5.491
 5430SOL    HW217190   1.829   4.066   5.473
 5431SOL     OW17191   4.905   4.779   0.487
 5431SOL    HW117192   4.873   4.810   0.576
 5431SOL    HW217193   4.987   4.831   0.461
 5432SOL     OW17194   7.009   5.032   6.359
 5432SOL    HW117195   0.076   5.042   6.391
 5432SOL    HW217196   6.972   5.122   6.337
 5433SOL     OW17197   3.564   6.991   1.287
 5433SOL    HW117198   3.602   0.053   1.263
 5433SOL    HW217199   3.547   6.937   1.204
 5434SOL     OW17200   4.815   6.248   4.356
 5434SOL    HW117201   4.801   6.273   4.260
 5434SOL    HW217202   4.866   6.320   4.402
 5435SOL     OW17203   6.816   4.674   6.746
 5435SOL    HW117204   6.754   4.597   6.728
 5435SOL    HW217205   6.763   4.752   6.781
 5436SOL     OW17206   2.133   4.585   2.160
 5436SOL    HW117207   2.197   4.544   2.224
 5436SOL    HW217208   2.146   4.545   2.069
 5437SOL     OW17209   3.188   6.162   0.900
 5437SOL    HW117210   3.184   6.111   0.986
 5437SOL    HW217211   3.109   6.138   0.844
 5438SOL     OW17212   4.705   6.568   2.288
 5438SOL    HW117213   4.644   6.639   2.250
 5438SOL    HW217214   4.798   6.584   2.255
 5439SOL     OW17215   1.472   3.685   1.369
 5439SOL    HW117216   1.474   3.671   1.468
 5439SOL    HW217217   1.566   3.701   1.337
 5440SOL     OW17218   5.582   6.674   3.985
 5440SOL    HW117219   5.669   6.723   3.978
 5440SOL    HW217220   5.590   6.603   4.055
 5441SOL     OW17221   5.798   2.315   4.686
 5441SOL    HW117222   5.747   2.257   4.623
 5441SOL    HW217223   5.874   2.263   4.726
 5442SOL     OW17224   2.575   0.439   6.816
 5442SOL    HW117225   2.570   0.391   6.729
 5442SOL    HW217226   2.595   0.536   6.801
 5443SOL     OW17227   6.105   0.753   2.840
 5443SOL    HW117228   6.028   0.693   2.862
 5443SOL    HW217229   6.142   0.728   2.750
 5444SOL     OW17230   0.641   1.365   6.328
 5444SOL    HW117231   0.623   1.437   6.395
 5444SOL    HW217232   0.634   1.402   6.236
 5445SOL     OW17233   5.745   6.444   5.384
 5445SOL    HW117234   5.713   6.527   5.429
 5445SOL    HW217235   5.682   6.419   5.311
 5446SOL     OW17236   1.275   4.214   6.379
 5446SOL    HW117237   1.283   4.169   6.290
 5446SOL    HW217238   1.231   4.152   6.444
 5447SOL     OW17239   6.452   2.079   1.790
 5447SOL    HW117240   6.535   2.101   1.840
 5447SOL    HW217241   6.474   2.018   1.714
 5448SOL     OW17242   6.226   5.076   2.062
 5448SOL    HW117243   6.199   5.125   1.979
 5448SOL    HW217244   6.181   4.986   2.063
 5449SOL     OW17245   2.032   0.645   1.599
 5449SOL    HW117246   2.055   0.550   1.579
 5449SOL    HW217247   1.942   0.649   1.644
 5450SOL     OW17248   4.425   5.721   1.239
 5450SOL    HW117249   4.402   5.651   1.171
 5450SOL    HW217250   4.342   5.749   1.288
 5451SOL     OW17251   0.333   6.300   3.947
 5451SOL    HW117252   0.260   6.281   3.882
 5451SOL    HW217253   0.315   6.387   3.993
 5452SOL     OW17254   2.511   4.476   2.567
 5452SOL    HW117255   2.601   4.476   2.523
 5452SOL    HW217256   2.520   4.502   2.663
 5453SOL     OW17257   6.098   4.784   4.154
 5453SOL    HW117258   6.081   4.852   4.083
 5453SOL    HW217259   6.136   4.829   4.235
 5454SOL     OW17260   5.400   4.263   2.523
 5454SOL    HW117261   5.395   4.172   2.565
 5454SOL    HW217262   5.339   4.326   2.573
 5455SOL     OW17263   2.678   1.930   3.560
 5455SOL    HW117264   2.656   1.834   3.544
 5455SOL    HW217265   2.739   1.938   3.638
 5456SOL     OW17266   6.119   2.223   0.355
 5456SOL    HW117267   6.156   2.218   0.263
 5456SOL    HW217268   6.166   2.295   0.406
 5457SOL     OW17269   6.142   1.028   6.842
 5457SOL    HW117270   6.048   1.058   6.857
 5457SOL    HW217271   6.201   1.108   6.831
 5458SOL     OW17272   4.997   4.675   6.414
 5458SOL    HW117273   4.964   4.624   6.493
 5458SOL    HW217274   4.954   4.765   6.411
 5459SOL     OW17275   2.388   2.674   5.141
 5459SOL    HW117276   2.441   2.596   5.109
 5459SOL    HW217277   2.434   2.759   5.112
 5460SOL     OW17278   0.546   0.696   1.100
 5460SOL    HW117279   0.620   0.719   1.036
 5460SOL    HW217280   0.471   0.760   1.089
 5461SOL     OW17281   5.644   1.820   6.294
 5461SOL    HW117282   5.617   1.905   6.249
 5461SOL    HW217283   5.611   1.742   6.241
 5462SOL     OW17284   5.152   5.637   6.078
 5462SOL    HW117285   5.077   5.574   6.061
 5462SOL    HW217286   5.127   5.699   6.153
 5463SOL     OW17287   1.472   4.634   5.799
 5463SOL    HW117288   1.537   4.620   5.724
 5463SOL    HW217289   1.508   4.704   5.861
 5464SOL     OW17290   1.800   5.196   5.088
 5464SOL    HW117291   1.751   5.110   5.096
 5464SOL    HW217292   1.835   5.224   5.177
 5465SOL     OW17293   0.732   0.075   5.377
 5465SOL    HW117294   0.781   0.106   5.458
 5465SOL    HW217295   0.635   0.097   5.386
 5466SOL     OW17296   5.181   1.645   4.978
 5466SOL    HW117297   5.203   1.706   4.902
 5466SOL    HW217298   5.263   1.593   5.003
 5467SOL     OW17299   4.939   3.207   4.322
 5467SOL    HW117300   4.860   3.259   4.287
 5467SOL    HW217301   4.909   3.147   4.396
 5468SOL     OW17302   6.768   2.358   1.301
 5468SOL    HW117303   6.831   2.293   1.260
 5468SOL    HW217304   6.681   2.312   1.320
 5469SOL     OW17305   3.463   1.503   4.438
 5469SOL    HW117306   3.470   1.417   4.388
 5469SOL    HW217307   3.517   1.573   4.390
 5470SOL     OW17308   4.326   5.494   3.854
 5470SOL    HW117309   4.321   5.421   3.921
 5470SOL    HW217310   4.285   5.464   3.768
 5471SOL     OW17311   5.354   0.378   2.392
 5471SOL    HW117312   5.413   0.453   2.423
 5471SOL    HW217313   5.371   0.360   2.295
 5472SOL     OW17314   2.436   3.736   0.489
 5472SOL    HW117315   2.473   3.747   0.582
 5472SOL    HW217316   2.512   3.720   0.425
 5473SOL     OW17317   3.075   4.837   2.214
 5473SOL    HW117318   2.990   4.849   2.163
 5473SOL    HW217319   3.083   4.742   2.244
 5474SOL     OW17320   1.730   4.760   2.020
 5474SOL    HW117321   1.654   4.768   2.085
 5474SOL    HW217322   1.766   4.666   2.023
 5475SOL     OW17323   1.366   1.358   5.122
 5475SOL    HW117324   1.350   1.300   5.202
 5475SOL    HW217325   1.460   1.346   5.090
 5476SOL     OW17326   2.001   0.121   4.847
 5476SOL    HW117327   1.908   0.087   4.831
 5476SOL    HW217328   2.035   0.086   4.934
 5477SOL     OW17329   2.175   3.293   3.643
 5477SOL    HW117330   2.177   3.223   3.715
 5477SOL    HW217331   2.208   3.254   3.558
 5478SOL     OW17332   5.231   4.449   5.406
 5478SOL    HW117333   5.315   4.445   5.460
 5478SOL    HW217334   5.244   4.511   5.329
 5479SOL     OW17335   5.439   2.720   4.333
 5479SOL    HW117336   5.426   2.639   4.275
 5479SOL    HW217337   5.367   2.724   4.402
 5480SOL     OW17338   1.152   3.597   4.300
 5480SOL    HW117339   1.208   3.640   4.371
 5480SOL    HW217340   1.103   3.667   4.248
 5481SOL     OW17341   3.243   1.376   6.486
 5481SOL    HW117342   3.321   1.435   6.502
 5481SOL    HW217343   3.194   1.361   6.572
 5482SOL     OW17344   5.608   3.373   1.790
 5482SOL    HW117345   5.542   3.369   1.714
 5482SOL    HW217346   5.701   3.380   1.753
 5483SOL     OW17347   0.023   3.193   7.004
 5483SOL    HW117348   0.079   3.123   6.960
 5483SOL    HW217349   0.077   3.239   0.048
 5484SOL     OW17350   6.494   0.396   5.150
 5484SOL    HW117351   6.427   0.328   5.182
 5484SOL    HW217352   6.512   0.462   5.223
 5485SOL     OW17353   3.234   0.435   4.928
 5485SOL    HW117354   3.182   0.352   4.945
 5485SOL    HW217355   3.199   0.479   4.844
 5486SOL     OW17356   1.219   0.853   4.047
 5486SOL    HW117357   1.303   0.832   4.097
 5486SOL    HW217358   1.143   0.801   4.085
 5487SOL     OW17359   4.185   5.136   0.883
 5487SOL    HW117360   4.236   5.053   0.861
 5487SOL    HW217361   4.092   5.112   0.911
 5488SOL     OW17362   5.223   1.205   5.972
 5488SOL    HW117363   5.269   1.204   5.884
 5488SOL    HW217364   5.125   1.189   5.960
 5489SOL     OW17365   6.706   3.856   3.398
 5489SOL    HW117366   6.692   3.844   3.300
 5489SOL    HW217367   6.672   3.775   3.446
 5490SOL     OW17368   2.193   2.257   5.804
 5490SOL    HW117369   2.138   2.331   5.765
 5490SOL    HW217370   2.140   2.172   5.802
 5491SOL     OW17371   7.009   6.063   2.016
 5491SOL    HW117372   0.011   6.158   2.029
 5491SOL    HW217373   0.058   6.009   1.981
 5492SOL     OW17374   1.187   1.034   4.951
 5492SOL    HW117375   1.199   1.000   5.044
 5492SOL    HW217376   1.128   1.115   4.952
 5493SOL     OW17377   2.948   2.214   0.388
 5493SOL    HW117378   2.866   2.261   0.421
 5493SOL    HW217379   3.029   2.257   0.427
 5494SOL     OW17380   6.129   3.381   2.404
 5494SOL    HW117381   6.219   3.424   2.413
 5494SOL    HW217382   6.135   3.285   2.432
 5495SOL     OW17383   3.786   2.910   3.447
 5495SOL    HW117384   3.873   2.953   3.421
 5495SOL    HW217385   3.734   2.886   3.365
 5496SOL     OW17386   4.302   5.189   1.860
 5496SOL    HW117387   4.375   5.210   1.924
 5496SOL    HW217388   4.341   5.153   1.775
 5497SOL     OW17389   5.949   0.094   1.121
 5497SOL    HW117390   5.933   0.117   1.217
 5497SOL    HW217391   5.959   0.178   1.067
 5498SOL     OW17392   4.207   0.278   4.856
 5498SOL    HW117393   4.259   0.268   4.772
 5498SOL    HW217394   4.237   0.359   4.905
 5499SOL     OW17395   0.881   1.447   5.453
 5499SOL    HW117396   0.970   1.407   5.474
 5499SOL    HW217397   0.894   1.540   5.419
 5500SOL     OW17398   2.080   5.637   0.787
 5500SOL    HW117399   2.019   5.614   0.863
 5500SOL    HW217400   2.030   5.629   0.701
 5501SOL     OW17401   3.033   0.429   2.762
 5501SOL    HW117402   2.972   0.398   2.689
 5501SOL    HW217403   2.990   0.412   2.851
 5502SOL     OW17404   4.409   3.403   0.775
 5502SOL    HW117405   4.338   3.363   0.717
 5502SOL    HW217406   4.477   3.450   0.718
 5503SOL     OW17407   0.875   6.577   4.526
 5503SOL    HW117408   0.848   6.646   4.593
 5503SOL    HW217409   0.822   6.589   4.442
 5504SOL     OW17410   3.543   2.007   4.401
 5504SOL    HW117411   3.523   1.999   4.304
 5504SOL    HW217412   3.577   1.919   4.436
 5505SOL     OW17413   3.734   4.607   6.729
 5505SOL    HW117414   3.689   4.520   6.748
 5505SOL    HW217415   3.665   4.679   6.721
 5506SOL     OW17416   0.012   6.703   5.526
 5506SOL    HW117417   0.076   6.732   5.454
 5506SOL    HW217418   0.014   6.604   5.535
 5507SOL     OW17419   4.016   5.995   4.696
 5507SOL    HW117420   3.984   5.910   4.654
 5507SOL    HW217421   3.957   6.070   4.667
 5508SOL     OW17422   1.975   0.596   6.230
 5508SOL    HW117423   2.004   0.514   6.179
 5508SOL    HW217424   1.927   0.658   6.168
 5509SOL     OW17425   6.115   6.556   6.873
 5509SOL    HW117426   6.169   6.633   6.908
 5509SOL    HW217427   6.169   6.506   6.805
 5510SOL     OW17428   6.204   0.668   6.130
 5510SOL    HW117429   6.303   0.681   6.124
 5510SOL    HW217430   6.164   0.673   6.039
 5511SOL     OW17431   6.966   2.161   1.222
 5511SOL    HW117432   7.025   2.113   1.157
 5511SOL    HW217433   6.962   2.110   1.308
 5512SOL     OW17434   0.348   0.252   0.879
 5512SOL    HW117435   0.340   0.291   0.787
 5512SOL    HW217436   0.404   0.313   0.936
 5513SOL     OW17437   3.315   5.265   4.968
 5513SOL    HW117438   3.228   5.227   4.938
 5513SOL    HW217439   3.353   5.323   4.896
 5514SOL     OW17440   6.059   5.412   3.921
 5514SOL    HW117441   6.106   5.417   4.009
 5514SOL    HW217442   5.984   5.479   3.920
 5515SOL     OW17443   6.856   3.209   2.811
 5515SOL    HW117444   6.761   3.217   2.841
 5515SOL    HW217445   6.913   3.183   2.889
 5516SOL     OW17446   1.452   3.274   6.675
 5516SOL    HW117447   1.526   3.209   6.660
 5516SOL    HW217448   1.395   3.244   6.751
 5517SOL     OW17449   2.182   1.310   1.742
 5517SOL    HW117450   2.152   1.241   1.808
 5517SOL    HW217451   2.111   1.322   1.672
 5518SOL     OW17452   5.428   5.045   5.222
 5518SOL    HW117453   5.443   4.946   5.219
 5518SOL    HW217454   5.342   5.064   5.269
 5519SOL     OW17455   5.377   3.904   3.567
 5519SOL    HW117456   5.300   3.968   3.568
 5519SOL    HW217457   5.462   3.953   3.583
 5520SOL     OW17458   1.928   3.124   0.716
 5520SOL    HW117459   1.888   3.109   0.625
 5520SOL    HW217460   1.985   3.045   0.740
 5521SOL     OW17461   4.877   5.553   1.155
 5521SOL    HW117462   4.861   5.475   1.215
 5521SOL    HW217463   4.797   5.613   1.157
 5522SOL     OW17464   2.050   3.151   2.291
 5522SOL    HW117465   2.073   3.171   2.196
 5522SOL    HW217466   1.956   3.115   2.295
 5523SOL     OW17467   3.136   0.555   1.693
 5523SOL    HW117468   3.181   0.504   1.767
 5523SOL    HW217469   3.186   0.541   1.608
 5524SOL     OW17470   5.850   6.054   6.107
 5524SOL    HW117471   5.773   5.993   6.088
 5524SOL    HW217472   5.834   6.101   6.194
 5525SOL     OW17473   6.858   6.172   4.296
 5525SOL    HW117474   6.837   6.075   4.285
 5525SOL    HW217475   6.827   6.202   4.386
 5526SOL     OW17476   5.196   3.014   4.758
 5526SOL    HW117477   5.292   3.031   4.780
 5526SOL    HW217478   5.189   2.935   4.698
 5527SOL     OW17479   2.397   3.210   0.702
 5527SOL    HW117480   2.321   3.242   0.759
 5527SOL    HW217481   2.434   3.288   0.651
 5528SOL     OW17482   0.039   3.587   2.951
 5528SOL    HW117483   0.009   3.566   3.044
 5528SOL    HW217484   0.079   3.505   2.910
 5529SOL     OW17485   1.497   1.326   4.684
 5529SOL    HW117486   1.580   1.282   4.650
 5529SOL    HW217487   1.433   1.256   4.716
 5530SOL     OW17488   0.417   3.539   0.392
 5530SOL    HW117489   0.436   3.618   0.450
 5530SOL    HW217490   0.498   3.517   0.337
 5531SOL     OW17491   1.341   2.455   6.438
 5531SOL    HW117492   1.326   2.453   6.339
 5531SOL    HW217493   1.396   2.536   6.461
 5532SOL     OW17494   2.418   2.151   0.855
 5532SOL    HW117495   2.437   2.135   0.952
 5532SOL    HW217496   2.361   2.077   0.820
 5533SOL     OW17497   3.996   0.125   0.844
 5533SOL    HW117498   3.951   0.207   0.880
 5533SOL    HW217499   3.942   0.088   0.769
 5534SOL     OW17500   6.759   4.890   5.151
 5534SOL    HW117501   6.848   4.843   5.154
 5534SOL    HW217502   6.692   4.840   5.205
 5535SOL     OW17503   5.656   3.411   3.598
 5535SOL    HW117504   5.565   3.452   3.598
 5535SOL    HW217505   5.676   3.372   3.688
 5536SOL     OW17506   2.591   0.560   4.345
 5536SOL    HW117507   2.637   0.562   4.434
 5536SOL    HW217508   2.513   0.498   4.349
 5537SOL     OW17509   4.630   1.275   4.859
 5537SOL    HW117510   4.530   1.267   4.863
 5537SOL    HW217511   4.668   1.258   4.950
 5538SOL     OW17512   5.478   2.511   1.268
 5538SOL    HW117513   5.455   2.436   1.205
 5538SOL    HW217514   5.405   2.520   1.337
 5539SOL     OW17515   2.499   6.719   0.608
 5539SOL    HW117516   2.479   6.811   0.640
 5539SOL    HW217517   2.432   6.655   0.645
 5540SOL     OW17518   5.277   0.652   6.857
 5540SOL    HW117519   5.376   0.655   6.871
 5540SOL    HW217520   5.253   0.569   6.806
 5541SOL     OW17521   4.815   3.145   6.865
 5541SOL    HW117522   4.786   3.241   6.865
 5541SOL    HW217523   4.777   3.099   6.785
 5542SOL     OW17524   3.998   4.266   6.988
 5542SOL    HW117525   3.951   4.289   6.903
 5542SOL    HW217526   4.055   4.185   6.973
 5543SOL     OW17527   1.801   0.207   0.275
 5543SOL    HW117528   1.867   0.248   0.338
 5543SOL    HW217529   1.818   0.241   0.182
 5544SOL     OW17530   3.764   5.293   6.666
 5544SOL    HW117531   3.697   5.293   6.740
 5544SOL    HW217532   3.717   5.291   6.578
 5545SOL     OW17533   4.981   0.972   3.241
 5545SOL    HW117534   4.937   1.007   3.158
 5545SOL    HW217535   5.020   0.882   3.223
 5546SOL     OW17536   0.441   5.535   4.554
 5546SOL    HW117537   0.500   5.616   4.553
 5546SOL    HW217538   0.492   5.456   4.586
 5547SOL     OW17539   4.979   1.432   4.905
 5547SOL    HW117540   4.901   1.495   4.898
 5547SOL    HW217541   5.048   1.471   4.966
 5548SOL     OW17542   0.263   4.411   4.387
 5548SOL    HW117543   0.210   4.357   4.321
 5548SOL    HW217544   0.330   4.351   4.432
 5549SOL     OW17545   4.602   3.310   0.362
 5549SOL    HW117546   4.601   3.274   0.269
 5549SOL    HW217547   4.628   3.238   0.426
 5550SOL     OW17548   2.132   4.371   1.316
 5550SOL    HW117549   2.093   4.279   1.322
 5550SOL    HW217550   2.061   4.436   1.291
 5551SOL     OW17551   1.720   5.260   3.360
 5551SOL    HW117552   1.706   5.357   3.341
 5551SOL    HW217553   1.703   5.242   3.457
 5552SOL     OW17554   0.286   6.262   6.711
 5552SOL    HW117555   0.221   6.192   6.680
 5552SOL    HW217556   0.331   6.230   6.795
 5553SOL     OW17557   5.179   0.394   6.808
 5553SOL    HW117558   5.111   0.340   6.759
 5553SOL    HW217559   5.235   0.334   6.865
 5554SOL     OW17560   5.949   1.785   1.547
 5554SOL    HW117561   6.006   1.734   1.483
 5554SOL    HW217562   5.853   1.772   1.523
 5555SOL     OW17563   1.877   4.850   2.884
 5555SOL    HW117564   1.828   4.763   2.890
 5555SOL    HW217565   1.812   4.925   2.875
 5556SOL     OW17566   0.914   0.779   4.512
 5556SOL    HW117567   1.004   0.816   4.534
 5556SOL    HW217568   0.898   0.785   4.413
 5557SOL     OW17569   3.412   5.721   3.526
 5557SOL    HW117570   3.392   5.800   3.468
 5557SOL    HW217571   3.386   5.637   3.479
 5558SOL     OW17572   4.324   4.272   6.745
 5558SOL    HW117573   4.285   4.364   6.749
 5558SOL    HW217574   4.389   4.265   6.670
 5559SOL     OW17575   2.859   0.928   2.630
 5559SOL    HW117576   2.767   0.960   2.606
 5559SOL    HW217577   2.880   0.844   2.580
 5560SOL     OW17578   0.867   5.699   3.445
 5560SOL    HW117579   0.791   5.691   3.380
 5560SOL    HW217580   0.831   5.695   3.538
 5561SOL     OW17581   3.807   6.698   3.373
 5561SOL    HW117582   3.892   6.741   3.404
 5561SOL    HW217583   3.735   6.767   3.368
 5562SOL     OW17584   3.626   3.779   1.155
 5562SOL    HW117585   3.566   3.742   1.084
 5562SOL    HW217586   3.655   3.705   1.216
 5563SOL     OW17587   2.323   4.241   2.598
 5563SOL    HW117588   2.418   4.272   2.588
 5563SOL    HW217589   2.276   4.300   2.664
 5564SOL     OW17590   5.320   1.043   6.143
 5564SOL    HW117591   5.367   0.967   6.099
 5564SOL    HW217592   5.306   1.116   6.076
 5565SOL     OW17593   3.144   1.904   6.271
 5565SOL    HW117594   3.121   1.984   6.215
 5565SOL    HW217595   3.064   1.846   6.280
 5566SOL     OW17596   1.520   3.786   6.939
 5566SOL    HW117597   1.454   3.710   6.942
 5566SOL    HW217598   1.511   3.834   6.852
 5567SOL     OW17599   0.113   4.122   0.907
 5567SOL    HW117600   0.134   4.036   0.953
 5567SOL    HW217601   0.017   4.122   0.880
 5568SOL     OW17602   4.546   5.003   1.860
 5568SOL    HW117603   4.569   5.092   1.899
 5568SOL    HW217604   4.506   5.015   1.769
 5569SOL     OW17605   2.146   2.779   3.308
 5569SOL    HW117606   2.218   2.716   3.277
 5569SOL    HW217607   2.075   2.727   3.356
 5570SOL     OW17608   0.147   3.700   2.736
 5570SOL    HW117609   0.123   3.652   2.821
 5570SOL    HW217610   0.207   3.777   2.757
 5571SOL     OW17611   6.100   4.464   1.847
 5571SOL    HW117612   6.111   4.447   1.749
 5571SOL    HW217613   6.023   4.526   1.862
 5572SOL     OW17614   1.964   4.224   4.471
 5572SOL    HW117615   1.999   4.161   4.401
 5572SOL    HW217616   1.876   4.191   4.505
 5573SOL     OW17617   3.432   5.274   3.918
 5573SOL    HW117618   3.428   5.315   4.009
 5573SOL    HW217619   3.525   5.240   3.901
 5574SOL     OW17620   0.397   2.549   5.792
 5574SOL    HW117621   0.390   2.511   5.700
 5574SOL    HW217622   0.485   2.594   5.803
 5575SOL     OW17623   0.194   6.815   1.874
 5575SOL    HW117624   0.124   6.833   1.943
 5575SOL    HW217625   0.162   6.742   1.813
 5576SOL     OW17626   1.103   4.972   3.399
 5576SOL    HW117627   1.016   4.947   3.443
 5576SOL    HW217628   1.102   5.069   3.377
 5577SOL     OW17629   1.823   2.755   5.647
 5577SOL    HW117630   1.853   2.786   5.557
 5577SOL    HW217631   1.884   2.682   5.679
 5578SOL     OW17632   3.912   3.865   3.885
 5578SOL    HW117633   3.896   3.931   3.811
 5578SOL    HW217634   3.930   3.775   3.847
 5579SOL     OW17635   0.185   3.399   1.905
 5579SOL    HW117636   0.269   3.454   1.913
 5579SOL    HW217637   0.128   3.413   1.986
 5580SOL     OW17638   5.324   1.520   5.387
 5580SOL    HW117639   5.409   1.557   5.350
 5580SOL    HW217640   5.322   1.421   5.373
 5581SOL     OW17641   1.036   2.328   6.789
 5581SOL    HW117642   1.027   2.362   6.695
 5581SOL    HW217643   0.946   2.297   6.821
 5582SOL     OW17644   2.303   2.921   6.485
 5582SOL    HW117645   2.324   2.873   6.570
 5582SOL    HW217646   2.206   2.945   6.483
 5583SOL     OW17647   5.340   0.657   2.110
 5583SOL    HW117648   5.367   0.671   2.015
 5583SOL    HW217649   5.330   0.559   2.128
 5584SOL     OW17650   1.446   3.643   4.679
 5584SOL    HW117651   1.536   3.660   4.719
 5584SOL    HW217652   1.440   3.548   4.649
 5585SOL     OW17653   4.856   4.745   2.303
 5585SOL    HW117654   4.922   4.814   2.332
 5585SOL    HW217655   4.854   4.671   2.371
 5586SOL     OW17656   6.299   3.546   6.779
 5586SOL    HW117657   6.244   3.557   6.862
 5586SOL    HW217658   6.278   3.621   6.715
 5587SOL     OW17659   5.621   0.829   6.131
 5587SOL    HW117660   5.544   0.834   6.067
 5587SOL    HW217661   5.707   0.822   6.079
 5588SOL     OW17662   3.752   6.531   0.988
 5588SOL    HW117663   3.810   6.503   0.911
 5588SOL    HW217664   3.693   6.455   1.015
 5589SOL     OW17665   5.678   4.729   5.719
 5589SOL    HW117666   5.769   4.731   5.680
 5589SOL    HW217667   5.681   4.689   5.811
 5590SOL     OW17668   6.117   6.113   3.826
 5590SOL    HW117669   6.190   6.182   3.826
 5590SOL    HW217670   6.137   6.044   3.895
 5591SOL     OW17671   5.556   1.072   1.674
 5591SOL    HW117672   5.561   0.979   1.711
 5591SOL    HW217673   5.647   1.114   1.677
 5592SOL     OW17674   0.497   3.500   3.249
 5592SOL    HW117675   0.488   3.467   3.155
 5592SOL    HW217676   0.538   3.428   3.306
 5593SOL     OW17677   0.184   3.391   0.152
 5593SOL    HW117678   0.201   3.489   0.166
 5593SOL    HW217679   0.184   3.345   0.240
 5594SOL     OW17680   5.558   2.130   5.707
 5594SOL    HW117681   5.654   2.155   5.697
 5594SOL    HW217682   5.517   2.119   5.617
 5595SOL     OW17683   0.711   2.696   5.539
 5595SOL    HW117684   0.652   2.727   5.614
 5595SOL    HW217685   0.682   2.739   5.454
 5596SOL     OW17686   3.800   6.513   3.122
 5596SOL    HW117687   3.710   6.540   3.088
 5596SOL    HW217688   3.849   6.594   3.154
 5597SOL     OW17689   5.255   3.032   2.699
 5597SOL    HW117690   5.266   3.067   2.792
 5597SOL    HW217691   5.329   3.067   2.642
 5598SOL     OW17692   5.469   1.936   4.743
 5598SOL    HW117693   5.499   2.001   4.674
 5598SOL    HW217694   5.496   1.968   4.834
 5599SOL     OW17695   0.865   0.956   3.875
 5599SOL    HW117696   0.804   0.878   3.865
 5599SOL    HW217697   0.829   1.018   3.945
 5600SOL     OW17698   1.470   1.992   4.439
 5600SOL    HW117699   1.506   2.083   4.422
 5600SOL    HW217700   1.543   1.925   4.432
 5601SOL     OW17701   2.566   0.832   6.002
 5601SOL    HW117702   2.530   0.855   5.911
 5601SOL    HW217703   2.501   0.770   6.048
 5602SOL     OW17704   1.422   1.866   0.126
 5602SOL    HW117705   1.381   1.806   0.057
 5602SOL    HW217706   1.352   1.894   0.191
 5603SOL     OW17707   5.581   3.584   6.384
 5603SOL    HW117708   5.629   3.644   6.448
 5603SOL    HW217709   5.636   3.572   6.302
 5604SOL     OW17710   6.615   1.799   6.184
 5604SOL    HW117711   6.696   1.805   6.125
 5604SOL    HW217712   6.623   1.866   6.258
 5605SOL     OW17713   0.754   2.122   5.126
 5605SOL    HW117714   0.737   2.199   5.065
 5605SOL    HW217715   0.717   2.142   5.217
 5606SOL     OW17716   5.293   0.035   2.141
 5606SOL    HW117717   5.241   0.098   2.084
 5606SOL    HW217718   5.242   6.977   2.153
 5607SOL     OW17719   5.880   0.799   1.705
 5607SOL    HW117720   5.976   0.790   1.730
 5607SOL    HW217721   5.868   0.776   1.608
 5608SOL     OW17722   4.390   6.788   5.177
 5608SOL    HW117723   4.381   6.688   5.176
 5608SOL    HW217724   4.312   6.827   5.227
 5609SOL     OW17725   2.248   5.797   5.713
 5609SOL    HW117726   2.313   5.734   5.755
 5609SOL    HW217727   2.198   5.846   5.783
 5610SOL     OW17728   4.928   0.313   6.679
 5610SOL    HW117729   4.967   0.362   6.601
 5610SOL    HW217730   4.844   0.358   6.709
 5611SOL     OW17731   1.587   4.717   2.833
 5611SOL    HW117732   1.588   4.624   2.870
 5611SOL    HW217733   1.525   4.721   2.755
 5612SOL     OW17734   2.486   0.584   5.862
 5612SOL    HW117735   2.522   0.501   5.819
 5612SOL    HW217736   2.471   0.568   5.959
 5613SOL     OW17737   3.848   4.907   1.605
 5613SOL    HW117738   3.819   5.002   1.613
 5613SOL    HW217739   3.933   4.893   1.657
 5614SOL     OW17740   4.063   2.159   3.476
 5614SOL    HW117741   4.079   2.167   3.377
 5614SOL    HW217742   4.117   2.082   3.511
 5615SOL     OW17743   0.829   1.384   1.163
 5615SOL    HW117744   0.894   1.418   1.095
 5615SOL    HW217745   0.738   1.382   1.122
 5616SOL     OW17746   2.891   0.543   4.745
 5616SOL    HW117747   2.978   0.589   4.727
 5616SOL    HW217748   2.907   0.446   4.761
 5617SOL     OW17749   1.547   1.039   5.234
 5617SOL    HW117750   1.519   0.967   5.297
 5617SOL    HW217751   1.632   1.081   5.267
 5618SOL     OW17752   6.582   4.396   2.988
 5618SOL    HW117753   6.636   4.331   3.042
 5618SOL    HW217754   6.537   4.461   3.049
 5619SOL     OW17755   2.180   3.471   5.105
 5619SOL    HW117756   2.158   3.553   5.053
 5619SOL    HW217757   2.199   3.395   5.043
 5620SOL     OW17758   3.829   2.100   6.401
 5620SOL    HW117759   3.744   2.131   6.359
 5620SOL    HW217760   3.813   2.013   6.448
 5621SOL     OW17761   2.020   2.603   6.103
 5621SOL    HW117762   1.939   2.654   6.132
 5621SOL    HW217763   2.044   2.536   6.173
 5622SOL     OW17764   6.094   0.695   5.862
 5622SOL    HW117765   6.110   0.794   5.866
 5622SOL    HW217766   6.132   0.659   5.777
 5623SOL     OW17767   0.540   5.986   0.279
 5623SOL    HW117768   0.596   5.955   0.202
 5623SOL    HW217769   0.443   5.976   0.255
 5624SOL     OW17770   1.214   3.979   3.124
 5624SOL    HW117771   1.187   3.916   3.052
 5624SOL    HW217772   1.170   3.954   3.210
 5625SOL     OW17773   6.612   2.340   5.634
 5625SOL    HW117774   6.711   2.332   5.647
 5625SOL    HW217775   6.593   2.380   5.544
 5626SOL     OW17776   4.192   0.389   4.204
 5626SOL    HW117777   4.199   0.308   4.145
 5626SOL    HW217778   4.105   0.386   4.254
 5627SOL     OW17779   0.810   6.006   0.387
 5627SOL    HW117780   0.817   5.973   0.292
 5627SOL    HW217781   0.742   5.952   0.436
 5628SOL     OW17782   1.609   0.680   4.361
 5628SOL    HW117783   1.531   0.638   4.315
 5628SOL    HW217784   1.604   0.779   4.352
 5629SOL     OW17785   3.615   3.609   2.842
 5629SOL    HW117786   3.661   3.571   2.922
 5629SOL    HW217787   3.667   3.687   2.807
 5630SOL     OW17788   0.093   4.419   1.850
 5630SOL    HW117789   0.025   4.380   1.787
 5630SOL    HW217790   0.153   4.481   1.800
 5631SOL     OW17791   4.877   0.682   0.201
 5631SOL    HW117792   4.801   0.642   0.150
 5631SOL    HW217793   4.962   0.672   0.149
 5632SOL     OW17794   3.707   3.639   0.241
 5632SOL    HW117795   3.766   3.718   0.262
 5632SOL    HW217796   3.665   3.652   0.151
 5633SOL     OW17797   6.163   2.728   4.654
 5633SOL    HW117798   6.168   2.750   4.556
 5633SOL    HW217799   6.112   2.642   4.666
 5634SOL     OW17800   4.274   6.136   4.624
 5634SOL    HW117801   4.346   6.068   4.635
 5634SOL    HW217802   4.186   6.089   4.617
 5635SOL     OW17803   3.335   2.112   5.146
 5635SOL    HW117804   3.265   2.156   5.089
 5635SOL    HW217805   3.296   2.031   5.189
 5636SOL     OW17806   3.429   6.034   3.964
 5636SOL    HW117807   3.392   5.962   4.022
 5636SOL    HW217808   3.385   6.029   3.874
 5637SOL     OW17809   5.725   0.192   3.482
 5637SOL    HW117810   5.693   0.099   3.466
 5637SOL    HW217811   5.673   0.233   3.557
 5638SOL     OW17812   5.057   3.635   6.162
 5638SOL    HW117813   5.038   3.547   6.206
 5638SOL    HW217814   5.155   3.644   6.146
 5639SOL     OW17815   2.838   0.708   6.128
 5639SOL    HW117816   2.839   0.784   6.193
 5639SOL    HW217817   2.819   0.743   6.036
 5640SOL     OW17818   2.713   0.064   3.766
 5640SOL    HW117819   2.652   7.012   3.769
 5640SOL    HW217820   2.709   0.104   3.674
 5641SOL     OW17821   5.810   5.502   4.730
 5641SOL    HW117822   5.755   5.443   4.789
 5641SOL    HW217823   5.749   5.551   4.667
 5642SOL     OW17824   1.529   1.945   6.613
 5642SOL    HW117825   1.441   1.940   6.660
 5642SOL    HW217826   1.515   1.976   6.519
 5643SOL     OW17827   5.907   2.248   5.104
 5643SOL    HW117828   5.865   2.189   5.173
 5643SOL    HW217829   5.837   2.287   5.045
 5644SOL     OW17830   2.795   0.166   5.885
 5644SOL    HW117831   2.848   0.210   5.958
 5644SOL    HW217832   2.843   0.085   5.852
 5645SOL     OW17833   4.862   3.107   4.568
 5645SOL    HW117834   4.869   3.186   4.629
 5645SOL    HW217835   4.876   3.023   4.620
 5646SOL     OW17836   1.781   4.174   2.451
 5646SOL    HW117837   1.803   4.258   2.402
 5646SOL    HW217838   1.687   4.177   2.484
 5647SOL     OW17839   6.786   6.017   2.720
 5647SOL    HW117840   6.882   5.991   2.726
 5647SOL    HW217841   6.748   5.984   2.633
 5648SOL     OW17842   4.702   6.514   3.333
 5648SOL    HW117843   4.701   6.576   3.411
 5648SOL    HW217844   4.697   6.420   3.365
 5649SOL     OW17845   0.933   6.225   4.227
 5649SOL    HW117846   0.845   6.187   4.198
 5649SOL    HW217847   0.997   6.150   4.246
 5650SOL     OW17848   6.408   4.581   6.917
 5650SOL    HW117849   6.429   4.606   7.011
 5650SOL    HW217850   6.466   4.505   6.888
 5651SOL     OW17851   2.181   0.888   1.618
 5651SOL    HW117852   2.143   0.799   1.593
 5651SOL    HW217853   2.161   0.955   1.547
 5652SOL     OW17854   0.984   5.723   1.523
 5652SOL    HW117855   1.012   5.719   1.427
 5652SOL    HW217856   0.915   5.795   1.534
 5653SOL     OW17857   0.006   0.244   1.780
 5653SOL    HW117858   0.001   0.344   1.785
 5653SOL    HW217859   0.101   0.215   1.788
 5654SOL     OW17860   3.194   5.264   4.385
 5654SOL    HW117861   3.100   5.298   4.382
 5654SOL    HW217862   3.253   5.332   4.430
 5655SOL     OW17863   6.251   2.479   5.205
 5655SOL    HW117864   6.343   2.489   5.243
 5655SOL    HW217865   6.206   2.399   5.245
 5656SOL     OW17866   6.579   3.787   0.069
 5656SOL    HW117867   6.554   3.803   7.001
 5656SOL    HW217868   6.528   3.849   0.128
 5657SOL     OW17869   5.404   5.666   5.286
 5657SOL    HW117870   5.421   5.577   5.244
 5657SOL    HW217871   5.318   5.662   5.337
 5658SOL     OW17872   2.446   2.837   6.277
 5658SOL    HW117873   2.545   2.853   6.286
 5658SOL    HW217874   2.399   2.872   6.358
 5659SOL     OW17875   3.168   3.628   6.623
 5659SOL    HW117876   3.213   3.561   6.565
 5659SOL    HW217877   3.083   3.590   6.659
 5660SOL     OW17878   4.663   0.287   6.459
 5660SOL    HW117879   4.640   0.222   6.531
 5660SOL    HW217880   4.715   0.363   6.497
 5661SOL     OW17881   1.202   4.986   5.772
 5661SOL    HW117882   1.105   5.007   5.787
 5661SOL    HW217883   1.250   4.988   5.860
 5662SOL     OW17884   2.750   6.503   1.179
 5662SOL    HW117885   2.842   6.478   1.146
 5662SOL    HW217886   2.701   6.552   1.107
 5663SOL     OW17887   1.271   3.075   6.379
 5663SOL    HW117888   1.276   3.175   6.386
 5663SOL    HW217889   1.363   3.037   6.385
 5664SOL     OW17890   4.509   4.840   4.572
 5664SOL    HW117891   4.412   4.838   4.550
 5664SOL    HW217892   4.561   4.802   4.495
 5665SOL     OW17893   1.302   1.800   0.857
 5665SOL    HW117894   1.211   1.767   0.881
 5665SOL    HW217895   1.316   1.892   0.894
 5666SOL     OW17896   5.645   1.697   4.742
 5666SOL    HW117897   5.566   1.757   4.727
 5666SOL    HW217898   5.638   1.618   4.680
 5667SOL     OW17899   2.126   4.859   4.593
 5667SOL    HW117900   2.163   4.770   4.621
 5667SOL    HW217901   2.198   4.912   4.548
 5668SOL     OW17902   4.857   4.245   3.977
 5668SOL    HW117903   4.784   4.313   3.973
 5668SOL    HW217904   4.939   4.280   3.933
 5669SOL     OW17905   6.000   4.038   5.642
 5669SOL    HW117906   5.984   3.939   5.631
 5669SOL    HW217907   5.915   4.083   5.669
 5670SOL     OW17908   1.024   2.089   3.213
 5670SOL    HW117909   0.961   2.065   3.287
 5670SOL    HW217910   1.117   2.100   3.250
 5671SOL     OW17911   0.483   6.537   3.491
 5671SOL    HW117912   0.406   6.560   3.432
 5671SOL    HW217913   0.449   6.493   3.574
 5672SOL     OW17914   5.246   2.790   4.612
 5672SOL    HW117915   5.193   2.725   4.557
 5672SOL    HW217916   5.336   2.752   4.632
 5673SOL     OW17917   0.676   1.498   0.527
 5673SOL    HW117918   0.613   1.538   0.593
 5673SOL    HW217919   0.761   1.474   0.572
 5674SOL     OW17920   2.383   4.763   4.838
 5674SOL    HW117921   2.463   4.708   4.865
 5674SOL    HW217922   2.405   4.816   4.756
 5675SOL     OW17923   2.727   1.707   0.812
 5675SOL    HW117924   2.752   1.753   0.727
 5675SOL    HW217925   2.810   1.680   0.861
 5676SOL     OW17926   2.242   1.371   2.175
 5676SOL    HW117927   2.161   1.314   2.165
 5676SOL    HW217928   2.298   1.337   2.251
 5677SOL     OW17929   6.519   1.462   0.434
 5677SOL    HW117930   6.555   1.370   0.451
 5677SOL    HW217931   6.488   1.502   0.520
 5678SOL     OW17932   3.132   1.867   2.188
 5678SOL    HW117933   3.104   1.948   2.136
 5678SOL    HW217934   3.129   1.787   2.128
 5679SOL     OW17935   6.266   3.577   4.943
 5679SOL    HW117936   6.198   3.648   4.928
 5679SOL    HW217937   6.308   3.589   5.033
 5680SOL     OW17938   1.039   6.238   5.147
 5680SOL    HW117939   1.069   6.307   5.213
 5680SOL    HW217940   1.061   6.268   5.055
 5681SOL     OW17941   1.103   3.423   4.110
 5681SOL    HW117942   1.065   3.465   4.028
 5681SOL    HW217943   1.105   3.489   4.184
 5682SOL     OW17944   2.305   4.582   1.797
 5682SOL    HW117945   2.375   4.653   1.806
 5682SOL    HW217946   2.349   4.492   1.802
 5683SOL     OW17947   6.504   1.061   6.120
 5683SOL    HW117948   6.577   1.099   6.176
 5683SOL    HW217949   6.525   1.076   6.023
 5684SOL     OW17950   2.138   2.405   4.956
 5684SOL    HW117951   2.150   2.313   4.919
 5684SOL    HW217952   2.131   2.400   5.056
 5685SOL     OW17953   2.478   2.068   2.309
 5685SOL    HW117954   2.529   1.985   2.285
 5685SOL    HW217955   2.522   2.147   2.268
 5686SOL     OW17956   4.257   5.499   6.095
 5686SOL    HW117957   4.223   5.409   6.122
 5686SOL    HW217958   4.307   5.541   6.171
 5687SOL     OW17959   2.110   6.486   6.464
 5687SOL    HW117960   2.197   6.520   6.430
 5687SOL    HW217961   2.089   6.528   6.553
 5688SOL     OW17962   1.601   2.170   2.914
 5688SOL    HW117963   1.681   2.143   2.861
 5688SOL    HW217964   1.518   2.144   2.866
 5689SOL     OW17965   0.227   2.633   1.828
 5689SOL    HW117966   0.158   2.574   1.785
 5689SOL    HW217967   0.185   2.721   1.852
 5690SOL     OW17968   1.656   5.206   6.804
 5690SOL    HW117969   1.719   5.233   6.731
 5690SOL    HW217970   1.618   5.288   6.848
 5691SOL     OW17971   3.504   1.395   3.192
 5691SOL    HW117972   3.587   1.426   3.238
 5691SOL    HW217973   3.521   1.385   3.094
 5692SOL     OW17974   4.933   5.052   1.841
 5692SOL    HW117975   4.974   5.142   1.856
 5692SOL    HW217976   4.898   5.016   1.928
 5693SOL     OW17977   4.437   1.017   1.159
 5693SOL    HW117978   4.363   1.078   1.133
 5693SOL    HW217979   4.464   0.961   1.080
 5694SOL     OW17980   0.982   6.784   1.820
 5694SOL    HW117981   1.039   6.843   1.763
 5694SOL    HW217982   1.030   6.697   1.836
 5695SOL     OW17983   2.667   0.406   1.644
 5695SOL    HW117984   2.656   0.492   1.595
 5695SOL    HW217985   2.588   0.392   1.705
 5696SOL     OW17986   1.744   0.292   4.129
 5696SOL    HW117987   1.645   0.282   4.141
 5696SOL    HW217988   1.788   0.204   4.144
 5697SOL     OW17989   6.401   3.187   1.020
 5697SOL    HW117990   6.401   3.284   1.046
 5697SOL    HW217991   6.318   3.166   0.969
 5698SOL     OW17992   3.199   2.187   4.187
 5698SOL    HW117993   3.143   2.248   4.130
 5698SOL    HW217994   3.164   2.189   4.281
 5699SOL     OW17995   1.863   2.929   2.473
 5699SOL    HW117996   1.856   2.947   2.375
 5699SOL    HW217997   1.855   3.015   2.524
 5700SOL     OW17998   6.411   0.316   3.291
 5700SOL    HW117999   6.420   0.224   3.329
 5700SOL    HW218000   6.489   0.335   3.232
 5701SOL     OW18001   0.183   0.404   1.130
 5701SOL    HW118002   0.262   0.415   1.071
 5701SOL    HW218003   0.199   0.451   1.217
 5702SOL     OW18004   2.371   6.810   4.902
 5702SOL    HW118005   2.436   6.837   4.974
 5702SOL    HW218006   2.331   6.892   4.861
 5703SOL     OW18007   0.209   3.166   6.333
 5703SOL    HW118008   0.235   3.079   6.375
 5703SOL    HW218009   0.172   3.227   6.403
 5704SOL     OW18010   4.306   5.663   4.345
 5704SOL    HW118011   4.307   5.592   4.274
 5704SOL    HW218012   4.321   5.752   4.303
 5705SOL     OW18013   6.182   0.184   5.680
 5705SOL    HW118014   6.224   0.239   5.751
 5705SOL    HW218015   6.102   0.230   5.644
 5706SOL     OW18016   4.962   2.002   0.012
 5706SOL    HW118017   5.035   1.966   0.069
 5706SOL    HW218018   4.919   1.928   6.988
 5707SOL     OW18019   5.228   5.525   1.812
 5707SOL    HW118020   5.200   5.615   1.845
 5707SOL    HW218021   5.233   5.526   1.712
 5708SOL     OW18022   4.805   6.183   2.403
 5708SOL    HW118023   4.725   6.210   2.348
 5708SOL    HW218024   4.828   6.256   2.467
 5709SOL     OW18025   0.333   2.434   2.611
 5709SOL    HW118026   0.247   2.458   2.655
 5709SOL    HW218027   0.317   2.360   2.546
 5710SOL     OW18028   3.430   2.334   0.990
 5710SOL    HW118029   3.526   2.356   1.006
 5710SOL    HW218030   3.399   2.270   1.061
 5711SOL     OW18031   5.406   1.753   2.872
 5711SOL    HW118032   5.471   1.796   2.934
 5711SOL    HW218033   5.324   1.810   2.865
 5712SOL     OW18034   6.219   0.489   1.066
 5712SOL    HW118035   6.220   0.428   1.146
 5712SOL    HW218036   6.193   0.581   1.096
 5713SOL     OW18037   2.526   1.013   0.723
 5713SOL    HW118038   2.621   1.042   0.735
 5713SOL    HW218039   2.494   1.042   0.633
 5714SOL     OW18040   6.151   0.258   0.731
 5714SOL    HW118041   6.102   0.281   0.648
 5714SOL    HW218042   6.222   0.326   0.749
 5715SOL     OW18043   0.290   0.169   1.805
 5715SOL    HW118044   0.330   0.101   1.866
 5715SOL    HW218045   0.357   0.241   1.787
 5716SOL     OW18046   6.230   4.437   4.881
 5716SOL    HW118047   6.164   4.400   4.815
 5716SOL    HW218048   6.313   4.381   4.880
 5717SOL     OW18049   1.759   5.017   3.210
 5717SOL    HW118050   1.756   5.092   3.276
 5717SOL    HW218051   1.681   5.025   3.147
 5718SOL     OW18052   1.139   3.084   0.064
 5718SOL    HW118053   1.040   3.094   0.074
 5718SOL    HW218054   1.184   3.120   0.146
 5719SOL     OW18055   2.059   3.482   0.985
 5719SOL    HW118056   2.039   3.398   1.035
 5719SOL    HW218057   1.982   3.506   0.926
 5720SOL     OW18058   2.616   5.014   5.778
 5720SOL    HW118059   2.589   4.928   5.822
 5720SOL    HW218060   2.620   5.087   5.847
 5721SOL     OW18061   1.854   3.229   6.999
 5721SOL    HW118062   1.899   3.174   0.042
 5721SOL    HW218063   1.912   3.232   6.918
 5722SOL     OW18064   1.393   0.609   6.810
 5722SOL    HW118065   1.429   0.701   6.796
 5722SOL    HW218066   1.460   0.554   6.860
 5723SOL     OW18067   3.897   3.077   0.758
 5723SOL    HW118068   3.906   3.048   0.854
 5723SOL    HW218069   3.988   3.098   0.722
 5724SOL     OW18070   5.318   1.823   5.456
 5724SOL    HW118071   5.237   1.880   5.452
 5724SOL    HW218072   5.291   1.726   5.457
 5725SOL     OW18073   0.191   4.499   4.662
 5725SOL    HW118074   0.186   4.467   4.568
 5725SOL    HW218075   0.231   4.427   4.719
 5726SOL     OW18076   5.918   4.165   2.643
 5726SOL    HW118077   5.873   4.205   2.563
 5726SOL    HW218078   5.849   4.145   2.713
 5727SOL     OW18079   0.504   1.888   5.340
 5727SOL    HW118080   0.599   1.905   5.369
 5727SOL    HW218081   0.455   1.840   5.413
 5728SOL     OW18082   4.984   6.772   5.157
 5728SOL    HW118083   4.909   6.728   5.206
 5728SOL    HW218084   5.023   6.706   5.092
 5729SOL     OW18085   2.602   2.125   4.398
 5729SOL    HW118086   2.516   2.174   4.379
 5729SOL    HW218087   2.580   2.032   4.429
 5730SOL     OW18088   0.264   4.279   4.840
 5730SOL    HW118089   0.260   4.310   4.935
 5730SOL    HW218090   0.222   4.188   4.833
 5731SOL     OW18091   1.252   6.924   2.684
 5731SOL    HW118092   1.272   6.965   2.772
 5731SOL    HW218093   1.243   6.995   2.614
 5732SOL     OW18094   0.422   0.023   3.184
 5732SOL    HW118095   0.344   0.064   3.136
 5732SOL    HW218096   0.507   0.053   3.141
 5733SOL     OW18097   3.091   6.892   5.731
 5733SOL    HW118098   3.090   6.986   5.697
 5733SOL    HW218099   3.020   6.882   5.801
 5734SOL     OW18100   1.742   6.411   3.711
 5734SOL    HW118101   1.838   6.435   3.726
 5734SOL    HW218102   1.733   6.311   3.711
 5735SOL     OW18103   3.195   1.158   1.903
 5735SOL    HW118104   3.174   1.188   1.810
 5735SOL    HW218105   3.115   1.174   1.962
 5736SOL     OW18106   1.420   5.420   6.595
 5736SOL    HW118107   1.426   5.430   6.695
 5736SOL    HW218108   1.445   5.327   6.569
 5737SOL     OW18109   5.571   4.576   0.793
 5737SOL    HW118110   5.586   4.589   0.695
 5737SOL    HW218111   5.605   4.656   0.842
 5738SOL     OW18112   1.235   4.064   6.097
 5738SOL    HW118113   1.263   4.027   6.009
 5738SOL    HW218114   1.141   4.098   6.090
 5739SOL     OW18115   1.180   1.716   1.580
 5739SOL    HW118116   1.202   1.638   1.522
 5739SOL    HW218117   1.166   1.685   1.674
 5740SOL     OW18118   3.809   5.944   6.574
 5740SOL    HW118119   3.828   6.007   6.650
 5740SOL    HW218120   3.868   5.864   6.582
 5741SOL     OW18121   6.914   4.555   2.773
 5741SOL    HW118122   6.885   4.503   2.692
 5741SOL    HW218123   6.873   4.646   2.770
 5742SOL     OW18124   6.783   6.315   4.556
 5742SOL    HW118125   6.805   6.354   4.645
 5742SOL    HW218126   6.740   6.385   4.499
 5743SOL     OW18127   1.830   6.349   4.053
 5743SOL    HW118128   1.813   6.252   4.034
 5743SOL    HW218129   1.743   6.396   4.068
 5744SOL     OW18130   5.606   6.965   2.025
 5744SOL    HW118131   5.647   6.880   2.057
 5744SOL    HW218132   5.541   6.946   1.952
 5745SOL     OW18133   1.513   2.188   3.669
 5745SOL    HW118134   1.457   2.235   3.737
 5745SOL    HW218135   1.603   2.167   3.709
 5746SOL     OW18136   6.408   5.054   6.761
 5746SOL    HW118137   6.369   5.118   6.827
 5746SOL    HW218138   6.352   4.972   6.756
 5747SOL     OW18139   0.594   6.250   2.528
 5747SOL    HW118140   0.548   6.298   2.603
 5747SOL    HW218141   0.691   6.274   2.527
 5748SOL     OW18142   2.340   6.437   3.410
 5748SOL    HW118143   2.315   6.358   3.467
 5748SOL    HW218144   2.347   6.407   3.315
 5749SOL     OW18145   2.639   1.305   2.813
 5749SOL    HW118146   2.584   1.372   2.763
 5749SOL    HW218147   2.629   1.321   2.912
 5750SOL     OW18148   6.200   5.630   2.385
 5750SOL    HW118149   6.226   5.584   2.469
 5750SOL    HW218150   6.124   5.581   2.342
 5751SOL     OW18151   1.083   2.687   6.199
 5751SOL    HW118152   1.148   2.709   6.127
 5751SOL    HW218153   1.089   2.756   6.271
 5752SOL     OW18154   0.314   1.483   0.088
 5752SOL    HW118155   0.346   1.576   0.098
 5752SOL    HW218156   0.224   1.473   0.132
 5753SOL     OW18157   4.491   2.052   0.784
 5753SOL    HW118158   4.418   2.003   0.829
 5753SOL    HW218159   4.476   2.051   0.685
 5754SOL     OW18160   6.665   5.071   1.013
 5754SOL    HW118161   6.593   5.026   1.066
 5754SOL    HW218162   6.623   5.127   0.941
 5755SOL     OW18163   3.128   3.470   1.302
 5755SOL    HW118164   3.029   3.454   1.299
 5755SOL    HW218165   3.176   3.382   1.300
 5756SOL     OW18166   6.860   6.802   4.645
 5756SOL    HW118167   6.890   6.797   4.740
 5756SOL    HW218168   6.903   6.728   4.593
 5757SOL     OW18169   0.059   6.483   2.075
 5757SOL    HW118170   0.158   6.484   2.061
 5757SOL    HW218171   0.016   6.428   2.003
 5758SOL     OW18172   1.837   1.088   5.924
 5758SOL    HW118173   1.744   1.113   5.952
 5758SOL    HW218174   1.881   1.035   5.996
 5759SOL     OW18175   6.396   1.684   5.666
 5759SOL    HW118176   6.302   1.720   5.663
 5759SOL    HW218177   6.396   1.596   5.712
 5760SOL     OW18178   1.230   5.219   1.823
 5760SOL    HW118179   1.177   5.177   1.750
 5760SOL    HW218180   1.185   5.205   1.911
 5761SOL     OW18181   5.557   0.956   4.678
 5761SOL    HW118182   5.583   0.950   4.774
 5761SOL    HW218183   5.639   0.961   4.622
 5762SOL     OW18184   5.604   6.188   1.665
 5762SOL    HW118185   5.548   6.113   1.700
 5762SOL    HW218186   5.615   6.257   1.736
 5763SOL     OW18187   0.824   1.624   1.400
 5763SOL    HW118188   0.920   1.650   1.411
 5763SOL    HW218189   0.815   1.561   1.322
 5764SOL     OW18190   4.374   3.274   5.940
 5764SOL    HW118191   4.395   3.372   5.935
 5764SOL    HW218192   4.442   3.229   5.997
 5765SOL     OW18193   6.340   5.255   0.451
 5765SOL    HW118194   6.357   5.179   0.513
 5765SOL    HW218195   6.428   5.289   0.416
 5766SOL     OW18196   3.102   1.083   3.510
 5766SOL    HW118197   3.183   1.139   3.497
 5766SOL    HW218198   3.113   1.027   3.592
 5767SOL     OW18199   6.305   0.486   0.817
 5767SOL    HW118200   6.396   0.527   0.811
 5767SOL    HW218201   6.279   0.477   0.913
 5768SOL     OW18202   6.146   0.817   2.015
 5768SOL    HW118203   6.205   0.890   1.980
 5768SOL    HW218204   6.106   0.846   2.102
 5769SOL     OW18205   1.996   5.652   3.474
 5769SOL    HW118206   1.951   5.658   3.563
 5769SOL    HW218207   2.085   5.696   3.478
 5770SOL     OW18208   5.784   1.413   1.589
 5770SOL    HW118209   5.875   1.451   1.599
 5770SOL    HW218210   5.750   1.432   1.496
 5771SOL     OW18211   0.519   1.063   1.708
 5771SOL    HW118212   0.618   1.053   1.708
 5771SOL    HW218213   0.494   1.145   1.656
 5772SOL     OW18214   7.008   4.302   6.495
 5772SOL    HW118215   6.982   4.240   6.569
 5772SOL    HW218216   6.968   4.392   6.511
 5773SOL     OW18217   5.248   5.993   4.696
 5773SOL    HW118218   5.247   6.060   4.769
 5773SOL    HW218219   5.155   5.962   4.676
 5774SOL     OW18220   3.007   4.877   2.927
 5774SOL    HW118221   3.002   4.845   3.021
 5774SOL    HW218222   2.959   4.965   2.919
 5775SOL     OW18223   0.729   0.704   0.455
 5775SOL    HW118224   0.799   0.719   0.386
 5775SOL    HW218225   0.682   0.618   0.437
 5776SOL     OW18226   4.565   1.164   5.891
 5776SOL    HW118227   4.548   1.154   5.793
 5776SOL    HW218228   4.570   1.074   5.933
 5777SOL     OW18229   5.373   0.959   5.775
 5777SOL    HW118230   5.430   0.924   5.701
 5777SOL    HW218231   5.329   1.044   5.746
 5778SOL     OW18232   2.750   6.658   3.802
 5778SOL    HW118233   2.708   6.742   3.836
 5778SOL    HW218234   2.837   6.642   3.848
 5779SOL     OW18235   4.398   0.364   1.141
 5779SOL    HW118236   4.458   0.293   1.105
 5779SOL    HW218237   4.453   0.432   1.191
 5780SOL     OW18238   5.988   3.429   0.912
 5780SOL    HW118239   6.027   3.364   0.977
 5780SOL    HW218240   5.903   3.467   0.949
 5781SOL     OW18241   3.142   4.659   5.286
 5781SOL    HW118242   3.058   4.620   5.248
 5781SOL    HW218243   3.214   4.590   5.284
 5782SOL     OW18244   4.092   1.954   3.037
 5782SOL    HW118245   4.048   2.030   3.083
 5782SOL    HW218246   4.064   1.868   3.079
 5783SOL     OW18247   2.459   6.859   1.712
 5783SOL    HW118248   2.372   6.853   1.761
 5783SOL    HW218249   2.447   6.821   1.620
 5784SOL     OW18250   1.250   5.768   0.034
 5784SOL    HW118251   1.227   5.677   0.002
 5784SOL    HW218252   1.262   5.767   0.134
 5785SOL     OW18253   2.230   1.411   6.980
 5785SOL    HW118254   2.325   1.389   7.003
 5785SOL    HW218255   2.227   1.498   6.930
 5786SOL     OW18256   0.539   2.802   6.226
 5786SOL    HW118257   0.623   2.799   6.172
 5786SOL    HW218258   0.557   2.842   6.315
 5787SOL     OW18259   6.918   3.101   5.642
 5787SOL    HW118260   6.870   3.041   5.578
 5787SOL    HW218261   6.913   3.063   5.734
 5788SOL     OW18262   1.331   2.546   2.128
 5788SOL    HW118263   1.242   2.531   2.085
 5788SOL    HW218264   1.403   2.539   2.059
 5789SOL     OW18265   2.955   4.862   6.559
 5789SOL    HW118266   2.888   4.794   6.589
 5789SOL    HW218267   3.008   4.894   6.638
 5790SOL     OW18268   6.731   6.373   2.900
 5790SOL    HW118269   6.798   6.446   2.915
 5790SOL    HW218270   6.698   6.378   2.806
 5791SOL     OW18271   4.153   1.124   1.119
 5791SOL    HW118272   4.103   1.043   1.150
 5791SOL    HW218273   4.099   1.206   1.139
 5792SOL     OW18274   4.367   1.902   2.618
 5792SOL    HW118275   4.307   1.845   2.561
 5792SOL    HW218276   4.361   1.871   2.713
 5793SOL     OW18277   3.650   2.089   0.225
 5793SOL    HW118278   3.578   2.089   0.295
 5793SOL    HW218279   3.633   2.014   0.161
 5794SOL     OW18280   3.420   5.965   6.929
 5794SOL    HW118281   3.487   6.031   6.964
 5794SOL    HW218282   3.455   5.872   6.941
 5795SOL     OW18283   1.134   6.911   1.649
 5795SOL    HW118284   1.146   7.002   1.609
 5795SOL    HW218285   1.218   6.884   1.696
 5796SOL     OW18286   4.733   0.888   6.693
 5796SOL    HW118287   4.809   0.880   6.758
 5796SOL    HW218288   4.756   0.842   6.608
 5797SOL     OW18289   0.115   2.744   0.116
 5797SOL    HW118290   0.120   2.679   0.192
 5797SOL    HW218291   0.045   2.812   0.135
 5798SOL     OW18292   1.590   3.079   3.988
 5798SOL    HW118293   1.532   3.049   3.912
 5798SOL    HW218294   1.686   3.072   3.961
 5799SOL     OW18295   2.730   0.158   3.494
 5799SOL    HW118296   2.763   0.243   3.452
 5799SOL    HW218297   2.797   0.085   3.480
 5800SOL     OW18298   1.374   6.900   2.228
 5800SOL    HW118299   1.367   6.800   2.224
 5800SOL    HW218300   1.467   6.928   2.205
 5801SOL     OW18301   1.860   1.249   3.006
 5801SOL    HW118302   1.814   1.178   2.954
 5801SOL    HW218303   1.900   1.210   3.089
 5802SOL     OW18304   1.044   6.893   2.926
 5802SOL    HW118305   1.067   6.917   3.020
 5802SOL    HW218306   1.109   6.937   2.864
 5803SOL     OW18307   0.444   6.270   4.737
 5803SOL    HW118308   0.526   6.215   4.721
 5803SOL    HW218309   0.371   6.240   4.676
 5804SOL     OW18310   6.513   2.184   3.145
 5804SOL    HW118311   6.505   2.252   3.218
 5804SOL    HW218312   6.610   2.167   3.125
 5805SOL     OW18313   1.291   2.420   1.512
 5805SOL    HW118314   1.306   2.498   1.572
 5805SOL    HW218315   1.256   2.343   1.565
 5806SOL     OW18316   6.570   3.899   2.368
 5806SOL    HW118317   6.513   3.982   2.370
 5806SOL    HW218318   6.549   3.843   2.447
 5807SOL     OW18319   1.177   1.150   2.284
 5807SOL    HW118320   1.127   1.148   2.198
 5807SOL    HW218321   1.225   1.063   2.297
 5808SOL     OW18322   0.243   0.468   5.482
 5808SOL    HW118323   0.327   0.436   5.524
 5808SOL    HW218324   0.168   0.406   5.505
 5809SOL     OW18325   0.346   3.867   4.362
 5809SOL    HW118326   0.367   3.894   4.268
 5809SOL    HW218327   0.406   3.792   4.389
 5810SOL     OW18328   2.467   6.461   5.283
 5810SOL    HW118329   2.426   6.371   5.300
 5810SOL    HW218330   2.495   6.466   5.187
 5811SOL     OW18331   4.137   4.492   6.801
 5811SOL    HW118332   4.223   4.520   6.842
 5811SOL    HW218333   4.061   4.532   6.852
 5812SOL     OW18334   5.839   2.980   6.518
 5812SOL    HW118335   5.780   2.973   6.598
 5812SOL    HW218336   5.934   2.965   6.544
 5813SOL     OW18337   5.317   4.626   0.936
 5813SOL    HW118338   5.386   4.602   0.868
 5813SOL    HW218339   5.240   4.670   0.890
 5814SOL     OW18340   6.414   1.062   2.217
 5814SOL    HW118341   6.359   1.131   2.264
 5814SOL    HW218342   6.359   1.021   2.144
 5815SOL     OW18343   6.330   3.239   4.783
 5815SOL    HW118344   6.307   3.328   4.741
 5815SOL    HW218345   6.375   3.181   4.715
 5816SOL     OW18346   6.840   3.833   1.610
 5816SOL    HW118347   6.755   3.882   1.591
 5816SOL    HW218348   6.832   3.739   1.577
 5817SOL     OW18349   6.518   2.929   3.811
 5817SOL    HW118350   6.526   2.991   3.732
 5817SOL    HW218351   6.570   2.966   3.887
 5818SOL     OW18352   2.894   0.706   4.955
 5818SOL    HW118353   2.886   0.644   4.877
 5818SOL    HW218354   2.990   0.711   4.984
 5819SOL     OW18355   4.328   4.280   0.666
 5819SOL    HW118356   4.391   4.202   0.674
 5819SOL    HW218357   4.380   4.365   0.676
 5820SOL     OW18358   6.729   7.017   3.278
 5820SOL    HW118359   6.726   6.968   3.191
 5820SOL    HW218360   6.639   7.013   3.321
 5821SOL     OW18361   6.638   6.697   2.058
 5821SOL    HW118362   6.719   6.655   2.018
 5821SOL    HW218363   6.658   6.729   2.151
 5822SOL     OW18364   0.553   4.035   2.506
 5822SOL    HW118365   0.591   3.944   2.523
 5822SOL    HW218366   0.571   4.062   2.412
 5823SOL     OW18367   2.544   6.691   4.745
 5823SOL    HW118368   2.460   6.714   4.795
 5823SOL    HW218369   2.520   6.647   4.659
 5824SOL     OW18370   2.315   6.451   2.350
 5824SOL    HW118371   2.217   6.434   2.355
 5824SOL    HW218372   2.356   6.438   2.441
 5825SOL     OW18373   4.454   1.595   4.747
 5825SOL    HW118374   4.374   1.574   4.691
 5825SOL    HW218375   4.427   1.595   4.844
 5826SOL     OW18376   1.681   6.405   4.933
 5826SOL    HW118377   1.754   6.411   4.865
 5826SOL    HW218378   1.720   6.418   5.025
 5827SOL     OW18379   2.117   3.554   2.951
 5827SOL    HW118380   2.119   3.612   3.033
 5827SOL    HW218381   2.133   3.611   2.870
 5828SOL     OW18382   4.847   0.241   5.827
 5828SOL    HW118383   4.758   0.267   5.865
 5828SOL    HW218384   4.919   0.268   5.891
 5829SOL     OW18385   2.476   0.521   3.133
 5829SOL    HW118386   2.521   0.592   3.187
 5829SOL    HW218387   2.388   0.498   3.173
 5830SOL     OW18388   4.064   5.179   4.346
 5830SOL    HW118389   4.139   5.245   4.354
 5830SOL    HW218390   4.066   5.118   4.425
 5831SOL     OW18391   2.224   2.521   4.588
 5831SOL    HW118392   2.183   2.430   4.577
 5831SOL    HW218393   2.323   2.514   4.579
 5832SOL     OW18394   3.091   5.939   3.267
 5832SOL    HW118395   3.047   5.859   3.308
 5832SOL    HW218396   3.033   6.020   3.281
 5833SOL     OW18397   3.242   5.567   0.489
 5833SOL    HW118398   3.203   5.659   0.486
 5833SOL    HW218399   3.311   5.561   0.560
 5834SOL     OW18400   6.660   3.035   6.373
 5834SOL    HW118401   6.619   3.094   6.303
 5834SOL    HW218402   6.588   2.984   6.421
 5835SOL     OW18403   4.495   1.646   3.211
 5835SOL    HW118404   4.558   1.722   3.193
 5835SOL    HW218405   4.504   1.578   3.139
 5836SOL     OW18406   4.693   6.138   1.128
 5836SOL    HW118407   4.618   6.102   1.073
 5836SOL    HW218408   4.692   6.093   1.218
 5837SOL     OW18409   3.310   4.554   6.744
 5837SOL    HW118410   3.389   4.493   6.741
 5837SOL    HW218411   3.227   4.503   6.719
 5838SOL     OW18412   3.427   3.345   6.962
 5838SOL    HW118413   3.350   3.310   6.909
 5838SOL    HW218414   3.402   3.353   0.031
 5839SOL     OW18415   2.031   1.670   0.605
 5839SOL    HW118416   2.130   1.666   0.621
 5839SOL    HW218417   2.013   1.661   0.507
 5840SOL     OW18418   1.032   3.422   3.047
 5840SOL    HW118419   1.118   3.411   3.097
 5840SOL    HW218420   0.968   3.476   3.102
 5841SOL     OW18421   5.445   1.690   0.366
 5841SOL    HW118422   5.438   1.776   0.417
 5841SOL    HW218423   5.484   1.707   0.276
 5842SOL     OW18424   3.216   2.030   1.764
 5842SOL    HW118425   3.291   2.096   1.765
 5842SOL    HW218426   3.234   1.959   1.696
 5843SOL     OW18427   3.408   3.316   0.326
 5843SOL    HW118428   3.392   3.405   0.284
 5843SOL    HW218429   3.473   3.264   0.271
 5844SOL     OW18430   0.806   5.942   5.435
 5844SOL    HW118431   0.779   5.922   5.341
 5844SOL    HW218432   0.900   5.975   5.437
 5845SOL     OW18433   2.185   0.094   2.777
 5845SOL    HW118434   2.178   0.137   2.867
 5845SOL    HW218435   2.123   0.139   2.713
 5846SOL     OW18436   0.558   4.398   5.448
 5846SOL    HW118437   0.479   4.459   5.456
 5846SOL    HW218438   0.559   4.357   5.356
 5847SOL     OW18439   1.917   4.251   6.651
 5847SOL    HW118440   1.952   4.181   6.714
 5847SOL    HW218441   1.962   4.243   6.563
 5848SOL     OW18442   2.369   6.673   1.561
 5848SOL    HW118443   2.272   6.688   1.579
 5848SOL    HW218444   2.403   6.601   1.621
 5849SOL     OW18445   2.779   5.706   6.743
 5849SOL    HW118446   2.781   5.606   6.744
 5849SOL    HW218447   2.685   5.737   6.726
 5850SOL     OW18448   6.800   1.603   1.717
 5850SOL    HW118449   6.785   1.515   1.670
 5850SOL    HW218450   6.866   1.590   1.790
 5851SOL     OW18451   6.918   3.597   4.833
 5851SOL    HW118452   6.910   3.534   4.910
 5851SOL    HW218453   7.011   3.593   4.795
 5852SOL     OW18454   4.795   4.103   2.663
 5852SOL    HW118455   4.798   4.084   2.762
 5852SOL    HW218456   4.715   4.160   2.643
 5853SOL     OW18457   4.646   4.758   0.082
 5853SOL    HW118458   4.594   4.676   0.107
 5853SOL    HW218459   4.690   4.796   0.164
 5854SOL     OW18460   3.295   4.621   5.580
 5854SOL    HW118461   3.233   4.697   5.561
 5854SOL    HW218462   3.264   4.540   5.531
 5855SOL     OW18463   2.658   2.438   3.789
 5855SOL    HW118464   2.748   2.395   3.782
 5855SOL    HW218465   2.628   2.435   3.884
 5856SOL     OW18466   1.248   0.288   2.960
 5856SOL    HW118467   1.228   0.292   3.058
 5856SOL    HW218468   1.334   0.335   2.942
 5857SOL     OW18469   5.592   4.990   6.711
 5857SOL    HW118470   5.679   5.035   6.730
 5857SOL    HW218471   5.604   4.891   6.714
 5858SOL     OW18472   2.253   1.396   2.543
 5858SOL    HW118473   2.182   1.332   2.573
 5858SOL    HW218474   2.219   1.490   2.553
 5859SOL     OW18475   5.026   5.322   1.828
 5859SOL    HW118476   5.113   5.371   1.832
 5859SOL    HW218477   4.951   5.386   1.845
 5860SOL     OW18478   0.925   3.781   2.591
 5860SOL    HW118479   0.961   3.838   2.665
 5860SOL    HW218480   0.961   3.814   2.504
 5861SOL     OW18481   5.356   0.601   5.694
 5861SOL    HW118482   5.299   0.576   5.616
 5861SOL    HW218483   5.444   0.636   5.661
 5862SOL     OW18484   6.756   4.926   3.567
 5862SOL    HW118485   6.766   4.874   3.653
 5862SOL    HW218486   6.842   4.923   3.517
 5863SOL     OW18487   4.162   6.687   6.047
 5863SOL    HW118488   4.169   6.762   5.982
 5863SOL    HW218489   4.228   6.615   6.022
 5864SOL     OW18490   4.163   3.406   2.369
 5864SOL    HW118491   4.169   3.337   2.297
 5864SOL    HW218492   4.194   3.367   2.455
 5865SOL     OW18493   6.705   6.990   0.471
 5865SOL    HW118494   6.682   0.055   0.501
 5865SOL    HW218495   6.670   6.975   0.379
 5866SOL     OW18496   3.826   3.288   2.835
 5866SOL    HW118497   3.923   3.306   2.853
 5866SOL    HW218498   3.795   3.348   2.760
 5867SOL     OW18499   3.321   1.600   1.524
 5867SOL    HW118500   3.251   1.643   1.581
 5867SOL    HW218501   3.412   1.629   1.555
 5868SOL     OW18502   1.109   0.698   0.731
 5868SOL    HW118503   1.166   0.778   0.745
 5868SOL    HW218504   1.165   0.622   0.698
 5869SOL     OW18505   1.230   5.600   2.877
 5869SOL    HW118506   1.200   5.689   2.844
 5869SOL    HW218507   1.327   5.605   2.901
 5870SOL     OW18508   4.382   0.739   3.841
 5870SOL    HW118509   4.358   0.716   3.746
 5870SOL    HW218510   4.334   0.677   3.903
 5871SOL     OW18511   4.102   3.383   4.399
 5871SOL    HW118512   4.049   3.319   4.455
 5871SOL    HW218513   4.094   3.358   4.303
 5872SOL     OW18514   4.432   6.055   1.056
 5872SOL    HW118515   4.401   6.030   1.148
 5872SOL    HW218516   4.440   5.972   1.000
 5873SOL     OW18517   3.759   6.228   2.229
 5873SOL    HW118518   3.793   6.237   2.323
 5873SOL    HW218519   3.705   6.309   2.205
 5874SOL     OW18520   0.790   4.526   5.072
 5874SOL    HW118521   0.826   4.490   5.158
 5874SOL    HW218522   0.712   4.470   5.043
 5875SOL     OW18523   3.816   1.714   0.742
 5875SOL    HW118524   3.799   1.620   0.714
 5875SOL    HW218525   3.754   1.776   0.694
 5876SOL     OW18526   3.294   3.539   2.056
 5876SOL    HW118527   3.322   3.481   1.980
 5876SOL    HW218528   3.310   3.492   2.143
 5877SOL     OW18529   5.490   4.567   1.446
 5877SOL    HW118530   5.443   4.496   1.498
 5877SOL    HW218531   5.440   4.585   1.362
 5878SOL     OW18532   1.799   3.737   2.446
 5878SOL    HW118533   1.746   3.760   2.528
 5878SOL    HW218534   1.886   3.696   2.473
 5879SOL     OW18535   1.403   3.632   4.054
 5879SOL    HW118536   1.310   3.603   4.032
 5879SOL    HW218537   1.466   3.593   3.986
 5880SOL     OW18538   3.686   6.066   0.398
 5880SOL    HW118539   3.707   6.077   0.301
 5880SOL    HW218540   3.606   6.008   0.408
 5881SOL     OW18541   1.137   6.023   4.211
 5881SOL    HW118542   1.159   6.023   4.113
 5881SOL    HW218543   1.117   5.930   4.241
 5882SOL     OW18544   5.528   0.646   2.699
 5882SOL    HW118545   5.562   0.624   2.608
 5882SOL    HW218546   5.504   0.561   2.747
 5883SOL     OW18547   0.848   3.683   5.588
 5883SOL    HW118548   0.821   3.598   5.631
 5883SOL    HW218549   0.947   3.683   5.572
 5884SOL     OW18550   0.910   0.442   3.280
 5884SOL    HW118551   0.951   0.502   3.349
 5884SOL    HW218552   0.828   0.399   3.319
 5885SOL     OW18553   5.936   6.079   1.011
 5885SOL    HW118554   5.939   6.176   1.033
 5885SOL    HW218555   5.912   6.027   1.093
 5886SOL     OW18556   6.981   1.492   6.313
 5886SOL    HW118557   6.930   1.453   6.390
 5886SOL    HW218558   6.967   1.591   6.311
 5887SOL     OW18559   3.734   5.844   2.887
 5887SOL    HW118560   3.688   5.847   2.976
 5887SOL    HW218561   3.786   5.928   2.873
 5888SOL     OW18562   0.273   0.775   3.040
 5888SOL    HW118563   0.370   0.757   3.053
 5888SOL    HW218564   0.237   0.824   3.119
 5889SOL     OW18565   2.378   7.015   6.699
 5889SOL    HW118566   2.461   6.960   6.693
 5889SOL    HW218567   2.354   0.024   6.609
 5890SOL     OW18568   3.595   4.588   6.091
 5890SOL    HW118569   3.628   4.682   6.105
 5890SOL    HW218570   3.496   4.588   6.085
 5891SOL     OW18571   2.039   3.419   6.247
 5891SOL    HW118572   1.948   3.427   6.288
 5891SOL    HW218573   2.101   3.375   6.311
 5892SOL     OW18574   2.405   6.175   2.300
 5892SOL    HW118575   2.381   6.272   2.294
 5892SOL    HW218576   2.504   6.164   2.297
 5893SOL     OW18577   1.789   1.608   3.266
 5893SOL    HW118578   1.860   1.576   3.330
 5893SOL    HW218579   1.801   1.706   3.251
 5894SOL     OW18580   0.734   3.114   3.390
 5894SOL    HW118581   0.759   3.042   3.455
 5894SOL    HW218582   0.812   3.176   3.378
 5895SOL     OW18583   5.729   4.069   3.339
 5895SOL    HW118584   5.811   4.126   3.334
 5895SOL    HW218585   5.755   3.973   3.328
 5896SOL     OW18586   5.325   2.672   5.277
 5896SOL    HW118587   5.424   2.683   5.288
 5896SOL    HW218588   5.288   2.751   5.229
 5897SOL     OW18589   4.784   5.544   0.895
 5897SOL    HW118590   4.818   5.548   0.989
 5897SOL    HW218591   4.861   5.530   0.832
 5898SOL     OW18592   2.926   6.253   3.104
 5898SOL    HW118593   2.984   6.298   3.172
 5898SOL    HW218594   2.846   6.311   3.086
 5899SOL     OW18595   5.562   0.614   3.544
 5899SOL    HW118596   5.619   0.618   3.626
 5899SOL    HW218597   5.621   0.613   3.463
 5900SOL     OW18598   3.578   5.177   2.556
 5900SOL    HW118599   3.653   5.162   2.620
 5900SOL    HW218600   3.551   5.090   2.515
 5901SOL     OW18601   2.881   6.296   4.867
 5901SOL    HW118602   2.852   6.265   4.777
 5901SOL    HW218603   2.839   6.384   4.887
 5902SOL     OW18604   5.734   2.352   6.841
 5902SOL    HW118605   5.683   2.361   6.927
 5902SOL    HW218606   5.679   2.390   6.766
 5903SOL     OW18607   6.961   3.572   6.431
 5903SOL    HW118608   6.959   3.476   6.402
 5903SOL    HW218609   6.883   3.590   6.491
 5904SOL     OW18610   0.860   3.561   2.251
 5904SOL    HW118611   0.955   3.587   2.236
 5904SOL    HW218612   0.831   3.497   2.180
 5905SOL     OW18613   6.823   4.807   2.709
 5905SOL    HW118614   6.871   4.789   2.623
 5905SOL    HW218615   6.729   4.834   2.689
 5906SOL     OW18616   1.008   0.942   3.048
 5906SOL    HW118617   1.018   0.860   3.104
 5906SOL    HW218618   0.932   0.930   2.985
 5907SOL     OW18619   2.276   0.214   2.031
 5907SOL    HW118620   2.180   0.207   2.004
 5907SOL    HW218621   2.325   0.267   1.962
 5908SOL     OW18622   7.009   3.337   6.016
 5908SOL    HW118623   0.018   3.430   6.015
 5908SOL    HW218624   0.057   3.272   6.028
 5909SOL     OW18625   6.183   4.500   0.637
 5909SOL    HW118626   6.271   4.538   0.608
 5909SOL    HW218627   6.129   4.571   0.682
 5910SOL     OW18628   1.531   1.629   3.343
 5910SOL    HW118629   1.629   1.627   3.324
 5910SOL    HW218630   1.480   1.621   3.258
 5911SOL     OW18631   6.312   5.694   6.783
 5911SOL    HW118632   6.333   5.695   6.881
 5911SOL    HW218633   6.395   5.673   6.732
 5912SOL     OW18634   0.705   0.194   3.962
 5912SOL    HW118635   0.761   0.126   3.915
 5912SOL    HW218636   0.609   0.166   3.958
 5913SOL     OW18637   6.023   1.974   0.425
 5913SOL    HW118638   5.943   1.964   0.366
 5913SOL    HW218639   6.066   2.062   0.408
 5914SOL     OW18640   1.103   6.306   0.461
 5914SOL    HW118641   1.201   6.315   0.483
 5914SOL    HW218642   1.093   6.270   0.368
 5915SOL     OW18643   3.655   1.515   5.993
 5915SOL    HW118644   3.586   1.514   6.065
 5915SOL    HW218645   3.649   1.601   5.942
 5916SOL     OW18646   0.983   6.945   2.118
 5916SOL    HW118647   1.025   6.987   2.037
 5916SOL    HW218648   0.976   6.846   2.105
 5917SOL     OW18649   3.362   3.520   0.179
 5917SOL    HW118650   3.263   3.519   0.197
 5917SOL    HW218651   3.384   3.600   0.122
 5918SOL     OW18652   3.159   7.026   4.890
 5918SOL    HW118653   3.140   6.938   4.846
 5918SOL    HW218654   3.234   7.014   4.956
 5919SOL     OW18655   3.326   3.237   4.663
 5919SOL    HW118656   3.270   3.277   4.591
 5919SOL    HW218657   3.299   3.141   4.678
 5920SOL     OW18658   0.043   0.053   5.571
 5920SOL    HW118659   7.002   0.002   5.520
 5920SOL    HW218660   0.116   7.019   5.601
 5921SOL     OW18661   2.872   4.225   6.592
 5921SOL    HW118662   2.842   4.246   6.499
 5921SOL    HW218663   2.905   4.130   6.595
 5922SOL     OW18664   5.315   3.188   2.354
 5922SOL    HW118665   5.409   3.198   2.386
 5922SOL    HW218666   5.292   3.091   2.346
 5923SOL     OW18667   6.061   1.085   3.692
 5923SOL    HW118668   6.121   1.162   3.670
 5923SOL    HW218669   5.967   1.118   3.702
 5924SOL     OW18670   5.225   6.344   3.720
 5924SOL    HW118671   5.130   6.314   3.718
 5924SOL    HW218672   5.251   6.378   3.630
 5925SOL     OW18673   4.641   1.162   0.829
 5925SOL    HW118674   4.676   1.203   0.744
 5925SOL    HW218675   4.543   1.148   0.821
 5926SOL     OW18676   5.611   4.354   3.379
 5926SOL    HW118677   5.683   4.421   3.395
 5926SOL    HW218678   5.651   4.264   3.360
 5927SOL     OW18679   0.374   5.473   2.399
 5927SOL    HW118680   0.386   5.470   2.299
 5927SOL    HW218681   0.340   5.563   2.426
 5928SOL     OW18682   2.619   6.603   6.961
 5928SOL    HW118683   2.708   6.614   7.005
 5928SOL    HW218684   2.567   6.533   7.010
 5929SOL     OW18685   0.946   0.765   0.243
 5929SOL    HW118686   0.925   0.670   0.217
 5929SOL    HW218687   1.043   0.772   0.265
 5930SOL     OW18688   1.842   4.131   1.950
 5930SOL    HW118689   1.898   4.209   1.922
 5930SOL    HW218690   1.897   4.068   2.004
 5931SOL     OW18691   5.329   6.687   2.798
 5931SOL    HW118692   5.392   6.762   2.778
 5931SOL    HW218693   5.340   6.660   2.894
 5932SOL     OW18694   2.888   0.254   0.001
 5932SOL    HW118695   2.862   0.211   6.941
 5932SOL    HW218696   2.942   0.336   7.009
 5933SOL     OW18697   5.852   6.254   4.213
 5933SOL    HW118698   5.756   6.279   4.217
 5933SOL    HW218699   5.876   6.198   4.292
 5934SOL     OW18700   2.436   3.496   0.033
 5934SOL    HW118701   2.435   3.593   0.007
 5934SOL    HW218702   2.510   3.480   0.098
 5935SOL     OW18703   1.415   0.022   5.873
 5935SOL    HW118704   1.358   7.020   5.797
 5935SOL    HW218705   1.499   0.063   5.838
 5936SOL     OW18706   3.612   2.842   2.233
 5936SOL    HW118707   3.679   2.768   2.238
 5936SOL    HW218708   3.653   2.927   2.268
 5937SOL     OW18709   0.079   2.711   1.541
 5937SOL    HW118710   0.031   2.624   1.531
 5937SOL    HW218711   0.177   2.696   1.528
 5938SOL     OW18712   7.013   4.090   4.283
 5938SOL    HW118713   0.067   4.093   4.342
 5938SOL    HW218714   6.941   4.038   4.329
 5939SOL     OW18715   3.737   1.452   5.723
 5939SOL    HW118716   3.669   1.501   5.668
 5939SOL    HW218717   3.709   1.452   5.819
 5940SOL     OW18718   4.734   5.698   1.438
 5940SOL    HW118719   4.717   5.704   1.339
 5940SOL    HW218720   4.814   5.641   1.454
 5941SOL     OW18721   0.094   2.381   3.264
 5941SOL    HW118722   0.126   2.473   3.245
 5941SOL    HW218723   7.021   2.380   3.268
 5942SOL     OW18724   5.074   2.833   6.146
 5942SOL    HW118725   5.089   2.917   6.093
 5942SOL    HW218726   4.975   2.819   6.158
 5943SOL     OW18727   2.592   4.544   1.574
 5943SOL    HW118728   2.493   4.535   1.565
 5943SOL    HW218729   2.617   4.544   1.670
 5944SOL     OW18730   6.478   3.315   5.410
 5944SOL    HW118731   6.471   3.234   5.468
 5944SOL    HW218732   6.468   3.397   5.465
 5945SOL     OW18733   6.555   6.674   4.796
 5945SOL    HW118734   6.554   6.773   4.812
 5945SOL    HW218735   6.622   6.653   4.725
 5946SOL     OW18736   2.089   3.904   6.630
 5946SOL    HW118737   2.021   3.946   6.690
 5946SOL    HW218738   2.065   3.808   6.615
 5947SOL     OW18739   3.664   3.427   4.706
 5947SOL    HW118740   3.565   3.432   4.718
 5947SOL    HW218741   3.685   3.386   4.617
 5948SOL     OW18742   5.100   3.418   1.320
 5948SOL    HW118743   5.186   3.432   1.271
 5948SOL    HW218744   5.116   3.360   1.400
 5949SOL     OW18745   0.531   4.384   3.289
 5949SOL    HW118746   0.473   4.409   3.367
 5949SOL    HW218747   0.596   4.314   3.318
 5950SOL     OW18748   3.727   0.181   4.634
 5950SOL    HW118749   3.638   0.150   4.666
 5950SOL    HW218750   3.773   0.232   4.708
 5951SOL     OW18751   6.689   4.412   6.714
 5951SOL    HW118752   6.677   4.318   6.683
 5951SOL    HW218753   6.664   4.418   6.810
 5952SOL     OW18754   4.246   4.509   1.571
 5952SOL    HW118755   4.254   4.600   1.611
 5952SOL    HW218756   4.185   4.453   1.626
 5953SOL     OW18757   0.139   3.357   5.216
 5953SOL    HW118758   0.159   3.369   5.119
 5953SOL    HW218759   0.196   3.283   5.253
 5954SOL     OW18760   1.877   5.489   4.075
 5954SOL    HW118761   1.826   5.442   4.147
 5954SOL    HW218762   1.827   5.481   3.988
 5955SOL     OW18763   5.045   3.412   0.307
 5955SOL    HW118764   5.125   3.459   0.272
 5955SOL    HW218765   5.000   3.361   0.234
 5956SOL     OW18766   5.275   2.764   4.925
 5956SOL    HW118767   5.370   2.794   4.913
 5956SOL    HW218768   5.214   2.842   4.910
 5957SOL     OW18769   6.753   1.167   3.381
 5957SOL    HW118770   6.784   1.260   3.362
 5957SOL    HW218771   6.717   1.162   3.474
 5958SOL     OW18772   3.121   6.367   3.268
 5958SOL    HW118773   3.195   6.303   3.288
 5958SOL    HW218774   3.097   6.416   3.352
 5959SOL     OW18775   5.273   2.425   3.268
 5959SOL    HW118776   5.287   2.433   3.367
 5959SOL    HW218777   5.311   2.338   3.236
 5960SOL     OW18778   4.013   0.794   6.073
 5960SOL    HW118779   3.963   0.779   6.158
 5960SOL    HW218780   4.080   0.721   6.061
 5961SOL     OW18781   2.976   2.186   3.460
 5961SOL    HW118782   2.925   2.262   3.420
 5961SOL    HW218783   3.040   2.150   3.392
 5962SOL     OW18784   4.757   5.467   0.234
 5962SOL    HW118785   4.667   5.471   0.278
 5962SOL    HW218786   4.775   5.373   0.204
 5963SOL     OW18787   2.384   4.222   0.541
 5963SOL    HW118788   2.321   4.244   0.467
 5963SOL    HW218789   2.339   4.240   0.629
 5964SOL     OW18790   2.449   6.418   2.867
 5964SOL    HW118791   2.433   6.422   2.769
 5964SOL    HW218792   2.491   6.504   2.898
 5965SOL     OW18793   2.665   0.460   0.457
 5965SOL    HW118794   2.680   0.366   0.428
 5965SOL    HW218795   2.702   0.522   0.388
 5966SOL     OW18796   2.787   1.590   5.318
 5966SOL    HW118797   2.700   1.622   5.355
 5966SOL    HW218798   2.861   1.619   5.379
 5967SOL     OW18799   4.391   2.077   4.896
 5967SOL    HW118800   4.406   2.050   4.801
 5967SOL    HW218801   4.477   2.071   4.947
 5968SOL     OW18802   6.028   2.528   1.912
 5968SOL    HW118803   6.025   2.614   1.860
 5968SOL    HW218804   5.945   2.475   1.894
 5969SOL     OW18805   5.237   0.429   0.487
 5969SOL    HW118806   5.165   0.473   0.541
 5969SOL    HW218807   5.254   0.337   0.524
 5970SOL     OW18808   0.113   3.387   0.802
 5970SOL    HW118809   0.174   3.340   0.738
 5970SOL    HW218810   0.148   3.378   0.895
 5971SOL     OW18811   6.898   6.405   4.022
 5971SOL    HW118812   6.962   6.329   4.019
 5971SOL    HW218813   6.910   6.455   4.108
 5972SOL     OW18814   5.904   5.139   0.479
 5972SOL    HW118815   5.940   5.146   0.386
 5972SOL    HW218816   5.945   5.209   0.537
 5973SOL     OW18817   2.676   1.394   2.396
 5973SOL    HW118818   2.740   1.380   2.471
 5973SOL    HW218819   2.599   1.332   2.406
 5974SOL     OW18820   5.470   1.536   4.983
 5974SOL    HW118821   5.420   1.469   4.929
 5974SOL    HW218822   5.556   1.558   4.939
 5975SOL     OW18823   4.185   5.088   1.520
 5975SOL    HW118824   4.137   5.033   1.588
 5975SOL    HW218825   4.172   5.047   1.430
 5976SOL     OW18826   1.793   3.762   5.351
 5976SOL    HW118827   1.726   3.688   5.357
 5976SOL    HW218828   1.746   3.850   5.358
 5977SOL     OW18829   6.811   4.654   0.548
 5977SOL    HW118830   6.832   4.618   0.639
 5977SOL    HW218831   6.864   4.738   0.533
 5978SOL     OW18832   2.849   3.663   6.284
 5978SOL    HW118833   2.832   3.707   6.196
 5978SOL    HW218834   2.763   3.658   6.336
 5979SOL     OW18835   6.352   0.395   1.450
 5979SOL    HW118836   6.289   0.421   1.523
 5979SOL    HW218837   6.440   0.369   1.489
 5980SOL     OW18838   2.771   2.883   1.105
 5980SOL    HW118839   2.680   2.913   1.078
 5980SOL    HW218840   2.764   2.798   1.158
 5981SOL     OW18841   2.744   1.292   0.695
 5981SOL    HW118842   2.791   1.219   0.744
 5981SOL    HW218843   2.657   1.312   0.740
 5982SOL     OW18844   5.078   2.824   1.047
 5982SOL    HW118845   5.129   2.893   1.098
 5982SOL    HW218846   4.997   2.866   1.006
 5983SOL     OW18847   0.361   0.735   3.622
 5983SOL    HW118848   0.409   0.718   3.536
 5983SOL    HW218849   0.327   0.829   3.623
 5984SOL     OW18850   6.453   6.199   4.318
 5984SOL    HW118851   6.359   6.174   4.295
 5984SOL    HW218852   6.492   6.252   4.243
 5985SOL     OW18853   6.475   3.298   2.258
 5985SOL    HW118854   6.558   3.292   2.314
 5985SOL    HW218855   6.434   3.389   2.268
 5986SOL     OW18856   3.846   3.342   3.964
 5986SOL    HW118857   3.751   3.370   3.974
 5986SOL    HW218858   3.867   3.331   3.866
 5987SOL     OW18859   0.296   6.035   5.624
 5987SOL    HW118860   0.390   6.001   5.619
 5987SOL    HW218861   0.281   6.079   5.712
 5988SOL     OW18862   0.803   2.827   6.995
 5988SOL    HW118863   0.848   2.748   0.010
 5988SOL    HW218864   0.807   2.818   6.895
 5989SOL     OW18865   0.682   6.304   6.082
 5989SOL    HW118866   0.763   6.246   6.080
 5989SOL    HW218867   0.693   6.380   6.018
 5990SOL     OW18868   2.614   4.560   1.834
 5990SOL    HW118869   2.705   4.534   1.868
 5990SOL    HW218870   2.583   4.642   1.882
 5991SOL     OW18871   5.023   0.342   0.308
 5991SOL    HW118872   5.007   0.307   0.400
 5991SOL    HW218873   5.114   0.313   0.277
 5992SOL     OW18874   3.687   6.084   2.632
 5992SOL    HW118875   3.720   6.020   2.563
 5992SOL    HW218876   3.604   6.048   2.674
 5993SOL     OW18877   5.630   1.739   0.171
 5993SOL    HW118878   5.596   1.719   0.079
 5993SOL    HW218879   5.698   1.670   0.198
 5994SOL     OW18880   6.705   3.499   0.146
 5994SOL    HW118881   6.746   3.456   0.066
 5994SOL    HW218882   6.639   3.568   0.116
 5995SOL     OW18883   5.026   3.714   1.374
 5995SOL    HW118884   5.100   3.717   1.441
 5995SOL    HW218885   5.032   3.628   1.322
 5996SOL     OW18886   2.699   6.223   1.433
 5996SOL    HW118887   2.695   6.322   1.446
 5996SOL    HW218888   2.685   6.178   1.521
 5997SOL     OW18889   6.603   0.396   3.943
 5997SOL    HW118890   6.548   0.470   3.904
 5997SOL    HW218891   6.681   0.377   3.884
 5998SOL     OW18892   6.329   6.049   6.994
 5998SOL    HW118893   6.396   5.994   6.944
 5998SOL    HW218894   6.354   6.052   0.064
 5999SOL     OW18895   5.432   3.236   1.323
 5999SOL    HW118896   5.430   3.308   1.254
 5999SOL    HW218897   5.502   3.168   1.299
 6000SOL     OW18898   0.650   3.769   1.241
 6000SOL    HW118899   0.560   3.807   1.220
 6000SOL    HW218900   0.666   3.690   1.182
 6001SOL     OW18901   5.657   5.252   5.758
 6001SOL    HW118902   5.641   5.271   5.855
 6001SOL    HW218903   5.625   5.329   5.703
 6002SOL     OW18904   5.553   4.808   5.306
 6002SOL    HW118905   5.630   4.872   5.304
 6002SOL    HW218906   5.578   4.723   5.260
 6003SOL     OW18907   2.484   2.410   4.515
 6003SOL    HW118908   2.516   2.406   4.609
 6003SOL    HW218909   2.431   2.327   4.494
 6004SOL     OW18910   5.490   2.714   4.726
 6004SOL    HW118911   5.536   2.710   4.814
 6004SOL    HW218912   5.439   2.630   4.711
 6005SOL     OW18913   4.188   4.121   6.489
 6005SOL    HW118914   4.219   4.207   6.449
 6005SOL    HW218915   4.268   4.070   6.523
 6006SOL     OW18916   3.323   5.876   0.166
 6006SOL    HW118917   3.240   5.930   0.180
 6006SOL    HW218918   3.348   5.880   0.069
 6007SOL     OW18919   2.223   5.974   4.856
 6007SOL    HW118920   2.200   6.036   4.930
 6007SOL    HW218921   2.188   6.010   4.769
 6008SOL     OW18922   2.469   3.872   6.567
 6008SOL    HW118923   2.443   3.836   6.657
 6008SOL    HW218924   2.398   3.934   6.534
 6009SOL     OW18925   4.146   5.288   2.831
 6009SOL    HW118926   4.114   5.254   2.742
 6009SOL    HW218927   4.144   5.388   2.830
 6010SOL     OW18928   0.397   4.639   4.241
 6010SOL    HW118929   0.418   4.680   4.330
 6010SOL    HW218930   0.298   4.622   4.235
 6011SOL     OW18931   5.933   1.822   2.470
 6011SOL    HW118932   5.942   1.722   2.461
 6011SOL    HW218933   5.919   1.862   2.380
 6012SOL     OW18934   6.748   0.300   5.832
 6012SOL    HW118935   6.658   0.257   5.834
 6012SOL    HW218936   6.816   0.233   5.802
 6013SOL     OW18937   6.091   1.559   1.976
 6013SOL    HW118938   6.034   1.568   2.058
 6013SOL    HW218939   6.053   1.615   1.903
 6014SOL     OW18940   2.886   3.466   3.704
 6014SOL    HW118941   2.800   3.516   3.701
 6014SOL    HW218942   2.892   3.415   3.790
 6015SOL     OW18943   6.205   0.317   3.843
 6015SOL    HW118944   6.184   0.413   3.861
 6015SOL    HW218945   6.217   0.304   3.744
 6016SOL     OW18946   4.308   1.955   4.325
 6016SOL    HW118947   4.246   1.941   4.403
 6016SOL    HW218948   4.358   1.871   4.306
 6017SOL     OW18949   1.036   1.165   5.677
 6017SOL    HW118950   1.091   1.086   5.703
 6017SOL    HW218951   1.094   1.232   5.630
 6018SOL     OW18952   2.766   1.043   4.268
 6018SOL    HW118953   2.821   1.127   4.262
 6018SOL    HW218954   2.669   1.068   4.277
 6019SOL     OW18955   6.646   4.470   6.425
 6019SOL    HW118956   6.629   4.568   6.415
 6019SOL    HW218957   6.689   4.454   6.514
 6020SOL     OW18958   0.491   5.079   5.924
 6020SOL    HW118959   0.553   5.059   5.848
 6020SOL    HW218960   0.512   5.020   6.001
 6021SOL     OW18961   6.048   6.884   3.592
 6021SOL    HW118962   6.084   6.800   3.634
 6021SOL    HW218963   6.092   6.963   3.633
 6022SOL     OW18964   6.315   2.714   1.506
 6022SOL    HW118965   6.385   2.659   1.553
 6022SOL    HW218966   6.360   2.779   1.444
 6023SOL     OW18967   4.045   6.835   1.983
 6023SOL    HW118968   4.100   6.900   2.036
 6023SOL    HW218969   4.052   6.858   1.886
 6024SOL     OW18970   1.296   6.005   6.883
 6024SOL    HW118971   1.355   5.974   6.809
 6024SOL    HW218972   1.272   5.927   6.942
 6025SOL     OW18973   2.752   0.571   5.187
 6025SOL    HW118974   2.797   0.595   5.101
 6025SOL    HW218975   2.716   0.478   5.181
 6026SOL     OW18976   5.469   6.405   4.391
 6026SOL    HW118977   5.553   6.388   4.340
 6026SOL    HW218978   5.405   6.330   4.375
 6027SOL     OW18979   5.148   4.965   6.290
 6027SOL    HW118980   5.194   5.027   6.227
 6027SOL    HW218981   5.215   4.903   6.331
 6028SOL     OW18982   5.834   5.050   6.062
 6028SOL    HW118983   5.763   5.022   5.998
 6028SOL    HW218984   5.800   5.040   6.156
 6029SOL     OW18985   3.063   0.884   2.821
 6029SOL    HW118986   3.025   0.910   2.909
 6029SOL    HW218987   2.994   0.893   2.749
 6030SOL     OW18988   5.886   3.163   4.214
 6030SOL    HW118989   5.844   3.205   4.295
 6030SOL    HW218990   5.816   3.154   4.142
 6031SOL     OW18991   0.112   6.429   5.292
 6031SOL    HW118992   0.068   6.341   5.276
 6031SOL    HW218993   0.075   6.497   5.228
 6032SOL     OW18994   3.779   6.712   3.663
 6032SOL    HW118995   3.825   6.767   3.593
 6032SOL    HW218996   3.715   6.770   3.714
 6033SOL     OW18997   1.383   1.277   2.438
 6033SOL    HW118998   1.307   1.273   2.373
 6033SOL    HW218999   1.382   1.364   2.486
 6034SOL     OW19000   0.733   6.475   1.165
 6034SOL    HW119001   0.653   6.415   1.168
 6034SOL    HW219002   0.748   6.515   1.255
 6035SOL     OW19003   2.804   0.209   2.420
 6035SOL    HW119004   2.735   0.137   2.409
 6035SOL    HW219005   2.852   0.223   2.333
 6036SOL     OW19006   6.365   3.458   1.154
 6036SOL    HW119007   6.459   3.491   1.147
 6036SOL    HW219008   6.304   3.523   1.108
 6037SOL     OW19009   4.752   1.228   6.123
 6037SOL    HW119010   4.753   1.228   6.223
 6037SOL    HW219011   4.660   1.252   6.090
 6038SOL     OW19012   1.437   1.463   6.069
 6038SOL    HW119013   1.374   1.401   6.023
 6038SOL    HW219014   1.530   1.427   6.064
 6039SOL     OW19015   3.692   3.592   3.769
 6039SOL    HW119016   3.689   3.648   3.852
 6039SOL    HW219017   3.673   3.650   3.689
 6040SOL     OW19018   0.278   1.748   0.640
 6040SOL    HW119019   0.306   1.827   0.585
 6040SOL    HW219020   0.278   1.666   0.583
 6041SOL     OW19021   2.148   3.790   5.832
 6041SOL    HW119022   2.185   3.831   5.749
 6041SOL    HW219023   2.155   3.691   5.827
 6042SOL     OW19024   3.231   5.738   4.481
 6042SOL    HW119025   3.153   5.734   4.418
 6042SOL    HW219026   3.198   5.758   4.573
 6043SOL     OW19027   2.492   0.241   2.929
 6043SOL    HW119028   2.527   0.186   3.005
 6043SOL    HW219029   2.451   0.182   2.860
 6044SOL     OW19030   0.306   3.219   1.091
 6044SOL    HW119031   0.323   3.137   1.145
 6044SOL    HW219032   0.253   3.285   1.145
 6045SOL     OW19033   5.605   1.607   3.191
 6045SOL    HW119034   5.656   1.601   3.277
 6045SOL    HW219035   5.629   1.692   3.144
 6046SOL     OW19036   3.456   2.865   2.839
 6046SOL    HW119037   3.453   2.912   2.927
 6046SOL    HW219038   3.541   2.887   2.792
 6047SOL     OW19039   7.015   1.672   0.657
 6047SOL    HW119040   0.059   1.707   0.719
 6047SOL    HW219041   6.925   1.685   0.699
 6048SOL     OW19042   5.710   6.042   3.041
 6048SOL    HW119043   5.794   6.035   3.095
 6048SOL    HW219044   5.702   6.136   3.005
 6049SOL     OW19045   4.649   4.723   6.267
 6049SOL    HW119046   4.617   4.672   6.187
 6049SOL    HW219047   4.593   4.805   6.279
 6050SOL     OW19048   2.916   5.939   2.380
 6050SOL    HW119049   2.899   5.861   2.321
 6050SOL    HW219050   3.014   5.960   2.381
 6051SOL     OW19051   0.507   1.498   3.009
 6051SOL    HW119052   0.581   1.432   3.025
 6051SOL    HW219053   0.426   1.449   2.976
 6052SOL     OW19054   5.348   5.373   0.904
 6052SOL    HW119055   5.420   5.432   0.868
 6052SOL    HW219056   5.370   5.346   0.997
 6053SOL     OW19057   4.519   2.828   6.078
 6053SOL    HW119058   4.529   2.745   6.024
 6053SOL    HW219059   4.464   2.808   6.159
 6054SOL     OW19060   4.054   4.299   0.671
 6054SOL    HW119061   4.151   4.295   0.646
 6054SOL    HW219062   4.015   4.385   0.640
 6055SOL     OW19063   2.749   3.777   1.052
 6055SOL    HW119064   2.666   3.789   0.998
 6055SOL    HW219065   2.770   3.862   1.101
 6056SOL     OW19066   5.247   5.808   3.096
 6056SOL    HW119067   5.306   5.729   3.114
 6056SOL    HW219068   5.240   5.863   3.179
 6057SOL     OW19069   5.198   0.650   4.306
 6057SOL    HW119070   5.170   0.555   4.312
 6057SOL    HW219071   5.291   0.660   4.342
 6058SOL     OW19072   6.646   3.119   5.808
 6058SOL    HW119073   6.740   3.122   5.775
 6058SOL    HW219074   6.628   3.029   5.848
 6059SOL     OW19075   4.205   2.703   0.362
 6059SOL    HW119076   4.284   2.643   0.371
 6059SOL    HW219077   4.218   2.763   0.282
 6060SOL     OW19078   2.358   3.105   0.001
 6060SOL    HW119079   2.287   3.171   0.027
 6060SOL    HW219080   2.413   3.143   6.954
 6061SOL     OW19081   3.611   4.371   6.785
 6061SOL    HW119082   3.565   4.348   6.870
 6061SOL    HW219083   3.580   4.309   6.713
 6062SOL     OW19084   2.191   2.155   6.380
 6062SOL    HW119085   2.184   2.253   6.362
 6062SOL    HW219086   2.154   2.134   6.470
 6063SOL     OW19087   4.189   3.823   6.373
 6063SOL    HW119088   4.187   3.793   6.277
 6063SOL    HW219089   4.180   3.744   6.433
 6064SOL     OW19090   6.228   5.362   0.859
 6064SOL    HW119091   6.273   5.434   0.805
 6064SOL    HW219092   6.293   5.324   0.925
 6065SOL     OW19093   1.669   0.100   1.756
 6065SOL    HW119094   1.711   0.065   1.673
 6065SOL    HW219095   1.719   0.181   1.787
 6066SOL     OW19096   5.277   5.666   3.389
 6066SOL    HW119097   5.239   5.755   3.362
 6066SOL    HW219098   5.375   5.664   3.368
 6067SOL     OW19099   6.522   6.245   5.891
 6067SOL    HW119100   6.595   6.265   5.827
 6067SOL    HW219101   6.528   6.307   5.969
 6068SOL     OW19102   4.618   2.651   4.323
 6068SOL    HW119103   4.645   2.723   4.259
 6068SOL    HW219104   4.590   2.693   4.409
 6069SOL     OW19105   0.050   4.164   5.907
 6069SOL    HW119106   6.981   4.154   5.935
 6069SOL    HW219107   0.109   4.131   5.981
 6070SOL     OW19108   2.051   1.578   0.974
 6070SOL    HW119109   2.033   1.667   0.933
 6070SOL    HW219110   1.972   1.549   1.028
 6071SOL     OW19111   6.426   1.067   5.804
 6071SOL    HW119112   6.419   1.076   5.704
 6071SOL    HW219113   6.455   1.154   5.843
 6072SOL     OW19114   0.164   3.008   6.866
 6072SOL    HW119115   0.113   2.952   6.801
 6072SOL    HW219116   0.234   3.059   6.818
 6073SOL     OW19117   4.998   3.890   7.011
 6073SOL    HW119118   5.059   3.820   0.022
 6073SOL    HW219119   4.946   3.933   0.058
 6074SOL     OW19120   1.227   6.348   2.578
 6074SOL    HW119121   1.236   6.308   2.487
 6074SOL    HW219122   1.173   6.287   2.636
 6075SOL     OW19123   5.935   0.486   6.869
 6075SOL    HW119124   5.992   0.487   6.787
 6075SOL    HW219125   5.912   0.391   6.893
 6076SOL     OW19126   0.942   5.973   2.577
 6076SOL    HW119127   0.854   5.965   2.624
 6076SOL    HW219128   0.928   5.962   2.479
 6077SOL     OW19129   5.485   6.486   2.701
 6077SOL    HW119130   5.424   6.550   2.749
 6077SOL    HW219131   5.441   6.455   2.617
 6078SOL     OW19132   4.588   4.286   0.489
 6078SOL    HW119133   4.508   4.331   0.449
 6078SOL    HW219134   4.560   4.198   0.528
 6079SOL     OW19135   2.556   2.925   0.469
 6079SOL    HW119136   2.635   2.897   0.524
 6079SOL    HW219137   2.547   3.025   0.473
 6080SOL     OW19138   6.865   4.273   6.240
 6080SOL    HW119139   6.772   4.243   6.265
 6080SOL    HW219140   6.923   4.271   6.321
 6081SOL     OW19141   1.637   3.937   3.447
 6081SOL    HW119142   1.675   3.857   3.493
 6081SOL    HW219143   1.552   3.965   3.494
 6082SOL     OW19144   4.893   1.608   1.283
 6082SOL    HW119145   4.945   1.667   1.222
 6082SOL    HW219146   4.859   1.661   1.360
 6083SOL     OW19147   4.701   0.543   6.661
 6083SOL    HW119148   4.776   0.601   6.628
 6083SOL    HW219149   4.614   0.576   6.624
 6084SOL     OW19150   0.111   5.602   2.485
 6084SOL    HW119151   0.084   5.519   2.533
 6084SOL    HW219152   0.069   5.682   2.528
 6085SOL     OW19153   0.477   6.760   0.330
 6085SOL    HW119154   0.487   6.726   0.237
 6085SOL    HW219155   0.530   6.702   0.392
 6086SOL     OW19156   3.488   3.980   0.039
 6086SOL    HW119157   3.462   4.076   0.032
 6086SOL    HW219158   3.501   3.956   0.136
 6087SOL     OW19159   4.822   0.143   0.707
 6087SOL    HW119160   4.820   0.056   0.756
 6087SOL    HW219161   4.912   0.185   0.717
 6088SOL     OW19162   4.892   5.884   2.853
 6088SOL    HW119163   4.825   5.854   2.785
 6088SOL    HW219164   4.978   5.834   2.839
 6089SOL     OW19165   5.967   3.875   3.954
 6089SOL    HW119166   5.930   3.967   3.947
 6089SOL    HW219167   6.054   3.871   3.904
 6090SOL     OW19168   3.839   5.672   4.321
 6090SOL    HW119169   3.758   5.682   4.264
 6090SOL    HW219170   3.868   5.576   4.321
 6091SOL     OW19171   1.602   1.578   1.431
 6091SOL    HW119172   1.567   1.637   1.503
 6091SOL    HW219173   1.531   1.512   1.404
 6092SOL     OW19174   2.418   6.633   1.064
 6092SOL    HW119175   2.425   6.673   1.155
 6092SOL    HW219176   2.498   6.659   1.010
 6093SOL     OW19177   2.647   2.397   2.763
 6093SOL    HW119178   2.562   2.385   2.712
 6093SOL    HW219179   2.700   2.472   2.723
 6094SOL     OW19180   0.353   6.281   5.127
 6094SOL    HW119181   0.415   6.205   5.107
 6094SOL    HW219182   0.276   6.248   5.181
 6095SOL     OW19183   4.681   4.676   1.798
 6095SOL    HW119184   4.718   4.768   1.809
 6095SOL    HW219185   4.756   4.611   1.789
 6096SOL     OW19186   5.447   5.602   3.062
 6096SOL    HW119187   5.439   5.510   3.101
 6096SOL    HW219188   5.449   5.596   2.962
 6097SOL     OW19189   2.356   4.805   2.731
 6097SOL    HW119190   2.291   4.730   2.720
 6097SOL    HW219191   2.345   4.870   2.656
 6098SOL     OW19192   0.022   0.600   4.827
 6098SOL    HW119193   6.959   0.644   4.821
 6098SOL    HW219194   0.062   0.594   4.735
 6099SOL     OW19195   3.228   0.691   6.086
 6099SOL    HW119196   3.239   0.601   6.128
 6099SOL    HW219197   3.188   0.682   5.995
 6100SOL     OW19198   0.361   5.816   5.047
 6100SOL    HW119199   0.400   5.907   5.057
 6100SOL    HW219200   0.429   5.747   5.071
 6101SOL     OW19201   6.858   3.690   2.022
 6101SOL    HW119202   6.852   3.771   2.080
 6101SOL    HW219203   6.791   3.622   2.052
 6102SOL     OW19204   3.870   0.306   2.615
 6102SOL    HW119205   3.858   0.318   2.714
 6102SOL    HW219206   3.862   0.209   2.592
 6103SOL     OW19207   6.590   1.632   2.120
 6103SOL    HW119208   6.508   1.579   2.095
 6103SOL    HW219209   6.564   1.709   2.178
 6104SOL     OW19210   0.014   0.540   4.529
 6104SOL    HW119211   7.016   0.569   4.437
 6104SOL    HW219212   6.997   0.452   4.550
 6105SOL     OW19213   2.960   4.435   5.625
 6105SOL    HW119214   2.983   4.519   5.673
 6105SOL    HW219215   2.892   4.454   5.555
 6106SOL     OW19216   5.926   4.779   5.259
 6106SOL    HW119217   5.937   4.767   5.161
 6106SOL    HW219218   5.869   4.859   5.276
 6107SOL     OW19219   5.753   5.562   5.126
 6107SOL    HW119220   5.849   5.591   5.134
 6107SOL    HW219221   5.707   5.577   5.214
 6108SOL     OW19222   1.865   1.463   0.069
 6108SOL    HW119223   1.954   1.435   0.105
 6108SOL    HW219224   1.875   1.546   0.015
 6109SOL     OW19225   0.028   6.918   3.709
 6109SOL    HW119226   6.998   6.873   3.640
 6109SOL    HW219227   0.073   6.849   3.765
 6110SOL     OW19228   1.989   1.455   4.148
 6110SOL    HW119229   2.089   1.449   4.149
 6110SOL    HW219230   1.957   1.492   4.235
 6111SOL     OW19231   2.061   4.094   1.292
 6111SOL    HW119232   2.017   4.046   1.368
 6111SOL    HW219233   2.152   4.054   1.276
 6112SOL     OW19234   5.035   6.312   3.409
 6112SOL    HW119235   4.985   6.288   3.493
 6112SOL    HW219236   5.054   6.410   3.409
 6113SOL     OW19237   2.741   5.372   1.106
 6113SOL    HW119238   2.796   5.296   1.072
 6113SOL    HW219239   2.684   5.408   1.032
 6114SOL     OW19240   5.471   2.075   0.167
 6114SOL    HW119241   5.539   2.138   0.130
 6114SOL    HW219242   5.495   1.981   0.141
 6115SOL     OW19243   0.807   0.642   6.035
 6115SOL    HW119244   0.803   0.703   6.114
 6115SOL    HW219245   0.715   0.610   6.013
 6116SOL     OW19246   5.559   2.953   6.389
 6116SOL    HW119247   5.482   2.970   6.450
 6116SOL    HW219248   5.642   2.994   6.427
 6117SOL     OW19249   2.192   2.035   1.088
 6117SOL    HW119250   2.179   1.997   0.996
 6117SOL    HW219251   2.154   1.971   1.155
 6118SOL     OW19252   5.828   0.712   1.454
 6118SOL    HW119253   5.907   0.652   1.454
 6118SOL    HW219254   5.744   0.658   1.463
 6119SOL     OW19255   6.939   1.701   0.351
 6119SOL    HW119256   6.976   1.638   0.419
 6119SOL    HW219257   7.005   1.774   0.333
 6120SOL     OW19258   2.907   0.756   4.441
 6120SOL    HW119259   2.982   0.690   4.434
 6120SOL    HW219260   2.896   0.804   4.355
 6121SOL     OW19261   1.404   2.096   5.328
 6121SOL    HW119262   1.504   2.091   5.320
 6121SOL    HW219263   1.368   2.158   5.258
 6122SOL     OW19264   5.012   4.685   5.269
 6122SOL    HW119265   5.063   4.771   5.267
 6122SOL    HW219266   5.070   4.614   5.309
 6123SOL     OW19267   5.553   1.343   5.401
 6123SOL    HW119268   5.476   1.313   5.344
 6123SOL    HW219269   5.632   1.363   5.343
 6124SOL     OW19270   2.475   6.183   4.067
 6124SOL    HW119271   2.574   6.179   4.081
 6124SOL    HW219272   2.449   6.271   4.028
 6125SOL     OW19273   3.085   2.308   6.140
 6125SOL    HW119274   3.005   2.277   6.192
 6125SOL    HW219275   3.077   2.274   6.046
 6126SOL     OW19276   6.125   2.900   5.527
 6126SOL    HW119277   6.126   2.807   5.565
 6126SOL    HW219278   6.138   2.966   5.601
 6127SOL     OW19279   4.561   2.195   2.070
 6127SOL    HW119280   4.637   2.130   2.067
 6127SOL    HW219281   4.477   2.148   2.094
 6128SOL     OW19282   5.675   5.572   6.953
 6128SOL    HW119283   5.663   5.597   0.022
 6128SOL    HW219284   5.645   5.648   6.895
 6129SOL     OW19285   1.590   5.756   2.154
 6129SOL    HW119286   1.528   5.704   2.211
 6129SOL    HW219287   1.599   5.711   2.065
 6130SOL     OW19288   6.030   2.383   0.067
 6130SOL    HW119289   5.937   2.354   0.091
 6130SOL    HW219290   6.048   2.473   0.106
 6131SOL     OW19291   6.628   1.963   2.761
 6131SOL    HW119292   6.531   1.966   2.740
 6131SOL    HW219293   6.667   2.055   2.750
 6132SOL     OW19294   3.857   1.322   6.142
 6132SOL    HW119295   3.797   1.401   6.134
 6132SOL    HW219296   3.903   1.306   6.055
 6133SOL     OW19297   0.948   2.231   2.959
 6133SOL    HW119298   0.897   2.192   2.882
 6133SOL    HW219299   0.919   2.187   3.044
 6134SOL     OW19300   6.983   6.785   5.848
 6134SOL    HW119301   0.034   6.766   5.907
 6134SOL    HW219302   7.004   6.756   5.755
 6135SOL     OW19303   0.019   6.749   6.827
 6135SOL    HW119304   0.006   6.698   6.742
 6135SOL    HW219305   0.012   6.847   6.809
 6136SOL     OW19306   0.895   2.765   2.453
 6136SOL    HW119307   0.850   2.819   2.524
 6136SOL    HW219308   0.942   2.687   2.495
 6137SOL     OW19309   6.831   4.575   2.306
 6137SOL    HW119310   6.790   4.650   2.253
 6137SOL    HW219311   6.885   4.517   2.245
 6138SOL     OW19312   4.647   0.340   1.778
 6138SOL    HW119313   4.665   0.244   1.799
 6138SOL    HW219314   4.665   0.357   1.682
 6139SOL     OW19315   1.411   0.693   5.155
 6139SOL    HW119316   1.483   0.653   5.099
 6139SOL    HW219317   1.323   0.653   5.130
 6140SOL     OW19318   1.978   0.435   3.064
 6140SOL    HW119319   1.970   0.482   3.152
 6140SOL    HW219320   2.066   0.388   3.059
 6141SOL     OW19321   0.566   0.975   6.209
 6141SOL    HW119322   0.516   1.001   6.127
 6141SOL    HW219323   0.507   0.919   6.268
 6142SOL     OW19324   6.927   0.148   1.542
 6142SOL    HW119325   6.937   0.205   1.623
 6142SOL    HW219326   6.987   0.183   1.469
 6143SOL     OW19327   6.823   3.889   5.392
 6143SOL    HW119328   6.875   3.966   5.430
 6143SOL    HW219329   6.813   3.901   5.293
 6144SOL     OW19330   4.418   5.269   2.837
 6144SOL    HW119331   4.318   5.273   2.836
 6144SOL    HW219332   4.448   5.174   2.838
 6145SOL     OW19333   5.012   3.661   3.751
 6145SOL    HW119334   4.976   3.714   3.828
 6145SOL    HW219335   5.104   3.630   3.772
 6146SOL     OW19336   5.821   0.446   5.153
 6146SOL    HW119337   5.759   0.461   5.231
 6146SOL    HW219338   5.807   0.354   5.117
 6147SOL     OW19339   1.481   2.532   4.863
 6147SOL    HW119340   1.392   2.487   4.873
 6147SOL    HW219341   1.491   2.602   4.934
 6148SOL     OW19342   3.328   5.616   0.062
 6148SOL    HW119343   3.346   5.532   0.113
 6148SOL    HW219344   3.359   5.695   0.115
 6149SOL     OW19345   3.121   0.915   1.370
 6149SOL    HW119346   3.070   1.000   1.358
 6149SOL    HW219347   3.089   0.867   1.451
 6150SOL     OW19348   1.070   4.182   5.897
 6150SOL    HW119349   1.128   4.239   5.840
 6150SOL    HW219350   1.018   4.118   5.840
 6151SOL     OW19351   4.657   5.309   3.609
 6151SOL    HW119352   4.663   5.318   3.510
 6151SOL    HW219353   4.746   5.332   3.650
 6152SOL     OW19354   1.444   4.080   4.316
 6152SOL    HW119355   1.432   3.990   4.275
 6152SOL    HW219356   1.529   4.081   4.370
 6153SOL     OW19357   5.161   5.400   1.291
 6153SOL    HW119358   5.066   5.418   1.264
 6153SOL    HW219359   5.174   5.426   1.387
 6154SOL     OW19360   4.889   3.438   2.308
 6154SOL    HW119361   4.926   3.404   2.222
 6154SOL    HW219362   4.878   3.538   2.303
 6155SOL     OW19363   1.641   1.394   3.167
 6155SOL    HW119364   1.700   1.464   3.208
 6155SOL    HW219365   1.697   1.326   3.121
 6156SOL     OW19366   5.135   4.712   1.331
 6156SOL    HW119367   5.199   4.664   1.271
 6156SOL    HW219368   5.185   4.772   1.392
 6157SOL     OW19369   1.113   2.531   1.999
 6157SOL    HW119370   1.022   2.549   2.035
 6157SOL    HW219371   1.106   2.470   1.920
 6158SOL     OW19372   3.168   2.136   4.735
 6158SOL    HW119373   3.159   2.217   4.793
 6158SOL    HW219374   3.265   2.122   4.714
 6159SOL     OW19375   6.607   2.992   0.973
 6159SOL    HW119376   6.528   3.050   0.992
 6159SOL    HW219377   6.674   3.000   1.047
 6160SOL     OW19378   1.567   0.789   0.941
 6160SOL    HW119379   1.533   0.730   0.868
 6160SOL    HW219380   1.642   0.845   0.906
 6161SOL     OW19381   4.361   3.248   6.362
 6161SOL    HW119382   4.427   3.200   6.304
 6161SOL    HW219383   4.409   3.314   6.420
 6162SOL     OW19384   6.196   5.251   2.706
 6162SOL    HW119385   6.214   5.234   2.803
 6162SOL    HW219386   6.207   5.166   2.654
 6163SOL     OW19387   5.756   6.292   3.613
 6163SOL    HW119388   5.705   6.306   3.698
 6163SOL    HW219389   5.847   6.332   3.621
 6164SOL     OW19390   2.938   3.447   4.587
 6164SOL    HW119391   2.926   3.534   4.636
 6164SOL    HW219392   2.929   3.371   4.651
 6165SOL     OW19393   3.776   1.671   6.882
 6165SOL    HW119394   3.834   1.652   6.802
 6165SOL    HW219395   3.835   1.688   6.961
 6166SOL     OW19396   2.047   2.997   6.517
 6166SOL    HW119397   2.031   3.030   6.610
 6166SOL    HW219398   1.970   2.941   6.487
 6167SOL     OW19399   1.679   3.515   3.101
 6167SOL    HW119400   1.690   3.421   3.068
 6167SOL    HW219401   1.709   3.521   3.196
 6168SOL     OW19402   0.703   3.915   3.783
 6168SOL    HW119403   0.647   3.986   3.826
 6168SOL    HW219404   0.696   3.922   3.684
 6169SOL     OW19405   2.051   0.758   0.111
 6169SOL    HW119406   2.122   0.714   0.055
 6169SOL    HW219407   2.095   0.816   0.180
 6170SOL     OW19408   2.940   3.927   0.249
 6170SOL    HW119409   2.892   4.002   0.204
 6170SOL    HW219410   3.030   3.915   0.206
 6171SOL     OW19411   1.961   3.910   2.070
 6171SOL    HW119412   1.892   3.921   2.141
 6171SOL    HW219413   1.958   3.817   2.035
 6172SOL     OW19414   2.044   5.702   2.611
 6172SOL    HW119415   1.988   5.726   2.690
 6172SOL    HW219416   1.986   5.667   2.538
 6173SOL     OW19417   1.311   5.582   2.190
 6173SOL    HW119418   1.376   5.553   2.119
 6173SOL    HW219419   1.317   5.521   2.269
 6174SOL     OW19420   5.313   5.016   2.566
 6174SOL    HW119421   5.245   4.951   2.599
 6174SOL    HW219422   5.367   4.973   2.493
 6175SOL     OW19423   5.237   0.145   3.143
 6175SOL    HW119424   5.333   0.137   3.170
 6175SOL    HW219425   5.229   0.209   3.067
 6176SOL     OW19426   6.420   3.244   5.740
 6176SOL    HW119427   6.455   3.337   5.726
 6176SOL    HW219428   6.493   3.188   5.780
 6177SOL     OW19429   6.855   2.901   1.151
 6177SOL    HW119430   6.864   2.941   1.060
 6177SOL    HW219431   6.940   2.915   1.202
 6178SOL     OW19432   5.973   3.003   1.169
 6178SOL    HW119433   6.042   2.930   1.173
 6178SOL    HW219434   5.952   3.034   1.262
 6179SOL     OW19435   0.544   1.882   5.790
 6179SOL    HW119436   0.567   1.880   5.888
 6179SOL    HW219437   0.476   1.953   5.773
 6180SOL     OW19438   3.510   6.740   0.026
 6180SOL    HW119439   3.485   6.783   0.113
 6180SOL    HW219440   3.427   6.711   7.005
 6181SOL     OW19441   5.096   5.933   6.966
 6181SOL    HW119442   5.184   5.979   6.957
 6181SOL    HW219443   5.022   6.000   6.962
 6182SOL     OW19444   4.158   6.330   6.757
 6182SOL    HW119445   4.066   6.319   6.718
 6182SOL    HW219446   4.152   6.333   6.856
 6183SOL     OW19447   3.390   0.361   3.407
 6183SOL    HW119448   3.320   0.304   3.451
 6183SOL    HW219449   3.346   0.436   3.358
 6184SOL     OW19450   0.135   0.318   6.752
 6184SOL    HW119451   0.157   0.256   6.677
 6184SOL    HW219452   0.161   0.277   6.839
 6185SOL     OW19453   1.042   3.809   5.819
 6185SOL    HW119454   0.944   3.812   5.799
 6185SOL    HW219455   1.059   3.743   5.892
 6186SOL     OW19456   6.153   6.989   4.675
 6186SOL    HW119457   6.095   0.043   4.671
 6186SOL    HW219458   6.163   6.950   4.584
 6187SOL     OW19459   3.971   4.832   4.243
 6187SOL    HW119460   3.995   4.838   4.146
 6187SOL    HW219461   4.043   4.872   4.298
 6188SOL     OW19462   3.053   6.399   1.249
 6188SOL    HW119463   2.980   6.372   1.312
 6188SOL    HW219464   3.111   6.468   1.292
 6189SOL     OW19465   6.013   4.806   3.316
 6189SOL    HW119466   5.975   4.898   3.324
 6189SOL    HW219467   5.977   4.762   3.234
 6190SOL     OW19468   5.394   2.601   0.037
 6190SOL    HW119469   5.463   2.646   0.093
 6190SOL    HW219470   5.408   2.626   6.968
 6191SOL     OW19471   6.461   2.475   6.710
 6191SOL    HW119472   6.388   2.453   6.774
 6191SOL    HW219473   6.505   2.391   6.679
 6192SOL     OW19474   3.059   2.950   0.179
 6192SOL    HW119475   3.107   2.885   0.239
 6192SOL    HW219476   3.087   3.043   0.203
 6193SOL     OW19477   6.176   6.994   1.042
 6193SOL    HW119478   6.095   0.003   1.089
 6193SOL    HW219479   6.233   0.042   1.010
 6194SOL     OW19480   2.422   0.487   0.252
 6194SOL    HW119481   2.382   0.407   0.295
 6194SOL    HW219482   2.492   0.459   0.187
 6195SOL     OW19483   3.110   6.896   6.200
 6195SOL    HW119484   3.106   6.891   6.300
 6195SOL    HW219485   3.018   6.912   6.164
 6196SOL     OW19486   0.097   1.340   6.683
 6196SOL    HW119487   0.120   1.292   6.598
 6196SOL    HW219488   0.163   1.315   6.754
 6197SOL     OW19489   2.341   3.413   0.398
 6197SOL    HW119490   2.426   3.446   0.440
 6197SOL    HW219491   2.292   3.490   0.357
 6198SOL     OW19492   4.296   5.025   2.603
 6198SOL    HW119493   4.378   5.015   2.546
 6198SOL    HW219494   4.242   5.102   2.569
 6199SOL     OW19495   1.651   0.276   6.475
 6199SOL    HW119496   1.719   0.316   6.536
 6199SOL    HW219497   1.562   0.319   6.491
 6200SOL     OW19498   3.965   0.048   6.047
 6200SOL    HW119499   3.919   0.125   6.002
 6200SOL    HW219500   4.000   0.078   6.136
 6201SOL     OW19501   1.866   4.537   4.831
 6201SOL    HW119502   1.847   4.511   4.736
 6201SOL    HW219503   1.842   4.633   4.844
 6202SOL     OW19504   3.241   2.236   1.232
 6202SOL    HW119505   3.185   2.256   1.312
 6202SOL    HW219506   3.317   2.176   1.258
 6203SOL     OW19507   4.561   1.815   5.371
 6203SOL    HW119508   4.633   1.770   5.317
 6203SOL    HW219509   4.592   1.824   5.466
 6204SOL     OW19510   1.617   6.816   5.782
 6204SOL    HW119511   1.588   6.753   5.854
 6204SOL    HW219512   1.576   6.906   5.797
 6205SOL     OW19513   5.381   5.493   0.064
 6205SOL    HW119514   5.401   5.591   0.070
 6205SOL    HW219515   5.341   5.462   0.151
 6206SOL     OW19516   5.453   0.431   3.271
 6206SOL    HW119517   5.404   0.498   3.327
 6206SOL    HW219518   5.503   0.479   3.198
 6207SOL     OW19519   1.734   3.950   4.690
 6207SOL    HW119520   1.777   3.935   4.779
 6207SOL    HW219521   1.709   3.861   4.650
 6208SOL     OW19522   5.492   6.746   5.738
 6208SOL    HW119523   5.395   6.770   5.736
 6208SOL    HW219524   5.547   6.830   5.741
 6209SOL     OW19525   3.172   5.503   1.085
 6209SOL    HW119526   3.198   5.578   1.145
 6209SOL    HW219527   3.243   5.433   1.086
 6210SOL     OW19528   5.969   4.435   3.794
 6210SOL    HW119529   6.010   4.403   3.880
 6210SOL    HW219530   5.886   4.383   3.775
 6211SOL     OW19531   2.691   0.380   5.005
 6211SOL    HW119532   2.714   0.342   4.916
 6211SOL    HW219533   2.603   0.427   5.000
 6212SOL     OW19534   6.952   6.675   3.304
 6212SOL    HW119535   7.019   6.748   3.314
 6212SOL    HW219536   6.911   6.679   3.213
 6213SOL     OW19537   0.307   6.214   6.317
 6213SOL    HW119538   0.310   6.305   6.358
 6213SOL    HW219539   0.367   6.213   6.236
 6214SOL     OW19540   6.266   5.004   3.120
 6214SOL    HW119541   6.331   5.023   3.193
 6214SOL    HW219542   6.231   4.911   3.129
 6215SOL     OW19543   2.948   3.952   0.872
 6215SOL    HW119544   2.885   3.893   0.823
 6215SOL    HW219545   2.987   4.019   0.809
 6216SOL     OW19546   6.058   1.578   2.466
 6216SOL    HW119547   5.988   1.507   2.459
 6216SOL    HW219548   6.149   1.536   2.470
 6217SOL     OW19549   5.442   3.351   1.555
 6217SOL    HW119550   5.436   3.301   1.469
 6217SOL    HW219551   5.351   3.380   1.584
 6218SOL     OW19552   3.665   5.274   5.617
 6218SOL    HW119553   3.624   5.188   5.586
 6218SOL    HW219554   3.602   5.349   5.599
 6219SOL     OW19555   1.158   1.892   4.467
 6219SOL    HW119556   1.083   1.832   4.494
 6219SOL    HW219557   1.129   1.949   4.390
 6220SOL     OW19558   1.711   4.219   5.120
 6220SOL    HW119559   1.701   4.292   5.187
 6220SOL    HW219560   1.770   4.147   5.157
 6221SOL     OW19561   3.714   5.141   4.811
 6221SOL    HW119562   3.641   5.109   4.872
 6221SOL    HW219563   3.769   5.209   4.859
 6222SOL     OW19564   6.818   1.284   0.831
 6222SOL    HW119565   6.765   1.284   0.916
 6222SOL    HW219566   6.914   1.264   0.853
 6223SOL     OW19567   4.884   3.325   4.737
 6223SOL    HW119568   4.938   3.291   4.815
 6223SOL    HW219569   4.838   3.410   4.763
 6224SOL     OW19570   2.637   1.309   5.497
 6224SOL    HW119571   2.592   1.341   5.580
 6224SOL    HW219572   2.569   1.292   5.426
 6225SOL     OW19573   4.008   2.517   0.293
 6225SOL    HW119574   4.043   2.435   0.246
 6225SOL    HW219575   4.085   2.575   0.319
 6226SOL     OW19576   5.863   0.359   4.781
 6226SOL    HW119577   5.887   0.343   4.877
 6226SOL    HW219578   5.918   0.434   4.745
 6227SOL     OW19579   3.179   5.017   6.152
 6227SOL    HW119580   3.196   4.925   6.187
 6227SOL    HW219581   3.083   5.024   6.123
 6228SOL     OW19582   6.690   0.690   3.820
 6228SOL    HW119583   6.772   0.686   3.877
 6228SOL    HW219584   6.699   0.764   3.754
 6229SOL     OW19585   2.122   2.742   2.255
 6229SOL    HW119586   2.054   2.784   2.195
 6229SOL    HW219587   2.199   2.709   2.201
 6230SOL     OW19588   2.511   2.082   3.199
 6230SOL    HW119589   2.568   2.107   3.277
 6230SOL    HW219590   2.538   2.137   3.120
 6231SOL     OW19591   0.113   4.809   1.656
 6231SOL    HW119592   0.100   4.824   1.754
 6231SOL    HW219593   0.151   4.892   1.615
 6232SOL     OW19594   1.066   1.206   6.656
 6232SOL    HW119595   1.134   1.172   6.721
 6232SOL    HW219596   1.112   1.230   6.570
 6233SOL     OW19597   4.780   2.225   0.078
 6233SOL    HW119598   4.842   2.285   0.129
 6233SOL    HW219599   4.830   2.144   0.048
 6234SOL     OW19600   2.570   2.154   3.735
 6234SOL    HW119601   2.500   2.083   3.728
 6234SOL    HW219602   2.531   2.234   3.780
 6235SOL     OW19603   2.582   6.445   3.507
 6235SOL    HW119604   2.498   6.454   3.454
 6235SOL    HW219605   2.562   6.457   3.604
 6236SOL     OW19606   6.589   4.562   0.422
 6236SOL    HW119607   6.593   4.463   0.409
 6236SOL    HW219608   6.676   4.594   0.461
 6237SOL     OW19609   4.471   0.008   0.705
 6237SOL    HW119610   4.412   6.974   0.653
 6237SOL    HW219611   4.538   0.050   0.644
 6238SOL     OW19612   4.679   4.413   1.280
 6238SOL    HW119613   4.720   4.450   1.363
 6238SOL    HW219614   4.730   4.445   1.200
 6239SOL     OW19615   2.875   0.491   3.633
 6239SOL    HW119616   2.813   0.556   3.677
 6239SOL    HW219617   2.828   0.447   3.556
 6240SOL     OW19618   2.106   3.738   1.023
 6240SOL    HW119619   2.097   3.639   1.012
 6240SOL    HW219620   2.202   3.762   1.035
 6241SOL     OW19621   4.611   0.472   1.264
 6241SOL    HW119622   4.637   0.541   1.332
 6241SOL    HW219623   4.686   0.407   1.252
 6242SOL     OW19624   4.213   1.947   3.574
 6242SOL    HW119625   4.212   1.912   3.668
 6242SOL    HW219626   4.228   1.871   3.511
 6243SOL     OW19627   6.339   5.486   3.473
 6243SOL    HW119628   6.291   5.572   3.455
 6243SOL    HW219629   6.343   5.432   3.388
 6244SOL     OW19630   2.246   1.683   2.278
 6244SOL    HW119631   2.277   1.589   2.270
 6244SOL    HW219632   2.253   1.712   2.374
 6245SOL     OW19633   2.473   4.538   0.519
 6245SOL    HW119634   2.378   4.510   0.514
 6245SOL    HW219635   2.495   4.567   0.613
 6246SOL     OW19636   2.599   1.062   6.138
 6246SOL    HW119637   2.551   1.124   6.076
 6246SOL    HW219638   2.598   0.970   6.100
 6247SOL     OW19639   0.199   6.401   2.606
 6247SOL    HW119640   0.114   6.357   2.578
 6247SOL    HW219641   0.181   6.495   2.635
 6248SOL     OW19642   0.572   4.719   1.333
 6248SOL    HW119643   0.546   4.666   1.413
 6248SOL    HW219644   0.651   4.775   1.355
 6249SOL     OW19645   5.081   3.732   6.490
 6249SOL    HW119646   5.173   3.741   6.451
 6249SOL    HW219647   5.083   3.759   6.586
 6250SOL     OW19648   5.241   5.746   6.568
 6250SOL    HW119649   5.233   5.723   6.666
 6250SOL    HW219650   5.337   5.764   6.546
 6251SOL     OW19651   4.314   1.875   0.932
 6251SOL    HW119652   4.296   1.860   1.030
 6251SOL    HW219653   4.227   1.874   0.882
 6252SOL     OW19654   2.335   6.226   5.339
 6252SOL    HW119655   2.353   6.180   5.427
 6252SOL    HW219656   2.328   6.157   5.267
 6253SOL     OW19657   1.734   3.715   1.115
 6253SOL    HW119658   1.783   3.784   1.062
 6253SOL    HW219659   1.706   3.754   1.203
 6254SOL     OW19660   5.314   0.538   0.245
 6254SOL    HW119661   5.289   0.494   0.331
 6254SOL    HW219662   5.347   0.470   0.180
 6255SOL     OW19663   0.521   1.298   2.622
 6255SOL    HW119664   0.422   1.294   2.618
 6255SOL    HW219665   0.558   1.325   2.533
 6256SOL     OW19666   3.358   5.170   3.180
 6256SOL    HW119667   3.261   5.171   3.155
 6256SOL    HW219668   3.389   5.076   3.192
 6257SOL     OW19669   5.224   2.785   6.390
 6257SOL    HW119670   5.176   2.790   6.303
 6257SOL    HW219671   5.162   2.809   6.465
 6258SOL     OW19672   5.405   1.602   2.605
 6258SOL    HW119673   5.454   1.636   2.685
 6258SOL    HW219674   5.388   1.677   2.542
 6259SOL     OW19675   2.994   2.630   1.698
 6259SOL    HW119676   2.974   2.568   1.773
 6259SOL    HW219677   2.940   2.604   1.618
 6260SOL     OW19678   3.716   3.396   6.961
 6260SOL    HW119679   3.747   3.312   6.917
 6260SOL    HW219680   3.621   3.386   6.991
 6261SOL     OW19681   4.029   0.976   0.351
 6261SOL    HW119682   4.111   0.919   0.349
 6261SOL    HW219683   4.027   1.029   0.435
 6262SOL     OW19684   0.350   5.442   6.159
 6262SOL    HW119685   0.315   5.382   6.087
 6262SOL    HW219686   0.432   5.488   6.127
 6263SOL     OW19687   6.115   0.693   0.745
 6263SOL    HW119688   6.016   0.681   0.737
 6263SOL    HW219689   6.159   0.603   0.750
 6264SOL     OW19690   2.268   1.443   0.431
 6264SOL    HW119691   2.269   1.512   0.503
 6264SOL    HW219692   2.262   1.352   0.472
 6265SOL     OW19693   3.648   3.004   1.001
 6265SOL    HW119694   3.613   2.916   1.035
 6265SOL    HW219695   3.573   3.071   1.000
 6266SOL     OW19696   2.433   0.139   2.676
 6266SOL    HW119697   2.411   0.220   2.622
 6266SOL    HW219698   2.350   0.102   2.718
 6267SOL     OW19699   2.611   6.860   6.652
 6267SOL    HW119700   2.701   6.840   6.613
 6267SOL    HW219701   2.557   6.776   6.655
 6268SOL     OW19702   3.271   5.003   2.846
 6268SOL    HW119703   3.223   4.916   2.848
 6268SOL    HW219704   3.227   5.067   2.909
 6269SOL     OW19705   6.384   4.669   0.550
 6269SOL    HW119706   6.429   4.703   0.632
 6269SOL    HW219707   6.451   4.623   0.492
 6270SOL     OW19708   0.562   1.096   4.554
 6270SOL    HW119709   0.581   1.053   4.465
 6270SOL    HW219710   0.620   1.055   4.623
 6271SOL     OW19711   5.735   1.750   0.889
 6271SOL    HW119712   5.740   1.844   0.924
 6271SOL    HW219713   5.691   1.750   0.800
 6272SOL     OW19714   1.425   2.246   3.413
 6272SOL    HW119715   1.460   2.338   3.394
 6272SOL    HW219716   1.467   2.211   3.497
 6273SOL     OW19717   3.773   1.013   1.606
 6273SOL    HW119718   3.771   0.961   1.521
 6273SOL    HW219719   3.856   1.068   1.610
 6274SOL     OW19720   3.759   6.672   6.675
 6274SOL    HW119721   3.850   6.696   6.644
 6274SOL    HW219722   3.723   6.598   6.619
 6275SOL     OW19723   2.834   1.068   4.565
 6275SOL    HW119724   2.927   1.095   4.539
 6275SOL    HW219725   2.819   0.973   4.540
 6276SOL     OW19726   1.221   5.459   3.891
 6276SOL    HW119727   1.210   5.437   3.794
 6276SOL    HW219728   1.244   5.376   3.942
 6277SOL     OW19729   5.383   3.279   2.870
 6277SOL    HW119730   5.481   3.297   2.860
 6277SOL    HW219731   5.333   3.322   2.795
 6278SOL     OW19732   5.471   0.298   4.346
 6278SOL    HW119733   5.463   0.239   4.266
 6278SOL    HW219734   5.553   0.354   4.339
 6279SOL     OW19735   4.972   1.514   0.084
 6279SOL    HW119736   4.996   1.537   7.017
 6279SOL    HW219737   4.943   1.418   0.089
 6280SOL     OW19738   0.405   4.724   5.847
 6280SOL    HW119739   0.355   4.657   5.902
 6280SOL    HW219740   0.503   4.709   5.859
 6281SOL     OW19741   2.658   6.941   5.505
 6281SOL    HW119742   2.585   6.988   5.455
 6281SOL    HW219743   2.741   6.996   5.502
 6282SOL     OW19744   1.830   0.046   3.681
 6282SOL    HW119745   1.786   0.054   3.592
 6282SOL    HW219746   1.760   0.043   3.753
 6283SOL     OW19747   0.045   2.298   4.833
 6283SOL    HW119748   0.029   2.297   4.932
 6283SOL    HW219749   0.143   2.299   4.815
 6284SOL     OW19750   2.062   4.316   5.991
 6284SOL    HW119751   2.120   4.395   5.975
 6284SOL    HW219752   2.075   4.250   5.917
 6285SOL     OW19753   1.898   4.325   2.258
 6285SOL    HW119754   1.976   4.350   2.315
 6285SOL    HW219755   1.930   4.270   2.180
 6286SOL     OW19756   5.741   0.888   4.357
 6286SOL    HW119757   5.807   0.915   4.287
 6286SOL    HW219758   5.648   0.910   4.325
 6287SOL     OW19759   4.773   4.315   1.881
 6287SOL    HW119760   4.676   4.290   1.879
 6287SOL    HW219761   4.812   4.290   1.970
 6288SOL     OW19762   5.034   3.317   0.968
 6288SOL    HW119763   5.089   3.316   1.051
 6288SOL    HW219764   4.982   3.402   0.963
 6289SOL     OW19765   1.589   0.769   3.199
 6289SOL    HW119766   1.684   0.793   3.182
 6289SOL    HW219767   1.529   0.836   3.156
 6290SOL     OW19768   5.854   3.795   3.229
 6290SOL    HW119769   5.871   3.869   3.164
 6290SOL    HW219770   5.866   3.707   3.184
 6291SOL     OW19771   3.578   4.068   3.090
 6291SOL    HW119772   3.514   4.132   3.050
 6291SOL    HW219773   3.610   4.103   3.179
 6292SOL     OW19774   1.153   1.921   1.841
 6292SOL    HW119775   1.081   1.881   1.897
 6292SOL    HW219776   1.120   1.934   1.748
 6293SOL     OW19777   5.133   6.477   0.552
 6293SOL    HW119778   5.212   6.416   0.548
 6293SOL    HW219779   5.145   6.542   0.628
 6294SOL     OW19780   4.393   5.237   2.362
 6294SOL    HW119781   4.360   5.145   2.339
 6294SOL    HW219782   4.468   5.229   2.428
 6295SOL     OW19783   5.652   6.750   6.183
 6295SOL    HW119784   5.726   6.761   6.248
 6295SOL    HW219785   5.684   6.696   6.105
 6296SOL     OW19786   6.193   1.134   2.481
 6296SOL    HW119787   6.131   1.113   2.556
 6296SOL    HW219788   6.264   1.064   2.475
 6297SOL     OW19789   5.109   0.348   5.990
 6297SOL    HW119790   5.154   0.282   5.931
 6297SOL    HW219791   5.147   0.439   5.972
 6298SOL     OW19792   1.343   1.741   4.601
 6298SOL    HW119793   1.294   1.817   4.558
 6298SOL    HW219794   1.297   1.716   4.686
 6299SOL     OW19795   6.561   3.202   7.005
 6299SOL    HW119796   6.496   3.166   0.044
 6299SOL    HW219797   6.554   3.302   7.003
 6300SOL     OW19798   5.481   0.550   4.042
 6300SOL    HW119799   5.534   0.627   4.007
 6300SOL    HW219800   5.387   0.579   4.058
 6301SOL     OW19801   2.989   6.930   0.782
 6301SOL    HW119802   3.027   6.955   0.871
 6301SOL    HW219803   3.028   6.989   0.711
 6302SOL     OW19804   1.051   0.610   3.444
 6302SOL    HW119805   1.124   0.578   3.504
 6302SOL    HW219806   1.008   0.691   3.484
 6303SOL     OW19807   2.398   6.085   5.593
 6303SOL    HW119808   2.481   6.141   5.589
 6303SOL    HW219809   2.421   5.992   5.622
 6304SOL     OW19810   3.001   1.223   6.437
 6304SOL    HW119811   3.035   1.129   6.440
 6304SOL    HW219812   3.074   1.284   6.406
 6305SOL     OW19813   5.780   1.149   1.415
 6305SOL    HW119814   5.732   1.236   1.414
 6305SOL    HW219815   5.810   1.127   1.508
 6306SOL     OW19816   5.739   2.796   4.100
 6306SOL    HW119817   5.724   2.762   4.193
 6306SOL    HW219818   5.799   2.733   4.050
 6307SOL     OW19819   2.759   4.673   0.675
 6307SOL    HW119820   2.676   4.729   0.672
 6307SOL    HW219821   2.839   4.732   0.665
 6308SOL     OW19822   3.008   2.237   5.308
 6308SOL    HW119823   2.928   2.296   5.291
 6308SOL    HW219824   3.088   2.275   5.262
 6309SOL     OW19825   5.871   1.735   4.558
 6309SOL    HW119826   5.868   1.829   4.525
 6309SOL    HW219827   5.877   1.735   4.658
 6310SOL     OW19828   1.446   4.729   4.744
 6310SOL    HW119829   1.416   4.742   4.650
 6310SOL    HW219830   1.380   4.671   4.792
 6311SOL     OW19831   6.295   6.773   4.830
 6311SOL    HW119832   6.375   6.718   4.805
 6311SOL    HW219833   6.260   6.820   4.749
 6312SOL     OW19834   4.731   4.979   6.029
 6312SOL    HW119835   4.757   4.895   5.981
 6312SOL    HW219836   4.813   5.032   6.050
 6313SOL     OW19837   2.860   5.180   3.495
 6313SOL    HW119838   2.888   5.222   3.582
 6313SOL    HW219839   2.909   5.223   3.420
 6314SOL     OW19840   3.045   6.124   3.710
 6314SOL    HW119841   3.087   6.213   3.728
 6314SOL    HW219842   3.112   6.051   3.724
 6315SOL     OW19843   3.129   3.581   0.702
 6315SOL    HW119844   3.086   3.491   0.692
 6315SOL    HW219845   3.228   3.570   0.711
 6316SOL     OW19846   5.541   1.590   6.190
 6316SOL    HW119847   5.461   1.573   6.132
 6316SOL    HW219848   5.608   1.517   6.177
 6317SOL     OW19849   6.247   5.944   4.034
 6317SOL    HW119850   6.252   5.854   4.077
 6317SOL    HW219851   6.338   5.970   4.000
 6318SOL     OW19852   2.561   1.850   4.489
 6318SOL    HW119853   2.624   1.862   4.565
 6318SOL    HW219854   2.475   1.811   4.522
 6319SOL     OW19855   0.692   1.521   2.594
 6319SOL    HW119856   0.775   1.484   2.636
 6319SOL    HW219857   0.612   1.485   2.642
 6320SOL     OW19858   6.882   2.796   3.467
 6320SOL    HW119859   6.921   2.885   3.489
 6320SOL    HW219860   6.932   2.724   3.515
 6321SOL     OW19861   2.239   3.664   0.312
 6321SOL    HW119862   2.308   3.695   0.378
 6321SOL    HW219863   2.149   3.665   0.355
 6322SOL     OW19864   1.068   1.110   7.014
 6322SOL    HW119865   1.138   1.092   6.944
 6322SOL    HW219866   0.990   1.155   6.971
 6323SOL     OW19867   3.811   1.673   1.233
 6323SOL    HW119868   3.836   1.591   1.181
 6323SOL    HW219869   3.850   1.668   1.325
 6324SOL     OW19870   4.185   1.304   6.460
 6324SOL    HW119871   4.135   1.283   6.545
 6324SOL    HW219872   4.123   1.351   6.397
 6325SOL     OW19873   1.566   2.585   1.872
 6325SOL    HW119874   1.614   2.636   1.801
 6325SOL    HW219875   1.612   2.598   1.960
 6326SOL     OW19876   4.975   6.044   1.155
 6326SOL    HW119877   4.888   6.084   1.126
 6326SOL    HW219878   4.967   6.011   1.249
 6327SOL     OW19879   4.968   5.409   5.931
 6327SOL    HW119880   5.060   5.387   5.899
 6327SOL    HW219881   4.902   5.389   5.859
 6328SOL     OW19882   2.973   4.088   6.312
 6328SOL    HW119883   3.067   4.116   6.291
 6328SOL    HW219884   2.909   4.136   6.252
 6329SOL     OW19885   1.240   1.526   3.365
 6329SOL    HW119886   1.182   1.542   3.285
 6329SOL    HW219887   1.330   1.567   3.350
 6330SOL     OW19888   3.121   1.799   0.380
 6330SOL    HW119889   3.159   1.872   0.437
 6330SOL    HW219890   3.191   1.767   0.316
 6331SOL     OW19891   5.873   3.385   1.679
 6331SOL    HW119892   5.956   3.440   1.671
 6331SOL    HW219893   5.890   3.308   1.739
 6332SOL     OW19894   5.626   6.322   1.899
 6332SOL    HW119895   5.712   6.374   1.899
 6332SOL    HW219896   5.572   6.349   1.979
 6333SOL     OW19897   2.389   5.063   3.334
 6333SOL    HW119898   2.439   5.118   3.402
 6333SOL    HW219899   2.422   5.085   3.242
 6334SOL     OW19900   2.496   1.488   2.698
 6334SOL    HW119901   2.513   1.578   2.659
 6334SOL    HW219902   2.428   1.440   2.642
 6335SOL     OW19903   6.580   1.201   0.445
 6335SOL    HW119904   6.504   1.199   0.510
 6335SOL    HW219905   6.565   1.131   0.375
 6336SOL     OW19906   0.591   2.678   4.997
 6336SOL    HW119907   0.658   2.717   4.934
 6336SOL    HW219908   0.578   2.740   5.074
 6337SOL     OW19909   6.594   4.666   5.178
 6337SOL    HW119910   6.514   4.648   5.236
 6337SOL    HW219911   6.600   4.595   5.107
 6338SOL     OW19912   4.283   1.202   3.478
 6338SOL    HW119913   4.258   1.164   3.567
 6338SOL    HW219914   4.271   1.133   3.407
 6339SOL     OW19915   6.885   2.073   4.770
 6339SOL    HW119916   6.947   2.150   4.782
 6339SOL    HW219917   6.919   2.014   4.697
 6340SOL     OW19918   1.811   5.209   4.305
 6340SOL    HW119919   1.731   5.260   4.272
 6340SOL    HW219920   1.806   5.115   4.270
 6341SOL     OW19921   6.586   4.169   2.818
 6341SOL    HW119922   6.592   4.256   2.867
 6341SOL    HW219923   6.664   4.160   2.757
 6342SOL     OW19924   1.571   2.689   0.891
 6342SOL    HW119925   1.581   2.631   0.972
 6342SOL    HW219926   1.479   2.728   0.890
 6343SOL     OW19927   3.702   1.433   0.065
 6343SOL    HW119928   3.662   1.516   0.025
 6343SOL    HW219929   3.794   1.421   0.029
 6344SOL     OW19930   0.321   4.196   4.221
 6344SOL    HW119931   0.371   4.259   4.163
 6344SOL    HW219932   0.293   4.116   4.168
 6345SOL     OW19933   2.981   2.217   2.308
 6345SOL    HW119934   2.961   2.236   2.212
 6345SOL    HW219935   3.077   2.189   2.317
 6346SOL     OW19936   0.874   5.225   3.890
 6346SOL    HW119937   0.960   5.182   3.917
 6346SOL    HW219938   0.799   5.160   3.901
 6347SOL     OW19939   3.702   0.646   1.607
 6347SOL    HW119940   3.773   0.583   1.577
 6347SOL    HW219941   3.679   0.628   1.703
 6348SOL     OW19942   1.367   2.604   4.331
 6348SOL    HW119943   1.413   2.520   4.301
 6348SOL    HW219944   1.324   2.649   4.253
 6349SOL     OW19945   2.254   6.933   0.455
 6349SOL    HW119946   2.258   6.957   0.358
 6349SOL    HW219947   2.249   6.833   0.464
 6350SOL     OW19948   1.148   6.283   2.278
 6350SOL    HW119949   1.090   6.353   2.236
 6350SOL    HW219950   1.201   6.236   2.207
 6351SOL     OW19951   0.273   1.419   2.881
 6351SOL    HW119952   0.199   1.394   2.942
 6351SOL    HW219953   0.282   1.351   2.808
 6352SOL     OW19954   6.826   6.081   2.240
 6352SOL    HW119955   6.881   6.053   2.161
 6352SOL    HW219956   6.785   6.170   2.223
 6353SOL     OW19957   0.206   6.897   2.250
 6353SOL    HW119958   0.251   6.809   2.238
 6353SOL    HW219959   0.112   6.883   2.279
 6354SOL     OW19960   0.739   6.556   3.625
 6354SOL    HW119961   0.750   6.472   3.677
 6354SOL    HW219962   0.661   6.548   3.564
 6355SOL     OW19963   1.930   2.472   2.846
 6355SOL    HW119964   1.837   2.479   2.883
 6355SOL    HW219965   1.949   2.551   2.788
 6356SOL     OW19966   3.331   3.524   0.987
 6356SOL    HW119967   3.232   3.525   0.974
 6356SOL    HW219968   3.363   3.429   0.990
 6357SOL     OW19969   4.662   2.112   0.346
 6357SOL    HW119970   4.667   2.197   0.294
 6357SOL    HW219971   4.671   2.034   0.284
 6358SOL     OW19972   0.436   2.286   3.905
 6358SOL    HW119973   0.344   2.251   3.922
 6358SOL    HW219974   0.466   2.340   3.984
 6359SOL     OW19975   0.151   0.948   6.678
 6359SOL    HW119976   0.191   0.857   6.668
 6359SOL    HW219977   0.057   0.939   6.713
 6360SOL     OW19978   3.007   5.940   4.179
 6360SOL    HW119979   2.927   5.922   4.236
 6360SOL    HW219980   2.992   5.902   4.087
 6361SOL     OW19981   4.120   6.255   6.032
 6361SOL    HW119982   4.101   6.182   6.097
 6361SOL    HW219983   4.050   6.253   5.960
 6362SOL     OW19984   6.174   5.260   6.412
 6362SOL    HW119985   6.244   5.281   6.480
 6362SOL    HW219986   6.209   5.278   6.321
 6363SOL     OW19987   0.680   5.970   3.931
 6363SOL    HW119988   0.708   5.902   3.864
 6363SOL    HW219989   0.584   5.958   3.953
 6364SOL     OW19990   2.229   2.827   6.072
 6364SOL    HW119991   2.195   2.745   6.119
 6364SOL    HW219992   2.311   2.861   6.118
 6365SOL     OW19993   5.029   5.748   2.555
 6365SOL    HW119994   4.995   5.813   2.486
 6365SOL    HW219995   5.114   5.784   2.594
 6366SOL     OW19996   6.971   4.767   6.087
 6366SOL    HW119997   6.938   4.807   6.172
 6366SOL    HW219998   6.966   4.667   6.092
 6367SOL     OW19999   6.142   6.290   3.030
 6367SOL    HW120000   6.162   6.355   2.957
 6367SOL    HW220001   6.131   6.339   3.116
 6368SOL     OW20002   2.759   0.584   3.963
 6368SOL    HW120003   2.718   0.494   3.956
 6368SOL    HW220004   2.707   0.640   4.028
 6369SOL     OW20005   2.105   5.321   4.648
 6369SOL    HW120006   2.196   5.284   4.663
 6369SOL    HW220007   2.046   5.250   4.610
 6370SOL     OW20008   6.330   2.813   2.011
 6370SOL    HW120009   6.242   2.773   2.036
 6370SOL    HW220010   6.365   2.868   2.087
 6371SOL     OW20011   5.182   2.146   3.125
 6371SOL    HW120012   5.099   2.100   3.156
 6371SOL    HW220013   5.169   2.176   3.031
 6372SOL     OW20014   2.681   6.252   2.574
 6372SOL    HW120015   2.680   6.189   2.496
 6372SOL    HW220016   2.764   6.307   2.570
 6373SOL     OW20017   3.587   4.443   0.360
 6373SOL    HW120018   3.559   4.395   0.443
 6373SOL    HW220019   3.672   4.404   0.325
 6374SOL     OW20020   3.233   2.896   2.639
 6374SOL    HW120021   3.262   2.810   2.682
 6374SOL    HW220022   3.292   2.915   2.561
 6375SOL     OW20023   1.972   6.246   2.541
 6375SOL    HW120024   1.916   6.301   2.603
 6375SOL    HW220025   2.017   6.174   2.593
 6376SOL     OW20026   0.629   2.630   5.862
 6376SOL    HW120027   0.701   2.561   5.870
 6376SOL    HW220028   0.653   2.710   5.916
 6377SOL     OW20029   0.690   0.915   4.297
 6377SOL    HW120030   0.679   0.821   4.263
 6377SOL    HW220031   0.739   0.969   4.229
 6378SOL     OW20032   4.611   4.401   3.871
 6378SOL    HW120033   4.569   4.480   3.828
 6378SOL    HW220034   4.597   4.320   3.814
 6379SOL     OW20035   2.427   4.503   3.204
 6379SOL    HW120036   2.485   4.521   3.283
 6379SOL    HW220037   2.432   4.581   3.141
 6380SOL     OW20038   0.709   0.480   5.709
 6380SOL    HW120039   0.752   0.536   5.638
 6380SOL    HW220040   0.778   0.448   5.774
 6381SOL     OW20041   3.018   3.836   2.397
 6381SOL    HW120042   3.065   3.896   2.333
 6381SOL    HW220043   2.966   3.767   2.346
 6382SOL     OW20044   1.064   3.905   5.009
 6382SOL    HW120045   1.123   3.897   4.929
 6382SOL    HW220046   1.085   3.831   5.073
 6383SOL     OW20047   3.905   1.393   4.152
 6383SOL    HW120048   3.917   1.452   4.232
 6383SOL    HW220049   3.984   1.333   4.144
 6384SOL     OW20050   6.301   4.458   3.137
 6384SOL    HW120051   6.221   4.403   3.113
 6384SOL    HW220052   6.365   4.402   3.191
 6385SOL     OW20053   0.517   6.052   5.079
 6385SOL    HW120054   0.537   6.053   4.981
 6385SOL    HW220055   0.598   6.080   5.130
 6386SOL     OW20056   3.044   5.389   1.767
 6386SOL    HW120057   3.023   5.442   1.685
 6386SOL    HW220058   3.103   5.312   1.742
 6387SOL     OW20059   6.185   1.412   5.152
 6387SOL    HW120060   6.157   1.320   5.178
 6387SOL    HW220061   6.153   1.432   5.059
 6388SOL     OW20062   2.582   4.567   2.828
 6388SOL    HW120063   2.680   4.583   2.818
 6388SOL    HW220064   2.537   4.650   2.862
 6389SOL     OW20065   1.045   4.800   2.490
 6389SOL    HW120066   0.951   4.822   2.465
 6389SOL    HW220067   1.051   4.785   2.589
 6390SOL     OW20068   0.608   3.599   4.126
 6390SOL    HW120069   0.642   3.689   4.152
 6390SOL    HW220070   0.508   3.602   4.120
 6391SOL     OW20071   3.429   1.248   7.017
 6391SOL    HW120072   3.519   1.204   7.006
 6391SOL    HW220073   3.386   1.259   6.928
 6392SOL     OW20074   1.525   6.239   3.770
 6392SOL    HW120075   1.579   6.160   3.796
 6392SOL    HW220076   1.468   6.217   3.691
 6393SOL     OW20077   5.414   0.665   0.598
 6393SOL    HW120078   5.493   0.669   0.538
 6393SOL    HW220079   5.383   0.570   0.605
 6394SOL     OW20080   3.403   4.583   1.289
 6394SOL    HW120081   3.307   4.555   1.283
 6394SOL    HW220082   3.461   4.505   1.266
 6395SOL     OW20083   5.727   1.504   0.997
 6395SOL    HW120084   5.634   1.469   0.987
 6395SOL    HW220085   5.733   1.594   0.955
 6396SOL     OW20086   5.925   3.773   5.566
 6396SOL    HW120087   5.829   3.748   5.580
 6396SOL    HW220088   5.944   3.783   5.469
 6397SOL     OW20089   6.888   0.884   0.858
 6397SOL    HW120090   6.988   0.885   0.866
 6397SOL    HW220091   6.862   0.887   0.762
 6398SOL     OW20092   3.804   1.522   1.519
 6398SOL    HW120093   3.852   1.479   1.443
 6398SOL    HW220094   3.796   1.457   1.595
 6399SOL     OW20095   2.630   5.510   0.233
 6399SOL    HW120096   2.550   5.550   0.189
 6399SOL    HW220097   2.695   5.582   0.257
 6400SOL     OW20098   2.735   5.445   4.080
 6400SOL    HW120099   2.672   5.386   4.029
 6400SOL    HW220100   2.695   5.536   4.090
 6401SOL     OW20101   0.760   4.765   3.791
 6401SOL    HW120102   0.852   4.726   3.792
 6401SOL    HW220103   0.720   4.754   3.700
 6402SOL     OW20104   1.676   2.084   3.214
 6402SOL    HW120105   1.626   2.093   3.300
 6402SOL    HW220106   1.622   2.123   3.139
 6403SOL     OW20107   0.276   6.004   1.132
 6403SOL    HW120108   0.329   6.026   1.050
 6403SOL    HW220109   0.257   5.906   1.134
 6404SOL     OW20110   5.024   0.489   3.088
 6404SOL    HW120111   5.085   0.560   3.122
 6404SOL    HW220112   4.936   0.495   3.134
 6405SOL     OW20113   2.978   1.197   2.048
 6405SOL    HW120114   2.972   1.239   2.139
 6405SOL    HW220115   2.909   1.238   1.988
 6406SOL     OW20116   2.360   1.954   3.729
 6406SOL    HW120117   2.358   1.886   3.656
 6406SOL    HW220118   2.371   1.908   3.817
 6407SOL     OW20119   4.277   5.308   6.360
 6407SOL    HW120120   4.210   5.382   6.352
 6407SOL    HW220121   4.286   5.282   6.456
 6408SOL     OW20122   6.269   1.898   0.262
 6408SOL    HW120123   6.211   1.836   0.314
 6408SOL    HW220124   6.215   1.977   0.233
 6409SOL     OW20125   0.800   4.779   2.342
 6409SOL    HW120126   0.764   4.841   2.272
 6409SOL    HW220127   0.771   4.685   2.320
 6410SOL     OW20128   1.069   1.589   1.808
 6410SOL    HW120129   1.110   1.506   1.846
 6410SOL    HW220130   1.078   1.664   1.873
 6411SOL     OW20131   2.142   0.501   3.639
 6411SOL    HW120132   2.103   0.413   3.612
 6411SOL    HW220133   2.242   0.495   3.637
 6412SOL     OW20134   0.221   1.754   4.855
 6412SOL    HW120135   0.137   1.774   4.804
 6412SOL    HW220136   0.263   1.672   4.817
 6413SOL     OW20137   0.166   4.588   0.587
 6413SOL    HW120138   0.147   4.559   0.681
 6413SOL    HW220139   0.176   4.508   0.528
 6414SOL     OW20140   6.523   6.650   2.513
 6414SOL    HW120141   6.449   6.586   2.532
 6414SOL    HW220142   6.571   6.671   2.599
 6415SOL     OW20143   1.545   1.920   2.110
 6415SOL    HW120144   1.517   1.972   2.030
 6415SOL    HW220145   1.619   1.857   2.085
 6416SOL     OW20146   1.990   6.658   6.665
 6416SOL    HW120147   1.998   6.719   6.586
 6416SOL    HW220148   2.058   6.684   6.734
 6417SOL     OW20149   0.845   6.778   3.182
 6417SOL    HW120150   0.783   6.745   3.253
 6417SOL    HW220151   0.794   6.831   3.115
 6418SOL     OW20152   6.566   5.755   2.484
 6418SOL    HW120153   6.622   5.704   2.419
 6418SOL    HW220154   6.602   5.848   2.493
 6419SOL     OW20155   2.931   4.968   1.291
 6419SOL    HW120156   2.949   4.870   1.282
 6419SOL    HW220157   2.851   4.982   1.348
 6420SOL     OW20158   0.547   3.514   6.668
 6420SOL    HW120159   0.474   3.467   6.716
 6420SOL    HW220160   0.635   3.478   6.697
 6421SOL     OW20161   5.560   2.026   1.031
 6421SOL    HW120162   5.550   2.103   1.093
 6421SOL    HW220163   5.638   2.041   0.971
 6422SOL     OW20164   6.221   1.874   3.589
 6422SOL    HW120165   6.312   1.858   3.552
 6422SOL    HW220166   6.164   1.793   3.573
 6423SOL     OW20167   4.990   4.102   0.850
 6423SOL    HW120168   4.940   4.126   0.934
 6423SOL    HW220169   5.087   4.119   0.864
 6424SOL     OW20170   6.808   5.446   4.998
 6424SOL    HW120171   6.873   5.437   4.922
 6424SOL    HW220172   6.720   5.476   4.962
 6425SOL     OW20173   6.982   4.911   1.405
 6425SOL    HW120174   6.895   4.944   1.368
 6425SOL    HW220175   0.021   4.902   1.330
 6426SOL     OW20176   6.729   3.289   3.586
 6426SOL    HW120177   6.783   3.243   3.656
 6426SOL    HW220178   6.747   3.248   3.497
 6427SOL     OW20179   1.276   3.418   5.690
 6427SOL    HW120180   1.327   3.503   5.681
 6427SOL    HW220181   1.334   3.341   5.667
 6428SOL     OW20182   6.409   2.806   2.505
 6428SOL    HW120183   6.365   2.800   2.415
 6428SOL    HW220184   6.455   2.720   2.526
 6429SOL     OW20185   0.913   0.563   4.335
 6429SOL    HW120186   0.981   0.517   4.392
 6429SOL    HW220187   0.857   0.494   4.289
 6430SOL     OW20188   5.958   3.768   0.490
 6430SOL    HW120189   5.932   3.836   0.559
 6430SOL    HW220190   6.005   3.692   0.535
 6431SOL     OW20191   5.604   0.589   3.061
 6431SOL    HW120192   5.688   0.589   3.114
 6431SOL    HW220193   5.562   0.680   3.064
 6432SOL     OW20194   5.782   3.315   0.134
 6432SOL    HW120195   5.721   3.238   0.117
 6432SOL    HW220196   5.775   3.344   0.229
 6433SOL     OW20197   2.766   3.816   1.674
 6433SOL    HW120198   2.845   3.792   1.617
 6433SOL    HW220199   2.758   3.915   1.681
 6434SOL     OW20200   1.940   5.341   0.419
 6434SOL    HW120201   1.920   5.434   0.389
 6434SOL    HW220202   1.932   5.279   0.340
 6435SOL     OW20203   4.779   4.000   0.664
 6435SOL    HW120204   4.868   4.025   0.701
 6435SOL    HW220205   4.791   3.952   0.577
 6436SOL     OW20206   1.496   3.027   2.480
 6436SOL    HW120207   1.507   2.929   2.500
 6436SOL    HW220208   1.455   3.073   2.558
 6437SOL     OW20209   0.708   0.821   0.101
 6437SOL    HW120210   0.785   0.765   0.130
 6437SOL    HW220211   0.731   0.918   0.110
 6438SOL     OW20212   1.197   3.390   3.404
 6438SOL    HW120213   1.102   3.363   3.420
 6438SOL    HW220214   1.207   3.425   3.311
 6439SOL     OW20215   0.138   0.202   2.150
 6439SOL    HW120216   0.195   0.157   2.082
 6439SOL    HW220217   0.046   0.165   2.146
 6440SOL     OW20218   0.769   1.076   2.580
 6440SOL    HW120219   0.768   1.136   2.660
 6440SOL    HW220220   0.728   1.123   2.502
 6441SOL     OW20221   3.648   1.225   3.505
 6441SOL    HW120222   3.550   1.212   3.512
 6441SOL    HW220223   3.675   1.307   3.556
 6442SOL     OW20224   3.365   0.715   3.689
 6442SOL    HW120225   3.344   0.618   3.681
 6442SOL    HW220226   3.304   0.757   3.756
 6443SOL     OW20227   2.676   1.339   0.430
 6443SOL    HW120228   2.700   1.337   0.527
 6443SOL    HW220229   2.756   1.364   0.376
 6444SOL     OW20230   0.638   0.796   3.533
 6444SOL    HW120231   0.614   0.876   3.587
 6444SOL    HW220232   0.708   0.743   3.581
 6445SOL     OW20233   4.042   3.256   5.201
 6445SOL    HW120234   4.137   3.239   5.228
 6445SOL    HW220235   3.987   3.174   5.216
 6446SOL     OW20236   6.173   1.849   0.612
 6446SOL    HW120237   6.134   1.892   0.531
 6446SOL    HW220238   6.122   1.765   0.634
 6447SOL     OW20239   1.844   0.736   2.859
 6447SOL    HW120240   1.894   0.688   2.787
 6447SOL    HW220241   1.746   0.736   2.837
 6448SOL     OW20242   6.154   2.563   2.647
 6448SOL    HW120243   6.126   2.471   2.623
 6448SOL    HW220244   6.231   2.591   2.589
 6449SOL     OW20245   3.449   3.274   1.009
 6449SOL    HW120246   3.380   3.256   0.939
 6449SOL    HW220247   3.409   3.261   1.099
 6450SOL     OW20248   6.842   3.782   0.201
 6450SOL    HW120249   6.805   3.721   0.271
 6450SOL    HW220250   6.767   3.829   0.155
 6451SOL     OW20251   2.200   6.736   4.138
 6451SOL    HW120252   2.155   6.649   4.115
 6451SOL    HW220253   2.155   6.777   4.218
 6452SOL     OW20254   4.452   6.325   3.246
 6452SOL    HW120255   4.453   6.415   3.291
 6452SOL    HW220256   4.379   6.323   3.178
 6453SOL     OW20257   2.099   4.538   6.269
 6453SOL    HW120258   2.046   4.541   6.184
 6453SOL    HW220259   2.145   4.449   6.276
 6454SOL     OW20260   3.306   1.743   4.562
 6454SOL    HW120261   3.344   1.661   4.519
 6454SOL    HW220262   3.312   1.733   4.662
 6455SOL     OW20263   6.817   2.956   5.414
 6455SOL    HW120264   6.766   3.001   5.341
 6455SOL    HW220265   6.770   2.872   5.441
 6456SOL     OW20266   6.576   0.953   4.320
 6456SOL    HW120267   6.607   0.882   4.255
 6456SOL    HW220268   6.654   1.011   4.345
 6457SOL     OW20269   6.424   3.280   1.987
 6457SOL    HW120270   6.466   3.360   1.943
 6457SOL    HW220271   6.414   3.298   2.085
 6458SOL     OW20272   1.273   5.453   2.511
 6458SOL    HW120273   1.284   5.425   2.606
 6458SOL    HW220274   1.335   5.400   2.453
 6459SOL     OW20275   4.814   4.804   0.733
 6459SOL    HW120276   4.798   4.706   0.745
 6459SOL    HW220277   4.734   4.855   0.765
 6460SOL     OW20278   3.655   4.993   6.668
 6460SOL    HW120279   3.648   4.937   6.750
 6460SOL    HW220280   3.660   5.090   6.693
 6461SOL     OW20281   3.601   5.577   4.590
 6461SOL    HW120282   3.676   5.543   4.647
 6461SOL    HW220283   3.583   5.673   4.610
 6462SOL     OW20284   2.020   3.198   3.982
 6462SOL    HW120285   2.108   3.232   4.016
 6462SOL    HW220286   2.036   3.131   3.909
 6463SOL     OW20287   1.344   4.361   5.190
 6463SOL    HW120288   1.342   4.299   5.112
 6463SOL    HW220289   1.414   4.330   5.255
 6464SOL     OW20290   0.812   5.396   2.357
 6464SOL    HW120291   0.785   5.340   2.435
 6464SOL    HW220292   0.905   5.429   2.371
 6465SOL     OW20293   6.296   0.714   2.601
 6465SOL    HW120294   6.334   0.785   2.542
 6465SOL    HW220295   6.227   0.662   2.551
 6466SOL     OW20296   0.680   2.336   5.310
 6466SOL    HW120297   0.614   2.319   5.237
 6466SOL    HW220298   0.709   2.432   5.307
 6467SOL     OW20299   2.502   1.015   6.518
 6467SOL    HW120300   2.530   1.103   6.481
 6467SOL    HW220301   2.475   0.953   6.444
 6468SOL     OW20302   4.849   4.492   1.071
 6468SOL    HW120303   4.836   4.590   1.083
 6468SOL    HW220304   4.781   4.457   1.006
 6469SOL     OW20305   0.037   1.129   5.360
 6469SOL    HW120306   7.002   1.155   5.286
 6469SOL    HW220307   0.087   1.209   5.392
 6470SOL     OW20308   6.708   6.124   5.617
 6470SOL    HW120309   6.692   6.051   5.551
 6470SOL    HW220310   6.668   6.209   5.583
 6471SOL     OW20311   5.575   5.329   6.049
 6471SOL    HW120312   5.516   5.401   6.086
 6471SOL    HW220313   5.540   5.240   6.077
 6472SOL     OW20314   0.960   5.645   0.784
 6472SOL    HW120315   1.003   5.644   0.694
 6472SOL    HW220316   0.922   5.736   0.802
 6473SOL     OW20317   2.514   1.413   5.710
 6473SOL    HW120318   2.461   1.494   5.736
 6473SOL    HW220319   2.554   1.372   5.792
 6474SOL     OW20320   2.215   3.330   5.386
 6474SOL    HW120321   2.154   3.365   5.457
 6474SOL    HW220322   2.194   3.373   5.299
 6475SOL     OW20323   4.292   6.528   4.124
 6475SOL    HW120324   4.273   6.548   4.028
 6475SOL    HW220325   4.369   6.465   4.130
 6476SOL     OW20326   4.771   5.353   2.931
 6476SOL    HW120327   4.849   5.346   2.992
 6476SOL    HW220328   4.721   5.438   2.950
 6477SOL     OW20329   0.133   5.798   6.626
 6477SOL    HW120330   0.204   5.851   6.579
 6477SOL    HW220331   0.164   5.704   6.637
 6478SOL     OW20332   5.098   6.610   0.783
 6478SOL    HW120333   5.000   6.629   0.774
 6478SOL    HW220334   5.118   6.584   0.878
 6479SOL     OW20335   3.942   5.732   2.670
 6479SOL    HW120336   3.870   5.673   2.708
 6479SOL    HW220337   3.995   5.772   2.746
 6480SOL     OW20338   3.219   2.044   0.169
 6480SOL    HW120339   3.128   2.008   0.191
 6480SOL    HW220340   3.277   1.971   0.134
 6481SOL     OW20341   4.721   1.099   1.160
 6481SOL    HW120342   4.715   1.198   1.147
 6481SOL    HW220343   4.630   1.063   1.183
 6482SOL     OW20344   0.182   0.846   6.985
 6482SOL    HW120345   0.165   0.820   6.889
 6482SOL    HW220346   0.238   0.929   6.987
 6483SOL     OW20347   1.989   6.142   2.257
 6483SOL    HW120348   2.064   6.081   2.281
 6483SOL    HW220349   1.975   6.208   2.330
 6484SOL     OW20350   5.526   6.315   3.437
 6484SOL    HW120351   5.606   6.352   3.483
 6484SOL    HW220352   5.540   6.316   3.338
 6485SOL     OW20353   1.004   2.528   2.892
 6485SOL    HW120354   1.099   2.524   2.925
 6485SOL    HW220355   0.942   2.499   2.964
 6486SOL     OW20356   1.819   2.741   3.166
 6486SOL    HW120357   1.821   2.762   3.069
 6486SOL    HW220358   1.742   2.788   3.209
 6487SOL     OW20359   5.882   6.033   3.650
 6487SOL    HW120360   5.842   6.120   3.620
 6487SOL    HW220361   5.956   6.051   3.714
 6488SOL     OW20362   3.666   5.206   6.222
 6488SOL    HW120363   3.581   5.176   6.265
 6488SOL    HW220364   3.650   5.224   6.125
 6489SOL     OW20365   1.980   2.140   5.574
 6489SOL    HW120366   1.926   2.064   5.540
 6489SOL    HW220367   2.062   2.105   5.619
 6490SOL     OW20368   3.380   1.369   0.231
 6490SOL    HW120369   3.388   1.309   0.152
 6490SOL    HW220370   3.398   1.317   0.315
 6491SOL     OW20371   3.499   1.557   6.246
 6491SOL    HW120372   3.455   1.645   6.229
 6491SOL    HW220373   3.432   1.483   6.234
 6492SOL     OW20374   6.053   5.691   0.087
 6492SOL    HW120375   6.072   5.788   0.071
 6492SOL    HW220376   6.002   5.654   0.009
 6493SOL     OW20377   1.079   6.376   6.123
 6493SOL    HW120378   1.170   6.335   6.118
 6493SOL    HW220379   1.044   6.392   6.031
 6494SOL     OW20380   1.592   6.849   3.614
 6494SOL    HW120381   1.638   6.902   3.543
 6494SOL    HW220382   1.502   6.890   3.633
 6495SOL     OW20383   5.149   4.784   2.676
 6495SOL    HW120384   5.105   4.774   2.765
 6495SOL    HW220385   5.183   4.695   2.646
 6496SOL     OW20386   2.475   6.650   3.068
 6496SOL    HW120387   2.392   6.700   3.093
 6496SOL    HW220388   2.515   6.690   2.985
 6497SOL     OW20389   0.557   4.748   6.892
 6497SOL    HW120390   0.485   4.818   6.885
 6497SOL    HW220391   0.566   4.719   6.987
 6498SOL     OW20392   1.411   4.640   3.804
 6498SOL    HW120393   1.457   4.617   3.890
 6498SOL    HW220394   1.428   4.735   3.781
 6499SOL     OW20395   6.056   1.612   3.913
 6499SOL    HW120396   6.018   1.522   3.892
 6499SOL    HW220397   6.012   1.681   3.856
 6500SOL     OW20398   5.555   4.524   3.702
 6500SOL    HW120399   5.556   4.589   3.626
 6500SOL    HW220400   5.460   4.494   3.718
 6501SOL     OW20401   6.967   3.790   1.019
 6501SOL    HW120402   6.959   3.695   1.049
 6501SOL    HW220403   6.876   3.826   0.997
 6502SOL     OW20404   1.641   4.952   2.371
 6502SOL    HW120405   1.615   5.047   2.353
 6502SOL    HW220406   1.597   4.892   2.304
 6503SOL     OW20407   4.364   0.265   4.634
 6503SOL    HW120408   4.294   0.321   4.590
 6503SOL    HW220409   4.359   0.171   4.599
 6504SOL     OW20410   2.783   1.065   0.836
 6504SOL    HW120411   2.851   1.007   0.880
 6504SOL    HW220412   2.710   1.086   0.900
 6505SOL     OW20413   5.653   5.149   0.910
 6505SOL    HW120414   5.733   5.097   0.881
 6505SOL    HW220415   5.570   5.108   0.871
 6506SOL     OW20416   1.924   2.523   0.755
 6506SOL    HW120417   1.828   2.503   0.736
 6506SOL    HW220418   1.943   2.619   0.737
 6507SOL     OW20419   2.868   0.562   2.262
 6507SOL    HW120420   2.857   0.464   2.279
 6507SOL    HW220421   2.908   0.576   2.171
 6508SOL     OW20422   2.067   1.571   2.636
 6508SOL    HW120423   2.055   1.507   2.712
 6508SOL    HW220424   2.049   1.664   2.668
 6509SOL     OW20425   0.626   2.234   4.732
 6509SOL    HW120426   0.678   2.318   4.746
 6509SOL    HW220427   0.686   2.155   4.744
 6510SOL     OW20428   5.501   5.057   6.137
 6510SOL    HW120429   5.464   4.980   6.087
 6510SOL    HW220430   5.567   5.025   6.206
 6511SOL     OW20431   6.347   6.266   5.474
 6511SOL    HW120432   6.318   6.357   5.504
 6511SOL    HW220433   6.295   6.197   5.523
 6512SOL     OW20434   5.099   6.582   3.371
 6512SOL    HW120435   5.053   6.664   3.404
 6512SOL    HW220436   5.194   6.580   3.403
 6513SOL     OW20437   3.135   0.139   2.808
 6513SOL    HW120438   3.108   0.097   2.722
 6513SOL    HW220439   3.130   0.239   2.799
 6514SOL     OW20440   3.555   6.823   3.335
 6514SOL    HW120441   3.487   6.790   3.269
 6514SOL    HW220442   3.509   6.867   3.412
 6515SOL     OW20443   1.419   1.048   4.791
 6515SOL    HW120444   1.401   1.032   4.694
 6515SOL    HW220445   1.335   1.037   4.843
 6516SOL     OW20446   1.472   1.221   5.840
 6516SOL    HW120447   1.462   1.153   5.768
 6516SOL    HW220448   1.383   1.262   5.860
 6517SOL     OW20449   1.300   2.287   6.815
 6517SOL    HW120450   1.310   2.242   6.727
 6517SOL    HW220451   1.207   2.324   6.824
 6518SOL     OW20452   6.056   6.092   0.761
 6518SOL    HW120453   6.114   6.011   0.764
 6518SOL    HW220454   5.994   6.093   0.839
 6519SOL     OW20455   2.014   2.034   3.422
 6519SOL    HW120456   2.096   1.977   3.420
 6519SOL    HW220457   2.041   2.130   3.421
 6520SOL     OW20458   5.454   5.147   1.852
 6520SOL    HW120459   5.385   5.110   1.914
 6520SOL    HW220460   5.496   5.228   1.893
 6521SOL     OW20461   0.985   1.865   5.637
 6521SOL    HW120462   0.994   1.776   5.681
 6521SOL    HW220463   1.073   1.892   5.598
 6522SOL     OW20464   2.163   5.171   5.371
 6522SOL    HW120465   2.209   5.258   5.387
 6522SOL    HW220466   2.231   5.097   5.372
 6523SOL     OW20467   1.344   2.206   6.565
 6523SOL    HW120468   1.330   2.286   6.507
 6523SOL    HW220469   1.426   2.157   6.535
 6524SOL     OW20470   3.433   3.899   4.010
 6524SOL    HW120471   3.393   3.826   3.954
 6524SOL    HW220472   3.397   3.893   4.103
 6525SOL     OW20473   0.477   2.787   4.667
 6525SOL    HW120474   0.424   2.871   4.676
 6525SOL    HW220475   0.431   2.714   4.718
 6526SOL     OW20476   1.978   5.994   4.629
 6526SOL    HW120477   1.927   5.929   4.574
 6526SOL    HW220478   1.936   6.084   4.622
 6527SOL     OW20479   2.153   1.318   4.392
 6527SOL    HW120480   2.144   1.235   4.337
 6527SOL    HW220481   2.245   1.356   4.381
 6528SOL     OW20482   6.814   7.001   3.542
 6528SOL    HW120483   6.751   0.022   3.603
 6528SOL    HW220484   6.791   7.023   3.447
 6529SOL     OW20485   6.526   2.535   1.603
 6529SOL    HW120486   6.588   2.538   1.682
 6529SOL    HW220487   6.484   2.445   1.598
 6530SOL     OW20488   7.023   2.231   0.741
 6530SOL    HW120489   0.072   2.288   0.710
 6530SOL    HW220490   7.019   2.148   0.686
 6531SOL     OW20491   5.097   2.885   4.114
 6531SOL    HW120492   5.177   2.918   4.164
 6531SOL    HW220493   5.037   2.835   4.176
 6532SOL     OW20494   0.575   1.893   6.567
 6532SOL    HW120495   0.497   1.876   6.508
 6532SOL    HW220496   0.651   1.930   6.513
 6533SOL     OW20497   4.990   1.382   0.800
 6533SOL    HW120498   4.973   1.346   0.708
 6533SOL    HW220499   4.942   1.469   0.812
 6534SOL     OW20500   1.872   3.521   0.806
 6534SOL    HW120501   1.785   3.564   0.828
 6534SOL    HW220502   1.868   3.484   0.713
 6535SOL     OW20503   2.020   3.410   5.552
 6535SOL    HW120504   1.990   3.443   5.641
 6535SOL    HW220505   2.011   3.484   5.485
 6536SOL     OW20506   6.997   2.426   7.018
 6536SOL    HW120507   6.948   2.338   7.016
 6536SOL    HW220508   0.053   2.416   0.044
 6537SOL     OW20509   0.416   6.799   6.982
 6537SOL    HW120510   0.471   6.879   6.959
 6537SOL    HW220511   0.362   6.819   0.036
 6538SOL     OW20512   1.919   3.330   5.880
 6538SOL    HW120513   1.837   3.342   5.824
 6538SOL    HW220514   1.892   3.309   5.974
 6539SOL     OW20515   2.384   1.622   6.795
 6539SOL    HW120516   2.421   1.552   6.735
 6539SOL    HW220517   2.385   1.710   6.747
 6540SOL     OW20518   3.673   1.297   4.080
 6540SOL    HW120519   3.680   1.301   3.981
 6540SOL    HW220520   3.763   1.315   4.120
 6541SOL     OW20521   2.626   2.614   5.394
 6541SOL    HW120522   2.628   2.633   5.492
 6541SOL    HW220523   2.586   2.691   5.345
 6542SOL     OW20524   5.804   4.536   3.438
 6542SOL    HW120525   5.902   4.516   3.437
 6542SOL    HW220526   5.790   4.629   3.472
 6543SOL     OW20527   6.961   5.560   6.781
 6543SOL    HW120528   6.924   5.647   6.812
 6543SOL    HW220529   0.018   5.575   6.730
 6544SOL     OW20530   6.195   6.160   4.205
 6544SOL    HW120531   6.115   6.158   4.266
 6544SOL    HW220532   6.197   6.077   4.150
 6545SOL     OW20533   5.437   2.512   5.707
 6545SOL    HW120534   5.363   2.537   5.645
 6545SOL    HW220535   5.523   2.550   5.672
 6546SOL     OW20536   3.103   4.389   5.961
 6546SOL    HW120537   3.058   4.311   5.918
 6546SOL    HW220538   3.040   4.466   5.967
 6547SOL     OW20539   4.844   1.486   6.546
 6547SOL    HW120540   4.831   1.509   6.643
 6547SOL    HW220541   4.777   1.536   6.491
 6548SOL     OW20542   6.185   4.881   5.275
 6548SOL    HW120543   6.097   4.832   5.274
 6548SOL    HW220544   6.190   4.939   5.356
 6549SOL     OW20545   3.281   1.367   1.397
 6549SOL    HW120546   3.357   1.302   1.393
 6549SOL    HW220547   3.316   1.457   1.423
 6550SOL     OW20548   0.378   5.590   3.382
 6550SOL    HW120549   0.420   5.534   3.310
 6550SOL    HW220550   0.417   5.682   3.379
 6551SOL     OW20551   2.261   5.181   2.371
 6551SOL    HW120552   2.300   5.185   2.279
 6551SOL    HW220553   2.253   5.273   2.408
 6552SOL     OW20554   4.140   4.781   6.161
 6552SOL    HW120555   4.121   4.694   6.208
 6552SOL    HW220556   4.164   4.762   6.066
 6553SOL     OW20557   0.100   2.827   2.749
 6553SOL    HW120558   0.165   2.884   2.698
 6553SOL    HW220559   0.100   2.854   2.845
 6554SOL     OW20560   0.438   2.906   5.255
 6554SOL    HW120561   0.394   2.991   5.284
 6554SOL    HW220562   0.536   2.910   5.277
 6555SOL     OW20563   0.542   1.352   2.290
 6555SOL    HW120564   0.472   1.417   2.263
 6555SOL    HW220565   0.512   1.259   2.268
 6556SOL     OW20566   3.535   0.338   4.414
 6556SOL    HW120567   3.584   0.296   4.491
 6556SOL    HW220568   3.520   0.269   4.343
 6557SOL     OW20569   6.289   6.307   1.004
 6557SOL    HW120570   6.247   6.340   1.088
 6557SOL    HW220571   6.304   6.208   1.011
 6558SOL     OW20572   6.208   5.541   6.514
 6558SOL    HW120573   6.177   5.446   6.508
 6558SOL    HW220574   6.252   5.557   6.603
 6559SOL     OW20575   3.274   3.177   0.802
 6559SOL    HW120576   3.260   3.083   0.772
 6559SOL    HW220577   3.308   3.232   0.725
 6560SOL     OW20578   3.933   2.037   0.476
 6560SOL    HW120579   3.864   2.080   0.534
 6560SOL    HW220580   3.905   1.944   0.452
 6561SOL     OW20581   3.905   4.039   4.405
 6561SOL    HW120582   3.918   3.978   4.483
 6561SOL    HW220583   3.823   4.095   4.420
 6562SOL     OW20584   5.685   3.545   5.575
 6562SOL    HW120585   5.710   3.582   5.485
 6562SOL    HW220586   5.586   3.548   5.586
 6563SOL     OW20587   2.007   4.824   2.521
 6563SOL    HW120588   1.908   4.814   2.527
 6563SOL    HW220589   2.032   4.920   2.527
 6564SOL     OW20590   1.520   5.597   2.905
 6564SOL    HW120591   1.568   5.541   2.973
 6564SOL    HW220592   1.576   5.677   2.883
 6565SOL     OW20593   6.045   3.358   5.046
 6565SOL    HW120594   5.957   3.405   5.055
 6565SOL    HW220595   6.096   3.397   4.969
 6566SOL     OW20596   3.932   6.827   0.913
 6566SOL    HW120597   3.844   6.786   0.936
 6566SOL    HW220598   3.948   6.907   0.970
 6567SOL     OW20599   5.924   3.005   1.550
 6567SOL    HW120600   5.998   2.974   1.611
 6567SOL    HW220601   5.882   2.926   1.506
 6568SOL     OW20602   4.048   4.353   1.674
 6568SOL    HW120603   3.974   4.355   1.606
 6568SOL    HW220604   4.098   4.267   1.666
 6569SOL     OW20605   0.882   4.491   6.410
 6569SOL    HW120606   0.875   4.395   6.384
 6569SOL    HW220607   0.886   4.498   6.509
 6570SOL     OW20608   6.291   2.898   0.763
 6570SOL    HW120609   6.243   2.937   0.685
 6570SOL    HW220610   6.237   2.823   0.803
 6571SOL     OW20611   2.788   6.163   3.777
 6571SOL    HW120612   2.886   6.180   3.771
 6571SOL    HW220613   2.754   6.194   3.866
 6572SOL     OW20614   0.802   3.432   6.690
 6572SOL    HW120615   0.890   3.475   6.667
 6572SOL    HW220616   0.809   3.392   6.782
 6573SOL     OW20617   1.962   1.833   2.346
 6573SOL    HW120618   2.055   1.868   2.339
 6573SOL    HW220619   1.965   1.733   2.350
 6574SOL     OW20620   2.457   4.721   3.044
 6574SOL    HW120621   2.378   4.782   3.042
 6574SOL    HW220622   2.535   4.768   3.085
 6575SOL     OW20623   1.331   0.910   2.859
 6575SOL    HW120624   1.317   0.995   2.809
 6575SOL    HW220625   1.254   0.849   2.843
 6576SOL     OW20626   1.086   6.405   5.350
 6576SOL    HW120627   1.165   6.401   5.410
 6576SOL    HW220628   1.006   6.368   5.398
 6577SOL     OW20629   6.400   2.505   4.594
 6577SOL    HW120630   6.473   2.482   4.659
 6577SOL    HW220631   6.311   2.498   4.640
 6578SOL     OW20632   6.676   5.460   3.013
 6578SOL    HW120633   6.765   5.416   3.000
 6578SOL    HW220634   6.637   5.485   2.925
 6579SOL     OW20635   0.663   3.794   2.493
 6579SOL    HW120636   0.622   3.730   2.557
 6579SOL    HW220637   0.762   3.780   2.491
 6580SOL     OW20638   6.238   2.441   1.378
 6580SOL    HW120639   6.263   2.528   1.420
 6580SOL    HW220640   6.142   2.420   1.398
 6581SOL     OW20641   2.699   2.174   5.462
 6581SOL    HW120642   2.603   2.169   5.489
 6581SOL    HW220643   2.719   2.102   5.396
 6582SOL     OW20644   0.235   0.180   3.025
 6582SOL    HW120645   0.208   0.272   3.052
 6582SOL    HW220646   0.249   0.177   2.926
 6583SOL     OW20647   5.519   1.606   5.233
 6583SOL    HW120648   5.607   1.563   5.251
 6583SOL    HW220649   5.497   1.598   5.136
 6584SOL     OW20650   5.425   1.754   6.592
 6584SOL    HW120651   5.336   1.732   6.632
 6584SOL    HW220652   5.451   1.681   6.528
 6585SOL     OW20653   2.204   0.975   0.675
 6585SOL    HW120654   2.276   0.936   0.732
 6585SOL    HW220655   2.151   0.902   0.632
 6586SOL     OW20656   0.024   2.326   6.751
 6586SOL    HW120657   6.995   2.359   6.675
 6586SOL    HW220658   7.025   2.373   6.835
 6587SOL     OW20659   2.312   6.749   2.419
 6587SOL    HW120660   2.322   6.818   2.347
 6587SOL    HW220661   2.291   6.660   2.379
 6588SOL     OW20662   2.342   2.795   6.700
 6588SOL    HW120663   2.398   2.716   6.725
 6588SOL    HW220664   2.369   2.874   6.755
 6589SOL     OW20665   4.935   1.602   5.407
 6589SOL    HW120666   4.875   1.587   5.329
 6589SOL    HW220667   5.010   1.537   5.405
 6590SOL     OW20668   6.461   1.308   5.230
 6590SOL    HW120669   6.508   1.386   5.187
 6590SOL    HW220670   6.368   1.303   5.195
 6591SOL     OW20671   5.799   0.958   2.021
 6591SOL    HW120672   5.866   0.898   2.063
 6591SOL    HW220673   5.841   1.047   2.001
 6592SOL     OW20674   5.034   5.742   4.899
 6592SOL    HW120675   5.082   5.788   4.974
 6592SOL    HW220676   5.056   5.787   4.813
 6593SOL     OW20677   4.155   0.986   2.592
 6593SOL    HW120678   4.234   0.932   2.622
 6593SOL    HW220679   4.152   0.988   2.493
 6594SOL     OW20680   5.421   0.577   6.569
 6594SOL    HW120681   5.327   0.611   6.569
 6594SOL    HW220682   5.470   0.615   6.490
 6595SOL     OW20683   1.261   3.561   0.815
 6595SOL    HW120684   1.177   3.519   0.780
 6595SOL    HW220685   1.248   3.586   0.911
 6596SOL     OW20686   3.621   6.840   4.951
 6596SOL    HW120687   3.659   6.826   4.860
 6596SOL    HW220688   3.582   6.754   4.985
 6597SOL     OW20689   0.043   4.755   5.777
 6597SOL    HW120690   0.102   4.836   5.765
 6597SOL    HW220691   7.006   4.772   5.852
 6598SOL     OW20692   2.036   5.898   5.274
 6598SOL    HW120693   2.035   5.914   5.373
 6598SOL    HW220694   2.090   5.816   5.254
 6599SOL     OW20695   4.655   3.875   6.065
 6599SOL    HW120696   4.660   3.884   6.164
 6599SOL    HW220697   4.726   3.811   6.034
 6600SOL     OW20698   4.431   5.969   4.497
 6600SOL    HW120699   4.412   5.976   4.399
 6600SOL    HW220700   4.440   5.873   4.523
 6601SOL     OW20701   1.144   0.163   1.535
 6601SOL    HW120702   1.049   0.191   1.550
 6601SOL    HW220703   1.203   0.209   1.602
 6602SOL     OW20704   6.467   1.989   1.529
 6602SOL    HW120705   6.566   1.978   1.527
 6602SOL    HW220706   6.442   2.074   1.484
 6603SOL     OW20707   2.307   2.856   2.994
 6603SOL    HW120708   2.288   2.936   3.050
 6603SOL    HW220709   2.302   2.774   3.051
 6604SOL     OW20710   3.885   6.166   3.380
 6604SOL    HW120711   3.853   6.259   3.398
 6604SOL    HW220712   3.984   6.161   3.394
 6605SOL     OW20713   5.884   6.493   0.014
 6605SOL    HW120714   5.924   6.440   0.089
 6605SOL    HW220715   5.957   6.536   6.988
 6606SOL     OW20716   5.830   1.565   2.759
 6606SOL    HW120717   5.925   1.537   2.775
 6606SOL    HW220718   5.770   1.518   2.823
 6607SOL     OW20719   1.063   2.484   3.658
 6607SOL    HW120720   1.065   2.464   3.560
 6607SOL    HW220721   1.052   2.399   3.710
 6608SOL     OW20722   5.445   3.547   4.550
 6608SOL    HW120723   5.453   3.447   4.545
 6608SOL    HW220724   5.529   3.589   4.517
 6609SOL     OW20725   5.749   1.959   6.515
 6609SOL    HW120726   5.684   1.905   6.461
 6609SOL    HW220727   5.833   1.906   6.528
 6610SOL     OW20728   2.977   1.097   0.069
 6610SOL    HW120729   3.058   1.121   0.015
 6610SOL    HW220730   3.000   1.101   0.166
 6611SOL     OW20731   5.646   3.241   2.863
 6611SOL    HW120732   5.667   3.201   2.952
 6611SOL    HW220733   5.723   3.227   2.800
 6612SOL     OW20734   1.354   6.039   6.381
 6612SOL    HW120735   1.439   5.989   6.366
 6612SOL    HW220736   1.293   5.986   6.440
 6613SOL     OW20737   4.852   5.275   1.615
 6613SOL    HW120738   4.934   5.292   1.670
 6613SOL    HW220739   4.857   5.182   1.577
 6614SOL     OW20740   5.353   6.022   5.847
 6614SOL    HW120741   5.326   6.056   5.937
 6614SOL    HW220742   5.437   6.069   5.818
 6615SOL     OW20743   0.961   4.260   5.491
 6615SOL    HW120744   1.031   4.331   5.484
 6615SOL    HW220745   0.904   4.261   5.408
 6616SOL     OW20746   4.608   0.349   4.723
 6616SOL    HW120747   4.512   0.334   4.696
 6616SOL    HW220748   4.664   0.357   4.641
 6617SOL     OW20749   4.789   0.277   5.051
 6617SOL    HW120750   4.861   0.309   5.112
 6617SOL    HW220751   4.830   0.231   4.972
 6618SOL     OW20752   0.788   4.505   1.498
 6618SOL    HW120753   0.871   4.500   1.554
 6618SOL    HW220754   0.737   4.420   1.506
 6619SOL     OW20755   5.670   5.978   2.385
 6619SOL    HW120756   5.731   5.903   2.408
 6619SOL    HW220757   5.686   6.007   2.290
 6620SOL     OW20758   3.497   2.975   5.697
 6620SOL    HW120759   3.512   2.938   5.606
 6620SOL    HW220760   3.399   2.986   5.713
 6621SOL     OW20761   2.806   4.144   0.110
 6621SOL    HW120762   2.801   4.179   0.017
 6621SOL    HW220763   2.731   4.183   0.164
 6622SOL     OW20764   6.029   6.770   0.056
 6622SOL    HW120765   6.106   6.790   0.117
 6622SOL    HW220766   5.945   6.807   0.096
 6623SOL     OW20767   3.541   3.722   2.481
 6623SOL    HW120768   3.543   3.723   2.381
 6623SOL    HW220769   3.561   3.630   2.515
 6624SOL     OW20770   4.326   4.926   4.205
 6624SOL    HW120771   4.398   4.965   4.148
 6624SOL    HW220772   4.334   4.965   4.297
 6625SOL     OW20773   6.008   0.435   0.281
 6625SOL    HW120774   5.929   0.419   0.223
 6625SOL    HW220775   6.056   0.518   0.250
 6626SOL     OW20776   3.311   4.948   3.646
 6626SOL    HW120777   3.389   4.978   3.592
 6626SOL    HW220778   3.341   4.930   3.740
 6627SOL     OW20779   2.150   6.272   1.485
 6627SOL    HW120780   2.105   6.198   1.535
 6627SOL    HW220781   2.234   6.237   1.442
 6628SOL     OW20782   4.171   6.165   3.349
 6628SOL    HW120783   4.216   6.172   3.260
 6628SOL    HW220784   4.161   6.256   3.389
 6629SOL     OW20785   3.168   4.316   0.274
 6629SOL    HW120786   3.081   4.284   0.237
 6629SOL    HW220787   3.180   4.282   0.367
 6630SOL     OW20788   2.798   2.515   5.799
 6630SOL    HW120789   2.756   2.605   5.787
 6630SOL    HW220790   2.876   2.523   5.861
 6631SOL     OW20791   4.068   0.710   2.275
 6631SOL    HW120792   3.998   0.684   2.209
 6631SOL    HW220793   4.055   0.659   2.360
 6632SOL     OW20794   6.976   2.566   2.473
 6632SOL    HW120795   6.969   2.472   2.438
 6632SOL    HW220796   0.034   2.574   2.526
 6633SOL     OW20797   0.432   6.952   1.137
 6633SOL    HW120798   0.439   6.997   1.226
 6633SOL    HW220799   0.518   6.906   1.116
 6634SOL     OW20800   6.911   2.968   6.156
 6634SOL    HW120801   6.853   2.990   6.234
 6634SOL    HW220802   6.986   2.910   6.186
 6635SOL     OW20803   4.348   4.562   3.469
 6635SOL    HW120804   4.279   4.519   3.528
 6635SOL    HW220805   4.303   4.617   3.399
 6636SOL     OW20806   1.434   2.639   3.905
 6636SOL    HW120807   1.506   2.570   3.904
 6636SOL    HW220808   1.381   2.634   3.820
 6637SOL     OW20809   6.847   1.155   1.680
 6637SOL    HW120810   6.919   1.170   1.613
 6637SOL    HW220811   6.769   1.214   1.660
 6638SOL     OW20812   2.548   5.790   6.146
 6638SOL    HW120813   2.448   5.792   6.154
 6638SOL    HW220814   2.576   5.841   6.064
 6639SOL     OW20815   5.243   5.691   6.836
 6639SOL    HW120816   5.202   5.740   6.913
 6639SOL    HW220817   5.270   5.600   6.864
 6640SOL     OW20818   6.164   3.147   3.592
 6640SOL    HW120819   6.102   3.092   3.648
 6640SOL    HW220820   6.251   3.159   3.641
 6641SOL     OW20821   2.003   4.104   6.854
 6641SOL    HW120822   1.996   4.188   6.908
 6641SOL    HW220823   2.095   4.065   6.866
 6642SOL     OW20824   0.122   6.376   6.949
 6642SOL    HW120825   0.062   6.445   6.991
 6642SOL    HW220826   0.109   6.289   6.996
 6643SOL     OW20827   4.338   5.332   6.870
 6643SOL    HW120828   4.389   5.418   6.879
 6643SOL    HW220829   4.244   5.346   6.902
 6644SOL     OW20830   2.828   4.780   2.118
 6644SOL    HW120831   2.781   4.856   2.073
 6644SOL    HW220832   2.850   4.710   2.050
 6645SOL     OW20833   6.555   5.024   5.240
 6645SOL    HW120834   6.580   4.994   5.332
 6645SOL    HW220835   6.613   4.978   5.173
 6646SOL     OW20836   1.966   5.952   3.521
 6646SOL    HW120837   1.948   5.873   3.580
 6646SOL    HW220838   2.063   5.975   3.525
 6647SOL     OW20839   3.713   2.042   2.229
 6647SOL    HW120840   3.674   2.101   2.158
 6647SOL    HW220841   3.640   1.996   2.278
 6648SOL     OW20842   4.855   5.907   2.399
 6648SOL    HW120843   4.840   5.881   2.304
 6648SOL    HW220844   4.841   6.006   2.409
 6649SOL     OW20845   3.596   2.217   6.335
 6649SOL    HW120846   3.564   2.297   6.284
 6649SOL    HW220847   3.534   2.200   6.412
 6650SOL     OW20848   3.091   2.156   3.222
 6650SOL    HW120849   3.033   2.167   3.141
 6650SOL    HW220850   3.185   2.183   3.200
 6651SOL     OW20851   1.213   2.589   0.086
 6651SOL    HW120852   1.215   2.667   0.024
 6651SOL    HW220853   1.307   2.558   0.103
 6652SOL     OW20854   0.253   5.153   3.133
 6652SOL    HW120855   0.195   5.229   3.161
 6652SOL    HW220856   0.346   5.168   3.167
 6653SOL     OW20857   2.933   3.269   3.472
 6653SOL    HW120858   2.907   3.316   3.387
 6653SOL    HW220859   2.915   3.329   3.550
 6654SOL     OW20860   2.170   3.499   1.674
 6654SOL    HW120861   2.081   3.453   1.684
 6654SOL    HW220862   2.222   3.490   1.759
 6655SOL     OW20863   2.152   0.411   0.725
 6655SOL    HW120864   2.129   0.360   0.808
 6655SOL    HW220865   2.140   0.509   0.741
 6656SOL     OW20866   6.183   2.046   1.553
 6656SOL    HW120867   6.139   2.003   1.474
 6656SOL    HW220868   6.271   2.002   1.571
 6657SOL     OW20869   2.758   5.534   6.228
 6657SOL    HW120870   2.781   5.607   6.292
 6657SOL    HW220871   2.659   5.532   6.213
 6658SOL     OW20872   4.862   0.713   5.866
 6658SOL    HW120873   4.934   0.779   5.888
 6658SOL    HW220874   4.773   0.756   5.883
 6659SOL     OW20875   1.127   3.436   6.734
 6659SOL    HW120876   1.184   3.402   6.658
 6659SOL    HW220877   1.171   3.413   6.821
 6660SOL     OW20878   0.201   6.805   3.243
 6660SOL    HW120879   0.210   6.795   3.144
 6660SOL    HW220880   0.188   6.901   3.267
 6661SOL     OW20881   0.026   5.996   3.688
 6661SOL    HW120882   0.005   5.951   3.601
 6661SOL    HW220883   0.117   6.037   3.683
 6662SOL     OW20884   0.822   3.596   5.921
 6662SOL    HW120885   0.920   3.577   5.929
 6662SOL    HW220886   0.801   3.684   5.964
 6663SOL     OW20887   0.196   5.938   1.885
 6663SOL    HW120888   0.178   5.841   1.873
 6663SOL    HW220889   0.280   5.950   1.938
 6664SOL     OW20890   0.774   1.611   3.046
 6664SOL    HW120891   0.725   1.543   3.100
 6664SOL    HW220892   0.873   1.599   3.058
 6665SOL     OW20893   2.991   6.447   2.286
 6665SOL    HW120894   2.955   6.539   2.271
 6665SOL    HW220895   3.071   6.433   2.229
 6666SOL     OW20896   6.303   0.038   0.560
 6666SOL    HW120897   6.335   0.099   0.487
 6666SOL    HW220898   6.313   6.970   0.531
 6667SOL     OW20899   6.753   5.624   4.388
 6667SOL    HW120900   6.841   5.584   4.364
 6667SOL    HW220901   6.680   5.568   4.348
 6668SOL     OW20902   0.419   5.714   1.897
 6668SOL    HW120903   0.422   5.788   1.964
 6668SOL    HW220904   0.513   5.687   1.874
 6669SOL     OW20905   1.772   5.448   2.969
 6669SOL    HW120906   1.841   5.384   3.005
 6669SOL    HW220907   1.806   5.490   2.884
 6670SOL     OW20908   3.581   4.730   0.424
 6670SOL    HW120909   3.575   4.639   0.382
 6670SOL    HW220910   3.583   4.721   0.523
 6671SOL     OW20911   0.342   2.445   5.179
 6671SOL    HW120912   0.360   2.501   5.260
 6671SOL    HW220913   0.357   2.348   5.202
 6672SOL     OW20914   1.438   0.826   5.401
 6672SOL    HW120915   1.351   0.814   5.449
 6672SOL    HW220916   1.443   0.762   5.324
 6673SOL     OW20917   4.882   4.745   1.510
 6673SOL    HW120918   4.953   4.736   1.440
 6673SOL    HW220919   4.856   4.654   1.543
 6674SOL     OW20920   1.170   0.039   4.278
 6674SOL    HW120921   1.223   0.055   4.195
 6674SOL    HW220922   1.214   6.996   4.333
 6675SOL     OW20923   6.456   5.835   0.555
 6675SOL    HW120924   6.546   5.831   0.600
 6675SOL    HW220925   6.469   5.854   0.458
 6676SOL     OW20926   0.974   2.416   6.541
 6676SOL    HW120927   1.025   2.438   6.458
 6676SOL    HW220928   0.938   2.500   6.582
 6677SOL     OW20929   6.831   4.117   0.225
 6677SOL    HW120930   6.847   4.205   0.180
 6677SOL    HW220931   6.767   4.129   0.300
 6678SOL     OW20932   1.117   3.040   5.145
 6678SOL    HW120933   1.148   3.092   5.225
 6678SOL    HW220934   1.195   3.021   5.086
 6679SOL     OW20935   1.719   2.110   4.548
 6679SOL    HW120936   1.664   2.180   4.593
 6679SOL    HW220937   1.786   2.154   4.488
 6680SOL     OW20938   2.446   6.631   6.730
 6680SOL    HW120939   2.443   6.546   6.678
 6680SOL    HW220940   2.500   6.617   6.813
 6681SOL     OW20941   5.690   5.323   0.347
 6681SOL    HW120942   5.730   5.325   0.439
 6681SOL    HW220943   5.724   5.401   0.294
 6682SOL     OW20944   7.024   5.866   2.630
 6682SOL    HW120945   6.998   5.864   2.533
 6682SOL    HW220946   7.003   5.779   2.673
 6683SOL     OW20947   5.291   1.736   4.007
 6683SOL    HW120948   5.292   1.695   4.098
 6683SOL    HW220949   5.221   1.807   4.004
 6684SOL     OW20950   2.312   6.969   2.226
 6684SOL    HW120951   2.297   0.034   2.192
 6684SOL    HW220952   2.242   6.908   2.188
 6685SOL     OW20953   5.107   3.385   6.277
 6685SOL    HW120954   5.027   3.397   6.337
 6685SOL    HW220955   5.159   3.306   6.308
 6686SOL     OW20956   5.791   4.119   3.934
 6686SOL    HW120957   5.748   4.030   3.939
 6686SOL    HW220958   5.748   4.173   3.862
 6687SOL     OW20959   1.330   1.485   0.323
 6687SOL    HW120960   1.405   1.428   0.356
 6687SOL    HW220961   1.308   1.554   0.392
 6688SOL     OW20962   0.484   4.759   3.176
 6688SOL    HW120963   0.555   4.704   3.220
 6688SOL    HW220964   0.394   4.726   3.204
 6689SOL     OW20965   4.651   5.260   6.900
 6689SOL    HW120966   4.713   5.229   6.972
 6689SOL    HW220967   4.556   5.245   6.929
 6690SOL     OW20968   1.608   2.402   0.761
 6690SOL    HW120969   1.539   2.473   0.746
 6690SOL    HW220970   1.635   2.402   0.857
 6691SOL     OW20971   2.156   5.236   1.045
 6691SOL    HW120972   2.223   5.187   1.101
 6691SOL    HW220973   2.070   5.242   1.095
 6692SOL     OW20974   3.391   4.009   6.016
 6692SOL    HW120975   3.410   3.936   5.950
 6692SOL    HW220976   3.439   4.092   5.988
 6693SOL     OW20977   3.684   3.921   4.814
 6693SOL    HW120978   3.643   3.990   4.755
 6693SOL    HW220979   3.617   3.849   4.832
 6694SOL     OW20980   2.769   6.510   0.611
 6694SOL    HW120981   2.742   6.602   0.583
 6694SOL    HW220982   2.867   6.508   0.631
 6695SOL     OW20983   1.426   1.443   6.951
 6695SOL    HW120984   1.413   1.396   6.863
 6695SOL    HW220985   1.363   1.405   7.019
 6696SOL     OW20986   2.092   3.256   2.034
 6696SOL    HW120987   2.148   3.336   2.011
 6696SOL    HW220988   2.134   3.174   1.996
 6697SOL     OW20989   5.133   1.405   2.906
 6697SOL    HW120990   5.092   1.491   2.936
 6697SOL    HW220991   5.231   1.405   2.925
 6698SOL     OW20992   3.939   3.719   0.717
 6698SOL    HW120993   3.922   3.815   0.743
 6698SOL    HW220994   3.871   3.660   0.761
 6699SOL     OW20995   1.192   3.636   6.999
 6699SOL    HW120996   1.275   3.584   6.976
 6699SOL    HW220997   1.189   3.719   6.943
 6700SOL     OW20998   6.125   6.673   6.436
 6700SOL    HW120999   6.175   6.746   6.483
 6700SOL    HW221000   6.178   6.642   6.357
 6701SOL     OW21001   0.821   2.228   0.570
 6701SOL    HW121002   0.771   2.314   0.578
 6701SOL    HW221003   0.911   2.238   0.611
 6702SOL     OW21004   2.094   2.282   1.198
 6702SOL    HW121005   2.092   2.373   1.156
 6702SOL    HW221006   2.149   2.221   1.142
 6703SOL     OW21007   0.331   2.331   6.482
 6703SOL    HW121008   0.374   2.420   6.496
 6703SOL    HW221009   0.320   2.285   6.571
 6704SOL     OW21010   5.393   1.976   3.165
 6704SOL    HW121011   5.306   2.024   3.154
 6704SOL    HW221012   5.440   1.971   3.078
 6705SOL     OW21013   5.828   1.240   0.326
 6705SOL    HW121014   5.782   1.268   0.242
 6705SOL    HW221015   5.926   1.228   0.309
 6706SOL     OW21016   0.620   5.162   6.253
 6706SOL    HW121017   0.673   5.152   6.338
 6706SOL    HW221018   0.558   5.084   6.243
 6707SOL     OW21019   1.298   5.821   2.025
 6707SOL    HW121020   1.262   5.753   2.090
 6707SOL    HW221021   1.394   5.799   2.005
 6708SOL     OW21022   2.211   5.987   1.206
 6708SOL    HW121023   2.226   5.964   1.303
 6708SOL    HW221024   2.208   6.086   1.196
 6709SOL     OW21025   5.507   1.309   2.794
 6709SOL    HW121026   5.575   1.240   2.818
 6709SOL    HW221027   5.524   1.392   2.847
 6710SOL     OW21028   2.414   2.696   1.297
 6710SOL    HW121029   2.476   2.633   1.344
 6710SOL    HW221030   2.382   2.654   1.212
 6711SOL     OW21031   3.908   3.834   0.227
 6711SOL    HW121032   3.866   3.896   0.162
 6711SOL    HW221033   3.940   3.885   0.307
 6712SOL     OW21034   3.411   5.923   0.894
 6712SOL    HW121035   3.450   6.009   0.861
 6712SOL    HW221036   3.398   5.928   0.993
 6713SOL     OW21037   2.007   1.525   2.133
 6713SOL    HW121038   2.104   1.501   2.128
 6713SOL    HW221039   1.977   1.527   2.228
 6714SOL     OW21040   6.807   0.244   3.820
 6714SOL    HW121041   6.876   0.316   3.807
 6714SOL    HW221042   6.851   0.162   3.856
 6715SOL     OW21043   0.578   1.938   0.943
 6715SOL    HW121044   0.549   2.032   0.955
 6715SOL    HW221045   0.577   1.914   0.846
 6716SOL     OW21046   2.717   5.386   0.473
 6716SOL    HW121047   2.815   5.368   0.464
 6716SOL    HW221048   2.678   5.410   0.384
 6717SOL     OW21049   3.829   1.824   6.543
 6717SOL    HW121050   3.919   1.781   6.537
 6717SOL    HW221051   3.765   1.773   6.485
 6718SOL     OW21052   3.350   7.012   0.209
 6718SOL    HW121053   3.360   0.052   0.282
 6718SOL    HW221054   3.344   0.032   0.121
 6719SOL     OW21055   0.611   0.394   5.344
 6719SOL    HW121056   0.558   0.402   5.429
 6719SOL    HW221057   0.655   0.305   5.340
 6720SOL     OW21058   1.938   4.809   1.634
 6720SOL    HW121059   2.013   4.861   1.594
 6720SOL    HW221060   1.920   4.728   1.580
 6721SOL     OW21061   6.651   6.688   3.679
 6721SOL    HW121062   6.730   6.715   3.624
 6721SOL    HW221063   6.682   6.643   3.763
 6722SOL     OW21064   4.604   3.899   0.024
 6722SOL    HW121065   4.623   3.914   6.954
 6722SOL    HW221066   4.505   3.889   0.038
 6723SOL     OW21067   3.883   6.804   1.615
 6723SOL    HW121068   3.957   6.865   1.641
 6723SOL    HW221069   3.803   6.858   1.587
 6724SOL     OW21070   3.538   4.642   5.423
 6724SOL    HW121071   3.460   4.658   5.482
 6724SOL    HW221072   3.516   4.571   5.356
 6725SOL     OW21073   0.594   4.842   2.547
 6725SOL    HW121074   0.556   4.751   2.560
 6725SOL    HW221075   0.679   4.836   2.493
 6726SOL     OW21076   2.448   2.624   2.413
 6726SOL    HW121077   2.436   2.558   2.339
 6726SOL    HW221078   2.497   2.704   2.378
 6727SOL     OW21079   3.821   4.065   0.082
 6727SOL    HW121080   3.848   4.158   0.057
 6727SOL    HW221081   3.843   4.003   0.006
 6728SOL     OW21082   4.788   0.981   3.976
 6728SOL    HW121083   4.882   0.992   3.944
 6728SOL    HW221084   4.729   1.047   3.930
 6729SOL     OW21085   6.231   6.537   2.865
 6729SOL    HW121086   6.325   6.529   2.898
 6729SOL    HW221087   6.232   6.545   2.765
 6730SOL     OW21088   1.274   6.937   1.136
 6730SOL    HW121089   1.282   6.848   1.180
 6730SOL    HW221090   1.267   7.008   1.207
 6731SOL     OW21091   2.358   4.891   2.188
 6731SOL    HW121092   2.267   4.860   2.213
 6731SOL    HW221093   2.427   4.841   2.240
 6732SOL     OW21094   1.707   4.937   1.072
 6732SOL    HW121095   1.656   4.865   1.026
 6732SOL    HW221096   1.740   5.003   1.005
 6733SOL     OW21097   5.704   5.845   5.757
 6733SOL    HW121098   5.658   5.898   5.686
 6733SOL    HW221099   5.710   5.749   5.728
 6734SOL     OW21100   2.551   3.510   5.534
 6734SOL    HW121101   2.533   3.434   5.471
 6734SOL    HW221102   2.517   3.595   5.494
 6735SOL     OW21103   6.752   5.217   6.201
 6735SOL    HW121104   6.807   5.238   6.282
 6735SOL    HW221105   6.689   5.143   6.222
 6736SOL     OW21106   2.016   3.605   2.493
 6736SOL    HW121107   2.049   3.578   2.403
 6736SOL    HW221108   2.044   3.537   2.561
 6737SOL     OW21109   2.172   1.032   1.117
 6737SOL    HW121110   2.118   0.961   1.163
 6737SOL    HW221111   2.114   1.080   1.051
 6738SOL     OW21112   3.906   1.419   2.426
 6738SOL    HW121113   3.889   1.479   2.504
 6738SOL    HW221114   3.820   1.402   2.377
 6739SOL     OW21115   4.407   6.874   4.888
 6739SOL    HW121116   4.472   6.937   4.845
 6739SOL    HW221117   4.415   6.880   4.988
 6740SOL     OW21118   6.004   3.036   4.522
 6740SOL    HW121119   5.908   3.034   4.496
 6740SOL    HW221120   6.012   3.016   4.620
 6741SOL     OW21121   6.946   0.097   5.828
 6741SOL    HW121122   6.945   0.029   5.902
 6741SOL    HW221123   6.990   0.057   5.747
 6742SOL     OW21124   6.253   6.068   5.645
 6742SOL    HW121125   6.328   6.008   5.675
 6742SOL    HW221126   6.183   6.013   5.601
 6743SOL     OW21127   4.722   3.406   0.720
 6743SOL    HW121128   4.701   3.459   0.802
 6743SOL    HW221129   4.749   3.467   0.646
 6744SOL     OW21130   5.569   5.387   5.487
 6744SOL    HW121131   5.613   5.309   5.444
 6744SOL    HW221132   5.472   5.368   5.500
 6745SOL     OW21133   0.407   3.803   3.820
 6745SOL    HW121134   0.484   3.867   3.818
 6745SOL    HW221135   0.441   3.710   3.809
 6746SOL     OW21136   6.672   1.234   1.372
 6746SOL    HW121137   6.704   1.179   1.296
 6746SOL    HW221138   6.599   1.295   1.340
 6747SOL     OW21139   5.317   6.343   6.124
 6747SOL    HW121140   5.271   6.431   6.136
 6747SOL    HW221141   5.368   6.344   6.038
 6748SOL     OW21142   6.828   6.497   1.883
 6748SOL    HW121143   6.851   6.510   1.786
 6748SOL    HW221144   6.791   6.405   1.896
 6749SOL     OW21145   3.346   5.607   0.900
 6749SOL    HW121146   3.287   5.549   0.956
 6749SOL    HW221147   3.294   5.687   0.869
 6750SOL     OW21148   2.478   3.274   5.346
 6750SOL    HW121149   2.381   3.289   5.361
 6750SOL    HW221150   2.493   3.181   5.311
 6751SOL     OW21151   3.373   2.146   5.525
 6751SOL    HW121152   3.358   2.055   5.487
 6751SOL    HW221153   3.353   2.215   5.455
 6752SOL     OW21154   6.539   2.343   0.364
 6752SOL    HW121155   6.578   2.394   0.441
 6752SOL    HW221156   6.440   2.333   0.378
 6753SOL     OW21157   5.403   1.410   6.038
 6753SOL    HW121158   5.331   1.342   6.057
 6753SOL    HW221159   5.361   1.494   6.006
 6754SOL     OW21160   4.932   1.259   0.295
 6754SOL    HW121161   5.006   1.237   0.232
 6754SOL    HW221162   4.844   1.238   0.252
 6755SOL     OW21163   5.397   1.498   3.004
 6755SOL    HW121164   5.438   1.513   3.094
 6755SOL    HW221165   5.432   1.566   2.940
 6756SOL     OW21166   5.022   4.436   3.579
 6756SOL    HW121167   5.040   4.363   3.514
 6756SOL    HW221168   4.956   4.500   3.540
 6757SOL     OW21169   5.060   4.906   2.348
 6757SOL    HW121170   5.129   4.893   2.277
 6757SOL    HW221171   5.082   4.989   2.400
 6758SOL     OW21172   6.177   1.843   2.869
 6758SOL    HW121173   6.231   1.762   2.846
 6758SOL    HW221174   6.229   1.901   2.932
 6759SOL     OW21175   1.037   4.365   3.416
 6759SOL    HW121176   1.060   4.321   3.329
 6759SOL    HW221177   1.121   4.396   3.460
 6760SOL     OW21178   0.265   4.366   5.095
 6760SOL    HW121179   0.219   4.326   5.174
 6760SOL    HW221180   0.316   4.447   5.123
 6761SOL     OW21181   5.864   3.483   6.552
 6761SOL    HW121182   5.959   3.504   6.527
 6761SOL    HW221183   5.806   3.562   6.531
 6762SOL     OW21184   5.715   4.760   3.533
 6762SOL    HW121185   5.670   4.841   3.495
 6762SOL    HW221186   5.763   4.785   3.617
 6763SOL     OW21187   5.987   6.344   5.407
 6763SOL    HW121188   5.994   6.273   5.337
 6763SOL    HW221189   5.896   6.386   5.403
 6764SOL     OW21190   2.182   3.311   0.095
 6764SOL    HW121191   2.243   3.381   0.133
 6764SOL    HW221192   2.087   3.339   0.110
 6765SOL     OW21193   4.953   5.090   2.910
 6765SOL    HW121194   4.860   5.123   2.927
 6765SOL    HW221195   5.017   5.168   2.912
 6766SOL     OW21196   1.434   1.712   5.388
 6766SOL    HW121197   1.443   1.794   5.444
 6766SOL    HW221198   1.516   1.700   5.333
 6767SOL     OW21199   1.057   2.857   5.439
 6767SOL    HW121200   0.994   2.934   5.429
 6767SOL    HW221201   1.017   2.790   5.501
 6768SOL     OW21202   0.476   0.133   5.428
 6768SOL    HW121203   0.445   0.139   5.523
 6768SOL    HW221204   0.397   0.127   5.367
 6769SOL     OW21205   0.917   2.681   6.790
 6769SOL    HW121206   0.867   2.691   6.704
 6769SOL    HW221207   1.015   2.671   6.771
 6770SOL     OW21208   6.586   1.189   4.132
 6770SOL    HW121209   6.634   1.243   4.201
 6770SOL    HW221210   6.566   1.098   4.170
 6771SOL     OW21211   4.249   1.795   2.083
 6771SOL    HW121212   4.327   1.818   2.026
 6771SOL    HW221213   4.257   1.841   2.171
 6772SOL     OW21214   1.169   0.918   1.598
 6772SOL    HW121215   1.109   0.984   1.553
 6772SOL    HW221216   1.261   0.924   1.558
 6773SOL     OW21217   0.935   0.653   1.965
 6773SOL    HW121218   0.928   0.617   2.058
 6773SOL    HW221219   0.844   0.679   1.933
 6774SOL     OW21220   2.925   1.140   6.046
 6774SOL    HW121221   2.996   1.192   5.997
 6774SOL    HW221222   2.848   1.201   6.066
 6775SOL     OW21223   1.296   3.443   5.101
 6775SOL    HW121224   1.253   3.406   5.019
 6775SOL    HW221225   1.356   3.374   5.141
 6776SOL     OW21226   3.168   4.009   3.124
 6776SOL    HW121227   3.159   3.972   3.032
 6776SOL    HW221228   3.152   3.937   3.191
 6777SOL     OW21229   0.502   6.941   6.332
 6777SOL    HW121230   0.507   6.932   6.232
 6777SOL    HW221231   0.572   7.006   6.363
 6778SOL     OW21232   6.421   6.114   2.509
 6778SOL    HW121233   6.388   6.021   2.492
 6778SOL    HW221234   6.403   6.139   2.604
 6779SOL     OW21235   4.575   4.594   6.707
 6779SOL    HW121236   4.639   4.654   6.755
 6779SOL    HW221237   4.501   4.568   6.768
 6780SOL     OW21238   3.986   0.949   2.829
 6780SOL    HW121239   4.014   0.978   2.738
 6780SOL    HW221240   3.933   1.022   2.872
 6781SOL     OW21241   6.271   2.698   3.247
 6781SOL    HW121242   6.274   2.743   3.158
 6781SOL    HW221243   6.177   2.698   3.282
 6782SOL     OW21244   0.350   1.610   3.231
 6782SOL    HW121245   0.365   1.700   3.273
 6782SOL    HW221246   0.401   1.605   3.145
 6783SOL     OW21247   0.435   6.189   6.068
 6783SOL    HW121248   0.521   6.240   6.071
 6783SOL    HW221249   0.453   6.093   6.048
 6784SOL     OW21250   1.558   4.684   1.005
 6784SOL    HW121251   1.549   4.652   0.910
 6784SOL    HW221252   1.468   4.692   1.046
 6785SOL     OW21253   5.619   4.753   3.074
 6785SOL    HW121254   5.566   4.718   3.152
 6785SOL    HW221255   5.558   4.769   2.997
 6786SOL     OW21256   6.540   2.032   5.927
 6786SOL    HW121257   6.566   1.982   5.844
 6786SOL    HW221258   6.469   1.981   5.975
 6787SOL     OW21259   3.137   1.308   0.464
 6787SOL    HW121260   3.128   1.379   0.394
 6787SOL    HW221261   3.192   1.233   0.428
 6788SOL     OW21262   0.683   4.258   1.519
 6788SOL    HW121263   0.595   4.234   1.561
 6788SOL    HW221264   0.755   4.199   1.557
 6789SOL     OW21265   5.893   4.510   2.571
 6789SOL    HW121266   5.834   4.553   2.640
 6789SOL    HW221267   5.986   4.500   2.608
 6790SOL     OW21268   0.724   6.195   1.397
 6790SOL    HW121269   0.809   6.247   1.393
 6790SOL    HW221270   0.672   6.210   1.314
 6791SOL     OW21271   2.466   6.138   3.790
 6791SOL    HW121272   2.466   6.135   3.890
 6791SOL    HW221273   2.486   6.231   3.759
 6792SOL     OW21274   3.259   6.639   6.427
 6792SOL    HW121275   3.218   6.550   6.403
 6792SOL    HW221276   3.345   6.624   6.475
 6793SOL     OW21277   2.489   3.711   5.974
 6793SOL    HW121278   2.409   3.672   6.018
 6793SOL    HW221279   2.517   3.794   6.023
 6794SOL     OW21280   5.180   2.573   4.421
 6794SOL    HW121281   5.164   2.572   4.323
 6794SOL    HW221282   5.096   2.545   4.468
 6795SOL     OW21283   0.731   0.638   1.564
 6795SOL    HW121284   0.704   0.671   1.654
 6795SOL    HW221285   0.831   0.635   1.558
 6796SOL     OW21286   6.913   2.281   2.371
 6796SOL    HW121287   6.956   2.225   2.442
 6796SOL    HW221288   6.817   2.298   2.395
 6797SOL     OW21289   1.517   3.094   1.043
 6797SOL    HW121290   1.605   3.116   1.002
 6797SOL    HW221291   1.516   3.126   1.138
 6798SOL     OW21292   4.803   1.432   1.870
 6798SOL    HW121293   4.737   1.442   1.794
 6798SOL    HW221294   4.825   1.522   1.907
 6799SOL     OW21295   6.644   0.245   2.731
 6799SOL    HW121296   6.660   0.339   2.700
 6799SOL    HW221297   6.632   0.185   2.652
 6800SOL     OW21298   6.639   3.045   1.984
 6800SOL    HW121299   6.697   3.095   1.920
 6800SOL    HW221300   6.646   2.947   1.965
 6801SOL     OW21301   1.753   5.690   5.865
 6801SOL    HW121302   1.768   5.762   5.797
 6801SOL    HW221303   1.658   5.659   5.861
 6802SOL     OW21304   3.026   4.820   1.825
 6802SOL    HW121305   2.982   4.743   1.871
 6802SOL    HW221306   2.967   4.900   1.828
 6803SOL     OW21307   5.350   5.114   6.726
 6803SOL    HW121308   5.298   5.122   6.641
 6803SOL    HW221309   5.438   5.071   6.707
 6804SOL     OW21310   3.217   5.729   2.162
 6804SOL    HW121311   3.175   5.698   2.248
 6804SOL    HW221312   3.253   5.650   2.113
 6805SOL     OW21313   0.920   4.125   3.988
 6805SOL    HW121314   0.878   4.035   3.998
 6805SOL    HW221315   0.853   4.196   4.013
 6806SOL     OW21316   5.916   3.604   2.526
 6806SOL    HW121317   5.944   3.527   2.469
 6806SOL    HW221318   5.896   3.571   2.619
 6807SOL     OW21319   2.914   3.620   2.276
 6807SOL    HW121320   2.927   3.661   2.186
 6807SOL    HW221321   2.925   3.520   2.270
 6808SOL     OW21322   3.574   0.605   3.285
 6808SOL    HW121323   3.648   0.614   3.219
 6808SOL    HW221324   3.608   0.562   3.369
 6809SOL     OW21325   5.787   2.695   0.623
 6809SOL    HW121326   5.755   2.652   0.539
 6809SOL    HW221327   5.868   2.645   0.656
 6810SOL     OW21328   2.737   0.932   4.992
 6810SOL    HW121329   2.784   1.019   4.978
 6810SOL    HW221330   2.803   0.857   4.985
 6811SOL     OW21331   6.716   1.706   1.312
 6811SOL    HW121332   6.626   1.665   1.321
 6811SOL    HW221333   6.707   1.803   1.288
 6812SOL     OW21334   3.361   4.453   5.306
 6812SOL    HW121335   3.395   4.368   5.265
 6812SOL    HW221336   3.281   4.433   5.362
 6813SOL     OW21337   0.005   4.370   2.213
 6813SOL    HW121338   0.034   4.316   2.134
 6813SOL    HW221339   0.084   4.393   2.269
 6814SOL     OW21340   5.474   1.424   0.985
 6814SOL    HW121341   5.456   1.331   0.954
 6814SOL    HW221342   5.395   1.481   0.965
 6815SOL     OW21343   0.735   5.938   6.663
 6815SOL    HW121344   0.816   5.882   6.680
 6815SOL    HW221345   0.751   6.032   6.693
 6816SOL     OW21346   6.821   6.953   4.175
 6816SOL    HW121347   6.858   7.006   4.252
 6816SOL    HW221348   6.857   6.990   4.089
 6817SOL     OW21349   4.976   1.772   1.768
 6817SOL    HW121350   4.966   1.737   1.861
 6817SOL    HW221351   5.071   1.759   1.738
 6818SOL     OW21352   1.383   0.198   5.201
 6818SOL    HW121353   1.287   0.215   5.179
 6818SOL    HW221354   1.396   0.203   5.300
 6819SOL     OW21355   5.108   3.971   1.555
 6819SOL    HW121356   5.145   4.050   1.605
 6819SOL    HW221357   5.032   4.001   1.498
 6820SOL     OW21358   2.730   4.919   1.594
 6820SOL    HW121359   2.723   4.964   1.683
 6820SOL    HW221360   2.825   4.893   1.577
 6821SOL     OW21361   2.658   2.757   6.016
 6821SOL    HW121362   2.596   2.831   6.042
 6821SOL    HW221363   2.704   2.780   5.930
 6822SOL     OW21364   6.164   3.542   5.520
 6822SOL    HW121365   6.253   3.506   5.546
 6822SOL    HW221366   6.155   3.637   5.551
 6823SOL     OW21367   0.178   2.997   5.868
 6823SOL    HW121368   0.248   2.935   5.903
 6823SOL    HW221369   0.187   3.086   5.914
 6824SOL     OW21370   1.568   0.578   4.959
 6824SOL    HW121371   1.525   0.525   4.886
 6824SOL    HW221372   1.660   0.543   4.976
 6825SOL     OW21373   4.284   4.250   1.388
 6825SOL    HW121374   4.270   4.177   1.455
 6825SOL    HW221375   4.287   4.338   1.435
 6826SOL     OW21376   5.839   0.825   3.063
 6826SOL    HW121377   5.899   0.761   3.111
 6826SOL    HW221378   5.811   0.898   3.126
 6827SOL     OW21379   4.709   5.742   5.409
 6827SOL    HW121380   4.704   5.804   5.330
 6827SOL    HW221381   4.665   5.655   5.385
 6828SOL     OW21382   3.231   2.079   2.364
 6828SOL    HW121383   3.284   2.135   2.301
 6828SOL    HW221384   3.209   1.991   2.321
 6829SOL     OW21385   4.742   6.499   4.195
 6829SOL    HW121386   4.828   6.535   4.231
 6829SOL    HW221387   4.666   6.540   4.244
 6830SOL     OW21388   3.755   5.515   2.439
 6830SOL    HW121389   3.739   5.610   2.413
 6830SOL    HW221390   3.721   5.454   2.368
 6831SOL     OW21391   1.272   1.397   6.491
 6831SOL    HW121392   1.209   1.340   6.438
 6831SOL    HW221393   1.358   1.407   6.442
 6832SOL     OW21394   2.698   2.962   6.690
 6832SOL    HW121395   2.649   2.879   6.662
 6832SOL    HW221396   2.796   2.948   6.679
 6833SOL     OW21397   4.233   5.191   6.618
 6833SOL    HW121398   4.256   5.237   6.704
 6833SOL    HW221399   4.135   5.172   6.616
 6834SOL     OW21400   5.942   6.256   5.945
 6834SOL    HW121401   5.926   6.182   6.011
 6834SOL    HW221402   6.033   6.293   5.959
 6835SOL     OW21403   3.633   0.747   3.607
 6835SOL    HW121404   3.535   0.739   3.621
 6835SOL    HW221405   3.682   0.699   3.680
 6836SOL     OW21406   0.543   4.294   6.369
 6836SOL    HW121407   0.473   4.337   6.425
 6836SOL    HW221408   0.543   4.336   6.278
 6837SOL     OW21409   6.507   0.696   1.976
 6837SOL    HW121410   6.592   0.746   1.990
 6837SOL    HW221411   6.480   0.703   1.880
 6838SOL     OW21412   3.109   3.993   6.066
 6838SOL    HW121413   3.079   4.072   6.119
 6838SOL    HW221414   3.208   3.995   6.056
 6839SOL     OW21415   5.919   3.052   5.087
 6839SOL    HW121416   5.960   3.141   5.069
 6839SOL    HW221417   5.935   2.992   5.009
 6840SOL     OW21418   2.689   5.964   4.633
 6840SOL    HW121419   2.724   6.056   4.653
 6840SOL    HW221420   2.615   5.943   4.696
 6841SOL     OW21421   4.694   6.780   0.568
 6841SOL    HW121422   4.725   6.744   0.656
 6841SOL    HW221423   4.758   6.752   0.497
 6842SOL     OW21424   0.324   3.952   4.068
 6842SOL    HW121425   0.383   3.979   3.992
 6842SOL    HW221426   0.229   3.971   4.045
 6843SOL     OW21427   4.538   2.743   1.731
 6843SOL    HW121428   4.558   2.822   1.789
 6843SOL    HW221429   4.448   2.756   1.688
 6844SOL     OW21430   3.086   6.085   4.557
 6844SOL    HW121431   3.094   6.016   4.630
 6844SOL    HW221432   3.167   6.079   4.498
 6845SOL     OW21433   4.351   4.358   0.360
 6845SOL    HW121434   4.289   4.322   0.291
 6845SOL    HW221435   4.301   4.420   0.421
 6846SOL     OW21436   4.132   3.368   2.825
 6846SOL    HW121437   4.131   3.293   2.891
 6846SOL    HW221438   4.156   3.453   2.871
 6847SOL     OW21439   6.561   3.492   1.867
 6847SOL    HW121440   6.653   3.459   1.849
 6847SOL    HW221441   6.549   3.582   1.825
 6848SOL     OW21442   0.228   6.213   4.596
 6848SOL    HW121443   0.229   6.141   4.527
 6848SOL    HW221444   0.216   6.302   4.552
 6849SOL     OW21445   3.062   6.800   4.635
 6849SOL    HW121446   3.124   6.762   4.703
 6849SOL    HW221447   3.101   6.787   4.544
 6850SOL     OW21448   5.710   3.550   1.543
 6850SOL    HW121449   5.764   3.480   1.589
 6850SOL    HW221450   5.625   3.510   1.509
 6851SOL     OW21451   1.167   5.298   5.671
 6851SOL    HW121452   1.111   5.334   5.745
 6851SOL    HW221453   1.160   5.199   5.668
 6852SOL     OW21454   6.592   5.241   2.438
 6852SOL    HW121455   6.610   5.255   2.535
 6852SOL    HW221456   6.549   5.152   2.424
 6853SOL     OW21457   6.408   4.157   4.969
 6853SOL    HW121458   6.496   4.149   5.016
 6853SOL    HW221459   6.337   4.179   5.036
 6854SOL     OW21460   6.948   1.740   6.242
 6854SOL    HW121461   7.022   1.797   6.276
 6854SOL    HW221462   6.916   1.775   6.154
 6855SOL     OW21463   3.180   6.705   2.129
 6855SOL    HW121464   3.083   6.726   2.141
 6855SOL    HW221465   3.235   6.772   2.178
 6856SOL     OW21466   0.031   4.606   5.550
 6856SOL    HW121467   0.037   4.610   5.649
 6856SOL    HW221468   6.967   4.635   5.520
 6857SOL     OW21469   3.664   0.935   6.376
 6857SOL    HW121470   3.582   0.981   6.411
 6857SOL    HW221471   3.743   0.995   6.386
 6858SOL     OW21472   3.760   2.905   5.961
 6858SOL    HW121473   3.852   2.942   5.968
 6858SOL    HW221474   3.694   2.975   5.989
 6859SOL     OW21475   3.283   0.887   0.480
 6859SOL    HW121476   3.214   0.852   0.544
 6859SOL    HW221477   3.260   0.857   0.388
 6860SOL     OW21478   4.241   3.828   6.742
 6860SOL    HW121479   4.145   3.801   6.743
 6860SOL    HW221480   4.275   3.828   6.648
 6861SOL     OW21481   5.376   4.066   0.471
 6861SOL    HW121482   5.438   4.105   0.538
 6861SOL    HW221483   5.339   4.139   0.413
 6862SOL     OW21484   2.638   5.180   4.302
 6862SOL    HW121485   2.723   5.231   4.318
 6862SOL    HW221486   2.570   5.208   4.369
 6863SOL     OW21487   0.818   2.983   4.104
 6863SOL    HW121488   0.856   2.900   4.062
 6863SOL    HW221489   0.891   3.038   4.144
 6864SOL     OW21490   4.812   5.644   5.968
 6864SOL    HW121491   4.772   5.671   5.881
 6864SOL    HW221492   4.859   5.556   5.957
 6865SOL     OW21493   0.205   3.189   4.454
 6865SOL    HW121494   0.236   3.274   4.413
 6865SOL    HW221495   0.173   3.127   4.382
 6866SOL     OW21496   0.377   3.098   2.039
 6866SOL    HW121497   0.322   3.106   2.122
 6866SOL    HW221498   0.414   3.187   2.014
 6867SOL     OW21499   2.671   5.486   2.845
 6867SOL    HW121500   2.594   5.508   2.905
 6867SOL    HW221501   2.649   5.406   2.789
 6868SOL     OW21502   1.501   5.604   4.825
 6868SOL    HW121503   1.506   5.539   4.749
 6868SOL    HW221504   1.525   5.557   4.910
 6869SOL     OW21505   6.764   3.450   4.649
 6869SOL    HW121506   6.765   3.370   4.708
 6869SOL    HW221507   6.811   3.526   4.695
 6870SOL     OW21508   5.668   3.743   2.606
 6870SOL    HW121509   5.647   3.664   2.665
 6870SOL    HW221510   5.746   3.720   2.548
 6871SOL     OW21511   5.216   6.805   1.817
 6871SOL    HW121512   5.218   6.715   1.773
 6871SOL    HW221513   5.174   6.871   1.754
 6872SOL     OW21514   2.792   3.762   6.694
 6872SOL    HW121515   2.845   3.829   6.642
 6872SOL    HW221516   2.719   3.726   6.636
 6873SOL     OW21517   5.790   4.164   5.272
 6873SOL    HW121518   5.802   4.262   5.259
 6873SOL    HW221519   5.695   4.146   5.300
 6874SOL     OW21520   1.217   2.024   5.520
 6874SOL    HW121521   1.152   2.099   5.525
 6874SOL    HW221522   1.293   2.050   5.460
 6875SOL     OW21523   3.418   1.890   3.931
 6875SOL    HW121524   3.438   1.958   3.860
 6875SOL    HW221525   3.470   1.807   3.913
 6876SOL     OW21526   3.644   6.408   4.485
 6876SOL    HW121527   3.710   6.483   4.490
 6876SOL    HW221528   3.614   6.383   4.577
 6877SOL     OW21529   2.010   3.645   6.570
 6877SOL    HW121530   1.982   3.642   6.474
 6877SOL    HW221531   2.013   3.552   6.606
 6878SOL     OW21532   1.600   2.288   4.767
 6878SOL    HW121533   1.500   2.290   4.779
 6878SOL    HW221534   1.636   2.381   4.776
 6879SOL     OW21535   0.741   1.108   6.372
 6879SOL    HW121536   0.706   1.200   6.388
 6879SOL    HW221537   0.697   1.069   6.291
 6880SOL     OW21538   2.196   3.952   4.238
 6880SOL    HW121539   2.099   3.980   4.237
 6880SOL    HW221540   2.202   3.854   4.256
 6881SOL     OW21541   5.721   5.822   2.031
 6881SOL    HW121542   5.669   5.743   2.063
 6881SOL    HW221543   5.811   5.793   1.999
 6882SOL     OW21544   2.522   6.098   5.051
 6882SOL    HW121545   2.434   6.082   5.095
 6882SOL    HW221546   2.596   6.072   5.113
 6883SOL     OW21547   3.605   6.582   1.592
 6883SOL    HW121548   3.633   6.507   1.533
 6883SOL    HW221549   3.686   6.624   1.634
 6884SOL     OW21550   2.578   5.189   3.483
 6884SOL    HW121551   2.671   5.157   3.464
 6884SOL    HW221552   2.581   5.260   3.554
 6885SOL     OW21553   4.124   5.461   5.147
 6885SOL    HW121554   4.173   5.409   5.216
 6885SOL    HW221555   4.045   5.408   5.116
 6886SOL     OW21556   5.336   1.868   2.109
 6886SOL    HW121557   5.334   1.833   2.015
 6886SOL    HW221558   5.321   1.967   2.108
 6887SOL     OW21559   4.482   0.783   5.174
 6887SOL    HW121560   4.581   0.774   5.165
 6887SOL    HW221561   4.446   0.837   5.097
 6888SOL     OW21562   5.927   6.756   5.229
 6888SOL    HW121563   5.976   6.805   5.157
 6888SOL    HW221564   5.992   6.711   5.290
 6889SOL     OW21565   1.438   4.513   6.238
 6889SOL    HW121566   1.400   4.463   6.160
 6889SOL    HW221567   1.436   4.611   6.218
 6890SOL     OW21568   1.982   0.297   0.508
 6890SOL    HW121569   2.074   0.286   0.545
 6890SOL    HW221570   1.914   0.284   0.581
 6891SOL     OW21571   4.044   5.072   5.187
 6891SOL    HW121572   4.058   5.072   5.088
 6891SOL    HW221573   4.063   4.981   5.223
 6892SOL     OW21574   3.500   1.421   4.802
 6892SOL    HW121575   3.583   1.401   4.855
 6892SOL    HW221576   3.459   1.506   4.836
 6893SOL     OW21577   5.654   0.033   1.498
 6893SOL    HW121578   5.739   7.026   1.456
 6893SOL    HW221579   5.627   0.117   1.451
 6894SOL     OW21580   5.957   4.697   5.562
 6894SOL    HW121581   5.952   4.689   5.463
 6894SOL    HW221582   6.041   4.654   5.595
 6895SOL     OW21583   4.207   4.921   6.374
 6895SOL    HW121584   4.183   4.862   6.298
 6895SOL    HW221585   4.123   4.957   6.416
 6896SOL     OW21586   4.748   0.750   3.022
 6896SOL    HW121587   4.771   0.729   3.118
 6896SOL    HW221588   4.719   0.666   2.976
 6897SOL     OW21589   3.620   1.901   0.603
 6897SOL    HW121590   3.524   1.925   0.589
 6897SOL    HW221591   3.650   1.841   0.528
 6898SOL     OW21592   3.862   1.359   3.230
 6898SOL    HW121593   3.834   1.264   3.244
 6898SOL    HW221594   3.943   1.362   3.172
 6899SOL     OW21595   5.493   6.230   6.566
 6899SOL    HW121596   5.524   6.208   6.473
 6899SOL    HW221597   5.553   6.300   6.605
 6900SOL     OW21598   3.959   1.248   5.919
 6900SOL    HW121599   3.940   1.150   5.911
 6900SOL    HW221600   3.903   1.298   5.854
 6901SOL     OW21601   1.220   0.897   0.409
 6901SOL    HW121602   1.285   0.821   0.413
 6901SOL    HW221603   1.203   0.921   0.314
 6902SOL     OW21604   6.488   5.437   1.820
 6902SOL    HW121605   6.502   5.535   1.809
 6902SOL    HW221606   6.414   5.421   1.885
 6903SOL     OW21607   4.426   4.620   0.649
 6903SOL    HW121608   4.439   4.651   0.744
 6903SOL    HW221609   4.513   4.624   0.600
 6904SOL     OW21610   0.893   1.684   3.374
 6904SOL    HW121611   0.906   1.608   3.438
 6904SOL    HW221612   0.924   1.658   3.283
 6905SOL     OW21613   3.942   5.043   0.993
 6905SOL    HW121614   3.927   4.956   1.040
 6905SOL    HW221615   3.855   5.076   0.957
 6906SOL     OW21616   5.181   5.917   3.343
 6906SOL    HW121617   5.236   5.997   3.367
 6906SOL    HW221618   5.118   5.895   3.417
 6907SOL     OW21619   3.478   0.907   1.261
 6907SOL    HW121620   3.575   0.916   1.286
 6907SOL    HW221621   3.446   0.816   1.286
 6908SOL     OW21622   6.825   0.153   6.570
 6908SOL    HW121623   6.867   0.230   6.522
 6908SOL    HW221624   6.828   0.169   6.669
 6909SOL     OW21625   3.395   3.066   6.849
 6909SOL    HW121626   3.315   3.060   6.790
 6909SOL    HW221627   3.370   3.046   6.944
 6910SOL     OW21628   6.365   1.177   1.561
 6910SOL    HW121629   6.426   1.131   1.496
 6910SOL    HW221630   6.271   1.173   1.527
 6911SOL     OW21631   4.372   0.829   4.863
 6911SOL    HW121632   4.423   0.743   4.874
 6911SOL    HW221633   4.336   0.834   4.770
 6912SOL     OW21634   4.484   4.884   2.093
 6912SOL    HW121635   4.402   4.833   2.068
 6912SOL    HW221636   4.525   4.924   2.011
 6913SOL     OW21637   4.123   5.712   5.865
 6913SOL    HW121638   4.211   5.745   5.831
 6913SOL    HW221639   4.138   5.644   5.937
 6914SOL     OW21640   6.307   5.160   7.000
 6914SOL    HW121641   6.258   5.246   7.012
 6914SOL    HW221642   6.320   5.116   0.061
 6915SOL     OW21643   1.522   5.476   0.789
 6915SOL    HW121644   1.577   5.392   0.794
 6915SOL    HW221645   1.425   5.453   0.801
 6916SOL     OW21646   6.505   0.801   5.828
 6916SOL    HW121647   6.604   0.812   5.841
 6916SOL    HW221648   6.463   0.892   5.818
 6917SOL     OW21649   4.633   0.292   6.772
 6917SOL    HW121650   4.546   0.263   6.813
 6917SOL    HW221651   4.629   0.390   6.752
 6918SOL     OW21652   2.206   3.052   3.787
 6918SOL    HW121653   2.280   3.038   3.852
 6918SOL    HW221654   2.228   3.006   3.701
 6919SOL     OW21655   1.181   6.303   3.244
 6919SOL    HW121656   1.157   6.335   3.152
 6919SOL    HW221657   1.162   6.374   3.311
 6920SOL     OW21658   5.150   6.662   4.663
 6920SOL    HW121659   5.216   6.736   4.661
 6920SOL    HW221660   5.188   6.581   4.618
 6921SOL     OW21661   0.907   6.203   2.834
 6921SOL    HW121662   0.978   6.152   2.785
 6921SOL    HW221663   0.938   6.296   2.850
 6922SOL     OW21664   1.824   5.807   0.133
 6922SOL    HW121665   1.894   5.801   0.062
 6922SOL    HW221666   1.762   5.883   0.112
 6923SOL     OW21667   4.215   6.914   4.053
 6923SOL    HW121668   4.139   6.849   4.053
 6923SOL    HW221669   4.266   6.905   4.139
 6924SOL     OW21670   6.811   6.230   1.757
 6924SOL    HW121671   6.808   6.134   1.729
 6924SOL    HW221672   6.744   6.246   1.829
 6925SOL     OW21673   6.272   5.517   3.009
 6925SOL    HW121674   6.189   5.470   3.039
 6925SOL    HW221675   6.338   5.521   3.084
 6926SOL     OW21676   2.851   4.122   5.368
 6926SOL    HW121677   2.874   4.094   5.461
 6926SOL    HW221678   2.786   4.057   5.328
 6927SOL     OW21679   3.649   2.969   0.308
 6927SOL    HW121680   3.662   3.052   0.253
 6927SOL    HW221681   3.684   2.984   0.400
 6928SOL     OW21682   7.005   6.973   6.556
 6928SOL    HW121683   0.050   6.988   6.488
 6928SOL    HW221684   6.972   0.034   6.590
 6929SOL     OW21685   3.366   5.228   0.832
 6929SOL    HW121686   3.464   5.227   0.816
 6929SOL    HW221687   3.318   5.218   0.744
 6930SOL     OW21688   1.438   0.202   3.293
 6930SOL    HW121689   1.353   0.243   3.262
 6930SOL    HW221690   1.427   0.103   3.301
 6931SOL     OW21691   2.163   0.303   0.979
 6931SOL    HW121692   2.196   0.239   1.049
 6931SOL    HW221693   2.141   0.391   1.022
 6932SOL     OW21694   2.333   2.120   0.033
 6932SOL    HW121695   2.426   2.142   0.065
 6932SOL    HW221696   2.323   2.150   6.965
 6933SOL     OW21697   2.945   6.254   6.721
 6933SOL    HW121698   3.000   6.196   6.660
 6933SOL    HW221699   2.986   6.345   6.727
 6934SOL     OW21700   5.606   4.372   6.138
 6934SOL    HW121701   5.554   4.457   6.144
 6934SOL    HW221702   5.622   4.335   6.229
 6935SOL     OW21703   4.282   5.974   2.966
 6935SOL    HW121704   4.266   5.962   2.868
 6935SOL    HW221705   4.370   5.934   2.991
 6936SOL     OW21706   0.361   4.988   0.997
 6936SOL    HW121707   0.438   4.967   1.057
 6936SOL    HW221708   0.342   4.909   0.938
 6937SOL     OW21709   4.442   6.218   6.089
 6937SOL    HW121710   4.364   6.257   6.041
 6937SOL    HW221711   4.452   6.263   6.178
 6938SOL     OW21712   5.939   1.978   5.004
 6938SOL    HW121713   5.909   2.048   5.069
 6938SOL    HW221714   6.039   1.968   5.009
 6939SOL     OW21715   6.925   4.597   1.942
 6939SOL    HW121716   6.845   4.544   1.971
 6939SOL    HW221717   6.991   4.536   1.899
 6940SOL     OW21718   3.983   0.808   5.314
 6940SOL    HW121719   4.013   0.715   5.291
 6940SOL    HW221720   4.027   0.873   5.251
 6941SOL     OW21721   4.067   3.331   4.130
 6941SOL    HW121722   3.988   3.337   4.070
 6941SOL    HW221723   4.120   3.416   4.124
 6942SOL     OW21724   6.657   1.672   0.347
 6942SOL    HW121725   6.609   1.608   0.406
 6942SOL    HW221726   6.754   1.674   0.371
 6943SOL     OW21727   6.330   6.416   6.740
 6943SOL    HW121728   6.273   6.334   6.746
 6943SOL    HW221729   6.419   6.393   6.703
 6944SOL     OW21730   1.307   6.248   6.077
 6944SOL    HW121731   1.302   6.230   5.979
 6944SOL    HW221732   1.399   6.228   6.111
 6945SOL     OW21733   4.563   2.026   5.221
 6945SOL    HW121734   4.580   1.949   5.282
 6945SOL    HW221735   4.633   2.027   5.149
 6946SOL     OW21736   5.984   3.822   3.478
 6946SOL    HW121737   6.050   3.748   3.491
 6946SOL    HW221738   5.929   3.803   3.397
 6947SOL     OW21739   3.649   0.044   2.744
 6947SOL    HW121740   3.577   0.089   2.796
 6947SOL    HW221741   3.655   0.084   2.653
 6948SOL     OW21742   3.734   2.079   4.724
 6948SOL    HW121743   3.814   2.120   4.682
 6948SOL    HW221744   3.726   1.984   4.695
 6949SOL     OW21745   5.102   1.153   2.575
 6949SOL    HW121746   5.025   1.126   2.633
 6949SOL    HW221747   5.129   1.246   2.598
 6950SOL     OW21748   2.530   1.229   3.950
 6950SOL    HW121749   2.614   1.283   3.935
 6950SOL    HW221750   2.493   1.249   4.040
 6951SOL     OW21751   5.290   5.334   5.552
 6951SOL    HW121752   5.231   5.415   5.557
 6951SOL    HW221753   5.247   5.265   5.493
 6952SOL     OW21754   0.208   5.067   5.106
 6952SOL    HW121755   0.222   5.100   5.013
 6952SOL    HW221756   0.183   5.144   5.165
 6953SOL     OW21757   5.556   2.529   5.001
 6953SOL    HW121758   5.573   2.627   5.002
 6953SOL    HW221759   5.465   2.512   4.963
 6954SOL     OW21760   0.779   5.289   2.761
 6954SOL    HW121761   0.709   5.318   2.697
 6954SOL    HW221762   0.867   5.327   2.734
 6955SOL     OW21763   6.803   6.192   3.254
 6955SOL    HW121764   6.755   6.114   3.295
 6955SOL    HW221765   6.811   6.178   3.156
 6956SOL     OW21766   3.052   5.064   0.909
 6956SOL    HW121767   3.121   5.030   0.973
 6956SOL    HW221768   2.961   5.054   0.949
 6957SOL     OW21769   0.601   4.119   0.266
 6957SOL    HW121770   0.539   4.044   0.284
 6957SOL    HW221771   0.557   4.206   0.290
 6958SOL     OW21772   2.111   3.967   6.254
 6958SOL    HW121773   2.167   3.990   6.333
 6958SOL    HW221774   2.054   3.888   6.277
 6959SOL     OW21775   3.925   1.451   3.834
 6959SOL    HW121776   3.965   1.377   3.781
 6959SOL    HW221777   3.974   1.460   3.921
 6960SOL     OW21778   6.821   5.080   6.996
 6960SOL    HW121779   6.917   5.060   6.979
 6960SOL    HW221780   6.775   5.101   6.910
 6961SOL     OW21781   0.055   1.316   3.028
 6961SOL    HW121782   0.004   1.253   3.086
 6961SOL    HW221783   7.018   1.375   2.978
 6962SOL     OW21784   3.421   3.547   0.669
 6962SOL    HW121785   3.466   3.613   0.608
 6962SOL    HW221786   3.457   3.456   0.651
 6963SOL     OW21787   6.329   5.869   2.445
 6963SOL    HW121788   6.417   5.824   2.459
 6963SOL    HW221789   6.263   5.802   2.411
 6964SOL     OW21790   3.712   6.092   5.143
 6964SOL    HW121791   3.740   6.034   5.066
 6964SOL    HW221792   3.728   6.044   5.229
 6965SOL     OW21793   6.421   2.872   5.345
 6965SOL    HW121794   6.413   2.839   5.439
 6965SOL    HW221795   6.330   2.899   5.311
 6966SOL     OW21796   4.726   2.736   3.908
 6966SOL    HW121797   4.737   2.805   3.980
 6966SOL    HW221798   4.653   2.766   3.846
 6967SOL     OW21799   2.183   2.416   6.309
 6967SOL    HW121800   2.170   2.514   6.318
 6967SOL    HW221801   2.239   2.397   6.228
 6968SOL     OW21802   4.302   6.985   2.316
 6968SOL    HW121803   4.333   7.012   2.407
 6968SOL    HW221804   4.271   6.889   2.318
 6969SOL     OW21805   2.758   2.134   1.236
 6969SOL    HW121806   2.724   2.108   1.145
 6969SOL    HW221807   2.820   2.213   1.227
 6970SOL     OW21808   4.304   3.987   0.502
 6970SOL    HW121809   4.255   4.064   0.545
 6970SOL    HW221810   4.401   3.993   0.525
 6971SOL     OW21811   5.957   0.607   2.006
 6971SOL    HW121812   6.011   0.689   1.984
 6971SOL    HW221813   5.993   0.529   1.955
 6972SOL     OW21814   5.363   4.962   4.885
 6972SOL    HW121815   5.268   4.938   4.903
 6972SOL    HW221816   5.422   4.921   4.955
 6973SOL     OW21817   2.009   4.337   3.156
 6973SOL    HW121818   1.936   4.282   3.115
 6973SOL    HW221819   2.065   4.378   3.084
 6974SOL     OW21820   3.300   4.127   4.809
 6974SOL    HW121821   3.232   4.090   4.872
 6974SOL    HW221822   3.367   4.181   4.859
 6975SOL     OW21823   3.342   0.894   6.279
 6975SOL    HW121824   3.299   0.854   6.360
 6975SOL    HW221825   3.305   0.851   6.197
 6976SOL     OW21826   1.784   5.916   0.372
 6976SOL    HW121827   1.734   5.999   0.346
 6976SOL    HW221828   1.801   5.860   0.291
 6977SOL     OW21829   4.199   2.186   2.712
 6977SOL    HW121830   4.259   2.109   2.687
 6977SOL    HW221831   4.114   2.179   2.660
 6978SOL     OW21832   6.009   1.171   2.289
 6978SOL    HW121833   6.080   1.163   2.359
 6978SOL    HW221834   5.951   1.250   2.309
 6979SOL     OW21835   0.735   4.418   3.601
 6979SOL    HW121836   0.778   4.393   3.687
 6979SOL    HW221837   0.767   4.357   3.528
 6980SOL     OW21838   3.587   1.688   4.271
 6980SOL    HW121839   3.505   1.715   4.220
 6980SOL    HW221840   3.662   1.675   4.207
 6981SOL     OW21841   3.312   4.953   6.591
 6981SOL    HW121842   3.399   4.995   6.616
 6981SOL    HW221843   3.265   4.923   6.674
 6982SOL     OW21844   0.520   6.870   4.393
 6982SOL    HW121845   0.603   6.885   4.340
 6982SOL    HW221846   0.539   6.805   4.467
 6983SOL     OW21847   6.073   0.500   4.109
 6983SOL    HW121848   6.121   0.523   4.193
 6983SOL    HW221849   6.115   0.549   4.032
 6984SOL     OW21850   2.276   1.118   5.916
 6984SOL    HW121851   2.273   1.075   5.825
 6984SOL    HW221852   2.346   1.189   5.917
 6985SOL     OW21853   5.134   6.454   2.464
 6985SOL    HW121854   5.185   6.539   2.481
 6985SOL    HW221855   5.092   6.422   2.549
 6986SOL     OW21856   2.354   0.082   4.951
 6986SOL    HW121857   2.417   0.066   5.028
 6986SOL    HW221858   2.266   0.114   4.986
 6987SOL     OW21859   6.742   3.560   6.609
 6987SOL    HW121860   6.708   3.482   6.661
 6987SOL    HW221861   6.792   3.622   6.669
 6988SOL     OW21862   5.239   1.052   5.427
 6988SOL    HW121863   5.165   0.998   5.466
 6988SOL    HW221864   5.326   1.021   5.463
 6989SOL     OW21865   1.432   2.952   3.811
 6989SOL    HW121866   1.512   2.949   3.750
 6989SOL    HW221867   1.422   2.863   3.856
 6990SOL     OW21868   4.042   3.065   0.464
 6990SOL    HW121869   3.997   3.148   0.430
 6990SOL    HW221870   4.141   3.079   0.464
 6991SOL     OW21871   4.499   4.558   5.465
 6991SOL    HW121872   4.525   4.473   5.418
 6991SOL    HW221873   4.581   4.604   5.498
 6992SOL     OW21874   5.860   5.987   5.202
 6992SOL    HW121875   5.851   6.020   5.296
 6992SOL    HW221876   5.782   6.020   5.148
 6993SOL     OW21877   0.758   6.513   3.340
 6993SOL    HW121878   0.675   6.466   3.372
 6993SOL    HW221879   0.827   6.511   3.413
 6994SOL     OW21880   1.540   3.213   0.009
 6994SOL    HW121881   1.626   3.242   6.994
 6994SOL    HW221882   1.555   3.196   0.107
 6995SOL     OW21883   0.640   4.686   3.578
 6995SOL    HW121884   0.644   4.586   3.581
 6995SOL    HW221885   0.615   4.715   3.486
 6996SOL     OW21886   2.350   0.044   6.080
 6996SOL    HW121887   2.277   0.099   6.119
 6996SOL    HW221888   2.373   0.078   5.989
 6997SOL     OW21889   5.167   7.014   4.275
 6997SOL    HW121890   5.157   0.078   4.236
 6997SOL    HW221891   5.111   6.949   4.224
 6998SOL     OW21892   1.222   2.395   3.314
 6998SOL    HW121893   1.215   2.379   3.215
 6998SOL    HW221894   1.256   2.312   3.358
 6999SOL     OW21895   4.683   1.920   6.649
 6999SOL    HW121896   4.626   1.924   6.731
 6999SOL    HW221897   4.641   1.974   6.576
 7000SOL     OW21898   6.759   6.617   0.753
 7000SOL    HW121899   6.700   6.600   0.832
 7000SOL    HW221900   6.706   6.662   0.681
 7001SOL     OW21901   2.841   2.259   5.680
 7001SOL    HW121902   2.782   2.250   5.600
 7001SOL    HW221903   2.815   2.341   5.731
 7002SOL     OW21904   2.153   4.371   2.775
 7002SOL    HW121905   2.142   4.466   2.746
 7002SOL    HW221906   2.205   4.368   2.860
 7003SOL     OW21907   1.574   6.624   6.678
 7003SOL    HW121908   1.553   6.705   6.733
 7003SOL    HW221909   1.602   6.651   6.586
 7004SOL     OW21910   1.208   4.564   0.842
 7004SOL    HW121911   1.246   4.479   0.806
 7004SOL    HW221912   1.110   4.567   0.821
 7005SOL     OW21913   5.657   6.673   5.541
 7005SOL    HW121914   5.602   6.672   5.625
 7005SOL    HW221915   5.740   6.727   5.557
 7006SOL     OW21916   4.566   5.459   4.888
 7006SOL    HW121917   4.497   5.510   4.837
 7006SOL    HW221918   4.652   5.509   4.887
 7007SOL     OW21919   5.102   5.200   2.490
 7007SOL    HW121920   5.151   5.143   2.556
 7007SOL    HW221921   5.034   5.255   2.538
 7008SOL     OW21922   1.386   4.281   4.151
 7008SOL    HW121923   1.393   4.203   4.213
 7008SOL    HW221924   1.471   4.290   4.099
 7009SOL     OW21925   0.161   4.379   2.477
 7009SOL    HW121926   0.205   4.468   2.464
 7009SOL    HW221927   0.231   4.309   2.493
 7010SOL     OW21928   4.070   4.508   6.315
 7010SOL    HW121929   4.020   4.461   6.242
 7010SOL    HW221930   4.006   4.547   6.380
 7011SOL     OW21931   1.801   1.398   4.832
 7011SOL    HW121932   1.883   1.357   4.872
 7011SOL    HW221933   1.760   1.334   4.767
 7012SOL     OW21934   1.396   1.156   1.088
 7012SOL    HW121935   1.324   1.090   1.066
 7012SOL    HW221936   1.485   1.116   1.067
 7013SOL     OW21937   0.240   1.255   2.315
 7013SOL    HW121938   0.248   1.346   2.357
 7013SOL    HW221939   0.323   1.203   2.332
 7014SOL     OW21940   2.207   4.885   0.702
 7014SOL    HW121941   2.169   4.970   0.738
 7014SOL    HW221942   2.229   4.824   0.778
 7015SOL     OW21943   5.561   2.266   2.312
 7015SOL    HW121944   5.554   2.271   2.411
 7015SOL    HW221945   5.471   2.279   2.272
 7016SOL     OW21946   3.779   4.504   1.152
 7016SOL    HW121947   3.802   4.565   1.227
 7016SOL    HW221948   3.726   4.427   1.186
 7017SOL     OW21949   4.253   1.539   4.555
 7017SOL    HW121950   4.222   1.534   4.460
 7017SOL    HW221951   4.238   1.451   4.600
 7018SOL     OW21952   0.459   4.429   3.644
 7018SOL    HW121953   0.554   4.409   3.619
 7018SOL    HW221954   0.421   4.496   3.580
 7019SOL     OW21955   1.797   5.737   1.038
 7019SOL    HW121956   1.884   5.784   1.049
 7019SOL    HW221957   1.813   5.640   1.021
 7020SOL     OW21958   6.979   6.213   6.163
 7020SOL    HW121959   0.017   6.218   6.238
 7020SOL    HW221960   6.921   6.132   6.174
 7021SOL     OW21961   3.990   6.815   5.673
 7021SOL    HW121962   3.997   6.726   5.717
 7021SOL    HW221963   3.909   6.817   5.615
 7022SOL     OW21964   4.685   5.554   6.220
 7022SOL    HW121965   4.728   5.577   6.132
 7022SOL    HW221966   4.643   5.464   6.214
 7023SOL     OW21967   5.708   4.206   2.841
 7023SOL    HW121968   5.730   4.125   2.896
 7023SOL    HW221969   5.626   4.250   2.878
 7024SOL     OW21970   0.151   6.131   1.650
 7024SOL    HW121971   0.150   6.095   1.556
 7024SOL    HW221972   0.148   6.054   1.715
 7025SOL     OW21973   2.615   0.277   6.582
 7025SOL    HW121974   2.658   0.343   6.520
 7025SOL    HW221975   2.576   0.202   6.528
 7026SOL     OW21976   3.385   1.824   1.054
 7026SOL    HW121977   3.461   1.844   1.116
 7026SOL    HW221978   3.368   1.903   0.995
 7027SOL     OW21979   4.515   0.180   4.056
 7027SOL    HW121980   4.520   0.228   4.143
 7027SOL    HW221981   4.567   0.095   4.061
 7028SOL     OW21982   2.963   0.301   4.560
 7028SOL    HW121983   2.937   0.276   4.467
 7028SOL    HW221984   3.055   0.339   4.560
 7029SOL     OW21985   3.741   0.902   5.030
 7029SOL    HW121986   3.752   0.894   5.129
 7029SOL    HW221987   3.675   0.834   4.998
 7030SOL     OW21988   2.127   3.445   3.357
 7030SOL    HW121989   2.160   3.506   3.284
 7030SOL    HW221990   2.128   3.494   3.444
 7031SOL     OW21991   1.569   0.232   5.008
 7031SOL    HW121992   1.590   0.320   4.965
 7031SOL    HW221993   1.500   0.246   5.079
 7032SOL     OW21994   6.773   2.174   3.554
 7032SOL    HW121995   6.824   2.118   3.489
 7032SOL    HW221996   6.789   2.271   3.534
 7033SOL     OW21997   0.351   0.083   4.479
 7033SOL    HW121998   0.400   7.023   4.474
 7033SOL    HW221999   0.389   0.147   4.412
 7034SOL     OW22000   0.419   5.915   2.949
 7034SOL    HW122001   0.382   5.998   2.908
 7034SOL    HW222002   0.431   5.845   2.878
 7035SOL     OW22003   6.713   5.083   2.219
 7035SOL    HW122004   6.693   5.141   2.298
 7035SOL    HW222005   6.632   5.080   2.159
 7036SOL     OW22006   6.425   4.511   0.876
 7036SOL    HW122007   6.458   4.593   0.829
 7036SOL    HW222008   6.496   4.478   0.938
 7037SOL     OW22009   0.538   0.355   0.141
 7037SOL    HW122010   0.461   0.406   0.102
 7037SOL    HW222011   0.617   0.362   0.080
 7038SOL     OW22012   1.759   3.489   4.399
 7038SOL    HW122013   1.842   3.450   4.438
 7038SOL    HW222014   1.716   3.422   4.338
 7039SOL     OW22015   4.300   2.307   6.237
 7039SOL    HW122016   4.309   2.394   6.285
 7039SOL    HW222017   4.210   2.267   6.258
 7040SOL     OW22018   5.233   2.515   6.482
 7040SOL    HW122019   5.239   2.609   6.446
 7040SOL    HW222020   5.303   2.458   6.438
 7041SOL     OW22021   2.824   1.382   2.627
 7041SOL    HW122022   2.898   1.318   2.645
 7041SOL    HW222023   2.754   1.373   2.698
 7042SOL     OW22024   1.581   0.400   6.871
 7042SOL    HW122025   1.651   0.432   6.808
 7042SOL    HW222026   1.617   0.399   6.964
 7043SOL     OW22027   1.265   2.400   2.809
 7043SOL    HW122028   1.326   2.378   2.733
 7043SOL    HW222029   1.275   2.497   2.832
 7044SOL     OW22030   5.061   5.965   2.111
 7044SOL    HW122031   4.964   5.942   2.102
 7044SOL    HW222032   5.103   5.904   2.179
 7045SOL     OW22033   6.292   4.694   1.119
 7045SOL    HW122034   6.247   4.705   1.207
 7045SOL    HW222035   6.263   4.766   1.056
 7046SOL     OW22036   2.739   0.946   3.924
 7046SOL    HW122037   2.686   0.960   3.840
 7046SOL    HW222038   2.679   0.918   3.998
 7047SOL     OW22039   1.670   1.447   3.522
 7047SOL    HW122040   1.702   1.523   3.579
 7047SOL    HW222041   1.588   1.475   3.473
 7048SOL     OW22042   6.667   6.096   0.258
 7048SOL    HW122043   6.598   6.162   0.289
 7048SOL    HW222044   6.672   6.098   0.158
 7049SOL     OW22045   1.519   0.913   0.293
 7049SOL    HW122046   1.615   0.939   0.295
 7049SOL    HW222047   1.489   0.901   0.199
 7050SOL     OW22048   3.924   3.800   4.578
 7050SOL    HW122049   4.000   3.738   4.557
 7050SOL    HW222050   3.847   3.780   4.517
 7051SOL     OW22051   0.025   6.680   2.472
 7051SOL    HW122052   0.014   6.760   2.414
 7051SOL    HW222053   0.116   6.683   2.515
 7052SOL     OW22054   0.024   1.447   3.732
 7052SOL    HW122055   6.953   1.458   3.746
 7052SOL    HW222056   0.041   1.364   3.679
 7053SOL     OW22057   6.478   4.394   6.073
 7053SOL    HW122058   6.545   4.458   6.108
 7053SOL    HW222059   6.524   4.321   6.023
 7054SOL     OW22060   6.858   0.083   1.901
 7054SOL    HW122061   6.874   7.018   1.866
 7054SOL    HW222062   6.920   0.147   1.856
 7055SOL     OW22063   3.860   6.703   5.440
 7055SOL    HW122064   3.767   6.735   5.456
 7055SOL    HW222065   3.862   6.603   5.446
 7056SOL     OW22066   4.693   5.027   4.236
 7056SOL    HW122067   4.724   4.938   4.266
 7056SOL    HW222068   4.771   5.088   4.223
 7057SOL     OW22069   0.880   6.037   3.045
 7057SOL    HW122070   0.980   6.026   3.048
 7057SOL    HW222071   0.854   6.077   2.957
 7058SOL     OW22072   0.031   4.869   5.449
 7058SOL    HW122073   0.066   4.936   5.514
 7058SOL    HW222074   0.032   4.778   5.492
 7059SOL     OW22075   2.217   0.769   2.446
 7059SOL    HW122076   2.297   0.716   2.472
 7059SOL    HW222077   2.137   0.735   2.495
 7060SOL     OW22078   3.321   0.128   1.424
 7060SOL    HW122079   3.222   0.143   1.424
 7060SOL    HW222080   3.341   0.035   1.393
 7061SOL     OW22081   0.402   1.038   3.251
 7061SOL    HW122082   0.347   1.068   3.173
 7061SOL    HW222083   0.402   1.108   3.322
 7062SOL     OW22084   6.591   1.254   5.606
 7062SOL    HW122085   6.644   1.173   5.581
 7062SOL    HW222086   6.507   1.258   5.551
 7063SOL     OW22087   2.569   0.067   1.634
 7063SOL    HW122088   2.531   7.005   1.657
 7063SOL    HW222089   2.619   0.103   1.713
 7064SOL     OW22090   4.221   2.249   0.515
 7064SOL    HW122091   4.176   2.197   0.442
 7064SOL    HW222092   4.277   2.186   0.569
 7065SOL     OW22093   4.285   3.905   1.587
 7065SOL    HW122094   4.302   3.927   1.491
 7065SOL    HW222095   4.192   3.871   1.598
 7066SOL     OW22096   3.331   6.383   0.926
 7066SOL    HW122097   3.272   6.302   0.921
 7066SOL    HW222098   3.370   6.390   1.018
 7067SOL     OW22099   0.200   4.052   4.475
 7067SOL    HW122100   0.274   3.990   4.446
 7067SOL    HW222101   0.139   4.003   4.537
 7068SOL     OW22102   0.833   0.524   2.547
 7068SOL    HW122103   0.817   0.576   2.631
 7068SOL    HW222104   0.926   0.488   2.546
 7069SOL     OW22105   1.693   4.134   4.507
 7069SOL    HW122106   1.654   4.222   4.534
 7069SOL    HW222107   1.704   4.076   4.588
 7070SOL     OW22108   5.017   5.859   4.603
 7070SOL    HW122109   5.084   5.871   4.529
 7070SOL    HW222110   4.930   5.827   4.565
 7071SOL     OW22111   1.307   6.658   5.258
 7071SOL    HW122112   1.282   6.621   5.169
 7071SOL    HW222113   1.227   6.701   5.300
 7072SOL     OW22114   0.063   6.269   6.404
 7072SOL    HW122115   0.155   6.233   6.390
 7072SOL    HW222116   0.016   6.215   6.474
 7073SOL     OW22117   1.268   1.864   6.694
 7073SOL    HW122118   1.239   1.769   6.698
 7073SOL    HW222119   1.190   1.922   6.668
 7074SOL     OW22120   3.075   1.672   0.870
 7074SOL    HW122121   3.029   1.602   0.816
 7074SOL    HW222122   3.088   1.639   0.963
 7075SOL     OW22123   1.275   5.361   2.758
 7075SOL    HW122124   1.299   5.324   2.848
 7075SOL    HW222125   1.211   5.437   2.770
 7076SOL     OW22126   3.175   2.582   6.698
 7076SOL    HW122127   3.143   2.499   6.745
 7076SOL    HW222128   3.224   2.555   6.615
 7077SOL     OW22129   1.788   4.541   5.796
 7077SOL    HW122130   1.763   4.547   5.700
 7077SOL    HW222131   1.733   4.607   5.849
 7078SOL     OW22132   6.738   0.667   2.626
 7078SOL    HW122133   6.734   0.745   2.564
 7078SOL    HW222134   6.662   0.605   2.607
 7079SOL     OW22135   5.244   5.345   5.921
 7079SOL    HW122136   5.295   5.265   5.889
 7079SOL    HW222137   5.263   5.422   5.861
 7080SOL     OW22138   5.738   0.089   4.442
 7080SOL    HW122139   5.720   0.172   4.390
 7080SOL    HW222140   5.714   0.009   4.387
 7081SOL     OW22141   3.564   0.912   5.525
 7081SOL    HW122142   3.646   0.879   5.477
 7081SOL    HW222143   3.590   0.942   5.617
 7082SOL     OW22144   5.152   1.135   6.652
 7082SOL    HW122145   5.111   1.149   6.563
 7082SOL    HW222146   5.210   1.053   6.650
 7083SOL     OW22147   3.326   6.759   5.817
 7083SOL    HW122148   3.286   6.677   5.859
 7083SOL    HW222149   3.252   6.820   5.788
 7084SOL     OW22150   6.441   6.326   0.282
 7084SOL    HW122151   6.464   6.382   0.362
 7084SOL    HW222152   6.374   6.374   0.226
 7085SOL     OW22153   2.741   2.606   0.895
 7085SOL    HW122154   2.808   2.533   0.907
 7085SOL    HW222155   2.720   2.646   0.985
 7086SOL     OW22156   6.582   0.881   6.654
 7086SOL    HW122157   6.551   0.949   6.720
 7086SOL    HW222158   6.653   0.824   6.696
 7087SOL     OW22159   1.657   2.687   4.714
 7087SOL    HW122160   1.624   2.761   4.655
 7087SOL    HW222161   1.579   2.635   4.748
 7088SOL     OW22162   0.106   2.136   5.469
 7088SOL    HW122163   0.054   2.125   5.385
 7088SOL    HW222164   0.090   2.058   5.529
 7089SOL     OW22165   2.786   1.880   0.556
 7089SOL    HW122166   2.770   1.953   0.623
 7089SOL    HW222167   2.846   1.914   0.484
 7090SOL     OW22168   2.195   3.048   4.755
 7090SOL    HW122169   2.212   2.968   4.813
 7090SOL    HW222170   2.206   3.131   4.809
 7091SOL     OW22171   7.014   6.285   0.362
 7091SOL    HW122172   0.037   6.365   0.328
 7091SOL    HW222173   6.954   6.312   0.437
 7092SOL     OW22174   3.255   3.114   6.615
 7092SOL    HW122175   3.213   3.191   6.567
 7092SOL    HW222176   3.266   3.037   6.553
 7093SOL     OW22177   4.019   2.944   5.665
 7093SOL    HW122178   4.106   2.906   5.633
 7093SOL    HW222179   4.035   2.999   5.747
 7094SOL     OW22180   0.345   0.252   6.490
 7094SOL    HW122181   0.318   0.229   6.397
 7094SOL    HW222182   0.306   0.185   6.553
 7095SOL     OW22183   0.233   3.841   6.724
 7095SOL    HW122184   0.230   3.805   6.630
 7095SOL    HW222185   0.323   3.821   6.764
 7096SOL     OW22186   5.608   0.791   2.256
 7096SOL    HW122187   5.639   0.846   2.333
 7096SOL    HW222188   5.588   0.850   2.178
 7097SOL     OW22189   1.315   0.482   1.350
 7097SOL    HW122190   1.223   0.512   1.326
 7097SOL    HW222191   1.370   0.473   1.267
 7098SOL     OW22192   1.822   6.959   5.612
 7098SOL    HW122193   1.885   6.995   5.544
 7098SOL    HW222194   1.840   6.862   5.628
 7099SOL     OW22195   0.405   0.828   6.346
 7099SOL    HW122196   0.448   0.784   6.425
 7099SOL    HW222197   0.306   0.834   6.361
 7100SOL     OW22198   5.567   2.712   0.802
 7100SOL    HW122199   5.519   2.625   0.801
 7100SOL    HW222200   5.657   2.701   0.760
 7101SOL     OW22201   1.977   0.092   4.365
 7101SOL    HW122202   1.962   0.191   4.363
 7101SOL    HW222203   1.917   0.050   4.433
 7102SOL     OW22204   4.554   2.653   0.725
 7102SOL    HW122205   4.593   2.735   0.683
 7102SOL    HW222206   4.583   2.649   0.821
 7103SOL     OW22207   2.547   6.662   6.288
 7103SOL    HW122208   2.606   6.657   6.208
 7103SOL    HW222209   2.559   6.580   6.344
 7104SOL     OW22210   0.919   2.123   2.046
 7104SOL    HW122211   0.834   2.093   2.090
 7104SOL    HW222212   0.905   2.213   2.006
 7105SOL     OW22213   2.437   4.067   5.414
 7105SOL    HW122214   2.380   4.145   5.388
 7105SOL    HW222215   2.455   4.011   5.334
 7106SOL     OW22216   3.144   2.571   5.343
 7106SOL    HW122217   3.094   2.530   5.419
 7106SOL    HW222218   3.174   2.499   5.280
 7107SOL     OW22219   2.671   0.686   6.816
 7107SOL    HW122220   2.769   0.666   6.820
 7107SOL    HW222221   2.653   0.776   6.858
 7108SOL     OW22222   4.462   6.515   1.908
 7108SOL    HW122223   4.410   6.503   1.993
 7108SOL    HW222224   4.431   6.448   1.841
 7109SOL     OW22225   3.740   6.223   6.388
 7109SOL    HW122226   3.787   6.144   6.347
 7109SOL    HW222227   3.725   6.292   6.317
 7110SOL     OW22228   3.528   5.021   3.509
 7110SOL    HW122229   3.534   5.117   3.483
 7110SOL    HW222230   3.620   4.983   3.515
 7111SOL     OW22231   1.279   2.648   3.691
 7111SOL    HW122232   1.279   2.729   3.631
 7111SOL    HW222233   1.197   2.593   3.672
 7112SOL     OW22234   1.616   6.522   2.342
 7112SOL    HW122235   1.601   6.486   2.434
 7112SOL    HW222236   1.676   6.602   2.347
 7113SOL     OW22237   3.454   4.078   4.600
 7113SOL    HW122238   3.389   4.095   4.674
 7113SOL    HW222239   3.405   4.078   4.512
 7114SOL     OW22240   4.133   0.705   1.067
 7114SOL    HW122241   4.164   0.610   1.068
 7114SOL    HW222242   4.183   0.756   0.997
 7115SOL     OW22243   4.164   1.877   1.623
 7115SOL    HW122244   4.219   1.941   1.569
 7115SOL    HW222245   4.168   1.902   1.719
 7116SOL     OW22246   5.671   3.520   2.790
 7116SOL    HW122247   5.630   3.442   2.742
 7116SOL    HW222248   5.746   3.488   2.848
 7117SOL     OW22249   6.509   6.258   1.529
 7117SOL    HW122250   6.492   6.306   1.443
 7117SOL    HW222251   6.535   6.164   1.510
 7118SOL     OW22252   6.805   2.627   1.988
 7118SOL    HW122253   6.715   2.662   1.961
 7118SOL    HW222254   6.852   2.696   2.043
 7119SOL     OW22255   6.677   1.498   2.948
 7119SOL    HW122256   6.638   1.407   2.964
 7119SOL    HW222257   6.742   1.520   3.022
 7120SOL     OW22258   5.444   0.088   3.519
 7120SOL    HW122259   5.456   0.180   3.556
 7120SOL    HW222260   5.374   0.040   3.571
 7121SOL     OW22261   3.786   6.653   1.848
 7121SOL    HW122262   3.836   6.729   1.806
 7121SOL    HW222263   3.703   6.687   1.891
 7122SOL     OW22264   6.588   7.002   6.983
 7122SOL    HW122265   6.601   6.905   6.964
 7122SOL    HW222266   6.629   0.028   6.909
 7123SOL     OW22267   2.434   5.143   0.884
 7123SOL    HW122268   2.342   5.136   0.844
 7123SOL    HW222269   2.501   5.106   0.820
 7124SOL     OW22270   0.481   5.639   1.576
 7124SOL    HW122271   0.526   5.720   1.613
 7124SOL    HW222272   0.540   5.559   1.591
 7125SOL     OW22273   7.011   6.948   2.777
 7125SOL    HW122274   6.990   6.857   2.743
 7125SOL    HW222275   0.046   6.941   2.855
 7126SOL     OW22276   0.817   4.907   0.633
 7126SOL    HW122277   0.801   4.873   0.725
 7126SOL    HW222278   0.895   4.859   0.592
 7127SOL     OW22279   3.510   0.009   4.651
 7127SOL    HW122280   3.463   6.987   4.577
 7127SOL    HW222281   3.547   6.970   4.716
 7128SOL     OW22282   3.021   4.603   1.653
 7128SOL    HW122283   2.969   4.551   1.721
 7128SOL    HW222284   3.052   4.688   1.694
 7129SOL     OW22285   2.760   1.454   1.520
 7129SOL    HW122286   2.752   1.543   1.566
 7129SOL    HW222287   2.856   1.434   1.501
 7130SOL     OW22288   2.292   5.897   1.783
 7130SOL    HW122289   2.359   5.968   1.809
 7130SOL    HW222290   2.236   5.931   1.708
 7131SOL     OW22291   2.877   1.235   3.513
 7131SOL    HW122292   2.872   1.294   3.432
 7131SOL    HW222293   2.964   1.185   3.512
 7132SOL     OW22294   3.145   3.910   2.851
 7132SOL    HW122295   3.226   3.936   2.798
 7132SOL    HW222296   3.065   3.914   2.792
 7133SOL     OW22297   4.913   4.814   2.907
 7133SOL    HW122298   4.888   4.791   2.813
 7133SOL    HW222299   4.922   4.913   2.916
 7134SOL     OW22300   5.072   4.374   3.864
 7134SOL    HW122301   5.063   4.384   3.765
 7134SOL    HW222302   5.041   4.458   3.909
 7135SOL     OW22303   0.879   1.845   5.134
 7135SOL    HW122304   0.899   1.858   5.037
 7135SOL    HW222305   0.846   1.931   5.173
 7136SOL     OW22306   2.120   1.972   0.093
 7136SOL    HW122307   2.172   2.040   0.041
 7136SOL    HW222308   2.180   1.926   0.158
 7137SOL     OW22309   4.119   1.147   5.114
 7137SOL    HW122310   4.038   1.128   5.169
 7137SOL    HW222311   4.185   1.200   5.168
 7138SOL     OW22312   2.242   3.768   0.035
 7138SOL    HW122313   2.246   3.730   0.127
 7138SOL    HW222314   2.179   3.715   7.006
 7139SOL     OW22315   3.397   2.286   0.694
 7139SOL    HW122316   3.465   2.340   0.645
 7139SOL    HW222317   3.411   2.294   0.792
 7140SOL     OW22318   6.185   3.513   5.240
 7140SOL    HW122319   6.133   3.442   5.193
 7140SOL    HW222320   6.159   3.516   5.336
 7141SOL     OW22321   2.211   6.656   0.516
 7141SOL    HW122322   2.242   6.625   0.606
 7141SOL    HW222323   2.111   6.657   0.513
 7142SOL     OW22324   3.774   6.767   4.409
 7142SOL    HW122325   3.684   6.731   4.386
 7142SOL    HW222326   3.766   6.864   4.432
 7143SOL     OW22327   1.816   3.832   3.870
 7143SOL    HW122328   1.728   3.873   3.844
 7143SOL    HW222329   1.799   3.753   3.929
 7144SOL     OW22330   0.903   2.738   4.048
 7144SOL    HW122331   0.968   2.689   4.105
 7144SOL    HW222332   0.893   2.692   3.960
 7145SOL     OW22333   3.965   6.565   6.222
 7145SOL    HW122334   4.015   6.549   6.308
 7145SOL    HW222335   4.026   6.610   6.157
 7146SOL     OW22336   2.793   4.425   0.577
 7146SOL    HW122337   2.824   4.417   0.482
 7146SOL    HW222338   2.804   4.520   0.607
 7147SOL     OW22339   0.112   0.800   4.101
 7147SOL    HW122340   0.194   0.796   4.045
 7147SOL    HW222341   0.031   0.804   4.041
 7148SOL     OW22342   0.685   1.505   0.251
 7148SOL    HW122343   0.676   1.500   0.351
 7148SOL    HW222344   0.764   1.451   0.222
 7149SOL     OW22345   6.567   0.774   3.461
 7149SOL    HW122346   6.632   0.811   3.395
 7149SOL    HW222347   6.585   0.677   3.474
 7150SOL     OW22348   5.432   3.763   6.843
 7150SOL    HW122349   5.341   3.732   6.818
 7150SOL    HW222350   5.487   3.684   6.871
 7151SOL     OW22351   2.128   6.287   1.141
 7151SOL    HW122352   2.110   6.317   1.047
 7151SOL    HW222353   2.048   6.309   1.198
 7152SOL     OW22354   1.378   2.320   3.865
 7152SOL    HW122355   1.382   2.308   3.964
 7152SOL    HW222356   1.283   2.332   3.837
 7153SOL     OW22357   3.399   1.702   3.584
 7153SOL    HW122358   3.441   1.703   3.675
 7153SOL    HW222359   3.467   1.726   3.516
 7154SOL     OW22360   4.565   6.365   4.646
 7154SOL    HW122361   4.560   6.266   4.658
 7154SOL    HW222362   4.656   6.391   4.613
 7155SOL     OW22363   2.762   6.928   1.999
 7155SOL    HW122364   2.827   6.996   1.966
 7155SOL    HW222365   2.701   6.901   1.924
 7156SOL     OW22366   0.665   5.962   4.832
 7156SOL    HW122367   0.646   5.884   4.772
 7156SOL    HW222368   0.716   6.031   4.781
 7157SOL     OW22369   5.074   4.269   1.408
 7157SOL    HW122370   4.996   4.211   1.433
 7157SOL    HW222371   5.088   4.338   1.479
 7158SOL     OW22372   5.698   6.619   4.611
 7158SOL    HW122373   5.732   6.590   4.522
 7158SOL    HW222374   5.745   6.703   4.639
 7159SOL     OW22375   0.525   5.537   0.331
 7159SOL    HW122376   0.570   5.546   0.243
 7159SOL    HW222377   0.532   5.624   0.381
 7160SOL     OW22378   6.161   0.776   1.747
 7160SOL    HW122379   6.134   0.783   1.843
 7160SOL    HW222380   6.237   0.839   1.730
 7161SOL     OW22381   3.607   4.169   3.721
 7161SOL    HW122382   3.582   4.141   3.628
 7161SOL    HW222383   3.524   4.191   3.772
 7162SOL     OW22384   3.006   4.834   3.755
 7162SOL    HW122385   3.091   4.791   3.726
 7162SOL    HW222386   2.949   4.855   3.676
 7163SOL     OW22387   2.816   6.950   3.124
 7163SOL    HW122388   2.799   6.877   3.190
 7163SOL    HW222389   2.908   6.939   3.086
 7164SOL     OW22390   2.518   1.758   3.192
 7164SOL    HW122391   2.563   1.798   3.272
 7164SOL    HW222392   2.480   1.831   3.136
 7165SOL     OW22393   5.157   0.325   1.632
 7165SOL    HW122394   5.064   0.359   1.619
 7165SOL    HW222395   5.199   0.372   1.709
 7166SOL     OW22396   4.982   5.168   2.161
 7166SOL    HW122397   4.912   5.100   2.139
 7166SOL    HW222398   4.938   5.253   2.192
 7167SOL     OW22399   5.121   2.881   5.269
 7167SOL    HW122400   5.040   2.926   5.232
 7167SOL    HW222401   5.104   2.852   5.363
 7168SOL     OW22402   1.068   1.543   4.717
 7168SOL    HW122403   1.099   1.512   4.628
 7168SOL    HW222404   1.110   1.487   4.789
 7169SOL     OW22405   1.167   2.730   6.629
 7169SOL    HW122406   1.224   2.811   6.637
 7169SOL    HW222407   1.106   2.740   6.550
 7170SOL     OW22408   6.785   5.371   4.586
 7170SOL    HW122409   6.763   5.275   4.598
 7170SOL    HW222410   6.866   5.379   4.527
 7171SOL     OW22411   4.198   2.593   5.754
 7171SOL    HW122412   4.123   2.567   5.815
 7171SOL    HW222413   4.245   2.673   5.791
 7172SOL     OW22414   1.052   6.877   0.744
 7172SOL    HW122415   1.147   6.888   0.771
 7172SOL    HW222416   0.994   6.937   0.799
 7173SOL     OW22417   5.821   6.076   5.460
 7173SOL    HW122418   5.861   6.113   5.544
 7173SOL    HW222419   5.741   6.021   5.483
 7174SOL     OW22420   0.604   5.593   0.082
 7174SOL    HW122421   0.661   5.669   0.052
 7174SOL    HW222422   0.588   5.530   0.006
 7175SOL     OW22423   6.601   3.053   5.231
 7175SOL    HW122424   6.541   3.125   5.195
 7175SOL    HW222425   6.546   2.975   5.260
 7176SOL     OW22426   5.963   3.706   1.176
 7176SOL    HW122427   5.978   3.797   1.215
 7176SOL    HW222428   5.941   3.642   1.250
 7177SOL     OW22429   1.071   6.000   2.180
 7177SOL    HW122430   1.060   5.917   2.126
 7177SOL    HW222431   1.065   6.080   2.120
 7178SOL     OW22432   0.096   2.554   6.164
 7178SOL    HW122433   0.074   2.580   6.070
 7178SOL    HW222434   0.195   2.550   6.176
 7179SOL     OW22435   2.467   4.554   6.057
 7179SOL    HW122436   2.461   4.522   6.152
 7179SOL    HW222437   2.527   4.493   6.006
 7180SOL     OW22438   1.007   6.453   2.966
 7180SOL    HW122439   1.036   6.540   3.006
 7180SOL    HW222440   1.024   6.455   2.868
 7181SOL     OW22441   5.351   0.027   2.641
 7181SOL    HW122442   5.268   0.045   2.694
 7181SOL    HW222443   5.419   7.010   2.700
 7182SOL     OW22444   2.973   3.494   5.140
 7182SOL    HW122445   3.020   3.429   5.080
 7182SOL    HW222446   2.903   3.446   5.193
 7183SOL     OW22447   1.524   4.909   3.049
 7183SOL    HW122448   1.513   4.922   2.950
 7183SOL    HW222449   1.492   4.818   3.074
 7184SOL     OW22450   1.973   6.106   3.097
 7184SOL    HW122451   1.996   6.193   3.141
 7184SOL    HW222452   2.050   6.044   3.104
 7185SOL     OW22453   4.132   2.346   6.745
 7185SOL    HW122454   4.072   2.288   6.689
 7185SOL    HW222455   4.080   2.381   6.823
 7186SOL     OW22456   0.774   6.650   4.274
 7186SOL    HW122457   0.770   6.649   4.175
 7186SOL    HW222458   0.814   6.736   4.306
 7187SOL     OW22459   2.112   5.578   1.298
 7187SOL    HW122460   2.167   5.555   1.218
 7187SOL    HW222461   2.016   5.557   1.279
 7188SOL     OW22462   5.405   0.729   1.848
 7188SOL    HW122463   5.338   0.774   1.789
 7188SOL    HW222464   5.497   0.763   1.826
 7189SOL     OW22465   6.615   0.520   4.803
 7189SOL    HW122466   6.609   0.426   4.837
 7189SOL    HW222467   6.652   0.579   4.875
 7190SOL     OW22468   4.722   5.002   3.425
 7190SOL    HW122469   4.633   5.047   3.433
 7190SOL    HW222470   4.776   5.047   3.355
 7191SOL     OW22471   1.273   3.064   1.974
 7191SOL    HW122472   1.372   3.068   1.963
 7191SOL    HW222473   1.241   2.970   1.963
 7192SOL     OW22474   3.798   5.594   6.090
 7192SOL    HW122475   3.700   5.580   6.101
 7192SOL    HW222476   3.826   5.563   5.999
 7193SOL     OW22477   5.274   1.269   3.232
 7193SOL    HW122478   5.329   1.212   3.171
 7193SOL    HW222479   5.308   1.363   3.229
 7194SOL     OW22480   3.123   1.721   1.208
 7194SOL    HW122481   3.103   1.627   1.238
 7194SOL    HW222482   3.212   1.722   1.162
 7195SOL     OW22483   0.385   5.481   2.115
 7195SOL    HW122484   0.346   5.429   2.039
 7195SOL    HW222485   0.485   5.478   2.109
 7196SOL     OW22486   3.638   3.198   1.765
 7196SOL    HW122487   3.653   3.160   1.856
 7196SOL    HW222488   3.703   3.272   1.749
 7197SOL     OW22489   1.532   1.583   4.887
 7197SOL    HW122490   1.458   1.646   4.863
 7197SOL    HW222491   1.515   1.494   4.843
 7198SOL     OW22492   1.044   6.118   6.530
 7198SOL    HW122493   1.059   6.186   6.602
 7198SOL    HW222494   1.108   6.042   6.541
 7199SOL     OW22495   6.564   6.394   2.676
 7199SOL    HW122496   6.502   6.319   2.701
 7199SOL    HW222497   6.545   6.423   2.583
 7200SOL     OW22498   2.450   1.914   1.692
 7200SOL    HW122499   2.404   1.853   1.756
 7200SOL    HW222500   2.498   1.985   1.742
 7201SOL     OW22501   2.553   4.603   3.437
 7201SOL    HW122502   2.485   4.607   3.510
 7201SOL    HW222503   2.565   4.693   3.397
 7202SOL     OW22504   3.808   0.265   5.979
 7202SOL    HW122505   3.717   0.248   6.017
 7202SOL    HW222506   3.800   0.303   5.887
 7203SOL     OW22507   6.117   0.476   6.636
 7203SOL    HW122508   6.157   0.472   6.544
 7203SOL    HW222509   6.184   0.512   6.700
 7204SOL     OW22510   5.809   1.513   2.127
 7204SOL    HW122511   5.730   1.573   2.138
 7204SOL    HW222512   5.808   1.472   2.036
 7205SOL     OW22513   2.286   5.146   1.904
 7205SOL    HW122514   2.239   5.060   1.888
 7205SOL    HW222515   2.306   5.191   1.817
 7206SOL     OW22516   5.670   1.449   1.337
 7206SOL    HW122517   5.682   1.480   1.243
 7206SOL    HW222518   5.574   1.424   1.352
 7207SOL     OW22519   4.910   6.900   1.524
 7207SOL    HW122520   4.932   6.944   1.436
 7207SOL    HW222521   4.832   6.946   1.566
 7208SOL     OW22522   3.180   7.025   5.387
 7208SOL    HW122523   3.125   6.981   5.316
 7208SOL    HW222524   3.227   0.077   5.348
 7209SOL     OW22525   4.112   3.606   4.545
 7209SOL    HW122526   4.205   3.608   4.583
 7209SOL    HW222527   4.113   3.556   4.459
 7210SOL     OW22528   4.801   0.549   3.832
 7210SOL    HW122529   4.760   0.640   3.834
 7210SOL    HW222530   4.740   0.486   3.783
 7211SOL     OW22531   1.693   5.239   2.297
 7211SOL    HW122532   1.714   5.174   2.223
 7211SOL    HW222533   1.778   5.266   2.343
 7212SOL     OW22534   5.043   0.011   3.872
 7212SOL    HW122535   5.028   7.012   3.968
 7212SOL    HW222536   4.956   0.006   3.823
 7213SOL     OW22537   5.229   0.283   5.571
 7213SOL    HW122538   5.163   0.236   5.513
 7213SOL    HW222539   5.224   0.382   5.555
 7214SOL     OW22540   0.599   4.913   5.071
 7214SOL    HW122541   0.614   5.004   5.032
 7214SOL    HW222542   0.629   4.843   5.006
 7215SOL     OW22543   1.039   3.273   2.581
 7215SOL    HW122544   1.109   3.267   2.511
 7215SOL    HW222545   0.995   3.363   2.577
 7216SOL     OW22546   2.364   1.486   1.559
 7216SOL    HW122547   2.297   1.558   1.540
 7216SOL    HW222548   2.323   1.416   1.618
 7217SOL     OW22549   1.220   3.311   1.820
 7217SOL    HW122550   1.179   3.249   1.753
 7217SOL    HW222551   1.263   3.258   1.893
 7218SOL     OW22552   6.371   2.090   6.235
 7218SOL    HW122553   6.296   2.024   6.227
 7218SOL    HW222554   6.376   2.123   6.330
 7219SOL     OW22555   3.808   1.129   1.236
 7219SOL    HW122556   3.862   1.085   1.164
 7219SOL    HW222557   3.725   1.168   1.196
 7220SOL     OW22558   6.979   1.180   2.757
 7220SOL    HW122559   0.027   1.161   2.820
 7220SOL    HW222560   6.971   1.278   2.742
 7221SOL     OW22561   5.617   4.922   5.022
 7221SOL    HW122562   5.702   4.876   4.998
 7221SOL    HW222563   5.633   5.020   5.035
 7222SOL     OW22564   5.871   6.575   2.963
 7222SOL    HW122565   5.818   6.492   2.984
 7222SOL    HW222566   5.947   6.583   3.028
 7223SOL     OW22567   3.693   0.774   5.313
 7223SOL    HW122568   3.653   0.753   5.224
 7223SOL    HW222569   3.792   0.786   5.303
 7224SOL     OW22570   4.784   0.472   4.296
 7224SOL    HW122571   4.814   0.461   4.201
 7224SOL    HW222572   4.750   0.564   4.310
 7225SOL     OW22573   2.253   0.219   0.288
 7225SOL    HW122574   2.244   0.123   0.262
 7225SOL    HW222575   2.263   0.226   0.387
 7226SOL     OW22576   5.738   6.814   6.887
 7226SOL    HW122577   5.725   6.720   6.919
 7226SOL    HW222578   5.835   6.828   6.866
 7227SOL     OW22579   6.843   2.415   6.337
 7227SOL    HW122580   6.864   2.478   6.262
 7227SOL    HW222581   6.928   2.388   6.382
 7228SOL     OW22582   2.001   0.666   2.628
 7228SOL    HW122583   2.041   0.582   2.665
 7228SOL    HW222584   1.963   0.648   2.538
 7229SOL     OW22585   0.794   0.337   4.173
 7229SOL    HW122586   0.714   0.378   4.218
 7229SOL    HW222587   0.763   0.268   4.107
 7230SOL     OW22588   5.591   4.922   2.076
 7230SOL    HW122589   5.631   4.856   2.139
 7230SOL    HW222590   5.614   4.897   1.982
 7231SOL     OW22591   5.607   1.340   6.485
 7231SOL    HW122592   5.536   1.411   6.486
 7231SOL    HW222593   5.563   1.250   6.480
 7232SOL     OW22594   3.825   4.177   0.762
 7232SOL    HW122595   3.878   4.098   0.793
 7232SOL    HW222596   3.882   4.236   0.705
 7233SOL     OW22597   0.073   2.443   5.678
 7233SOL    HW122598   0.083   2.542   5.662
 7233SOL    HW222599   0.160   2.398   5.659
 7234SOL     OW22600   5.564   1.981   2.588
 7234SOL    HW122601   5.643   1.950   2.640
 7234SOL    HW222602   5.520   1.903   2.544
 7235SOL     OW22603   6.173   2.843   4.408
 7235SOL    HW122604   6.138   2.924   4.455
 7235SOL    HW222605   6.107   2.814   4.339
 7236SOL     OW22606   3.079   1.014   3.253
 7236SOL    HW122607   3.085   1.061   3.340
 7236SOL    HW222608   3.157   0.951   3.244
 7237SOL     OW22609   6.069   5.651   5.917
 7237SOL    HW122610   6.155   5.665   5.967
 7237SOL    HW222611   5.994   5.642   5.983
 7238SOL     OW22612   0.750   1.270   1.612
 7238SOL    HW122613   0.652   1.282   1.597
 7238SOL    HW222614   0.790   1.355   1.646
 7239SOL     OW22615   4.462   0.984   2.308
 7239SOL    HW122616   4.405   0.913   2.267
 7239SOL    HW222617   4.461   1.065   2.250
 7240SOL     OW22618   2.760   3.495   1.055
 7240SOL    HW122619   2.748   3.591   1.081
 7240SOL    HW222620   2.693   3.439   1.104
 7241SOL     OW22621   4.372   7.012   4.560
 7241SOL    HW122622   4.466   0.012   4.538
 7241SOL    HW222623   4.373   6.932   4.620
 7242SOL     OW22624   5.148   5.006   0.592
 7242SOL    HW122625   5.198   5.061   0.659
 7242SOL    HW222626   5.200   5.001   0.507
 7243SOL     OW22627   0.478   5.995   0.572
 7243SOL    HW122628   0.447   6.083   0.606
 7243SOL    HW222629   0.486   5.998   0.472
 7244SOL     OW22630   5.419   1.957   0.772
 7244SOL    HW122631   5.477   1.883   0.738
 7244SOL    HW222632   5.442   1.977   0.867
 7245SOL     OW22633   6.362   2.093   4.627
 7245SOL    HW122634   6.319   2.008   4.657
 7245SOL    HW222635   6.455   2.099   4.664
 7246SOL     OW22636   1.277   5.723   5.381
 7246SOL    HW122637   1.309   5.709   5.287
 7246SOL    HW222638   1.345   5.777   5.431
 7247SOL     OW22639   3.120   5.842   3.014
 7247SOL    HW122640   3.069   5.901   2.951
 7247SOL    HW222641   3.119   5.882   3.105
 7248SOL     OW22642   3.244   0.912   5.250
 7248SOL    HW122643   3.228   0.828   5.197
 7248SOL    HW222644   3.192   0.987   5.210
 7249SOL     OW22645   5.941   4.655   6.179
 7249SOL    HW122646   6.000   4.630   6.256
 7249SOL    HW222647   5.848   4.671   6.212
 7250SOL     OW22648   3.376   3.908   6.774
 7250SOL    HW122649   3.352   3.840   6.843
 7250SOL    HW222650   3.374   3.864   6.683
 7251SOL     OW22651   5.551   0.640   5.207
 7251SOL    HW122652   5.582   0.620   5.114
 7251SOL    HW222653   5.484   0.572   5.236
 7252SOL     OW22654   4.406   3.736   5.269
 7252SOL    HW122655   4.345   3.666   5.231
 7252SOL    HW222656   4.499   3.722   5.234
 7253SOL     OW22657   4.967   4.828   1.158
 7253SOL    HW122658   5.048   4.778   1.189
 7253SOL    HW222659   4.988   4.876   1.073
 7254SOL     OW22660   5.124   0.080   5.369
 7254SOL    HW122661   5.129   7.018   5.415
 7254SOL    HW222662   5.214   0.103   5.332
 7255SOL     OW22663   4.170   3.604   1.778
 7255SOL    HW122664   4.120   3.690   1.787
 7255SOL    HW222665   4.194   3.590   1.682
 7256SOL     OW22666   3.959   5.176   3.832
 7256SOL    HW122667   3.875   5.217   3.796
 7256SOL    HW222668   4.031   5.179   3.762
 7257SOL     OW22669   6.208   3.646   3.509
 7257SOL    HW122670   6.188   3.550   3.488
 7257SOL    HW222671   6.259   3.686   3.432
 7258SOL     OW22672   2.221   0.062   5.586
 7258SOL    HW122673   2.125   0.038   5.583
 7258SOL    HW222674   2.239   0.136   5.521
 7259SOL     OW22675   2.189   5.241   6.221
 7259SOL    HW122676   2.177   5.257   6.319
 7259SOL    HW222677   2.120   5.292   6.170
 7260SOL     OW22678   4.438   1.724   2.318
 7260SOL    HW122679   4.397   1.814   2.308
 7260SOL    HW222680   4.436   1.696   2.414
 7261SOL     OW22681   1.822   4.670   1.420
 7261SOL    HW122682   1.759   4.746   1.402
 7261SOL    HW222683   1.771   4.584   1.416
 7262SOL     OW22684   6.505   1.322   5.863
 7262SOL    HW122685   6.492   1.395   5.931
 7262SOL    HW222686   6.512   1.363   5.772
 7263SOL     OW22687   4.980   6.012   1.746
 7263SOL    HW122688   4.908   6.076   1.773
 7263SOL    HW222689   5.068   6.046   1.778
 7264SOL     OW22690   1.750   6.610   4.331
 7264SOL    HW122691   1.837   6.580   4.369
 7264SOL    HW222692   1.704   6.532   4.289
 7265SOL     OW22693   4.533   3.623   6.263
 7265SOL    HW122694   4.595   3.695   6.296
 7265SOL    HW222695   4.493   3.651   6.176
 7266SOL     OW22696   4.381   1.438   0.982
 7266SOL    HW122697   4.373   1.467   1.078
 7266SOL    HW222698   4.478   1.429   0.958
 7267SOL     OW22699   0.187   2.958   4.287
 7267SOL    HW122700   0.097   2.928   4.320
 7267SOL    HW222701   0.221   2.892   4.221
 7268SOL     OW22702   3.200   0.267   0.722
 7268SOL    HW122703   3.107   0.261   0.686
 7268SOL    HW222704   3.230   0.362   0.720
 7269SOL     OW22705   1.189   6.658   2.243
 7269SOL    HW122706   1.264   6.622   2.188
 7269SOL    HW222707   1.201   6.632   2.339
 7270SOL     OW22708   3.282   1.728   2.359
 7270SOL    HW122709   3.221   1.773   2.293
 7270SOL    HW222710   3.304   1.636   2.327
 7271SOL     OW22711   6.344   4.683   4.217
 7271SOL    HW122712   6.388   4.765   4.255
 7271SOL    HW222713   6.252   4.707   4.184
 7272SOL     OW22714   6.438   1.712   1.380
 7272SOL    HW122715   6.407   1.755   1.295
 7272SOL    HW222716   6.425   1.776   1.456
 7273SOL     OW22717   5.635   6.116   5.856
 7273SOL    HW122718   5.721   6.147   5.814
 7273SOL    HW222719   5.654   6.044   5.922
 7274SOL     OW22720   6.824   4.897   4.277
 7274SOL    HW122721   6.867   4.988   4.281
 7274SOL    HW222722   6.884   4.830   4.321
 7275SOL     OW22723   5.573   6.545   1.184
 7275SOL    HW122724   5.502   6.560   1.253
 7275SOL    HW222725   5.607   6.451   1.191
 7276SOL     OW22726   2.917   1.539   3.930
 7276SOL    HW122727   2.896   1.442   3.926
 7276SOL    HW222728   2.917   1.577   3.837
 7277SOL     OW22729   5.734   1.505   4.001
 7277SOL    HW122730   5.702   1.505   4.095
 7277SOL    HW222731   5.680   1.570   3.947
 7278SOL     OW22732   2.300   1.781   3.511
 7278SOL    HW122733   2.330   1.689   3.486
 7278SOL    HW222734   2.303   1.841   3.431
 7279SOL     OW22735   4.092   4.557   0.984
 7279SOL    HW122736   4.052   4.470   1.013
 7279SOL    HW222737   4.086   4.565   0.885
 7280SOL     OW22738   6.583   2.126   5.430
 7280SOL    HW122739   6.563   2.127   5.528
 7280SOL    HW222740   6.592   2.220   5.396
 7281SOL     OW22741   3.923   5.802   2.029
 7281SOL    HW122742   3.860   5.733   1.993
 7281SOL    HW222743   3.962   5.854   1.953
 7282SOL     OW22744   6.826   3.884   2.222
 7282SOL    HW122745   6.847   3.969   2.173
 7282SOL    HW222746   6.738   3.895   2.269
 7283SOL     OW22747   3.622   5.836   3.124
 7283SOL    HW122748   3.567   5.776   3.182
 7283SOL    HW222749   3.663   5.908   3.179
 7284SOL     OW22750   0.950   1.291   2.448
 7284SOL    HW122751   0.956   1.301   2.548
 7284SOL    HW222752   1.026   1.235   2.415
 7285SOL     OW22753   4.873   2.848   1.870
 7285SOL    HW122754   4.966   2.837   1.906
 7285SOL    HW222755   4.825   2.917   1.923
 7286SOL     OW22756   6.213   1.275   3.603
 7286SOL    HW122757   6.300   1.261   3.652
 7286SOL    HW222758   6.186   1.371   3.611
 7287SOL     OW22759   3.369   0.980   4.044
 7287SOL    HW122760   3.449   0.928   4.017
 7287SOL    HW222761   3.354   1.055   3.980
 7288SOL     OW22762   3.148   1.667   2.022
 7288SOL    HW122763   3.049   1.667   2.008
 7288SOL    HW222764   3.191   1.613   1.950
 7289SOL     OW22765   6.033   3.360   2.147
 7289SOL    HW122766   5.934   3.371   2.151
 7289SOL    HW222767   6.072   3.375   2.238
 7290SOL     OW22768   4.304   1.675   5.462
 7290SOL    HW122769   4.245   1.721   5.528
 7290SOL    HW222770   4.388   1.728   5.449
 7291SOL     OW22771   1.649   1.132   0.583
 7291SOL    HW122772   1.572   1.121   0.519
 7291SOL    HW222773   1.706   1.050   0.580
 7292SOL     OW22774   2.609   1.032   2.577
 7292SOL    HW122775   2.517   1.026   2.538
 7292SOL    HW222776   2.618   1.115   2.631
 7293SOL     OW22777   6.294   1.493   3.762
 7293SOL    HW122778   6.340   1.428   3.822
 7293SOL    HW222779   6.239   1.556   3.817
 7294SOL     OW22780   3.878   6.499   2.131
 7294SOL    HW122781   3.890   6.508   2.032
 7294SOL    HW222782   3.922   6.415   2.163
 7295SOL     OW22783   5.344   4.190   1.338
 7295SOL    HW122784   5.255   4.234   1.354
 7295SOL    HW222785   5.382   4.222   1.252
 7296SOL     OW22786   3.656   6.181   1.971
 7296SOL    HW122787   3.557   6.168   1.981
 7296SOL    HW222788   3.697   6.198   2.060
 7297SOL     OW22789   4.506   6.525   0.690
 7297SOL    HW122790   4.578   6.500   0.755
 7297SOL    HW222791   4.453   6.601   0.727
 7298SOL     OW22792   4.156   5.533   1.137
 7298SOL    HW122793   4.072   5.539   1.084
 7298SOL    HW222794   4.133   5.515   1.233
 7299SOL     OW22795   0.470   3.331   5.446
 7299SOL    HW122796   0.521   3.296   5.525
 7299SOL    HW222797   0.399   3.393   5.478
 7300SOL     OW22798   0.560   5.043   2.374
 7300SOL    HW122799   0.549   4.967   2.437
 7300SOL    HW222800   0.493   5.114   2.397
 7301SOL     OW22801   4.037   2.268   6.307
 7301SOL    HW122802   3.975   2.189   6.316
 7301SOL    HW222803   3.988   2.351   6.334
 7302SOL     OW22804   5.341   2.700   6.812
 7302SOL    HW122805   5.264   2.764   6.807
 7302SOL    HW222806   5.309   2.609   6.787
 7303SOL     OW22807   3.076   1.950   1.512
 7303SOL    HW122808   3.003   1.927   1.447
 7303SOL    HW222809   3.094   2.048   1.509
 7304SOL     OW22810   2.319   5.525   0.491
 7304SOL    HW122811   2.406   5.550   0.535
 7304SOL    HW222812   2.298   5.591   0.419
 7305SOL     OW22813   6.170   0.795   6.698
 7305SOL    HW122814   6.153   0.856   6.775
 7305SOL    HW222815   6.224   0.716   6.729
 7306SOL     OW22816   1.072   3.171   1.285
 7306SOL    HW122817   1.077   3.075   1.257
 7306SOL    HW222818   1.108   3.229   1.212
 7307SOL     OW22819   2.454   0.391   1.852
 7307SOL    HW122820   2.513   0.412   1.929
 7307SOL    HW222821   2.388   0.465   1.839
 7308SOL     OW22822   3.569   1.155   3.129
 7308SOL    HW122823   3.530   1.230   3.183
 7308SOL    HW222824   3.643   1.112   3.180
 7309SOL     OW22825   2.166   5.390   3.822
 7309SOL    HW122826   2.254   5.342   3.823
 7309SOL    HW222827   2.182   5.487   3.802
 7310SOL     OW22828   2.631   2.703   6.599
 7310SOL    HW122829   2.554   2.641   6.590
 7310SOL    HW222830   2.704   2.659   6.653
 7311SOL     OW22831   0.243   6.176   5.862
 7311SOL    HW122832   0.312   6.183   5.935
 7311SOL    HW222833   0.164   6.233   5.886
 7312SOL     OW22834   5.886   2.283   4.085
 7312SOL    HW122835   5.912   2.338   4.164
 7312SOL    HW222836   5.887   2.339   4.003
 7313SOL     OW22837   2.986   0.651   2.994
 7313SOL    HW122838   2.951   0.745   2.996
 7313SOL    HW222839   2.984   0.617   2.900
 7314SOL     OW22840   1.686   4.790   5.860
 7314SOL    HW122841   1.785   4.795   5.867
 7314SOL    HW222842   1.657   4.826   5.771
 7315SOL     OW22843   2.802   5.288   2.272
 7315SOL    HW122844   2.707   5.309   2.250
 7315SOL    HW222845   2.808   5.260   2.368
 7316SOL     OW22846   4.191   1.380   1.341
 7316SOL    HW122847   4.268   1.318   1.325
 7316SOL    HW222848   4.111   1.327   1.369
 7317SOL     OW22849   4.441   2.030   0.513
 7317SOL    HW122850   4.415   1.941   0.475
 7317SOL    HW222851   4.524   2.063   0.468
 7318SOL     OW22852   5.132   7.011   0.313
 7318SOL    HW122853   5.170   6.981   0.225
 7318SOL    HW222854   5.203   7.004   0.383
 7319SOL     OW22855   5.339   6.070   6.927
 7319SOL    HW122856   5.382   6.031   6.846
 7319SOL    HW222857   5.409   6.094   6.995
 7320SOL     OW22858   0.663   2.720   0.364
 7320SOL    HW122859   0.619   2.725   0.275
 7320SOL    HW222860   0.762   2.734   0.354
 7321SOL     OW22861   2.216   2.683   6.330
 7321SOL    HW122862   2.167   2.733   6.402
 7321SOL    HW222863   2.312   2.712   6.329
 7322SOL     OW22864   1.213   2.851   3.521
 7322SOL    HW122865   1.117   2.854   3.494
 7322SOL    HW222866   1.240   2.941   3.556
 7323SOL     OW22867   1.674   2.367   0.491
 7323SOL    HW122868   1.665   2.389   0.588
 7323SOL    HW222869   1.708   2.273   0.481
 7324SOL     OW22870   4.906   3.846   3.953
 7324SOL    HW122871   5.004   3.836   3.968
 7324SOL    HW222872   4.864   3.892   4.031
 7325SOL     OW22873   3.705   1.667   6.368
 7325SOL    HW122874   3.780   1.681   6.304
 7325SOL    HW222875   3.632   1.617   6.323
 7326SOL     OW22876   3.837   0.068   0.622
 7326SOL    HW122877   3.741   0.096   0.621
 7326SOL    HW222878   3.843   6.997   0.642
 7327SOL     OW22879   1.762   4.167   3.346
 7327SOL    HW122880   1.711   4.086   3.374
 7327SOL    HW222881   1.848   4.139   3.303
 7328SOL     OW22882   4.477   5.226   5.984
 7328SOL    HW122883   4.407   5.200   6.050
 7328SOL    HW222884   4.437   5.284   5.914
 7329SOL     OW22885   2.806   3.826   0.612
 7329SOL    HW122886   2.768   3.915   0.590
 7329SOL    HW222887   2.902   3.824   0.585
 7330SOL     OW22888   2.379   2.833   0.910
 7330SOL    HW122889   2.349   2.776   0.986
 7330SOL    HW222890   2.351   2.791   0.824
 7331SOL     OW22891   5.412   1.792   2.432
 7331SOL    HW122892   5.318   1.800   2.401
 7331SOL    HW222893   5.474   1.816   2.358
 7332SOL     OW22894   2.695   6.292   5.844
 7332SOL    HW122895   2.639   6.233   5.903
 7332SOL    HW222896   2.707   6.247   5.755
 7333SOL     OW22897   0.234   0.777   1.401
 7333SOL    HW122898   0.285   0.786   1.487
 7333SOL    HW222899   0.224   0.681   1.377
 7334SOL     OW22900   1.344   4.918   4.022
 7334SOL    HW122901   1.364   4.950   3.930
 7334SOL    HW222902   1.250   4.884   4.026
 7335SOL     OW22903   0.467   3.598   2.162
 7335SOL    HW122904   0.481   3.684   2.211
 7335SOL    HW222905   0.530   3.529   2.198
 7336SOL     OW22906   2.333   6.854   0.916
 7336SOL    HW122907   2.241   6.894   0.920
 7336SOL    HW222908   2.329   6.758   0.944
 7337SOL     OW22909   3.623   1.067   3.780
 7337SOL    HW122910   3.638   0.984   3.834
 7337SOL    HW222911   3.525   1.087   3.776
 7338SOL     OW22912   4.992   3.913   1.199
 7338SOL    HW122913   4.930   3.985   1.229
 7338SOL    HW222914   4.992   3.839   1.265
 7339SOL     OW22915   0.134   6.123   4.823
 7339SOL    HW122916   0.147   6.173   4.737
 7339SOL    HW222917   0.168   6.029   4.812
 7340SOL     OW22918   2.649   5.911   0.485
 7340SOL    HW122919   2.614   5.882   0.396
 7340SOL    HW222920   2.731   5.965   0.472
 7341SOL     OW22921   6.307   5.835   4.439
 7341SOL    HW122922   6.361   5.911   4.476
 7341SOL    HW222923   6.223   5.825   4.492
 7342SOL     OW22924   0.861   5.175   0.941
 7342SOL    HW122925   0.824   5.082   0.935
 7342SOL    HW222926   0.812   5.234   0.877
 7343SOL     OW22927   5.843   2.558   2.867
 7343SOL    HW122928   5.848   2.544   2.768
 7343SOL    HW222929   5.766   2.507   2.904
 7344SOL     OW22930   2.098   1.423   0.183
 7344SOL    HW122931   2.163   1.424   0.259
 7344SOL    HW222932   2.149   1.423   0.096
 7345SOL     OW22933   2.294   6.272   7.003
 7345SOL    HW122934   2.216   6.303   0.031
 7345SOL    HW222935   2.378   6.316   0.010
 7346SOL     OW22936   4.180   4.987   2.297
 7346SOL    HW122937   4.107   4.931   2.336
 7346SOL    HW222938   4.155   5.015   2.205
 7347SOL     OW22939   6.439   3.011   2.159
 7347SOL    HW122940   6.492   3.020   2.075
 7347SOL    HW222941   6.501   3.020   2.238
 7348SOL     OW22942   6.834   1.118   4.949
 7348SOL    HW122943   6.767   1.057   4.992
 7348SOL    HW222944   6.856   1.084   4.857
 7349SOL     OW22945   3.643   1.522   0.663
 7349SOL    HW122946   3.627   1.431   0.624
 7349SOL    HW222947   3.567   1.547   0.722
 7350SOL     OW22948   2.332   1.398   2.949
 7350SOL    HW122949   2.323   1.326   3.018
 7350SOL    HW222950   2.429   1.419   2.935
 7351SOL     OW22951   4.168   4.943   0.477
 7351SOL    HW122952   4.238   4.916   0.411
 7351SOL    HW222953   4.161   5.043   0.479
 7352SOL     OW22954   6.703   0.509   3.491
 7352SOL    HW122955   6.697   0.449   3.571
 7352SOL    HW222956   6.774   0.475   3.429
 7353SOL     OW22957   5.015   2.206   4.607
 7353SOL    HW122958   5.092   2.255   4.566
 7353SOL    HW222959   4.974   2.262   4.679
 7354SOL     OW22960   6.519   4.046   4.505
 7354SOL    HW122961   6.466   4.022   4.587
 7354SOL    HW222962   6.464   4.106   4.446
 7355SOL     OW22963   0.798   5.242   1.338
 7355SOL    HW122964   0.830   5.337   1.335
 7355SOL    HW222965   0.794   5.211   1.433
 7356SOL     OW22966   0.201   2.154   6.146
 7356SOL    HW122967   0.145   2.236   6.137
 7356SOL    HW222968   0.297   2.177   6.127
 7357SOL     OW22969   0.688   1.758   0.157
 7357SOL    HW122970   0.700   1.667   0.196
 7357SOL    HW222971   0.765   1.816   0.183
 7358SOL     OW22972   3.604   0.597   3.970
 7358SOL    HW122973   3.565   0.521   3.918
 7358SOL    HW222974   3.533   0.636   4.029
 7359SOL     OW22975   3.628   2.873   3.236
 7359SOL    HW122976   3.583   2.955   3.200
 7359SOL    HW222977   3.561   2.798   3.240
 7360SOL     OW22978   0.118   3.876   6.008
 7360SOL    HW122979   0.194   3.935   6.033
 7360SOL    HW222980   0.082   3.904   5.919
 7361SOL     OW22981   4.833   6.434   1.813
 7361SOL    HW122982   4.759   6.482   1.861
 7361SOL    HW222983   4.822   6.445   1.715
 7362SOL     OW22984   1.618   6.692   6.414
 7362SOL    HW122985   1.608   6.792   6.409
 7362SOL    HW222986   1.688   6.662   6.349
 7363SOL     OW22987   5.051   2.822   6.602
 7363SOL    HW122988   4.987   2.879   6.551
 7363SOL    HW222989   5.022   2.816   6.697
 7364SOL     OW22990   5.181   0.941   1.071
 7364SOL    HW122991   5.200   0.881   0.993
 7364SOL    HW222992   5.124   1.018   1.040
 7365SOL     OW22993   3.757   0.883   1.915
 7365SOL    HW122994   3.699   0.804   1.933
 7365SOL    HW222995   3.726   0.929   1.832
 7366SOL     OW22996   0.626   6.025   7.018
 7366SOL    HW122997   0.570   6.090   0.043
 7366SOL    HW222998   0.638   6.059   6.925
 7367SOL     OW22999   4.646   3.001   6.662
 7367SOL    HW123000   4.603   2.952   6.738
 7367SOL    HW223001   4.615   2.963   6.575
 7368SOL     OW23002   3.076   3.095   3.646
 7368SOL    HW123003   3.144   3.087   3.573
 7368SOL    HW223004   2.993   3.137   3.609
 7369SOL     OW23005   4.794   1.821   6.105
 7369SOL    HW123006   4.885   1.821   6.147
 7369SOL    HW223007   4.726   1.851   6.172
 7370SOL     OW23008   1.128   5.454   1.109
 7370SOL    HW123009   1.121   5.354   1.104
 7370SOL    HW223010   1.219   5.479   1.141
 7371SOL     OW23011   2.252   5.054   4.373
 7371SOL    HW123012   2.280   4.958   4.372
 7371SOL    HW223013   2.332   5.113   4.383
 7372SOL     OW23014   3.135   6.515   5.373
 7372SOL    HW123015   3.143   6.606   5.413
 7372SOL    HW223016   3.160   6.447   5.442
 7373SOL     OW23017   3.533   0.571   0.767
 7373SOL    HW123018   3.442   0.543   0.736
 7373SOL    HW223019   3.540   0.558   0.866
 7374SOL     OW23020   2.340   3.471   6.608
 7374SOL    HW123021   2.296   3.386   6.578
 7374SOL    HW223022   2.370   3.522   6.527
 7375SOL     OW23023   2.168   6.301   2.955
 7375SOL    HW123024   2.189   6.249   2.872
 7375SOL    HW223025   2.150   6.396   2.932
 7376SOL     OW23026   3.309   4.447   6.308
 7376SOL    HW123027   3.396   4.397   6.313
 7376SOL    HW223028   3.314   4.515   6.235
 7377SOL     OW23029   5.840   5.241   1.955
 7377SOL    HW123030   5.933   5.246   1.990
 7377SOL    HW223031   5.808   5.334   1.935
 7378SOL     OW23032   6.837   2.662   6.177
 7378SOL    HW123033   6.832   2.706   6.267
 7378SOL    HW223034   6.905   2.709   6.121
 7379SOL     OW23035   4.361   1.184   0.899
 7379SOL    HW123036   4.361   1.282   0.919
 7379SOL    HW223037   4.284   1.141   0.946
 7380SOL     OW23038   6.096   2.327   5.567
 7380SOL    HW123039   6.185   2.285   5.585
 7380SOL    HW223040   6.064   2.301   5.476
 7381SOL     OW23041   4.585   2.418   0.025
 7381SOL    HW123042   4.502   2.403   6.997
 7381SOL    HW223043   4.636   2.332   0.031
 7382SOL     OW23044   0.773   5.858   3.688
 7382SOL    HW123045   0.746   5.924   3.618
 7382SOL    HW223046   0.724   5.772   3.674
 7383SOL     OW23047   0.288   4.960   3.350
 7383SOL    HW123048   0.368   5.013   3.324
 7383SOL    HW223049   0.301   4.864   3.323
 7384SOL     OW23050   6.227   2.047   1.917
 7384SOL    HW123051   6.224   1.952   1.946
 7384SOL    HW223052   6.304   2.060   1.854
 7385SOL     OW23053   5.215   0.837   1.677
 7385SOL    HW123054   5.163   0.896   1.615
 7385SOL    HW223055   5.161   0.757   1.700
 7386SOL     OW23056   6.895   2.709   5.752
 7386SOL    HW123057   6.910   2.621   5.798
 7386SOL    HW223058   6.853   2.773   5.816
 7387SOL     OW23059   5.374   6.362   4.017
 7387SOL    HW123060   5.349   6.450   4.056
 7387SOL    HW223061   5.305   6.335   3.949
 7388SOL     OW23062   5.393   4.137   4.780
 7388SOL    HW123063   5.434   4.109   4.694
 7388SOL    HW223064   5.373   4.056   4.835
 7389SOL     OW23065   0.626   4.198   4.456
 7389SOL    HW123066   0.553   4.208   4.524
 7389SOL    HW223067   0.586   4.180   4.367
 7390SOL     OW23068   2.985   0.240   6.095
 7390SOL    HW123069   2.937   0.239   6.183
 7390SOL    HW223070   3.077   0.203   6.107
 7391SOL     OW23071   6.913   4.505   0.352
 7391SOL    HW123072   6.998   4.556   0.338
 7391SOL    HW223073   6.860   4.548   0.425
 7392SOL     OW23074   2.384   4.413   2.939
 7392SOL    HW123075   2.452   4.447   2.874
 7392SOL    HW223076   2.412   4.435   3.032
 7393SOL     OW23077   0.453   3.821   0.160
 7393SOL    HW123078   0.549   3.797   0.150
 7393SOL    HW223079   0.429   3.891   0.093
 7394SOL     OW23080   2.719   2.938   6.379
 7394SOL    HW123081   2.706   2.998   6.458
 7394SOL    HW223082   2.806   2.891   6.387
 7395SOL     OW23083   2.060   6.431   0.134
 7395SOL    HW123084   2.024   6.395   0.220
 7395SOL    HW223085   2.000   6.405   0.059
 7396SOL     OW23086   6.989   6.766   2.046
 7396SOL    HW123087   7.015   6.673   2.071
 7396SOL    HW223088   6.967   6.769   1.948
 7397SOL     OW23089   5.882   4.440   4.643
 7397SOL    HW123090   5.895   4.436   4.742
 7397SOL    HW223091   5.956   4.389   4.598
 7398SOL     OW23092   4.659   6.324   2.998
 7398SOL    HW123093   4.620   6.331   3.090
 7398SOL    HW223094   4.674   6.228   2.975
 7399SOL     OW23095   5.498   4.706   4.848
 7399SOL    HW123096   5.407   4.665   4.843
 7399SOL    HW223097   5.490   4.805   4.836
 7400SOL     OW23098   2.501   4.288   7.004
 7400SOL    HW123099   2.571   4.247   6.945
 7400SOL    HW223100   2.493   4.234   0.061
 7401SOL     OW23101   5.867   1.734   4.892
 7401SOL    HW123102   5.888   1.828   4.919
 7401SOL    HW223103   5.779   1.731   4.846
 7402SOL     OW23104   2.435   6.382   4.413
 7402SOL    HW123105   2.515   6.370   4.353
 7402SOL    HW223106   2.417   6.480   4.425
 7403SOL     OW23107   2.158   3.189   1.240
 7403SOL    HW123108   2.080   3.235   1.198
 7403SOL    HW223109   2.189   3.115   1.180
 7404SOL     OW23110   0.982   1.866   2.602
 7404SOL    HW123111   0.950   1.960   2.614
 7404SOL    HW223112   0.909   1.810   2.564
 7405SOL     OW23113   3.941   4.946   6.493
 7405SOL    HW123114   3.897   4.857   6.508
 7405SOL    HW223115   3.947   4.995   6.580
 7406SOL     OW23116   0.674   6.062   1.865
 7406SOL    HW123117   0.675   6.064   1.964
 7406SOL    HW223118   0.634   6.146   1.830
 7407SOL     OW23119   2.178   0.802   5.878
 7407SOL    HW123120   2.162   0.886   5.825
 7407SOL    HW223121   2.191   0.725   5.816
 7408SOL     OW23122   0.407   3.979   4.985
 7408SOL    HW123123   0.398   4.019   5.076
 7408SOL    HW223124   0.322   3.932   4.960
 7409SOL     OW23125   2.740   6.667   5.540
 7409SOL    HW123126   2.798   6.663   5.621
 7409SOL    HW223127   2.718   6.762   5.518
 7410SOL     OW23128   5.195   4.807   6.703
 7410SOL    HW123129   5.274   4.844   6.654
 7410SOL    HW223130   5.111   4.850   6.668
 7411SOL     OW23131   5.352   5.098   5.832
 7411SOL    HW123132   5.330   5.034   5.757
 7411SOL    HW223133   5.446   5.082   5.863
 7412SOL     OW23134   1.399   1.301   6.717
 7412SOL    HW123135   1.491   1.303   6.678
 7412SOL    HW223136   1.334   1.341   6.653
 7413SOL     OW23137   0.307   3.414   4.283
 7413SOL    HW123138   0.305   3.502   4.236
 7413SOL    HW223139   0.397   3.401   4.326
 7414SOL     OW23140   7.014   5.403   2.645
 7414SOL    HW123141   7.025   5.304   2.636
 7414SOL    HW223142   0.028   5.433   2.731
 7415SOL     OW23143   2.362   1.561   3.260
 7415SOL    HW123144   2.412   1.642   3.230
 7415SOL    HW223145   2.428   1.490   3.287
 7416SOL     OW23146   5.886   0.301   3.288
 7416SOL    HW123147   5.970   0.248   3.273
 7416SOL    HW223148   5.831   0.255   3.358
 7417SOL     OW23149   0.912   5.951   1.110
 7417SOL    HW123150   0.957   5.881   1.166
 7417SOL    HW223151   0.936   6.042   1.143
 7418SOL     OW23152   0.833   3.575   0.489
 7418SOL    HW123153   0.804   3.523   0.409
 7418SOL    HW223154   0.932   3.588   0.486
 7419SOL     OW23155   6.006   1.181   5.774
 7419SOL    HW123156   6.024   1.250   5.704
 7419SOL    HW223157   5.968   1.225   5.855
 7420SOL     OW23158   6.959   5.827   2.382
 7420SOL    HW123159   6.941   5.885   2.302
 7420SOL    HW223160   6.886   5.759   2.392
 7421SOL     OW23161   3.814   2.579   1.526
 7421SOL    HW123162   3.884   2.609   1.462
 7421SOL    HW223163   3.798   2.650   1.594
 7422SOL     OW23164   0.753   1.781   1.092
 7422SOL    HW123165   0.728   1.779   1.189
 7422SOL    HW223166   0.701   1.854   1.046
 7423SOL     OW23167   2.310   4.713   6.908
 7423SOL    HW123168   2.304   4.736   6.811
 7423SOL    HW223169   2.388   4.652   6.923
 7424SOL     OW23170   5.462   0.484   4.756
 7424SOL    HW123171   5.498   0.552   4.820
 7424SOL    HW223172   5.525   0.406   4.750
 7425SOL     OW23173   4.084   0.327   5.152
 7425SOL    HW123174   4.168   0.365   5.113
 7425SOL    HW223175   4.107   0.279   5.237
 7426SOL     OW23176   0.548   1.580   6.903
 7426SOL    HW123177   0.617   1.595   6.973
 7426SOL    HW223178   0.586   1.523   6.830
 7427SOL     OW23179   4.652   5.810   4.909
 7427SOL    HW123180   4.690   5.729   4.864
 7427SOL    HW223181   4.570   5.839   4.860
 7428SOL     OW23182   3.188   1.345   5.885
 7428SOL    HW123183   3.177   1.329   5.787
 7428SOL    HW223184   3.281   1.323   5.913
 7429SOL     OW23185   6.976   0.034   3.947
 7429SOL    HW123186   7.000   0.013   3.852
 7429SOL    HW223187   0.032   0.047   4.001
 7430SOL     OW23188   0.341   4.743   4.525
 7430SOL    HW123189   0.290   4.828   4.530
 7430SOL    HW223190   0.283   4.667   4.554
 7431SOL     OW23191   0.913   4.394   2.123
 7431SOL    HW123192   0.975   4.471   2.136
 7431SOL    HW223193   0.851   4.387   2.201
 7432SOL     OW23194   1.419   6.314   4.940
 7432SOL    HW123195   1.347   6.368   4.985
 7432SOL    HW223196   1.500   6.371   4.929
 7433SOL     OW23197   7.023   6.288   1.196
 7433SOL    HW123198   0.003   6.388   1.200
 7433SOL    HW223199   0.001   6.250   1.288
 7434SOL     OW23200   4.034   6.832   0.009
 7434SOL    HW123201   3.947   6.858   0.050
 7434SOL    HW223202   4.049   6.887   6.954
 7435SOL     OW23203   1.237   5.672   6.701
 7435SOL    HW123204   1.322   5.678   6.752
 7435SOL    HW223205   1.230   5.582   6.660
 7436SOL     OW23206   4.444   3.424   0.041
 7436SOL    HW123207   4.511   3.495   0.061
 7436SOL    HW223208   4.390   3.451   6.989
 7437SOL     OW23209   0.049   5.519   5.693
 7437SOL    HW123210   0.146   5.541   5.697
 7437SOL    HW223211   0.034   5.429   5.735
 7438SOL     OW23212   6.015   3.963   1.826
 7438SOL    HW123213   6.094   3.928   1.876
 7438SOL    HW223214   5.943   3.987   1.891
 7439SOL     OW23215   1.371   5.984   3.696
 7439SOL    HW123216   1.351   6.025   3.607
 7439SOL    HW223217   1.339   5.889   3.698
 7440SOL     OW23218   0.605   1.654   3.406
 7440SOL    HW123219   0.643   1.561   3.408
 7440SOL    HW223220   0.664   1.712   3.351
 7441SOL     OW23221   6.106   6.871   4.011
 7441SOL    HW123222   6.038   6.932   3.970
 7441SOL    HW223223   6.190   6.923   4.030
 7442SOL     OW23224   1.786   0.897   6.467
 7442SOL    HW123225   1.768   0.804   6.498
 7442SOL    HW223226   1.748   0.910   6.376
 7443SOL     OW23227   6.877   1.648   0.890
 7443SOL    HW123228   6.795   1.605   0.852
 7443SOL    HW223229   6.904   1.599   0.973
 7444SOL     OW23230   0.717   2.104   5.694
 7444SOL    HW123231   0.804   2.139   5.659
 7444SOL    HW223232   0.721   2.004   5.699
 7445SOL     OW23233   5.840   2.575   1.628
 7445SOL    HW123234   5.925   2.626   1.637
 7445SOL    HW223235   5.788   2.611   1.551
 7446SOL     OW23236   6.188   3.290   1.828
 7446SOL    HW123237   6.259   3.274   1.896
 7446SOL    HW223238   6.103   3.245   1.856
 7447SOL     OW23239   6.994   3.931   6.222
 7447SOL    HW123240   6.909   3.933   6.169
 7447SOL    HW223241   0.026   3.857   6.189
 7448SOL     OW23242   6.731   6.400   5.781
 7448SOL    HW123243   6.803   6.344   5.823
 7448SOL    HW223244   6.692   6.461   5.851
 7449SOL     OW23245   4.419   0.759   1.335
 7449SOL    HW123246   4.379   0.837   1.287
 7449SOL    HW223247   4.398   0.766   1.432
 7450SOL     OW23248   3.539   0.399   1.917
 7450SOL    HW123249   3.623   0.406   1.971
 7450SOL    HW223250   3.551   0.329   1.847
 7451SOL     OW23251   1.713   0.959   2.678
 7451SOL    HW123252   1.683   0.865   2.691
 7451SOL    HW223253   1.650   1.006   2.615
 7452SOL     OW23254   1.721   6.723   3.825
 7452SOL    HW123255   1.709   6.799   3.762
 7452SOL    HW223256   1.631   6.690   3.855
 7453SOL     OW23257   5.894   5.556   5.390
 7453SOL    HW123258   5.947   5.471   5.393
 7453SOL    HW223259   5.940   5.622   5.331
 7454SOL     OW23260   0.774   3.127   6.806
 7454SOL    HW123261   0.801   3.195   6.874
 7454SOL    HW223262   0.707   3.064   6.845
 7455SOL     OW23263   5.337   1.181   0.224
 7455SOL    HW123264   5.333   1.162   0.323
 7455SOL    HW223265   5.264   1.131   0.178
 7456SOL     OW23266   1.148   3.051   5.686
 7456SOL    HW123267   1.093   2.999   5.620
 7456SOL    HW223268   1.091   3.072   5.766
 7457SOL     OW23269   6.518   6.694   6.141
 7457SOL    HW123270   6.498   6.645   6.226
 7457SOL    HW223271   6.523   6.792   6.158
 7458SOL     OW23272   2.362   0.125   0.842
 7458SOL    HW123273   2.406   0.204   0.801
 7458SOL    HW223274   2.360   0.135   0.942
 7459SOL     OW23275   4.761   0.312   4.508
 7459SOL    HW123276   4.768   0.381   4.435
 7459SOL    HW223277   4.853   0.283   4.534
 7460SOL     OW23278   0.491   5.335   6.654
 7460SOL    HW123279   0.587   5.308   6.664
 7460SOL    HW223280   0.468   5.340   6.557
 7461SOL     OW23281   4.785   0.909   4.288
 7461SOL    HW123282   4.788   0.882   4.191
 7461SOL    HW223283   4.875   0.942   4.316
 7462SOL     OW23284   1.806   0.971   2.275
 7462SOL    HW123285   1.764   0.956   2.364
 7462SOL    HW223286   1.905   0.977   2.285
 7463SOL     OW23287   3.556   3.911   2.192
 7463SOL    HW123288   3.630   3.962   2.148
 7463SOL    HW223289   3.592   3.825   2.228
 7464SOL     OW23290   4.914   6.901   6.950
 7464SOL    HW123291   4.836   6.964   6.953
 7464SOL    HW223292   4.981   6.933   6.883
 7465SOL     OW23293   3.489   0.960   2.244
 7465SOL    HW123294   3.407   0.978   2.188
 7465SOL    HW223295   3.567   1.007   2.203
 7466SOL     OW23296   0.003   0.513   6.634
 7466SOL    HW123297   6.983   0.476   6.554
 7466SOL    HW223298   0.044   0.437   6.686
 7467SOL     OW23299   5.200   1.534   1.256
 7467SOL    HW123300   5.116   1.575   1.291
 7467SOL    HW223301   5.188   1.510   1.160
 7468SOL     OW23302   5.806   3.296   4.426
 7468SOL    HW123303   5.834   3.374   4.370
 7468SOL    HW223304   5.864   3.291   4.507
 7469SOL     OW23305   6.087   1.236   1.770
 7469SOL    HW123306   6.097   1.328   1.730
 7469SOL    HW223307   6.059   1.245   1.865
 7470SOL     OW23308   0.509   2.998   2.310
 7470SOL    HW123309   0.478   3.080   2.357
 7470SOL    HW223310   0.459   2.989   2.223
 7471SOL     OW23311   5.943   4.438   5.767
 7471SOL    HW123312   5.853   4.438   5.722
 7471SOL    HW223313   5.936   4.393   5.855
 7472SOL     OW23314   3.660   5.208   3.324
 7472SOL    HW123315   3.723   5.156   3.266
 7472SOL    HW223316   3.578   5.231   3.272
 7473SOL     OW23317   0.727   3.345   5.143
 7473SOL    HW123318   0.811   3.294   5.125
 7473SOL    HW223319   0.743   3.411   5.216
 7474SOL     OW23320   4.104   1.681   3.153
 7474SOL    HW123321   4.078   1.648   3.244
 7474SOL    HW223322   4.120   1.603   3.093
 7475SOL     OW23323   4.190   0.841   6.562
 7475SOL    HW123324   4.144   0.752   6.558
 7475SOL    HW223325   4.217   0.860   6.656
 7476SOL     OW23326   3.503   0.033   5.458
 7476SOL    HW123327   3.474   0.114   5.509
 7476SOL    HW223328   3.514   0.056   5.362
 7477SOL     OW23329   5.397   3.491   3.651
 7477SOL    HW123330   5.346   3.477   3.736
 7477SOL    HW223331   5.349   3.559   3.595
 7478SOL     OW23332   1.448   4.603   1.466
 7478SOL    HW123333   1.366   4.619   1.412
 7478SOL    HW223334   1.529   4.624   1.412
 7479SOL     OW23335   4.213   0.534   6.074
 7479SOL    HW123336   4.299   0.507   6.031
 7479SOL    HW223337   4.232   0.585   6.158
 7480SOL     OW23338   6.755   4.917   0.739
 7480SOL    HW123339   6.820   4.976   0.691
 7480SOL    HW223340   6.800   4.874   0.817
 7481SOL     OW23341   6.285   5.887   0.777
 7481SOL    HW123342   6.203   5.833   0.795
 7481SOL    HW223343   6.336   5.846   0.702
 7482SOL     OW23344   5.160   0.445   3.605
 7482SOL    HW123345   5.213   0.520   3.565
 7482SOL    HW223346   5.125   0.387   3.533
 7483SOL     OW23347   3.288   0.034   6.114
 7483SOL    HW123348   3.199   7.015   6.115
 7483SOL    HW223349   3.312   0.062   6.207
 7484SOL     OW23350   3.218   0.425   2.218
 7484SOL    HW123351   3.249   0.516   2.245
 7484SOL    HW223352   3.282   0.356   2.252
 7485SOL     OW23353   0.967   6.850   5.801
 7485SOL    HW123354   0.943   6.793   5.880
 7485SOL    HW223355   0.891   6.850   5.736
 7486SOL     OW23356   1.810   0.462   4.982
 7486SOL    HW123357   1.844   0.467   4.888
 7486SOL    HW223358   1.887   0.443   5.044
 7487SOL     OW23359   4.018   5.556   3.271
 7487SOL    HW123360   3.921   5.533   3.274
 7487SOL    HW223361   4.031   5.638   3.215
 7488SOL     OW23362   3.298   0.848   5.500
 7488SOL    HW123363   3.397   0.837   5.508
 7488SOL    HW223364   3.275   0.878   5.407
 7489SOL     OW23365   6.358   3.506   3.056
 7489SOL    HW123366   6.371   3.525   3.153
 7489SOL    HW223367   6.353   3.593   3.006
 7490SOL     OW23368   5.856   1.402   2.367
 7490SOL    HW123369   5.846   1.458   2.285
 7490SOL    HW223370   5.789   1.432   2.436
 7491SOL     OW23371   0.208   6.533   6.667
 7491SOL    HW123372   0.118   6.558   6.632
 7491SOL    HW223373   0.203   6.446   6.716
 7492SOL     OW23374   2.120   2.534   4.032
 7492SOL    HW123375   2.191   2.600   4.055
 7492SOL    HW223376   2.148   2.482   3.951
 7493SOL     OW23377   5.600   4.549   0.226
 7493SOL    HW123378   5.501   4.546   0.206
 7493SOL    HW223379   5.644   4.612   0.162
 7494SOL     OW23380   4.755   2.051   1.331
 7494SOL    HW123381   4.764   2.129   1.270
 7494SOL    HW223382   4.845   2.026   1.366
 7495SOL     OW23383   0.806   1.727   2.459
 7495SOL    HW123384   0.750   1.659   2.506
 7495SOL    HW223385   0.836   1.691   2.371
 7496SOL     OW23386   0.837   4.367   5.760
 7496SOL    HW123387   0.739   4.351   5.756
 7496SOL    HW223388   0.879   4.337   5.674
 7497SOL     OW23389   2.330   4.969   2.532
 7497SOL    HW123390   2.430   4.973   2.542
 7497SOL    HW223391   2.300   5.042   2.471
 7498SOL     OW23392   5.172   1.145   4.335
 7498SOL    HW123393   5.112   1.172   4.260
 7498SOL    HW223394   5.158   1.048   4.355
 7499SOL     OW23395   4.415   5.692   4.010
 7499SOL    HW123396   4.371   5.645   3.934
 7499SOL    HW223397   4.446   5.625   4.078
 7500SOL     OW23398   5.196   4.182   1.709
 7500SOL    HW123399   5.157   4.140   1.792
 7500SOL    HW223400   5.145   4.266   1.687
 7501SOL     OW23401   0.441   4.397   4.055
 7501SOL    HW123402   0.424   4.474   4.115
 7501SOL    HW223403   0.389   4.409   3.970
 7502SOL     OW23404   2.092   1.874   4.765
 7502SOL    HW123405   2.182   1.840   4.735
 7502SOL    HW223406   2.055   1.813   4.835
 7503SOL     OW23407   2.066   2.405   6.729
 7503SOL    HW123408   2.003   2.351   6.673
 7503SOL    HW223409   2.045   2.502   6.719
 7504SOL     OW23410   3.986   5.978   3.620
 7504SOL    HW123411   3.905   5.922   3.641
 7504SOL    HW223412   3.993   6.053   3.687
 7505SOL     OW23413   1.871   2.098   3.929
 7505SOL    HW123414   1.795   2.033   3.929
 7505SOL    HW223415   1.903   2.113   4.022
 7506SOL     OW23416   3.797   1.660   3.499
 7506SOL    HW123417   3.824   1.712   3.580
 7506SOL    HW223418   3.723   1.707   3.451
 7507SOL     OW23419   1.847   6.649   5.739
 7507SOL    HW123420   1.927   6.666   5.797
 7507SOL    HW223421   1.771   6.705   5.772
 7508SOL     OW23422   4.806   5.788   4.464
 7508SOL    HW123423   4.729   5.731   4.491
 7508SOL    HW223424   4.777   5.884   4.461
 7509SOL     OW23425   4.242   3.708   6.112
 7509SOL    HW123426   4.294   3.774   6.058
 7509SOL    HW223427   4.194   3.646   6.050
 7510SOL     OW23428   3.118   4.050   4.552
 7510SOL    HW123429   3.163   4.090   4.631
 7510SOL    HW223430   3.077   3.962   4.578
 7511SOL     OW23431   1.383   0.813   2.592
 7511SOL    HW123432   1.342   0.722   2.589
 7511SOL    HW223433   1.312   0.883   2.582
 7512SOL     OW23434   2.411   2.802   1.814
 7512SOL    HW123435   2.462   2.725   1.777
 7512SOL    HW223436   2.428   2.883   1.759
 7513SOL     OW23437   0.674   3.390   6.391
 7513SOL    HW123438   0.754   3.433   6.350
 7513SOL    HW223439   0.669   3.414   6.488
 7514SOL     OW23440   2.996   6.074   2.922
 7514SOL    HW123441   2.990   6.140   2.997
 7514SOL    HW223442   2.903   6.047   2.895
 7515SOL     OW23443   0.088   5.034   2.953
 7515SOL    HW123444   0.148   5.065   2.879
 7515SOL    HW223445   0.116   5.078   3.038
 7516SOL     OW23446   1.302   1.150   2.710
 7516SOL    HW123447   1.333   1.167   2.617
 7516SOL    HW223448   1.349   1.212   2.773
 7517SOL     OW23449   0.414   5.193   1.386
 7517SOL    HW123450   0.505   5.202   1.346
 7517SOL    HW223451   0.376   5.103   1.362
 7518SOL     OW23452   5.268   5.020   3.226
 7518SOL    HW123453   5.276   4.922   3.247
 7518SOL    HW223454   5.269   5.033   3.127
 7519SOL     OW23455   1.817   6.124   3.682
 7519SOL    HW123456   1.846   6.059   3.611
 7519SOL    HW223457   1.833   6.084   3.772
 7520SOL     OW23458   2.604   0.079   4.177
 7520SOL    HW123459   2.518   0.044   4.214
 7520SOL    HW223460   2.654   0.125   4.250
 7521SOL     OW23461   5.066   3.901   5.964
 7521SOL    HW123462   5.153   3.852   5.972
 7521SOL    HW223463   5.071   3.986   6.016
 7522SOL     OW23464   1.860   0.327   2.178
 7522SOL    HW123465   1.775   0.349   2.224
 7522SOL    HW223466   1.881   0.230   2.190
 7523SOL     OW23467   5.677   0.061   6.805
 7523SOL    HW123468   5.713   6.996   6.821
 7523SOL    HW223469   5.683   0.083   6.708
 7524SOL     OW23470   6.307   1.175   4.310
 7524SOL    HW123471   6.321   1.077   4.295
 7524SOL    HW223472   6.278   1.219   4.225
 7525SOL     OW23473   0.871   5.915   0.844
 7525SOL    HW123474   0.887   5.915   0.943
 7525SOL    HW223475   0.945   5.963   0.798
 7526SOL     OW23476   3.823   2.803   5.171
 7526SOL    HW123477   3.805   2.755   5.257
 7526SOL    HW223478   3.916   2.782   5.140
 7527SOL     OW23479   5.259   5.254   2.259
 7527SOL    HW123480   5.186   5.251   2.191
 7527SOL    HW223481   5.221   5.234   2.349
 7528SOL     OW23482   5.938   2.971   6.173
 7528SOL    HW123483   5.848   2.936   6.148
 7528SOL    HW223484   6.006   2.936   6.109
 7529SOL     OW23485   2.936   0.242   5.266
 7529SOL    HW123486   3.018   0.248   5.209
 7529SOL    HW223487   2.941   0.311   5.339
 7530SOL     OW23488   6.488   3.014   2.923
 7530SOL    HW123489   6.573   2.963   2.934
 7530SOL    HW223490   6.509   3.107   2.892
 7531SOL     OW23491   2.700   1.809   4.228
 7531SOL    HW123492   2.670   1.830   4.321
 7531SOL    HW223493   2.795   1.778   4.230
 7532SOL     OW23494   4.842   4.536   2.482
 7532SOL    HW123495   4.916   4.478   2.448
 7532SOL    HW223496   4.754   4.500   2.451
 7533SOL     OW23497   3.270   0.139   4.673
 7533SOL    HW123498   3.360   0.097   4.659
 7533SOL    HW223499   3.220   0.088   4.744
 7534SOL     OW23500   5.423   6.777   4.264
 7534SOL    HW123501   5.377   6.866   4.258
 7534SOL    HW223502   5.440   6.754   4.360
 7535SOL     OW23503   3.756   4.776   0.075
 7535SOL    HW123504   3.758   4.678   0.053
 7535SOL    HW223505   3.763   4.788   0.174
 7536SOL     OW23506   3.684   6.134   4.342
 7536SOL    HW123507   3.700   6.192   4.421
 7536SOL    HW223508   3.665   6.040   4.374
 7537SOL     OW23509   1.706   4.460   5.288
 7537SOL    HW123510   1.802   4.433   5.296
 7537SOL    HW223511   1.701   4.556   5.259
 7538SOL     OW23512   3.359   3.008   3.309
 7538SOL    HW123513   3.403   2.954   3.380
 7538SOL    HW223514   3.261   3.017   3.330
 7539SOL     OW23515   1.721   2.504   3.913
 7539SOL    HW123516   1.679   2.476   3.999
 7539SOL    HW223517   1.784   2.581   3.930
 7540SOL     OW23518   1.623   1.498   0.168
 7540SOL    HW123519   1.709   1.472   0.125
 7540SOL    HW223520   1.551   1.499   0.098
 7541SOL     OW23521   0.075   2.359   5.113
 7541SOL    HW123522   0.052   2.281   5.173
 7541SOL    HW223523   0.164   2.395   5.139
 7542SOL     OW23524   2.094   0.781   6.411
 7542SOL    HW123525   2.058   0.737   6.328
 7542SOL    HW223526   2.112   0.711   6.480
 7543SOL     OW23527   3.829   3.141   6.851
 7543SOL    HW123528   3.753   3.097   6.804
 7543SOL    HW223529   3.896   3.071   6.878
 7544SOL     OW23530   1.444   2.083   2.704
 7544SOL    HW123531   1.467   2.024   2.627
 7544SOL    HW223532   1.464   2.178   2.680
 7545SOL     OW23533   5.372   6.759   3.560
 7545SOL    HW123534   5.349   6.854   3.583
 7545SOL    HW223535   5.435   6.722   3.627
 7546SOL     OW23536   5.069   7.009   6.409
 7546SOL    HW123537   5.007   6.947   6.362
 7546SOL    HW223538   5.036   7.025   6.502
 7547SOL     OW23539   3.154   6.993   0.453
 7547SOL    HW123540   3.178   6.905   0.411
 7547SOL    HW223541   3.105   0.022   0.386
 7548SOL     OW23542   1.075   2.953   1.112
 7548SOL    HW123543   1.172   2.930   1.099
 7548SOL    HW223544   1.049   3.025   1.048
 7549SOL     OW23545   6.256   2.192   2.146
 7549SOL    HW123546   6.161   2.213   2.170
 7549SOL    HW223547   6.258   2.111   2.087
 7550SOL     OW23548   1.009   4.987   1.295
 7550SOL    HW123549   0.940   5.059   1.291
 7550SOL    HW223550   1.092   5.024   1.337
 7551SOL     OW23551   4.526   3.928   6.303
 7551SOL    HW123552   4.488   3.912   6.394
 7551SOL    HW223553   4.462   3.982   6.249
 7552SOL     OW23554   3.269   5.608   4.103
 7552SOL    HW123555   3.312   5.529   4.145
 7552SOL    HW223556   3.175   5.585   4.076
 7553SOL     OW23557   4.858   4.148   6.213
 7553SOL    HW123558   4.851   4.054   6.246
 7553SOL    HW223559   4.843   4.211   6.288
 7554SOL     OW23560   6.494   0.985   0.939
 7554SOL    HW123561   6.517   0.986   0.842
 7554SOL    HW223562   6.559   0.928   0.988
 7555SOL     OW23563   1.480   5.608   5.894
 7555SOL    HW123564   1.398   5.600   5.951
 7555SOL    HW223565   1.501   5.520   5.853
 7556SOL     OW23566   7.011   3.479   3.921
 7556SOL    HW123567   6.923   3.502   3.962
 7556SOL    HW223568   0.045   3.558   3.926
 7557SOL     OW23569   4.098   3.280   0.082
 7557SOL    HW123570   4.114   3.267   7.011
 7557SOL    HW223571   4.035   3.357   0.095
 7558SOL     OW23572   1.309   3.111   3.538
 7558SOL    HW123573   1.264   3.164   3.467
 7558SOL    HW223574   1.385   3.164   3.576
 7559SOL     OW23575   1.012   4.746   0.577
 7559SOL    HW123576   1.007   4.663   0.634
 7559SOL    HW223577   1.005   4.720   0.480
 7560SOL     OW23578   4.700   7.013   5.458
 7560SOL    HW123579   4.773   6.954   5.491
 7560SOL    HW223580   4.682   6.994   5.361
 7561SOL     OW23581   0.527   3.897   0.426
 7561SOL    HW123582   0.483   3.839   0.357
 7561SOL    HW223583   0.572   3.839   0.494
 7562SOL     OW23584   5.174   6.547   5.462
 7562SOL    HW123585   5.202   6.454   5.485
 7562SOL    HW223586   5.224   6.578   5.380
 7563SOL     OW23587   2.443   1.273   2.394
 7563SOL    HW123588   2.436   1.181   2.431
 7563SOL    HW223589   2.377   1.332   2.439
 7564SOL     OW23590   4.957   6.670   4.307
 7564SOL    HW123591   4.945   6.690   4.404
 7564SOL    HW223592   5.014   6.588   4.297
 7565SOL     OW23593   4.684   4.584   0.502
 7565SOL    HW123594   4.666   4.486   0.516
 7565SOL    HW223595   4.768   4.610   0.550
 7566SOL     OW23596   1.869   5.514   5.318
 7566SOL    HW123597   1.945   5.557   5.367
 7566SOL    HW223598   1.801   5.584   5.294
 7567SOL     OW23599   2.600   3.148   6.875
 7567SOL    HW123600   2.591   3.083   6.950
 7567SOL    HW223601   2.639   3.102   6.796
 7568SOL     OW23602   4.509   4.501   3.282
 7568SOL    HW123603   4.469   4.515   3.373
 7568SOL    HW223604   4.455   4.550   3.214
 7569SOL     OW23605   3.873   0.676   0.975
 7569SOL    HW123606   3.846   0.731   0.896
 7569SOL    HW223607   3.972   0.668   0.977
 7570SOL     OW23608   5.912   4.748   4.624
 7570SOL    HW123609   5.914   4.669   4.563
 7570SOL    HW223610   5.998   4.754   4.674
 7571SOL     OW23611   5.108   4.065   1.967
 7571SOL    HW123612   5.060   4.000   2.026
 7571SOL    HW223613   5.202   4.076   1.998
 7572SOL     OW23614   1.398   1.438   4.013
 7572SOL    HW123615   1.413   1.537   4.008
 7572SOL    HW223616   1.390   1.411   4.108
 7573SOL     OW23617   3.236   5.299   5.586
 7573SOL    HW123618   3.186   5.352   5.518
 7573SOL    HW223619   3.175   5.275   5.662
 7574SOL     OW23620   5.220   5.772   2.247
 7574SOL    HW123621   5.262   5.700   2.302
 7574SOL    HW223622   5.161   5.730   2.178
 7575SOL     OW23623   4.934   2.589   4.557
 7575SOL    HW123624   4.866   2.515   4.553
 7575SOL    HW223625   4.944   2.620   4.652
 7576SOL     OW23626   6.512   3.342   1.396
 7576SOL    HW123627   6.507   3.341   1.496
 7576SOL    HW223628   6.479   3.430   1.361
 7577SOL     OW23629   4.281   0.507   5.045
 7577SOL    HW123630   4.368   0.517   4.995
 7577SOL    HW223631   4.262   0.591   5.096
 7578SOL     OW23632   2.440   5.281   4.459
 7578SOL    HW123633   2.405   5.368   4.424
 7578SOL    HW223634   2.404   5.265   4.551
 7579SOL     OW23635   4.151   2.275   3.699
 7579SOL    HW123636   4.213   2.353   3.685
 7579SOL    HW223637   4.125   2.237   3.610
 7580SOL     OW23638   2.108   3.417   2.663
 7580SOL    HW123639   2.140   3.415   2.758
 7580SOL    HW223640   2.140   3.335   2.616
 7581SOL     OW23641   5.818   0.764   1.157
 7581SOL    HW123642   5.812   0.744   1.254
 7581SOL    HW223643   5.817   0.863   1.143
 7582SOL     OW23644   3.135   2.049   1.072
 7582SOL    HW123645   3.076   1.989   1.126
 7582SOL    HW223646   3.155   2.132   1.124
 7583SOL     OW23647   6.807   3.614   2.827
 7583SOL    HW123648   6.736   3.606   2.897
 7583SOL    HW223649   6.897   3.600   2.868
 7584SOL     OW23650   2.024   1.471   1.342
 7584SOL    HW123651   2.111   1.513   1.318
 7584SOL    HW223652   1.982   1.431   1.261
 7585SOL     OW23653   1.815   5.183   6.539
 7585SOL    HW123654   1.879   5.117   6.577
 7585SOL    HW223655   1.866   5.259   6.499
 7586SOL     OW23656   2.108   1.084   1.850
 7586SOL    HW123657   2.013   1.113   1.836
 7586SOL    HW223658   2.136   1.023   1.775
 7587SOL     OW23659   1.992   0.901   6.080
 7587SOL    HW123660   2.058   0.921   6.153
 7587SOL    HW223661   2.040   0.855   6.005
 7588SOL     OW23662   0.877   4.112   1.645
 7588SOL    HW123663   0.976   4.106   1.633
 7588SOL    HW223664   0.851   4.063   1.728
 7589SOL     OW23665   5.738   6.273   0.229
 7589SOL    HW123666   5.831   6.308   0.225
 7589SOL    HW223667   5.675   6.346   0.253
 7590SOL     OW23668   1.767   0.735   0.079
 7590SOL    HW123669   1.852   0.684   0.060
 7590SOL    HW223670   1.780   0.790   0.161
 7591SOL     OW23671   6.757   5.330   0.068
 7591SOL    HW123672   6.829   5.376   0.119
 7591SOL    HW223673   6.796   5.256   0.015
 7592SOL     OW23674   5.480   5.983   6.724
 7592SOL    HW123675   5.491   6.069   6.674
 7592SOL    HW223676   5.467   5.908   6.659
 7593SOL     OW23677   6.185   3.568   0.041
 7593SOL    HW123678   6.098   3.519   0.043
 7593SOL    HW223679   6.187   3.635   0.116
 7594SOL     OW23680   1.020   5.932   3.361
 7594SOL    HW123681   1.061   5.927   3.270
 7594SOL    HW223682   0.937   5.877   3.363
 7595SOL     OW23683   6.632   2.039   0.018
 7595SOL    HW123684   6.556   2.041   6.980
 7595SOL    HW223685   6.610   1.977   0.093
 7596SOL     OW23686   4.932   4.537   1.774
 7596SOL    HW123687   4.929   4.580   1.865
 7596SOL    HW223688   4.887   4.447   1.779
 7597SOL     OW23689   2.548   5.923   2.113
 7597SOL    HW123690   2.561   5.974   2.197
 7597SOL    HW223691   2.564   5.825   2.130
 7598SOL     OW23692   6.848   0.370   3.264
 7598SOL    HW123693   6.770   0.391   3.206
 7598SOL    HW223694   6.864   0.271   3.266
 7599SOL     OW23695   6.601   2.519   2.309
 7599SOL    HW123696   6.575   2.497   2.215
 7599SOL    HW223697   6.660   2.446   2.344
 7600SOL     OW23698   2.322   1.745   1.864
 7600SOL    HW123699   2.247   1.678   1.868
 7600SOL    HW223700   2.314   1.807   1.942
 7601SOL     OW23701   1.751   6.780   4.566
 7601SOL    HW123702   1.664   6.775   4.615
 7601SOL    HW223703   1.757   6.703   4.502
 7602SOL     OW23704   2.145   3.074   5.155
 7602SOL    HW123705   2.169   2.978   5.168
 7602SOL    HW223706   2.191   3.130   5.223
 7603SOL     OW23707   0.728   0.759   2.402
 7603SOL    HW123708   0.645   0.754   2.459
 7603SOL    HW223709   0.797   0.698   2.440
 7604SOL     OW23710   4.773   6.383   7.002
 7604SOL    HW123711   4.701   6.339   6.947
 7604SOL    HW223712   4.742   6.473   0.003
 7605SOL     OW23713   5.758   4.093   5.739
 7605SOL    HW123714   5.693   4.135   5.802
 7605SOL    HW223715   5.743   3.995   5.735
 7606SOL     OW23716   6.331   2.019   3.037
 7606SOL    HW123717   6.386   1.936   3.037
 7606SOL    HW223718   6.389   2.097   3.060
 7607SOL     OW23719   5.136   6.905   6.773
 7607SOL    HW123720   5.165   6.812   6.796
 7607SOL    HW223721   5.211   6.952   6.726
 7608SOL     OW23722   3.896   3.334   3.353
 7608SOL    HW123723   3.948   3.249   3.348
 7608SOL    HW223724   3.812   3.325   3.298
 7609SOL     OW23725   1.339   2.918   4.715
 7609SOL    HW123726   1.386   2.861   4.648
 7609SOL    HW223727   1.292   2.992   4.667
 7610SOL     OW23728   5.459   0.800   1.526
 7610SOL    HW123729   5.502   0.888   1.505
 7610SOL    HW223730   5.368   0.816   1.564
 7611SOL     OW23731   1.806   1.643   1.074
 7611SOL    HW123732   1.744   1.690   1.012
 7611SOL    HW223733   1.804   1.688   1.164
 7612SOL     OW23734   4.371   1.393   2.769
 7612SOL    HW123735   4.393   1.296   2.758
 7612SOL    HW223736   4.272   1.403   2.783
 7613SOL     OW23737   5.695   1.092   2.277
 7613SOL    HW123738   5.749   1.027   2.225
 7613SOL    HW223739   5.601   1.091   2.244
 7614SOL     OW23740   4.255   1.635   0.158
 7614SOL    HW123741   4.255   1.735   0.145
 7614SOL    HW223742   4.161   1.602   0.159
 7615SOL     OW23743   3.919   4.922   6.035
 7615SOL    HW123744   3.952   5.007   5.994
 7615SOL    HW223745   3.982   4.892   6.106
 7616SOL     OW23746   0.024   4.902   3.694
 7616SOL    HW123747   0.033   4.832   3.765
 7616SOL    HW223748   6.989   4.973   3.725
 7617SOL     OW23749   3.465   6.085   2.325
 7617SOL    HW123750   3.516   6.154   2.377
 7617SOL    HW223751   3.467   5.998   2.373
 7618SOL     OW23752   1.849   2.743   0.599
 7618SOL    HW123753   1.791   2.806   0.650
 7618SOL    HW223754   1.817   2.739   0.504
 7619SOL     OW23755   5.772   3.291   5.999
 7619SOL    HW123756   5.870   3.303   6.014
 7619SOL    HW223757   5.752   3.293   5.901
 7620SOL     OW23758   3.119   6.577   1.790
 7620SOL    HW123759   3.188   6.558   1.860
 7620SOL    HW223760   3.055   6.500   1.785
 7621SOL     OW23761   2.819   1.663   1.243
 7621SOL    HW123762   2.890   1.614   1.192
 7621SOL    HW223763   2.729   1.638   1.208
 7622SOL     OW23764   4.703   2.025   0.906
 7622SOL    HW123765   4.677   1.978   0.991
 7622SOL    HW223766   4.623   2.030   0.846
 7623SOL     OW23767   5.173   0.597   5.915
 7623SOL    HW123768   5.108   0.672   5.907
 7623SOL    HW223769   5.236   0.598   5.837
 7624SOL     OW23770   6.686   0.771   4.129
 7624SOL    HW123771   6.725   0.693   4.178
 7624SOL    HW223772   6.749   0.801   4.057
 7625SOL     OW23773   4.364   6.679   0.870
 7625SOL    HW123774   4.306   6.617   0.922
 7625SOL    HW223775   4.306   6.742   0.817
 7626SOL     OW23776   2.123   4.717   4.899
 7626SOL    HW123777   2.088   4.652   4.832
 7626SOL    HW223778   2.223   4.720   4.894
 7627SOL     OW23779   0.069   1.936   0.185
 7627SOL    HW123780   7.013   1.924   0.130
 7627SOL    HW223781   0.149   1.920   0.128
 7628SOL     OW23782   3.937   2.051   0.906
 7628SOL    HW123783   3.846   2.060   0.865
 7628SOL    HW223784   3.934   2.080   1.001
 7629SOL     OW23785   6.510   5.056   3.534
 7629SOL    HW123786   6.508   5.155   3.548
 7629SOL    HW223787   6.594   5.018   3.572
 7630SOL     OW23788   6.849   1.147   2.387
 7630SOL    HW123789   6.941   1.119   2.359
 7630SOL    HW223790   6.788   1.144   2.308
 7631SOL     OW23791   1.279   2.050   3.319
 7631SOL    HW123792   1.317   2.140   3.343
 7631SOL    HW223793   1.305   1.983   3.388
 7632SOL     OW23794   4.195   2.053   6.364
 7632SOL    HW123795   4.175   1.999   6.283
 7632SOL    HW223796   4.133   2.131   6.369
 7633SOL     OW23797   5.782   4.607   6.631
 7633SOL    HW123798   5.790   4.664   6.713
 7633SOL    HW223799   5.833   4.522   6.645
 7634SOL     OW23800   1.406   1.848   1.860
 7634SOL    HW123801   1.313   1.881   1.847
 7634SOL    HW223802   1.420   1.824   1.956
 7635SOL     OW23803   2.843   5.052   6.171
 7635SOL    HW123804   2.895   5.026   6.252
 7635SOL    HW223805   2.883   5.135   6.131
 7636SOL     OW23806   1.934   0.670   3.753
 7636SOL    HW123807   2.021   0.654   3.706
 7636SOL    HW223808   1.949   0.728   3.833
 7637SOL     OW23809   2.373   5.546   4.416
 7637SOL    HW123810   2.274   5.542   4.404
 7637SOL    HW223811   2.418   5.512   4.333
 7638SOL     OW23812   4.449   4.583   1.899
 7638SOL    HW123813   4.471   4.491   1.932
 7638SOL    HW223814   4.533   4.627   1.867
 7639SOL     OW23815   0.425   2.206   4.572
 7639SOL    HW123816   0.377   2.293   4.577
 7639SOL    HW223817   0.501   2.206   4.637
 7640SOL     OW23818   1.970   3.161   6.101
 7640SOL    HW123819   2.008   3.171   6.009
 7640SOL    HW223820   1.988   3.244   6.153
 7641SOL     OW23821   6.258   2.783   3.689
 7641SOL    HW123822   6.334   2.808   3.748
 7641SOL    HW223823   6.289   2.718   3.620
 7642SOL     OW23824   2.632   1.659   2.929
 7642SOL    HW123825   2.588   1.649   2.841
 7642SOL    HW223826   2.564   1.683   2.999
 7643SOL     OW23827   4.934   3.339   3.356
 7643SOL    HW123828   4.952   3.431   3.392
 7643SOL    HW223829   5.000   3.319   3.283
 7644SOL     OW23830   6.481   3.497   3.281
 7644SOL    HW123831   6.561   3.496   3.222
 7644SOL    HW223832   6.470   3.407   3.324
 7645SOL     OW23833   4.347   3.556   6.854
 7645SOL    HW123834   4.434   3.565   6.805
 7645SOL    HW223835   4.300   3.645   6.853
 7646SOL     OW23836   1.042   1.982   1.479
 7646SOL    HW123837   0.944   1.981   1.497
 7646SOL    HW223838   1.078   1.889   1.485
 7647SOL     OW23839   1.942   5.021   1.390
 7647SOL    HW123840   2.018   4.964   1.357
 7647SOL    HW223841   1.859   4.965   1.397
 7648SOL     OW23842   4.270   0.578   3.430
 7648SOL    HW123843   4.273   0.608   3.334
 7648SOL    HW223844   4.177   0.588   3.465
 7649SOL     OW23845   2.828   1.338   1.838
 7649SOL    HW123846   2.735   1.362   1.812
 7649SOL    HW223847   2.883   1.421   1.845
 7650SOL     OW23848   5.288   4.869   2.173
 7650SOL    HW123849   5.379   4.910   2.185
 7650SOL    HW223850   5.298   4.770   2.162
 7651SOL     OW23851   3.900   1.697   6.178
 7651SOL    HW123852   3.942   1.756   6.109
 7651SOL    HW223853   3.969   1.632   6.212
 7652SOL     OW23854   0.759   3.296   2.640
 7652SOL    HW123855   0.790   3.202   2.631
 7652SOL    HW223856   0.820   3.357   2.589
 7653SOL     OW23857   3.722   2.137   1.424
 7653SOL    HW123858   3.761   2.045   1.421
 7653SOL    HW223859   3.762   2.188   1.500
 7654SOL     OW23860   4.960   3.540   4.198
 7654SOL    HW123861   4.963   3.453   4.150
 7654SOL    HW223862   5.052   3.578   4.206
 7655SOL     OW23863   4.682   6.391   5.436
 7655SOL    HW123864   4.591   6.354   5.415
 7655SOL    HW223865   4.737   6.321   5.482
 7656SOL     OW23866   1.038   5.982   4.952
 7656SOL    HW123867   1.014   6.037   4.872
 7656SOL    HW223868   1.138   5.976   4.959
 7657SOL     OW23869   4.595   1.493   4.391
 7657SOL    HW123870   4.529   1.462   4.460
 7657SOL    HW223871   4.628   1.415   4.339
 7658SOL     OW23872   3.772   0.456   6.338
 7658SOL    HW123873   3.680   0.439   6.304
 7658SOL    HW223874   3.839   0.426   6.269
 7659SOL     OW23875   5.469   6.827   0.338
 7659SOL    HW123876   5.535   6.784   0.399
 7659SOL    HW223877   5.516   6.893   0.279
 7660SOL     OW23878   6.310   4.598   4.478
 7660SOL    HW123879   6.379   4.638   4.539
 7660SOL    HW223880   6.342   4.605   4.384
 7661SOL     OW23881   5.737   3.383   3.325
 7661SOL    HW123882   5.745   3.406   3.422
 7661SOL    HW223883   5.755   3.286   3.313
 7662SOL     OW23884   6.783   5.917   1.953
 7662SOL    HW123885   6.855   5.986   1.958
 7662SOL    HW223886   6.817   5.830   1.990
 7663SOL     OW23887   6.692   5.447   6.732
 7663SOL    HW123888   6.646   5.419   6.816
 7663SOL    HW223889   6.787   5.470   6.752
 7664SOL     OW23890   2.614   5.320   4.779
 7664SOL    HW123891   2.691   5.256   4.786
 7664SOL    HW223892   2.625   5.392   4.847
 7665SOL     OW23893   2.123   6.248   4.605
 7665SOL    HW123894   2.202   6.301   4.635
 7665SOL    HW223895   2.154   6.162   4.564
 7666SOL     OW23896   1.543   1.472   1.124
 7666SOL    HW123897   1.538   1.511   1.032
 7666SOL    HW223898   1.638   1.462   1.152
 7667SOL     OW23899   4.866   5.709   6.405
 7667SOL    HW123900   4.789   5.682   6.347
 7667SOL    HW223901   4.924   5.630   6.423
 7668SOL     OW23902   2.600   4.131   1.706
 7668SOL    HW123903   2.597   4.190   1.625
 7668SOL    HW223904   2.694   4.124   1.739
 7669SOL     OW23905   4.649   6.453   5.001
 7669SOL    HW123906   4.640   6.355   4.984
 7669SOL    HW223907   4.585   6.503   4.943
 7670SOL     OW23908   1.648   5.123   0.862
 7670SOL    HW123909   1.700   5.159   0.785
 7670SOL    HW223910   1.623   5.198   0.923
 7671SOL     OW23911   5.438   2.480   4.575
 7671SOL    HW123912   5.353   2.501   4.528
 7671SOL    HW223913   5.436   2.385   4.606
 7672SOL     OW23914   5.724   0.006   2.464
 7672SOL    HW123915   5.641   0.041   2.508
 7672SOL    HW223916   5.701   6.949   2.414
 7673SOL     OW23917   0.481   4.454   0.370
 7673SOL    HW123918   0.443   4.427   0.459
 7673SOL    HW223919   0.406   4.461   0.304
 7674SOL     OW23920   6.864   1.083   4.682
 7674SOL    HW123921   6.832   1.010   4.621
 7674SOL    HW223922   6.805   1.164   4.670
 7675SOL     OW23923   4.761   0.216   3.218
 7675SOL    HW123924   4.673   0.182   3.251
 7675SOL    HW223925   4.798   0.153   3.150
 7676SOL     OW23926   1.315   6.853   0.867
 7676SOL    HW123927   1.375   6.911   0.811
 7676SOL    HW223928   1.319   6.883   0.962
 7677SOL     OW23929   1.966   2.712   2.713
 7677SOL    HW123930   2.011   2.672   2.633
 7677SOL    HW223931   2.022   2.788   2.747
 7678SOL     OW23932   5.582   6.715   6.554
 7678SOL    HW123933   5.483   6.722   6.560
 7678SOL    HW223934   5.622   6.806   6.542
 7679SOL     OW23935   0.803   5.147   5.455
 7679SOL    HW123936   0.716   5.190   5.478
 7679SOL    HW223937   0.787   5.056   5.417
 7680SOL     OW23938   4.300   2.018   6.692
 7680SOL    HW123939   4.270   2.070   6.612
 7680SOL    HW223940   4.375   2.067   6.737
 7681SOL     OW23941   2.349   1.907   6.482
 7681SOL    HW123942   2.313   1.996   6.452
 7681SOL    HW223943   2.359   1.907   6.582
 7682SOL     OW23944   3.123   7.003   1.037
 7682SOL    HW123945   3.205   0.005   0.987
 7682SOL    HW223946   3.148   6.929   1.100
 7683SOL     OW23947   5.939   1.521   3.156
 7683SOL    HW123948   5.969   1.567   3.239
 7683SOL    HW223949   5.895   1.587   3.095
 7684SOL     OW23950   3.981   1.595   5.827
 7684SOL    HW123951   4.055   1.548   5.779
 7684SOL    HW223952   3.896   1.581   5.777
 7685SOL     OW23953   3.992   3.941   0.860
 7685SOL    HW123954   4.029   4.030   0.886
 7685SOL    HW223955   4.048   3.869   0.901
 7686SOL     OW23956   3.218   0.572   4.047
 7686SOL    HW123957   3.144   0.634   4.021
 7686SOL    HW223958   3.253   0.526   3.965
 7687SOL     OW23959   4.825   5.259   5.702
 7687SOL    HW123960   4.832   5.165   5.736
 7687SOL    HW223961   4.885   5.271   5.624
 7688SOL     OW23962   0.184   0.410   4.065
 7688SOL    HW123963   0.204   0.340   3.997
 7688SOL    HW223964   0.107   0.465   4.035
 7689SOL     OW23965   3.966   0.356   4.376
 7689SOL    HW123966   3.873   0.381   4.403
 7689SOL    HW223967   3.972   0.258   4.361
 7690SOL     OW23968   0.150   5.952   3.406
 7690SOL    HW123969   0.198   5.976   3.322
 7690SOL    HW223970   0.211   5.898   3.465
 7691SOL     OW23971   5.516   4.164   5.312
 7691SOL    HW123972   5.475   4.173   5.221
 7691SOL    HW223973   5.503   4.070   5.344
 7692SOL     OW23974   1.924   6.607   1.122
 7692SOL    HW123975   1.992   6.591   1.194
 7692SOL    HW223976   1.832   6.602   1.162
 7693SOL     OW23977   5.671   0.592   0.109
 7693SOL    HW123978   5.632   0.613   0.199
 7693SOL    HW223979   5.716   0.503   0.111
 7694SOL     OW23980   6.432   4.932   4.313
 7694SOL    HW123981   6.453   4.986   4.394
 7694SOL    HW223982   6.364   4.981   4.257
 7695SOL     OW23983   3.727   0.142   6.796
 7695SOL    HW123984   3.688   0.051   6.786
 7695SOL    HW223985   3.702   0.180   6.885
 7696SOL     OW23986   0.048   3.623   5.580
 7696SOL    HW123987   0.011   3.562   5.650
 7696SOL    HW223988   7.002   3.649   5.517
 7697SOL     OW23989   4.040   1.913   1.862
 7697SOL    HW123990   4.071   1.879   1.951
 7697SOL    HW223991   3.942   1.935   1.868
 7698SOL     OW23992   6.989   3.389   5.728
 7698SOL    HW123993   6.952   3.301   5.698
 7698SOL    HW223994   6.984   3.395   5.828
 7699SOL     OW23995   2.285   4.365   6.844
 7699SOL    HW123996   2.374   4.333   6.874
 7699SOL    HW223997   2.254   4.439   6.905
 7700SOL     OW23998   5.437   0.003   5.621
 7700SOL    HW123999   5.455   0.058   5.540
 7700SOL    HW224000   5.339   0.002   5.640
 7701SOL     OW24001   6.290   2.053   5.402
 7701SOL    HW124002   6.334   2.105   5.475
 7701SOL    HW224003   6.259   1.965   5.438
 7702SOL     OW24004   2.397   6.022   5.966
 7702SOL    HW124005   2.397   6.118   5.993
 7702SOL    HW224006   2.489   5.996   5.937
 7703SOL     OW24007   0.443   2.160   6.335
 7703SOL    HW124008   0.414   2.069   6.366
 7703SOL    HW224009   0.393   2.230   6.386
 7704SOL     OW24010   4.100   4.879   0.729
 7704SOL    HW124011   4.104   4.907   0.633
 7704SOL    HW224012   4.009   4.900   0.766
 7705SOL     OW24013   3.833   5.068   5.362
 7705SOL    HW124014   3.923   5.098   5.329
 7705SOL    HW224015   3.808   5.122   5.443
 7706SOL     OW24016   6.671   0.661   5.083
 7706SOL    HW124017   6.749   0.608   5.117
 7706SOL    HW224018   6.651   0.735   5.147
 7707SOL     OW24019   0.236   4.944   6.015
 7707SOL    HW124020   0.155   4.886   6.003
 7707SOL    HW224021   0.278   4.960   5.926
 7708SOL     OW24022   4.926   0.115   4.886
 7708SOL    HW124023   4.962   0.057   4.959
 7708SOL    HW224024   4.841   0.076   4.851
 7709SOL     OW24025   3.430   2.018   2.077
 7709SOL    HW124026   3.332   2.039   2.075
 7709SOL    HW224027   3.483   2.101   2.063
 7710SOL     OW24028   2.758   2.222   6.667
 7710SOL    HW124029   2.780   2.143   6.725
 7710SOL    HW224030   2.782   2.306   6.715
 7711SOL     OW24031   5.243   6.615   6.028
 7711SOL    HW124032   5.177   6.628   6.102
 7711SOL    HW224033   5.197   6.574   5.949
 7712SOL     OW24034   5.038   5.173   1.160
 7712SOL    HW124035   4.990   5.210   1.240
 7712SOL    HW224036   5.078   5.248   1.108
 7713SOL     OW24037   1.030   4.831   6.965
 7713SOL    HW124038   0.972   4.759   7.001
 7713SOL    HW224039   1.122   4.823   7.004
 7714SOL     OW24040   5.537   4.228   3.983
 7714SOL    HW124041   5.615   4.167   3.993
 7714SOL    HW224042   5.566   4.323   3.998
 7715SOL     OW24043   4.249   1.873   1.208
 7715SOL    HW124044   4.295   1.848   1.293
 7715SOL    HW224045   4.242   1.973   1.202
 7716SOL     OW24046   4.775   2.901   2.915
 7716SOL    HW124047   4.774   2.899   3.015
 7716SOL    HW224048   4.763   2.995   2.884
 7717SOL     OW24049   3.411   0.518   6.523
 7717SOL    HW124050   3.362   0.431   6.528
 7717SOL    HW224051   3.453   0.527   6.433
 7718SOL     OW24052   2.890   5.874   3.664
 7718SOL    HW124053   2.914   5.830   3.578
 7718SOL    HW224054   2.891   5.973   3.653
 7719SOL     OW24055   6.371   2.236   5.644
 7719SOL    HW124056   6.466   2.267   5.632
 7719SOL    HW224057   6.340   2.260   5.736
 7720SOL     OW24058   5.627   5.726   1.744
 7720SOL    HW124059   5.567   5.678   1.808
 7720SOL    HW224060   5.594   5.819   1.730
 7721SOL     OW24061   1.745   4.522   2.511
 7721SOL    HW124062   1.722   4.468   2.592
 7721SOL    HW224063   1.737   4.619   2.532
 7722SOL     OW24064   0.813   5.875   4.518
 7722SOL    HW124065   0.906   5.839   4.531
 7722SOL    HW224066   0.769   5.825   4.443
 7723SOL     OW24067   6.610   3.372   0.666
 7723SOL    HW124068   6.522   3.418   0.649
 7723SOL    HW224069   6.663   3.425   0.732
 7724SOL     OW24070   1.731   5.308   0.631
 7724SOL    HW124071   1.787   5.332   0.552
 7724SOL    HW224072   1.635   5.301   0.602
 7725SOL     OW24073   5.220   3.695   4.484
 7725SOL    HW124074   5.290   3.639   4.529
 7725SOL    HW224075   5.130   3.665   4.514
 7726SOL     OW24076   5.752   4.283   3.735
 7726SOL    HW124077   5.778   4.234   3.652
 7726SOL    HW224078   5.685   4.354   3.712
 7727SOL     OW24079   6.874   2.850   2.137
 7727SOL    HW124080   6.844   2.813   2.225
 7727SOL    HW224081   6.848   2.947   2.132
 7728SOL     OW24082   2.405   2.178   2.871
 7728SOL    HW124083   2.404   2.271   2.835
 7728SOL    HW224084   2.338   2.170   2.945
 7729SOL     OW24085   5.726   2.338   0.950
 7729SOL    HW124086   5.752   2.426   0.990
 7729SOL    HW224087   5.699   2.275   1.023
 7730SOL     OW24088   4.880   0.119   1.662
 7730SOL    HW124089   4.957   0.061   1.636
 7730SOL    HW224090   4.895   0.212   1.627
 7731SOL     OW24091   6.741   0.933   5.181
 7731SOL    HW124092   6.836   0.902   5.176
 7731SOL    HW224093   6.737   1.022   5.226
 7732SOL     OW24094   4.647   4.846   0.359
 7732SOL    HW124095   4.676   4.942   0.358
 7732SOL    HW224096   4.688   4.800   0.437
 7733SOL     OW24097   3.241   6.664   0.935
 7733SOL    HW124098   3.287   6.577   0.950
 7733SOL    HW224099   3.197   6.695   1.019
 7734SOL     OW24100   1.403   1.642   3.101
 7734SOL    HW124101   1.450   1.600   3.023
 7734SOL    HW224102   1.362   1.728   3.072
 7735SOL     OW24103   5.074   4.154   0.547
 7735SOL    HW124104   5.154   4.098   0.525
 7735SOL    HW224105   5.084   4.191   0.640
 7736SOL     OW24106   5.763   4.609   5.965
 7736SOL    HW124107   5.740   4.514   5.986
 7736SOL    HW224108   5.826   4.644   6.035
 7737SOL     OW24109   5.076   1.776   0.553
 7737SOL    HW124110   4.989   1.812   0.519
 7737SOL    HW224111   5.123   1.846   0.606
 7738SOL     OW24112   2.810   4.543   6.766
 7738SOL    HW124113   2.746   4.562   6.692
 7738SOL    HW224114   2.768   4.481   6.832
 7739SOL     OW24115   6.380   3.385   1.652
 7739SOL    HW124116   6.306   3.345   1.706
 7739SOL    HW224117   6.454   3.413   1.713
 7740SOL     OW24118   1.000   6.734   3.503
 7740SOL    HW124119   0.915   6.692   3.536
 7740SOL    HW224120   1.001   6.831   3.527
 7741SOL     OW24121   3.132   5.520   4.714
 7741SOL    HW124122   3.118   5.549   4.809
 7741SOL    HW224123   3.222   5.477   4.705
 7742SOL     OW24124   6.289   0.876   4.240
 7742SOL    HW124125   6.318   0.846   4.150
 7742SOL    HW224126   6.304   0.802   4.306
 7743SOL     OW24127   4.824   2.707   2.694
 7743SOL    HW124128   4.916   2.723   2.658
 7743SOL    HW224129   4.794   2.787   2.746
 7744SOL     OW24130   0.136   0.080   4.904
 7744SOL    HW124131   0.108   0.163   4.855
 7744SOL    HW224132   0.235   0.078   4.912
 7745SOL     OW24133   5.264   3.150   5.287
 7745SOL    HW124134   5.216   3.063   5.294
 7745SOL    HW224135   5.201   3.220   5.253
 7746SOL     OW24136   1.467   0.755   0.485
 7746SOL    HW124137   1.499   0.812   0.410
 7746SOL    HW224138   1.448   0.662   0.452
 7747SOL     OW24139   5.258   5.026   1.182
 7747SOL    HW124140   5.172   5.064   1.214
 7747SOL    HW224141   5.277   4.940   1.230
 7748SOL     OW24142   2.961   3.468   6.432
 7748SOL    HW124143   2.941   3.545   6.373
 7748SOL    HW224144   2.875   3.428   6.466
 7749SOL     OW24145   5.322   3.664   6.293
 7749SOL    HW124146   5.292   3.570   6.306
 7749SOL    HW224147   5.420   3.671   6.314
 7750SOL     OW24148   5.917   5.139   3.116
 7750SOL    HW124149   5.920   5.072   3.042
 7750SOL    HW224150   5.914   5.092   3.204
 7751SOL     OW24151   0.097   2.436   1.725
 7751SOL    HW124152   0.168   2.372   1.695
 7751SOL    HW224153   0.012   2.418   1.675
 7752SOL     OW24154   4.349   1.807   2.871
 7752SOL    HW124155   4.399   1.747   2.933
 7752SOL    HW224156   4.314   1.886   2.922
 7753SOL     OW24157   3.497   1.928   4.941
 7753SOL    HW124158   3.561   1.994   4.981
 7753SOL    HW224159   3.403   1.958   4.958
 7754SOL     OW24160   5.565   6.109   2.589
 7754SOL    HW124161   5.496   6.177   2.564
 7754SOL    HW224162   5.609   6.075   2.507
 7755SOL     OW24163   0.796   4.689   4.500
 7755SOL    HW124164   0.829   4.666   4.408
 7755SOL    HW224165   0.745   4.612   4.537
 7756SOL     OW24166   2.863   5.154   2.588
 7756SOL    HW124167   2.904   5.072   2.548
 7756SOL    HW224168   2.929   5.230   2.585
 7757SOL     OW24169   0.278   4.824   2.041
 7757SOL    HW124170   0.315   4.905   1.996
 7757SOL    HW224171   0.189   4.801   2.001
 7758SOL     OW24172   1.342   2.133   4.837
 7758SOL    HW124173   1.326   2.141   4.738
 7758SOL    HW224174   1.294   2.052   4.871
 7759SOL     OW24175   3.577   1.688   1.536
 7759SOL    HW124176   3.660   1.634   1.543
 7759SOL    HW224177   3.599   1.785   1.549
 7760SOL     OW24178   4.834   3.087   0.284
 7760SOL    HW124179   4.877   3.031   0.354
 7760SOL    HW224180   4.864   3.182   0.294
 7761SOL     OW24181   4.425   5.149   3.364
 7761SOL    HW124182   4.367   5.146   3.283
 7761SOL    HW224183   4.487   5.227   3.358
 7762SOL     OW24184   5.388   1.394   1.432
 7762SOL    HW124185   5.315   1.443   1.385
 7762SOL    HW224186   5.365   1.297   1.440
 7763SOL     OW24187   2.351   0.389   4.337
 7763SOL    HW124188   2.298   0.325   4.282
 7763SOL    HW224189   2.349   0.360   4.433
 7764SOL     OW24190   2.678   4.459   5.535
 7764SOL    HW124191   2.679   4.426   5.441
 7764SOL    HW224192   2.640   4.388   5.595
 7765SOL     OW24193   5.390   3.394   4.165
 7765SOL    HW124194   5.317   3.340   4.207
 7765SOL    HW224195   5.457   3.420   4.235
 7766SOL     OW24196   6.683   3.284   6.690
 7766SOL    HW124197   6.603   3.228   6.668
 7766SOL    HW224198   6.764   3.245   6.647
 7767SOL     OW24199   4.001   0.404   3.726
 7767SOL    HW124200   4.082   0.360   3.689
 7767SOL    HW224201   4.016   0.503   3.731
 7768SOL     OW24202   3.521   5.733   3.881
 7768SOL    HW124203   3.466   5.813   3.861
 7768SOL    HW224204   3.570   5.704   3.798
 7769SOL     OW24205   3.514   2.730   5.848
 7769SOL    HW124206   3.415   2.735   5.865
 7769SOL    HW224207   3.547   2.820   5.820
 7770SOL     OW24208   1.367   3.303   4.215
 7770SOL    HW124209   1.360   3.203   4.206
 7770SOL    HW224210   1.288   3.346   4.173
 7771SOL     OW24211   1.892   3.767   6.297
 7771SOL    HW124212   1.833   3.810   6.365
 7771SOL    HW224213   1.837   3.737   6.219
 7772SOL     OW24214   5.255   6.077   1.920
 7772SOL    HW124215   5.212   6.146   1.978
 7772SOL    HW224216   5.273   5.995   1.974
 7773SOL     OW24217   1.977   6.248   6.753
 7773SOL    HW124218   1.926   6.302   6.686
 7773SOL    HW224219   2.065   6.221   6.714
 7774SOL     OW24220   5.671   1.470   2.550
 7774SOL    HW124221   5.576   1.486   2.576
 7774SOL    HW224222   5.732   1.512   2.617
 7775SOL     OW24223   2.793   1.896   1.397
 7775SOL    HW124224   2.784   1.974   1.335
 7775SOL    HW224225   2.821   1.815   1.346
 7776SOL     OW24226   2.797   1.311   4.714
 7776SOL    HW124227   2.783   1.394   4.660
 7776SOL    HW224228   2.826   1.236   4.655
 7777SOL     OW24229   6.172   6.173   3.388
 7777SOL    HW124230   6.185   6.107   3.315
 7777SOL    HW224231   6.186   6.128   3.477
 7778SOL     OW24232   0.100   4.845   2.711
 7778SOL    HW124233   0.081   4.789   2.630
 7778SOL    HW224234   0.143   4.931   2.682
 7779SOL     OW24235   4.355   6.339   1.729
 7779SOL    HW124236   4.355   6.239   1.727
 7779SOL    HW224237   4.359   6.375   1.636
 7780SOL     OW24238   6.158   6.381   5.101
 7780SOL    HW124239   6.252   6.393   5.132
 7780SOL    HW224240   6.131   6.285   5.108
 7781SOL     OW24241   1.748   3.185   0.950
 7781SOL    HW124242   1.801   3.136   0.881
 7781SOL    HW224243   1.691   3.254   0.906
 7782SOL     OW24244   5.184   3.353   4.356
 7782SOL    HW124245   5.189   3.426   4.424
 7782SOL    HW224246   5.088   3.328   4.341
 7783SOL     OW24247   1.981   6.535   4.457
 7783SOL    HW124248   1.975   6.435   4.449
 7783SOL    HW224249   2.069   6.560   4.498
 7784SOL     OW24250   1.970   1.926   1.800
 7784SOL    HW124251   2.061   1.926   1.760
 7784SOL    HW224252   1.976   1.902   1.897
 7785SOL     OW24253   0.109   6.410   3.032
 7785SOL    HW124254   0.065   6.326   3.066
 7785SOL    HW224255   0.208   6.397   3.031
 7786SOL     OW24256   4.377   0.911   5.939
 7786SOL    HW124257   4.434   0.842   5.895
 7786SOL    HW224258   4.378   0.898   6.038
 7787SOL     OW24259   2.256   2.714   2.010
 7787SOL    HW124260   2.324   2.756   1.951
 7787SOL    HW224261   2.238   2.621   1.978
 7788SOL     OW24262   0.844   3.976   1.913
 7788SOL    HW124263   0.756   4.023   1.915
 7788SOL    HW224264   0.854   3.922   1.997
 7789SOL     OW24265   3.616   1.242   6.435
 7789SOL    HW124266   3.578   1.312   6.495
 7789SOL    HW224267   3.551   1.223   6.361
 7790SOL     OW24268   4.082   5.180   2.541
 7790SOL    HW124269   4.060   5.278   2.540
 7790SOL    HW224270   4.104   5.150   2.448
 7791SOL     OW24271   2.944   6.107   2.647
 7791SOL    HW124272   2.847   6.086   2.642
 7791SOL    HW224273   2.966   6.142   2.738
 7792SOL     OW24274   1.167   1.440   3.032
 7792SOL    HW124275   1.176   1.425   2.934
 7792SOL    HW224276   1.246   1.400   3.079
 7793SOL     OW24277   5.028   1.234   0.562
 7793SOL    HW124278   5.122   1.266   0.574
 7793SOL    HW224279   5.008   1.221   0.465
 7794SOL     OW24280   1.333   6.849   3.090
 7794SOL    HW124281   1.416   6.820   3.138
 7794SOL    HW224282   1.272   6.771   3.077
 7795SOL     OW24283   3.696   4.407   0.907
 7795SOL    HW124284   3.740   4.438   0.992
 7795SOL    HW224285   3.683   4.485   0.846
 7796SOL     OW24286   3.420   2.066   0.374
 7796SOL    HW124287   3.356   2.063   0.297
 7796SOL    HW224288   3.369   2.071   0.460
 7797SOL     OW24289   1.248   5.192   3.012
 7797SOL    HW124290   1.300   5.145   3.084
 7797SOL    HW224291   1.195   5.125   2.960
 7798SOL     OW24292   1.885   3.018   0.436
 7798SOL    HW124293   1.815   2.990   0.370
 7798SOL    HW224294   1.974   3.024   0.389
 7799SOL     OW24295   3.281   5.936   3.747
 7799SOL    HW124296   3.240   5.845   3.743
 7799SOL    HW224297   3.328   5.955   3.661
 7800SOL     OW24298   1.451   0.641   2.223
 7800SOL    HW124299   1.471   0.645   2.126
 7800SOL    HW224300   1.523   0.689   2.274
 7801SOL     OW24301   0.803   2.058   1.292
 7801SOL    HW124302   0.893   2.017   1.279
 7801SOL    HW224303   0.810   2.158   1.282
 7802SOL     OW24304   6.866   3.893   3.847
 7802SOL    HW124305   6.842   3.815   3.905
 7802SOL    HW224306   6.785   3.923   3.797
 7803SOL     OW24307   2.675   2.758   5.727
 7803SOL    HW124308   2.586   2.778   5.685
 7803SOL    HW224309   2.738   2.834   5.711
 7804SOL     OW24310   3.765   1.715   5.406
 7804SOL    HW124311   3.795   1.705   5.500
 7804SOL    HW224312   3.674   1.757   5.404
 7805SOL     OW24313   4.945   3.263   0.072
 7805SOL    HW124314   5.034   3.222   0.049
 7805SOL    HW224315   4.873   3.215   0.021
 7806SOL     OW24316   6.358   1.650   5.983
 7806SOL    HW124317   6.416   1.626   6.061
 7806SOL    HW224318   6.365   1.748   5.965
 7807SOL     OW24319   2.070   5.564   5.501
 7807SOL    HW124320   2.018   5.551   5.586
 7807SOL    HW224321   2.140   5.492   5.494
 7808SOL     OW24322   6.170   4.017   3.442
 7808SOL    HW124323   6.113   3.954   3.493
 7808SOL    HW224324   6.117   4.097   3.415
 7809SOL     OW24325   4.805   5.908   2.092
 7809SOL    HW124326   4.742   5.973   2.051
 7809SOL    HW224327   4.811   5.826   2.035
 7810SOL     OW24328   2.416   6.611   5.847
 7810SOL    HW124329   2.510   6.635   5.822
 7810SOL    HW224330   2.352   6.664   5.791
 7811SOL     OW24331   1.447   5.818   2.504
 7811SOL    HW124332   1.356   5.826   2.464
 7811SOL    HW224333   1.484   5.727   2.483
 7812SOL     OW24334   2.914   0.860   5.902
 7812SOL    HW124335   2.977   0.783   5.891
 7812SOL    HW224336   2.953   0.925   5.967
 7813SOL     OW24337   5.244   0.609   1.289
 7813SOL    HW124338   5.331   0.607   1.239
 7813SOL    HW224339   5.252   0.671   1.367
 7814SOL     OW24340   5.774   2.908   2.280
 7814SOL    HW124341   5.747   3.001   2.259
 7814SOL    HW224342   5.837   2.908   2.357
 7815SOL     OW24343   5.049   5.652   3.818
 7815SOL    HW124344   5.098   5.670   3.904
 7815SOL    HW224345   5.036   5.553   3.809
 7816SOL     OW24346   0.798   1.039   5.409
 7816SOL    HW124347   0.764   1.104   5.341
 7816SOL    HW224348   0.768   1.068   5.500
 7817SOL     OW24349   3.957   2.638   0.035
 7817SOL    HW124350   3.956   2.552   7.011
 7817SOL    HW224351   4.021   2.631   0.111
 7818SOL     OW24352   5.700   1.150   2.881
 7818SOL    HW124353   5.746   1.080   2.826
 7818SOL    HW224354   5.762   1.180   2.954
 7819SOL     OW24355   1.604   3.563   5.365
 7819SOL    HW124356   1.526   3.624   5.378
 7819SOL    HW224357   1.599   3.488   5.431
 7820SOL     OW24358   1.395   1.049   5.643
 7820SOL    HW124359   1.359   1.089   5.559
 7820SOL    HW224360   1.373   0.952   5.647
 7821SOL     OW24361   3.628   6.479   6.547
 7821SOL    HW124362   3.629   6.382   6.573
 7821SOL    HW224363   3.674   6.490   6.459
 7822SOL     OW24364   0.325   1.563   5.310
 7822SOL    HW124365   0.336   1.621   5.390
 7822SOL    HW224366   0.347   1.615   5.228
 7823SOL     OW24367   2.557   3.261   5.677
 7823SOL    HW124368   2.591   3.332   5.617
 7823SOL    HW224369   2.508   3.303   5.754
 7824SOL     OW24370   5.320   3.735   2.996
 7824SOL    HW124371   5.273   3.717   2.910
 7824SOL    HW224372   5.255   3.771   3.063
 7825SOL     OW24373   3.510   3.371   2.622
 7825SOL    HW124374   3.432   3.372   2.560
 7825SOL    HW224375   3.595   3.370   2.570
 7826SOL     OW24376   6.621   0.260   0.701
 7826SOL    HW124377   6.552   0.277   0.771
 7826SOL    HW224378   6.711   0.254   0.743
 7827SOL     OW24379   4.323   3.358   0.438
 7827SOL    HW124380   4.258   3.283   0.437
 7827SOL    HW224381   4.410   3.328   0.398
 7828SOL     OW24382   0.896   5.540   1.005
 7828SOL    HW124383   0.983   5.518   1.048
 7828SOL    HW224384   0.913   5.580   0.915
 7829SOL     OW24385   3.765   4.114   3.294
 7829SOL    HW124386   3.839   4.056   3.328
 7829SOL    HW224387   3.798   4.169   3.217
 7830SOL     OW24388   5.760   3.711   6.977
 7830SOL    HW124389   5.847   3.662   6.984
 7830SOL    HW224390   5.684   3.646   6.985
 7831SOL     OW24391   1.436   2.827   0.149
 7831SOL    HW124392   1.454   2.730   0.136
 7831SOL    HW224393   1.364   2.839   0.218
 7832SOL     OW24394   3.275   2.566   5.630
 7832SOL    HW124395   3.187   2.552   5.585
 7832SOL    HW224396   3.304   2.482   5.675
 7833SOL     OW24397   0.173   6.773   1.351
 7833SOL    HW124398   0.094   6.771   1.411
 7833SOL    HW224399   0.178   6.688   1.299
 7834SOL     OW24400   6.564   0.504   1.716
 7834SOL    HW124401   6.581   0.419   1.667
 7834SOL    HW224402   6.465   0.517   1.728
 7835SOL     OW24403   2.590   2.528   4.273
 7835SOL    HW124404   2.552   2.490   4.357
 7835SOL    HW224405   2.587   2.628   4.277
 7836SOL     OW24406   2.078   0.815   0.476
 7836SOL    HW124407   2.063   0.719   0.454
 7836SOL    HW224408   2.147   0.854   0.415
 7837SOL     OW24409   4.989   6.607   2.220
 7837SOL    HW124410   5.053   6.581   2.293
 7837SOL    HW224411   5.027   6.582   2.132
 7838SOL     OW24412   4.036   6.496   4.220
 7838SOL    HW124413   3.998   6.426   4.160
 7838SOL    HW224414   4.136   6.497   4.212
 7839SOL     OW24415   0.130   4.351   3.566
 7839SOL    HW124416   0.086   4.399   3.642
 7839SOL    HW224417   0.074   4.362   3.484
 7840SOL     OW24418   4.863   3.430   5.706
 7840SOL    HW124419   4.960   3.410   5.690
 7840SOL    HW224420   4.838   3.515   5.660
 7841SOL     OW24421   1.179   1.595   6.315
 7841SOL    HW124422   1.226   1.540   6.384
 7841SOL    HW224423   1.085   1.561   6.304
 7842SOL     OW24424   3.561   0.669   1.851
 7842SOL    HW124425   3.518   0.579   1.856
 7842SOL    HW224426   3.509   0.727   1.789
 7843SOL     OW24427   0.124   3.119   1.931
 7843SOL    HW124428   0.208   3.096   1.979
 7843SOL    HW224429   0.124   3.216   1.908
 7844SOL     OW24430   3.972   1.382   4.559
 7844SOL    HW124431   3.986   1.426   4.470
 7844SOL    HW224432   3.883   1.407   4.596
 7845SOL     OW24433   1.306   1.008   3.786
 7845SOL    HW124434   1.298   0.931   3.849
 7845SOL    HW224435   1.353   0.978   3.702
 7846SOL     OW24436   4.394   6.369   1.453
 7846SOL    HW124437   4.406   6.344   1.357
 7846SOL    HW224438   4.393   6.469   1.462
 7847SOL     OW24439   0.122   0.556   0.399
 7847SOL    HW124440   0.142   0.593   0.490
 7847SOL    HW224441   0.195   0.493   0.373
 7848SOL     OW24442   3.952   4.780   1.033
 7848SOL    HW124443   3.856   4.751   1.035
 7848SOL    HW224444   4.009   4.704   1.002
 7849SOL     OW24445   5.403   3.932   4.250
 7849SOL    HW124446   5.460   3.860   4.289
 7849SOL    HW224447   5.435   4.021   4.283
 7850SOL     OW24448   1.072   1.953   4.191
 7850SOL    HW124449   1.027   1.864   4.180
 7850SOL    HW224450   1.003   2.023   4.210
 7851SOL     OW24451   5.143   6.591   1.059
 7851SOL    HW124452   5.096   6.672   1.093
 7851SOL    HW224453   5.089   6.509   1.080
 7852SOL     OW24454   2.614   6.648   0.369
 7852SOL    HW124455   2.618   6.549   0.351
 7852SOL    HW224456   2.570   6.664   0.456
 7853SOL     OW24457   1.867   2.784   0.157
 7853SOL    HW124458   1.918   2.707   0.196
 7853SOL    HW224459   1.831   2.757   0.067
 7854SOL     OW24460   3.328   4.174   2.951
 7854SOL    HW124461   3.272   4.240   2.900
 7854SOL    HW224462   3.273   4.136   3.026
 7855SOL     OW24463   3.873   6.999   5.382
 7855SOL    HW124464   3.855   0.019   5.468
 7855SOL    HW224465   3.815   0.010   5.310
 7856SOL     OW24466   3.346   3.534   6.393
 7856SOL    HW124467   3.433   3.495   6.362
 7856SOL    HW224468   3.329   3.620   6.346
 7857SOL     OW24469   1.035   2.604   5.023
 7857SOL    HW124470   1.019   2.693   5.065
 7857SOL    HW224471   1.096   2.615   4.945
 7858SOL     OW24472   5.536   4.315   3.014
 7858SOL    HW124473   5.589   4.350   3.091
 7858SOL    HW224474   5.489   4.391   2.969
 7859SOL     OW24475   0.924   5.675   7.020
 7859SOL    HW124476   1.015   5.639   0.015
 7859SOL    HW224477   0.863   5.598   6.996
 7860SOL     OW24478   4.586   7.006   1.771
 7860SOL    HW124479   4.593   6.908   1.791
 7860SOL    HW224480   4.655   0.029   1.824
 7861SOL     OW24481   5.271   3.671   0.658
 7861SOL    HW124482   5.340   3.713   0.599
 7861SOL    HW224483   5.199   3.737   0.679
 7862SOL     OW24484   2.877   4.192   1.715
 7862SOL    HW124485   2.969   4.154   1.719
 7862SOL    HW224486   2.877   4.282   1.758
 7863SOL     OW24487   5.508   5.710   2.394
 7863SOL    HW124488   5.433   5.646   2.379
 7863SOL    HW224489   5.487   5.768   2.472
 7864SOL     OW24490   1.124   5.759   4.287
 7864SOL    HW124491   1.055   5.702   4.331
 7864SOL    HW224492   1.132   5.734   4.191
 7865SOL     OW24493   3.504   0.990   2.934
 7865SOL    HW124494   3.451   1.037   2.864
 7865SOL    HW224495   3.515   1.049   3.014
 7866SOL     OW24496   1.890   2.561   4.738
 7866SOL    HW124497   1.959   2.631   4.755
 7866SOL    HW224498   1.803   2.605   4.715
 7867SOL     OW24499   5.573   3.945   2.111
 7867SOL    HW124500   5.478   3.924   2.133
 7867SOL    HW224501   5.624   3.859   2.101
 7868SOL     OW24502   5.612   0.329   0.664
 7868SOL    HW124503   5.655   0.343   0.753
 7868SOL    HW224504   5.514   0.347   0.671
 7869SOL     OW24505   6.643   1.847   4.159
 7869SOL    HW124506   6.629   1.748   4.150
 7869SOL    HW224507   6.672   1.868   4.252
 7870SOL     OW24508   6.962   6.792   3.056
 7870SOL    HW124509   0.029   6.811   3.028
 7870SOL    HW224510   6.900   6.858   3.013
 7871SOL     OW24511   5.490   3.056   3.880
 7871SOL    HW124512   5.538   3.014   3.803
 7871SOL    HW224513   5.552   3.065   3.958
 7872SOL     OW24514   6.524   3.738   3.907
 7872SOL    HW124515   6.448   3.674   3.919
 7872SOL    HW224516   6.567   3.723   3.818
 7873SOL     OW24517   6.937   5.661   4.650
 7873SOL    HW124518   7.024   5.674   4.603
 7873SOL    HW224519   6.873   5.612   4.589
 7874SOL     OW24520   6.056   1.565   0.673
 7874SOL    HW124521   5.991   1.616   0.617
 7874SOL    HW224522   6.037   1.467   0.666
 7875SOL     OW24523   4.635   3.173   0.606
 7875SOL    HW124524   4.683   3.238   0.664
 7875SOL    HW224525   4.536   3.184   0.617
 7876SOL     OW24526   0.491   0.458   4.869
 7876SOL    HW124527   0.406   0.488   4.911
 7876SOL    HW224528   0.501   0.501   4.779
 7877SOL     OW24529   5.968   2.795   2.783
 7877SOL    HW124530   5.904   2.730   2.826
 7877SOL    HW224531   6.061   2.759   2.791
 7878SOL     OW24532   4.636   4.036   1.673
 7878SOL    HW124533   4.716   4.006   1.725
 7878SOL    HW224534   4.570   4.078   1.735
 7879SOL     OW24535   5.584   0.644   4.930
 7879SOL    HW124536   5.574   0.742   4.918
 7879SOL    HW224537   5.678   0.617   4.907
 7880SOL     OW24538   1.504   6.620   5.948
 7880SOL    HW124539   1.481   6.607   6.044
 7880SOL    HW224540   1.534   6.533   5.908
 7881SOL     OW24541   0.729   5.082   3.329
 7881SOL    HW124542   0.737   5.013   3.401
 7881SOL    HW224543   0.774   5.167   3.359
 7882SOL     OW24544   1.220   4.402   1.788
 7882SOL    HW124545   1.237   4.372   1.882
 7882SOL    HW224546   1.257   4.494   1.775
 7883SOL     OW24547   3.551   2.133   3.264
 7883SOL    HW124548   3.635   2.121   3.317
 7883SOL    HW224549   3.472   2.122   3.324
 7884SOL     OW24550   0.906   3.527   4.492
 7884SOL    HW124551   0.822   3.551   4.542
 7884SOL    HW224552   0.882   3.497   4.400
 7885SOL     OW24553   5.739   4.928   2.713
 7885SOL    HW124554   5.649   4.946   2.752
 7885SOL    HW224555   5.745   4.972   2.623
 7886SOL     OW24556   4.918   3.457   2.601
 7886SOL    HW124557   4.879   3.456   2.509
 7886SOL    HW224558   4.912   3.366   2.641
 7887SOL     OW24559   1.610   2.859   1.719
 7887SOL    HW124560   1.593   2.911   1.803
 7887SOL    HW224561   1.527   2.857   1.663
 7888SOL     OW24562   6.204   1.006   4.812
 7888SOL    HW124563   6.158   1.094   4.827
 7888SOL    HW224564   6.228   0.998   4.715
 7889SOL     OW24565   5.601   5.133   0.154
 7889SOL    HW124566   5.587   5.189   0.072
 7889SOL    HW224567   5.661   5.181   0.217
 7890SOL     OW24568   2.204   3.138   4.179
 7890SOL    HW124569   2.159   3.091   4.255
 7890SOL    HW224570   2.257   3.072   4.126
 7891SOL     OW24571   6.603   2.382   4.736
 7891SOL    HW124572   6.613   2.443   4.814
 7891SOL    HW224573   6.615   2.287   4.765
 7892SOL     OW24574   0.700   1.646   5.077
 7892SOL    HW124575   0.600   1.654   5.081
 7892SOL    HW224576   0.741   1.714   5.138
 7893SOL     OW24577   5.770   0.343   0.152
 7893SOL    HW124578   5.796   0.281   0.077
 7893SOL    HW224579   5.763   0.291   0.237
 7894SOL     OW24580   2.940   0.869   6.862
 7894SOL    HW124581   2.908   0.872   6.957
 7894SOL    HW224582   2.993   0.951   6.842
 7895SOL     OW24583   6.459   6.294   3.479
 7895SOL    HW124584   6.490   6.389   3.480
 7895SOL    HW224585   6.363   6.290   3.453
 7896SOL     OW24586   2.686   2.126   0.993
 7896SOL    HW124587   2.660   2.088   0.905
 7896SOL    HW224588   2.732   2.214   0.980
 7897SOL     OW24589   3.126   2.675   0.578
 7897SOL    HW124590   3.211   2.677   0.525
 7897SOL    HW224591   3.051   2.713   0.524
 7898SOL     OW24592   5.619   0.027   3.029
 7898SOL    HW124593   5.573   0.083   3.097
 7898SOL    HW224594   5.636   6.963   3.066
 7899SOL     OW24595   6.353   4.264   4.393
 7899SOL    HW124596   6.436   4.315   4.370
 7899SOL    HW224597   6.291   4.324   4.443
 7900SOL     OW24598   0.476   4.052   0.642
 7900SOL    HW124599   0.377   4.065   0.640
 7900SOL    HW224600   0.505   4.001   0.561
 7901SOL     OW24601   0.393   2.075   6.929
 7901SOL    HW124602   0.457   2.052   6.856
 7901SOL    HW224603   0.340   1.994   6.955
 7902SOL     OW24604   1.913   6.543   2.191
 7902SOL    HW124605   1.827   6.496   2.171
 7902SOL    HW224606   1.972   6.540   2.110
 7903SOL     OW24607   2.486   2.173   5.178
 7903SOL    HW124608   2.513   2.137   5.267
 7903SOL    HW224609   2.485   2.100   5.110
 7904SOL     OW24610   4.529   2.006   2.983
 7904SOL    HW124611   4.600   2.008   2.913
 7904SOL    HW224612   4.475   2.090   2.979
 7905SOL     OW24613   5.321   2.076   1.309
 7905SOL    HW124614   5.276   2.144   1.251
 7905SOL    HW224615   5.313   1.986   1.267
 7906SOL     OW24616   1.668   4.890   0.082
 7906SOL    HW124617   1.733   4.831   0.129
 7906SOL    HW224618   1.690   4.894   7.011
 7907SOL     OW24619   6.000   6.457   2.585
 7907SOL    HW124620   5.927   6.435   2.650
 7907SOL    HW224621   5.960   6.471   2.494
 7908SOL     OW24622   1.736   6.937   6.625
 7908SOL    HW124623   1.696   6.951   6.534
 7908SOL    HW224624   1.773   6.844   6.630
 7909SOL     OW24625   5.964   4.188   2.183
 7909SOL    HW124626   6.049   4.213   2.136
 7909SOL    HW224627   5.912   4.124   2.126
 7910SOL     OW24628   0.863   4.051   6.593
 7910SOL    HW124629   0.833   3.962   6.557
 7910SOL    HW224630   0.884   4.041   6.691
 7911SOL     OW24631   6.930   4.470   6.042
 7911SOL    HW124632   6.957   4.385   6.088
 7911SOL    HW224633   6.924   4.455   5.944
 7912SOL     OW24634   6.097   5.148   1.019
 7912SOL    HW124635   6.139   5.058   1.034
 7912SOL    HW224636   6.168   5.217   1.007
 7913SOL     OW24637   1.345   5.066   0.303
 7913SOL    HW124638   1.318   4.978   0.342
 7913SOL    HW224639   1.263   5.123   0.291
 7914SOL     OW24640   0.765   6.940   5.148
 7914SOL    HW124641   0.783   6.998   5.069
 7914SOL    HW224642   0.756   6.996   5.230
 7915SOL     OW24643   3.328   4.940   2.579
 7915SOL    HW124644   3.339   4.974   2.673
 7915SOL    HW224645   3.304   5.015   2.519
 7916SOL     OW24646   1.461   0.381   4.015
 7916SOL    HW124647   1.538   0.437   4.046
 7916SOL    HW224648   1.382   0.440   3.999
 7917SOL     OW24649   4.281   2.109   1.517
 7917SOL    HW124650   4.329   2.159   1.446
 7917SOL    HW224651   4.192   2.152   1.534
 7918SOL     OW24652   2.494   2.493   3.566
 7918SOL    HW124653   2.415   2.552   3.578
 7918SOL    HW224654   2.548   2.492   3.650
 7919SOL     OW24655   1.532   5.921   5.188
 7919SOL    HW124656   1.585   6.003   5.166
 7919SOL    HW224657   1.476   5.939   5.269
 7920SOL     OW24658   4.914   0.731   1.289
 7920SOL    HW124659   4.864   0.815   1.308
 7920SOL    HW224660   5.012   0.748   1.291
 7921SOL     OW24661   5.300   2.655   0.964
 7921SOL    HW124662   5.241   2.735   0.955
 7921SOL    HW224663   5.394   2.680   0.943
 7922SOL     OW24664   2.949   0.086   1.920
 7922SOL    HW124665   3.028   0.115   1.866
 7922SOL    HW224666   2.865   0.115   1.874
 7923SOL     OW24667   4.414   1.398   6.743
 7923SOL    HW124668   4.374   1.306   6.737
 7923SOL    HW224669   4.366   1.451   6.814
 7924SOL     OW24670   6.072   6.054   0.192
 7924SOL    HW124671   6.063   5.992   0.270
 7924SOL    HW224672   6.019   6.018   0.115
 7925SOL     OW24673   1.534   5.197   6.514
 7925SOL    HW124674   1.508   5.103   6.533
 7925SOL    HW224675   1.632   5.208   6.532
 7926SOL     OW24676   5.115   5.994   6.561
 7926SOL    HW124677   5.162   6.067   6.611
 7926SOL    HW224678   5.154   5.905   6.587
 7927SOL     OW24679   4.263   0.324   2.811
 7927SOL    HW124680   4.183   0.264   2.817
 7927SOL    HW224681   4.257   0.393   2.883
 7928SOL     OW24682   6.007   2.215   2.814
 7928SOL    HW124683   5.970   2.298   2.773
 7928SOL    HW224684   5.960   2.135   2.775
 7929SOL     OW24685   4.658   4.164   6.043
 7929SOL    HW124686   4.643   4.069   6.017
 7929SOL    HW224687   4.722   4.168   6.120
 7930SOL     OW24688   4.042   6.502   6.495
 7930SOL    HW124689   3.997   6.443   6.562
 7930SOL    HW224690   4.055   6.593   6.533
 7931SOL     OW24691   3.929   2.024   1.587
 7931SOL    HW124692   3.960   2.024   1.492
 7931SOL    HW224693   3.991   1.970   1.643
 7932SOL     OW24694   1.300   3.519   1.274
 7932SOL    HW124695   1.299   3.449   1.346
 7932SOL    HW224696   1.362   3.593   1.301
 7933SOL     OW24697   1.127   2.068   6.948
 7933SOL    HW124698   1.098   2.164   6.945
 7933SOL    HW224699   1.058   2.011   6.902
 7934SOL     OW24700   1.030   5.361   0.686
 7934SOL    HW124701   0.939   5.399   0.703
 7934SOL    HW224702   1.025   5.261   0.683
 7935SOL     OW24703   5.833   2.751   3.119
 7935SOL    HW124704   5.828   2.698   3.035
 7935SOL    HW224705   5.912   2.813   3.116
 7936SOL     OW24706   3.009   5.802   3.894
 7936SOL    HW124707   2.958   5.841   3.818
 7936SOL    HW224708   3.099   5.773   3.862
 7937SOL     OW24709   3.665   1.261   0.275
 7937SOL    HW124710   3.571   1.227   0.268
 7937SOL    HW224711   3.683   1.324   0.199
 7938SOL     OW24712   3.382   6.666   3.708
 7938SOL    HW124713   3.392   6.727   3.629
 7938SOL    HW224714   3.440   6.698   3.783
 7939SOL     OW24715   0.796   0.940   2.905
 7939SOL    HW124716   0.747   0.963   2.989
 7939SOL    HW224717   0.774   1.007   2.834
 7940SOL     OW24718   5.688   1.602   4.267
 7940SOL    HW124719   5.620   1.662   4.309
 7940SOL    HW224720   5.726   1.541   4.337
 7941SOL     OW24721   3.514   0.292   0.981
 7941SOL    HW124722   3.593   0.327   0.931
 7941SOL    HW224723   3.510   0.193   0.972
 7942SOL     OW24724   1.201   4.936   0.745
 7942SOL    HW124725   1.194   4.843   0.710
 7942SOL    HW224726   1.264   4.938   0.822
 7943SOL     OW24727   1.778   5.991   6.171
 7943SOL    HW124728   1.716   6.048   6.116
 7943SOL    HW224729   1.773   5.896   6.140
 7944SOL     OW24730   0.824   2.458   0.993
 7944SOL    HW124731   0.816   2.397   0.914
 7944SOL    HW224732   0.768   2.539   0.978
 7945SOL     OW24733   6.043   4.304   3.066
 7945SOL    HW124734   5.971   4.355   3.018
 7945SOL    HW224735   6.091   4.245   3.001
 7946SOL     OW24736   3.935   0.976   6.577
 7946SOL    HW124737   3.879   1.029   6.513
 7946SOL    HW224738   4.021   0.949   6.533
 7947SOL     OW24739   6.972   4.118   6.701
 7947SOL    HW124740   6.951   4.080   6.611
 7947SOL    HW224741   6.913   4.077   6.770
 7948SOL     OW24742   2.030   5.276   2.926
 7948SOL    HW124743   2.069   5.187   2.904
 7948SOL    HW224744   1.999   5.276   3.021
 7949SOL     OW24745   2.653   5.963   5.885
 7949SOL    HW124746   2.751   5.948   5.896
 7949SOL    HW224747   2.622   5.922   5.800
 7950SOL     OW24748   6.031   4.480   5.329
 7950SOL    HW124749   6.086   4.526   5.259
 7950SOL    HW224750   6.087   4.467   5.411
 7951SOL     OW24751   4.546   6.335   2.309
 7951SOL    HW124752   4.481   6.356   2.382
 7951SOL    HW224753   4.598   6.417   2.285
 7952SOL     OW24754   6.380   3.895   5.357
 7952SOL    HW124755   6.295   3.855   5.391
 7952SOL    HW224756   6.385   3.991   5.385
 7953SOL     OW24757   1.355   6.354   0.552
 7953SOL    HW124758   1.441   6.353   0.602
 7953SOL    HW224759   1.355   6.432   0.489
 7954SOL     OW24760   3.829   3.877   6.911
 7954SOL    HW124761   3.882   3.801   6.874
 7954SOL    HW224762   3.761   3.906   6.844
 7955SOL     OW24763   1.469   1.457   6.315
 7955SOL    HW124764   1.542   1.521   6.337
 7955SOL    HW224765   1.445   1.465   6.218
 7956SOL     OW24766   6.697   6.373   0.098
 7956SOL    HW124767   6.610   6.401   0.056
 7956SOL    HW224768   6.684   6.359   0.196
 7957SOL     OW24769   5.151   1.528   5.866
 7957SOL    HW124770   5.149   1.543   5.767
 7957SOL    HW224771   5.106   1.441   5.887
 7958SOL     OW24772   5.631   2.582   0.427
 7958SOL    HW124773   5.545   2.537   0.403
 7958SOL    HW224774   5.624   2.680   0.410
 7959SOL     OW24775   5.830   2.199   0.137
 7959SOL    HW124776   5.870   2.205   0.229
 7959SOL    HW224777   5.763   2.273   0.125
 7960SOL     OW24778   1.143   1.357   5.515
 7960SOL    HW124779   1.211   1.415   5.561
 7960SOL    HW224780   1.191   1.292   5.455
 7961SOL     OW24781   6.381   6.672   6.955
 7961SOL    HW124782   6.461   6.697   6.901
 7961SOL    HW224783   6.388   6.576   6.983
 7962SOL     OW24784   5.685   6.887   5.238
 7962SOL    HW124785   5.623   6.812   5.211
 7962SOL    HW224786   5.775   6.850   5.258
 7963SOL     OW24787   6.865   6.756   3.553
 7963SOL    HW124788   6.861   6.856   3.543
 7963SOL    HW224789   6.870   6.714   3.463
 7964SOL     OW24790   6.413   4.066   1.740
 7964SOL    HW124791   6.409   4.032   1.834
 7964SOL    HW224792   6.320   4.080   1.705
 7965SOL     OW24793   4.259   2.512   6.406
 7965SOL    HW124794   4.167   2.474   6.402
 7965SOL    HW224795   4.270   2.563   6.491
 7966SOL     OW24796   5.073   3.821   4.776
 7966SOL    HW124797   5.005   3.840   4.705
 7966SOL    HW224798   5.057   3.731   4.815
 7967SOL     OW24799   1.502   4.943   0.683
 7967SOL    HW124800   1.530   5.038   0.696
 7967SOL    HW224801   1.407   4.941   0.652
 7968SOL     OW24802   1.056   3.061   4.743
 7968SOL    HW124803   0.976   3.121   4.735
 7968SOL    HW224804   1.108   3.085   4.825
 7969SOL     OW24805   3.321   5.664   6.415
 7969SOL    HW124806   3.338   5.577   6.369
 7969SOL    HW224807   3.380   5.671   6.496
 7970SOL     OW24808   6.282   2.841   4.108
 7970SOL    HW124809   6.192   2.855   4.150
 7970SOL    HW224810   6.351   2.832   4.180
 7971SOL     OW24811   2.854   1.593   6.592
 7971SOL    HW124812   2.790   1.537   6.645
 7971SOL    HW224813   2.826   1.689   6.598
 7972SOL     OW24814   3.229   4.152   4.106
 7972SOL    HW124815   3.136   4.186   4.098
 7972SOL    HW224816   3.253   4.142   4.202
 7973SOL     OW24817   5.559   4.504   2.361
 7973SOL    HW124818   5.575   4.454   2.446
 7973SOL    HW224819   5.537   4.439   2.288
 7974SOL     OW24820   0.419   2.623   5.403
 7974SOL    HW124821   0.484   2.605   5.476
 7974SOL    HW224822   0.402   2.721   5.395
 7975SOL     OW24823   5.480   0.732   1.189
 7975SOL    HW124824   5.484   0.756   1.092
 7975SOL    HW224825   5.510   0.810   1.244
 7976SOL     OW24826   0.655   0.485   0.814
 7976SOL    HW124827   0.691   0.579   0.810
 7976SOL    HW224828   0.678   0.445   0.903
 7977SOL     OW24829   5.576   5.895   3.768
 7977SOL    HW124830   5.599   5.946   3.851
 7977SOL    HW224831   5.498   5.938   3.723
 7978SOL     OW24832   0.234   4.387   1.270
 7978SOL    HW124833   0.269   4.296   1.252
 7978SOL    HW224834   0.222   4.399   1.369
 7979SOL     OW24835   2.012   2.346   4.612
 7979SOL    HW124836   1.963   2.317   4.530
 7979SOL    HW224837   1.964   2.423   4.654
 7980SOL     OW24838   3.648   5.751   0.712
 7980SOL    HW124839   3.724   5.802   0.753
 7980SOL    HW224840   3.571   5.748   0.775
 7981SOL     OW24841   1.288   4.137   3.889
 7981SOL    HW124842   1.380   4.100   3.896
 7981SOL    HW224843   1.235   4.111   3.970
 7982SOL     OW24844   6.984   0.667   5.785
 7982SOL    HW124845   6.992   0.647   5.688
 7982SOL    HW224846   0.048   0.672   5.826
 7983SOL     OW24847   4.558   1.364   1.440
 7983SOL    HW124848   4.487   1.294   1.442
 7983SOL    HW224849   4.515   1.454   1.427
 7984SOL     OW24850   0.090   2.633   3.111
 7984SOL    HW124851   0.178   2.593   3.084
 7984SOL    HW224852   0.017   2.585   3.063
 7985SOL     OW24853   3.173   2.843   5.263
 7985SOL    HW124854   3.196   2.847   5.165
 7985SOL    HW224855   3.179   2.748   5.294
 7986SOL     OW24856   3.726   0.833   4.348
 7986SOL    HW124857   3.698   0.824   4.443
 7986SOL    HW224858   3.684   0.915   4.308
 7987SOL     OW24859   0.833   3.350   7.001
 7987SOL    HW124860   0.888   3.378   0.053
 7987SOL    HW224861   0.737   3.371   7.018
 7988SOL     OW24862   6.994   1.399   2.238
 7988SOL    HW124863   0.025   1.476   2.265
 7988SOL    HW224864   0.025   1.319   2.220
 7989SOL     OW24865   0.120   3.947   1.145
 7989SOL    HW124866   0.073   3.997   1.218
 7989SOL    HW224867   0.057   3.884   1.101
 7990SOL     OW24868   5.180   5.763   5.458
 7990SOL    HW124869   5.225   5.775   5.546
 7990SOL    HW224870   5.174   5.851   5.411
 7991SOL     OW24871   5.842   0.756   4.785
 7991SOL    HW124872   5.881   0.848   4.786
 7991SOL    HW224873   5.881   0.703   4.861
 7992SOL     OW24874   2.196   6.689   0.036
 7992SOL    HW124875   2.148   6.604   0.056
 7992SOL    HW224876   2.177   6.717   6.969
 7993SOL     OW24877   6.010   5.521   0.939
 7993SOL    HW124878   6.096   5.471   0.928
 7993SOL    HW224879   5.944   5.463   0.987
 7994SOL     OW24880   6.357   6.991   4.068
 7994SOL    HW124881   6.376   6.987   4.166
 7994SOL    HW224882   6.390   0.051   4.031
 7995SOL     OW24883   0.795   5.501   1.367
 7995SOL    HW124884   0.753   5.494   1.458
 7995SOL    HW224885   0.873   5.563   1.370
 7996SOL     OW24886   3.174   6.950   3.406
 7996SOL    HW124887   3.188   6.851   3.408
 7996SOL    HW224888   3.195   6.984   3.314
 7997SOL     OW24889   1.808   1.784   5.628
 7997SOL    HW124890   1.724   1.790   5.682
 7997SOL    HW224891   1.790   1.816   5.535
 7998SOL     OW24892   2.645   0.784   0.562
 7998SOL    HW124893   2.585   0.750   0.490
 7998SOL    HW224894   2.596   0.851   0.617
 7999SOL     OW24895   1.509   0.271   4.343
 7999SOL    HW124896   1.414   0.292   4.319
 7999SOL    HW224897   1.510   0.206   4.419
 8000SOL     OW24898   3.628   5.299   0.727
 8000SOL    HW124899   3.718   5.324   0.762
 8000SOL    HW224900   3.634   5.285   0.628
 8001SOL     OW24901   4.223   4.849   1.107
 8001SOL    HW124902   4.262   4.845   1.015
 8001SOL    HW224903   4.124   4.841   1.102
 8002SOL     OW24904   1.294   6.879   4.445
 8002SOL    HW124905   1.268   6.786   4.419
 8002SOL    HW224906   1.384   6.900   4.407
 8003SOL     OW24907   2.364   5.724   2.406
 8003SOL    HW124908   2.395   5.771   2.488
 8003SOL    HW224909   2.283   5.771   2.370
 8004SOL     OW24910   1.180   3.089   3.861
 8004SOL    HW124911   1.184   3.088   3.961
 8004SOL    HW224912   1.250   3.028   3.824
 8005SOL     OW24913   2.584   0.780   2.739
 8005SOL    HW124914   2.589   0.792   2.640
 8005SOL    HW224915   2.489   0.788   2.769
 8006SOL     OW24916   4.101   4.477   5.514
 8006SOL    HW124917   4.087   4.389   5.469
 8006SOL    HW224918   4.025   4.495   5.576
 8007SOL     OW24919   7.026   0.414   0.905
 8007SOL    HW124920   7.006   0.509   0.881
 8007SOL    HW224921   0.093   0.407   0.937
 8008SOL     OW24922   4.847   5.220   0.177
 8008SOL    HW124923   4.941   5.225   0.144
 8008SOL    HW224924   4.830   5.129   0.216
 8009SOL     OW24925   5.869   1.067   6.839
 8009SOL    HW124926   5.862   0.979   6.794
 8009SOL    HW224927   5.838   1.139   6.777
 8010SOL     OW24928   2.724   0.580   5.656
 8010SOL    HW124929   2.745   0.653   5.591
 8010SOL    HW224930   2.728   0.616   5.749
 8011SOL     OW24931   3.883   2.163   3.078
 8011SOL    HW124932   3.812   2.141   3.012
 8011SOL    HW224933   3.842   2.208   3.158
 8012SOL     OW24934   6.076   1.517   4.490
 8012SOL    HW124935   6.046   1.422   4.498
 8012SOL    HW224936   6.055   1.550   4.398
 8013SOL     OW24937   3.283   1.236   2.861
 8013SOL    HW124938   3.356   1.304   2.856
 8013SOL    HW224939   3.252   1.228   2.956
 8014SOL     OW24940   2.065   2.500   3.123
 8014SOL    HW124941   2.008   2.579   3.146
 8014SOL    HW224942   2.044   2.471   3.029
 8015SOL     OW24943   3.627   0.321   5.240
 8015SOL    HW124944   3.560   0.373   5.188
 8015SOL    HW224945   3.623   0.225   5.212
 8016SOL     OW24946   3.792   2.403   5.339
 8016SOL    HW124947   3.788   2.502   5.354
 8016SOL    HW224948   3.714   2.359   5.384
 8017SOL     OW24949   6.525   5.987   1.227
 8017SOL    HW124950   6.477   5.946   1.304
 8017SOL    HW224951   6.459   6.019   1.159
 8018SOL     OW24952   4.013   2.933   6.935
 8018SOL    HW124953   4.105   2.938   6.898
 8018SOL    HW224954   4.015   2.887   7.024
 8019SOL     OW24955   2.550   3.422   0.608
 8019SOL    HW124956   2.529   3.467   0.695
 8019SOL    HW224957   2.628   3.467   0.566
 8020SOL     OW24958   0.573   0.542   5.928
 8020SOL    HW124959   0.612   0.524   5.838
 8020SOL    HW224960   0.495   0.481   5.944
 8021SOL     OW24961   1.187   3.161   0.672
 8021SOL    HW124962   1.238   3.176   0.757
 8021SOL    HW224963   1.104   3.215   0.673
 8022SOL     OW24964   4.356   0.723   1.655
 8022SOL    HW124965   4.394   0.724   1.748
 8022SOL    HW224966   4.370   0.632   1.615
 8023SOL     OW24967   4.763   6.374   1.290
 8023SOL    HW124968   4.683   6.421   1.328
 8023SOL    HW224969   4.733   6.293   1.239
 8024SOL     OW24970   2.697   1.093   7.009
 8024SOL    HW124971   2.666   1.103   6.915
 8024SOL    HW224972   2.796   1.107   7.013
 8025SOL     OW24973   1.144   5.602   1.688
 8025SOL    HW124974   1.140   5.647   1.777
 8025SOL    HW224975   1.087   5.652   1.623
 8026SOL     OW24976   0.613   5.641   6.531
 8026SOL    HW124977   0.599   5.548   6.567
 8026SOL    HW224978   0.595   5.708   6.602
 8027SOL     OW24979   3.614   0.135   0.037
 8027SOL    HW124980   3.632   0.230   0.061
 8027SOL    HW224981   3.523   0.127   7.023
 8028SOL     OW24982   3.846   5.672   5.343
 8028SOL    HW124983   3.774   5.673   5.273
 8028SOL    HW224984   3.848   5.582   5.388
 8029SOL     OW24985   1.293   0.358   1.066
 8029SOL    HW124986   1.242   0.287   1.017
 8029SOL    HW224987   1.262   0.448   1.035
 8030SOL     OW24988   0.628   4.229   1.248
 8030SOL    HW124989   0.535   4.197   1.227
 8030SOL    HW224990   0.645   4.219   1.345
 8031SOL     OW24991   0.076   0.429   3.104
 8031SOL    HW124992   0.003   0.414   3.171
 8031SOL    HW224993   0.137   0.501   3.136
 8032SOL     OW24994   0.446   2.881   1.309
 8032SOL    HW124995   0.535   2.913   1.342
 8032SOL    HW224996   0.401   2.829   1.382
 8033SOL     OW24997   4.030   4.117   1.385
 8033SOL    HW124998   4.017   4.024   1.349
 8033SOL    HW224999   4.099   4.165   1.331
 8034SOL     OW25000   6.791   6.896   6.186
 8034SOL    HW125001   6.880   6.940   6.192
 8034SOL    HW225002   6.800   6.799   6.206
 8035SOL     OW25003   6.056   0.554   3.513
 8035SOL    HW125004   6.091   0.549   3.419
 8035SOL    HW225005   6.106   0.488   3.570
 8036SOL     OW25006   4.737   2.388   3.975
 8036SOL    HW125007   4.749   2.464   3.911
 8036SOL    HW225008   4.640   2.379   3.999
 8037SOL     OW25009   2.094   1.249   6.272
 8037SOL    HW125010   2.135   1.159   6.258
 8037SOL    HW225011   2.111   1.306   6.191
 8038SOL     OW25012   6.868   5.337   2.273
 8038SOL    HW125013   6.838   5.363   2.181
 8038SOL    HW225014   6.788   5.314   2.329
 8039SOL     OW25015   1.518   2.474   5.234
 8039SOL    HW125016   1.515   2.450   5.331
 8039SOL    HW225017   1.611   2.465   5.199
 8040SOL     OW25018   1.225   5.846   6.166
 8040SOL    HW125019   1.273   5.927   6.200
 8040SOL    HW225020   1.151   5.823   6.229
 8041SOL     OW25021   3.145   1.237   3.105
 8041SOL    HW125022   3.120   1.151   3.150
 8041SOL    HW225023   3.063   1.283   3.071
 8042SOL     OW25024   4.265   4.326   5.868
 8042SOL    HW125025   4.222   4.286   5.949
 8042SOL    HW225026   4.360   4.348   5.888
 8043SOL     OW25027   5.167   5.400   6.547
 8043SOL    HW125028   5.069   5.381   6.534
 8043SOL    HW225029   5.181   5.499   6.549
 8044SOL     OW25030   2.372   3.284   1.386
 8044SOL    HW125031   2.292   3.263   1.330
 8044SOL    HW225032   2.409   3.199   1.423
 8045SOL     OW25033   6.867   2.748   4.205
 8045SOL    HW125034   6.950   2.794   4.237
 8045SOL    HW225035   6.788   2.806   4.223
 8046SOL     OW25036   6.746   4.299   1.874
 8046SOL    HW125037   6.726   4.364   1.947
 8046SOL    HW225038   6.672   4.301   1.806
 8047SOL     OW25039   3.257   6.341   7.005
 8047SOL    HW125040   3.323   6.278   6.965
 8047SOL    HW225041   3.167   6.297   7.009
 8048SOL     OW25042   3.673   2.077   6.053
 8048SOL    HW125043   3.739   2.127   5.997
 8048SOL    HW225044   3.642   2.136   6.128
 8049SOL     OW25045   1.734   1.624   0.659
 8049SOL    HW125046   1.702   1.578   0.576
 8049SOL    HW225047   1.826   1.661   0.643
 8050SOL     OW25048   0.669   4.636   5.853
 8050SOL    HW125049   0.754   4.676   5.818
 8050SOL    HW225050   0.680   4.615   5.950
 8051SOL     OW25051   4.140   0.006   3.375
 8051SOL    HW125052   4.158   0.105   3.377
 8051SOL    HW225053   4.209   6.986   3.430
 8052SOL     OW25054   3.105   1.678   2.549
 8052SOL    HW125055   3.173   1.695   2.478
 8052SOL    HW225056   3.147   1.626   2.624
 8053SOL     OW25057   1.519   2.703   6.531
 8053SOL    HW125058   1.546   2.624   6.587
 8053SOL    HW225059   1.492   2.778   6.591
 8054SOL     OW25060   4.855   3.362   5.230
 8054SOL    HW125061   4.855   3.419   5.148
 8054SOL    HW225062   4.821   3.414   5.308
 8055SOL     OW25063   6.333   0.608   6.802
 8055SOL    HW125064   6.414   0.559   6.772
 8055SOL    HW225065   6.329   0.610   6.902
 8056SOL     OW25066   2.451   0.872   3.823
 8056SOL    HW125067   2.357   0.854   3.795
 8056SOL    HW225068   2.514   0.820   3.766
 8057SOL     OW25069   3.144   2.115   2.049
 8057SOL    HW125070   3.077   2.190   2.046
 8057SOL    HW225071   3.168   2.088   1.956
 8058SOL     OW25072   3.700   6.210   1.714
 8058SOL    HW125073   3.677   6.186   1.808
 8058SOL    HW225074   3.758   6.138   1.675
 8059SOL     OW25075   2.461   2.561   5.954
 8059SOL    HW125076   2.403   2.590   5.877
 8059SOL    HW225077   2.530   2.631   5.972
 8060SOL     OW25078   6.679   0.931   6.360
 8060SOL    HW125079   6.669   0.855   6.295
 8060SOL    HW225080   6.589   0.968   6.382
 8061SOL     OW25081   6.916   0.931   2.864
 8061SOL    HW125082   6.911   0.915   2.963
 8061SOL    HW225083   6.930   1.028   2.846
 8062SOL     OW25084   4.453   5.507   5.392
 8062SOL    HW125085   4.430   5.578   5.324
 8062SOL    HW225086   4.543   5.469   5.370
 8063SOL     OW25087   2.708   4.709   3.194
 8063SOL    HW125088   2.676   4.627   3.241
 8063SOL    HW225089   2.805   4.699   3.171
 8064SOL     OW25090   6.406   1.994   0.656
 8064SOL    HW125091   6.336   1.935   0.615
 8064SOL    HW225092   6.480   2.008   0.590
 8065SOL     OW25093   4.187   6.221   6.483
 8065SOL    HW125094   4.215   6.178   6.568
 8065SOL    HW225095   4.112   6.286   6.501
 8066SOL     OW25096   0.471   6.879   6.039
 8066SOL    HW125097   0.468   6.960   5.980
 8066SOL    HW225098   0.563   6.841   6.038
 8067SOL     OW25099   5.723   1.613   3.436
 8067SOL    HW125100   5.817   1.645   3.430
 8067SOL    HW225101   5.676   1.659   3.511
 8068SOL     OW25102   5.927   3.537   1.372
 8068SOL    HW125103   5.846   3.557   1.428
 8068SOL    HW225104   6.006   3.522   1.432
 8069SOL     OW25105   1.697   3.855   2.675
 8069SOL    HW125106   1.703   3.793   2.753
 8069SOL    HW225107   1.789   3.881   2.646
 8070SOL     OW25108   4.477   4.662   0.915
 8070SOL    HW125109   4.573   4.687   0.929
 8070SOL    HW225110   4.448   4.597   0.985
 8071SOL     OW25111   2.168   6.831   6.286
 8071SOL    HW125112   2.209   6.782   6.209
 8071SOL    HW225113   2.233   6.897   6.322
 8072SOL     OW25114   2.412   1.975   4.991
 8072SOL    HW125115   2.485   1.907   4.991
 8072SOL    HW225116   2.324   1.930   5.002
 8073SOL     OW25117   5.001   0.482   6.484
 8073SOL    HW125118   5.004   0.457   6.387
 8073SOL    HW225119   5.068   0.554   6.502
 8074SOL     OW25120   0.841   0.731   6.875
 8074SOL    HW125121   0.785   0.711   6.795
 8074SOL    HW225122   0.782   0.750   6.954
 8075SOL     OW25123   6.870   6.998   1.254
 8075SOL    HW125124   6.833   7.024   1.165
 8075SOL    HW225125   6.952   0.025   1.273
 8076SOL     OW25126   6.965   6.012   0.338
 8076SOL    HW125127   0.010   5.966   0.389
 8076SOL    HW225128   6.982   6.111   0.339
 8077SOL     OW25129   5.114   4.780   0.796
 8077SOL    HW125130   5.032   4.746   0.751
 8077SOL    HW225131   5.094   4.866   0.842
 8078SOL     OW25132   0.030   1.170   1.504
 8078SOL    HW125133   0.125   1.190   1.527
 8078SOL    HW225134   0.025   1.085   1.450
 8079SOL     OW25135   1.387   0.840   6.377
 8079SOL    HW125136   1.406   0.938   6.373
 8079SOL    HW225137   1.309   0.818   6.318
 8080SOL     OW25138   0.976   2.835   3.275
 8080SOL    HW125139   0.934   2.925   3.265
 8080SOL    HW225140   0.939   2.789   3.355
 8081SOL     OW25141   6.123   6.849   5.050
 8081SOL    HW125142   6.152   6.824   4.958
 8081SOL    HW225143   6.121   6.949   5.058
 8082SOL     OW25144   3.917   1.912   3.979
 8082SOL    HW125145   3.999   1.919   4.036
 8082SOL    HW225146   3.863   1.995   3.988
 8083SOL     OW25147   6.178   1.901   4.714
 8083SOL    HW125148   6.161   1.881   4.811
 8083SOL    HW225149   6.203   1.816   4.667
 8084SOL     OW25150   3.935   0.968   5.864
 8084SOL    HW125151   3.928   0.908   5.943
 8084SOL    HW225152   3.975   0.918   5.787
 8085SOL     OW25153   1.906   6.236   4.345
 8085SOL    HW125154   1.839   6.243   4.271
 8085SOL    HW225155   1.995   6.209   4.307
 8086SOL     OW25156   6.750   1.347   2.582
 8086SOL    HW125157   6.753   1.298   2.495
 8086SOL    HW225158   6.739   1.282   2.657
 8087SOL     OW25159   0.230   0.673   6.696
 8087SOL    HW125160   0.149   0.621   6.666
 8087SOL    HW225161   0.301   0.610   6.725
 8088SOL     OW25162   6.884   0.522   5.191
 8088SOL    HW125163   6.953   0.579   5.234
 8088SOL    HW225164   6.925   0.437   5.159
 8089SOL     OW25165   6.359   1.836   6.429
 8089SOL    HW125166   6.317   1.893   6.501
 8089SOL    HW225167   6.366   1.742   6.462
 8090SOL     OW25168   4.154   2.106   5.277
 8090SOL    HW125169   4.206   2.022   5.262
 8090SOL    HW225170   4.060   2.093   5.245
 8091SOL     OW25171   1.094   4.830   4.035
 8091SOL    HW125172   1.001   4.818   4.070
 8091SOL    HW225173   1.143   4.743   4.043
 8092SOL     OW25174   4.624   0.938   6.242
 8092SOL    HW125175   4.715   0.897   6.245
 8092SOL    HW225176   4.622   1.019   6.302
 8093SOL     OW25177   3.694   6.096   3.216
 8093SOL    HW125178   3.636   6.074   3.294
 8093SOL    HW225179   3.778   6.139   3.248
 8094SOL     OW25180   2.095   3.724   3.835
 8094SOL    HW125181   1.997   3.741   3.828
 8094SOL    HW225182   2.118   3.699   3.929
 8095SOL     OW25183   1.260   4.749   5.397
 8095SOL    HW125184   1.301   4.827   5.445
 8095SOL    HW225185   1.188   4.781   5.335
 8096SOL     OW25186   0.412   5.333   0.684
 8096SOL    HW125187   0.368   5.281   0.758
 8096SOL    HW225188   0.372   5.424   0.679
 8097SOL     OW25189   4.478   6.204   0.338
 8097SOL    HW125190   4.505   6.114   0.374
 8097SOL    HW225191   4.559   6.263   0.334
 8098SOL     OW25192   1.948   5.699   4.874
 8098SOL    HW125193   2.035   5.724   4.917
 8098SOL    HW225194   1.894   5.782   4.859
 8099SOL     OW25195   1.817   3.956   2.284
 8099SOL    HW125196   1.819   3.863   2.322
 8099SOL    HW225197   1.818   4.022   2.360
 8100SOL     OW25198   6.609   0.440   6.860
 8100SOL    HW125199   6.675   0.451   6.786
 8100SOL    HW225200   6.625   0.509   6.930
 8101SOL     OW25201   3.022   5.542   0.867
 8101SOL    HW125202   3.076   5.530   0.950
 8101SOL    HW225203   3.081   5.575   0.793
 8102SOL     OW25204   0.952   3.859   4.726
 8102SOL    HW125205   0.887   3.813   4.787
 8102SOL    HW225206   1.022   3.793   4.698
 8103SOL     OW25207   3.476   0.772   1.531
 8103SOL    HW125208   3.460   0.857   1.581
 8103SOL    HW225209   3.570   0.742   1.545
 8104SOL     OW25210   1.740   5.298   0.221
 8104SOL    HW125211   1.656   5.252   0.190
 8104SOL    HW225212   1.715   5.380   0.273
 8105SOL     OW25213   0.228   0.084   3.629
 8105SOL    HW125214   0.187   7.026   3.664
 8105SOL    HW225215   0.318   0.064   3.590
 8106SOL     OW25216   1.941   6.870   5.989
 8106SOL    HW125217   1.990   6.783   5.978
 8106SOL    HW225218   1.989   6.942   5.938
 8107SOL     OW25219   1.408   6.334   6.384
 8107SOL    HW125220   1.361   6.246   6.380
 8107SOL    HW225221   1.370   6.388   6.459
 8108SOL     OW25222   1.060   1.488   6.932
 8108SOL    HW125223   0.996   1.413   6.917
 8108SOL    HW225224   1.082   1.496   0.002
 8109SOL     OW25225   6.367   3.080   1.512
 8109SOL    HW125226   6.343   2.989   1.544
 8109SOL    HW225227   6.375   3.142   1.591
 8110SOL     OW25228   3.577   4.967   1.157
 8110SOL    HW125229   3.623   5.032   1.097
 8110SOL    HW225230   3.620   4.968   1.248
 8111SOL     OW25231   6.442   1.366   2.334
 8111SOL    HW125232   6.540   1.384   2.320
 8111SOL    HW225233   6.399   1.346   2.245
 8112SOL     OW25234   1.516   4.671   6.514
 8112SOL    HW125235   1.580   4.664   6.591
 8112SOL    HW225236   1.512   4.583   6.467
 8113SOL     OW25237   5.335   3.832   5.930
 8113SOL    HW125238   5.321   3.871   5.839
 8113SOL    HW225239   5.424   3.860   5.965
 8114SOL     OW25240   1.622   4.270   2.208
 8114SOL    HW125241   1.609   4.175   2.179
 8114SOL    HW225242   1.719   4.293   2.202
 8115SOL     OW25243   2.523   1.881   5.592
 8115SOL    HW125244   2.486   1.965   5.552
 8115SOL    HW225245   2.578   1.904   5.673
 8116SOL     OW25246   3.690   3.378   1.075
 8116SOL    HW125247   3.674   3.421   1.163
 8116SOL    HW225248   3.609   3.327   1.047
 8117SOL     OW25249   2.549   6.870   3.810
 8117SOL    HW125250   2.525   6.853   3.906
 8117SOL    HW225251   2.491   6.814   3.751
 8118SOL     OW25252   6.450   3.204   0.241
 8118SOL    HW125253   6.546   3.174   0.244
 8118SOL    HW225254   6.447   3.304   0.239
 8119SOL     OW25255   6.174   6.447   0.382
 8119SOL    HW125256   6.211   6.383   0.449
 8119SOL    HW225257   6.099   6.499   0.423
 8120SOL     OW25258   2.076   6.974   2.012
 8120SOL    HW125259   2.137   6.918   1.957
 8120SOL    HW225260   2.074   6.938   2.106
 8121SOL     OW25261   0.831   3.114   2.194
 8121SOL    HW125262   0.929   3.103   2.210
 8121SOL    HW225263   0.784   3.027   2.211
 8122SOL     OW25264   0.193   5.066   1.224
 8122SOL    HW125265   0.167   4.991   1.285
 8122SOL    HW225266   0.243   5.028   1.146
 8123SOL     OW25267   6.864   1.769   6.530
 8123SOL    HW125268   6.950   1.782   6.579
 8123SOL    HW225269   6.880   1.715   6.447
 8124SOL     OW25270   5.259   5.804   5.063
 8124SOL    HW125271   5.284   5.723   5.116
 8124SOL    HW225272   5.342   5.847   5.027
 8125SOL     OW25273   1.906   5.337   3.181
 8125SOL    HW125274   1.890   5.281   3.262
 8125SOL    HW225275   1.889   5.433   3.203
 8126SOL     OW25276   4.000   5.055   4.586
 8126SOL    HW125277   4.054   5.011   4.657
 8126SOL    HW225278   3.921   4.998   4.563
 8127SOL     OW25279   3.982   2.359   6.978
 8127SOL    HW125280   4.066   2.344   0.004
 8127SOL    HW225281   3.903   2.334   0.007
 8128SOL     OW25282   3.646   3.188   1.358
 8128SOL    HW125283   3.713   3.129   1.403
 8128SOL    HW225284   3.577   3.132   1.313
 8129SOL     OW25285   1.348   2.354   2.313
 8129SOL    HW125286   1.284   2.289   2.355
 8129SOL    HW225287   1.297   2.415   2.252
 8130SOL     OW25288   0.575   5.513   6.832
 8130SOL    HW125289   0.510   5.462   6.776
 8130SOL    HW225290   0.547   5.609   6.835
 8131SOL     OW25291   1.753   3.643   6.876
 8131SOL    HW125292   1.722   3.665   6.968
 8131SOL    HW225293   1.793   3.551   6.875
 8132SOL     OW25294   0.910   0.619   5.195
 8132SOL    HW125295   0.900   0.694   5.129
 8132SOL    HW225296   0.849   0.544   5.170
 8133SOL     OW25297   3.495   5.083   0.558
 8133SOL    HW125298   3.531   5.065   0.466
 8133SOL    HW225299   3.395   5.086   0.554
 8134SOL     OW25300   5.909   1.318   6.008
 8134SOL    HW125301   5.922   1.375   6.089
 8134SOL    HW225302   5.820   1.336   5.968
 8135SOL     OW25303   2.585   6.663   1.895
 8135SOL    HW125304   2.510   6.619   1.843
 8135SOL    HW225305   2.547   6.706   1.977
 8136SOL     OW25306   5.056   4.363   2.410
 8136SOL    HW125307   5.047   4.315   2.497
 8136SOL    HW225308   5.150   4.356   2.377
 8137SOL     OW25309   4.441   1.396   5.786
 8137SOL    HW125310   4.355   1.368   5.743
 8137SOL    HW225311   4.471   1.325   5.850
 8138SOL     OW25312   5.290   0.718   2.370
 8138SOL    HW125313   5.315   0.683   2.280
 8138SOL    HW225314   5.362   0.779   2.403
 8139SOL     OW25315   0.249   2.155   3.608
 8139SOL    HW125316   0.294   2.112   3.687
 8139SOL    HW225317   0.167   2.204   3.639
 8140SOL     OW25318   4.517   1.265   3.344
 8140SOL    HW125319   4.426   1.304   3.327
 8140SOL    HW225320   4.508   1.170   3.374
 8141SOL     OW25321   5.219   4.874   4.525
 8141SOL    HW125322   5.121   4.873   4.546
 8141SOL    HW225323   5.247   4.781   4.499
 8142SOL     OW25324   6.906   5.815   6.868
 8142SOL    HW125325   6.908   5.843   6.964
 8142SOL    HW225326   6.972   5.871   6.816
 8143SOL     OW25327   6.711   3.429   5.352
 8143SOL    HW125328   6.781   3.360   5.335
 8143SOL    HW225329   6.621   3.386   5.350
 8144SOL     OW25330   5.430   0.191   6.464
 8144SOL    HW125331   5.362   0.214   6.395
 8144SOL    HW225332   5.436   0.264   6.532
 8145SOL     OW25333   5.296   6.250   2.897
 8145SOL    HW125334   5.210   6.268   2.945
 8145SOL    HW225335   5.347   6.180   2.947
 8146SOL     OW25336   3.422   1.101   4.410
 8146SOL    HW125337   3.423   1.162   4.330
 8146SOL    HW225338   3.458   1.150   4.490
 8147SOL     OW25339   4.802   0.612   3.421
 8147SOL    HW125340   4.879   0.641   3.478
 8147SOL    HW225341   4.740   0.555   3.475
 8148SOL     OW25342   5.109   4.325   3.316
 8148SOL    HW125343   5.198   4.362   3.340
 8148SOL    HW225344   5.119   4.235   3.275
 8149SOL     OW25345   4.233   4.748   3.307
 8149SOL    HW125346   4.265   4.785   3.219
 8149SOL    HW225347   4.135   4.732   3.302
 8150SOL     OW25348   0.333   5.551   1.215
 8150SOL    HW125349   0.315   5.480   1.147
 8150SOL    HW225350   0.415   5.527   1.268
 8151SOL     OW25351   1.140   1.428   4.949
 8151SOL    HW125352   1.068   1.397   5.011
 8151SOL    HW225353   1.222   1.371   4.963
 8152SOL     OW25354   1.472   0.444   2.878
 8152SOL    HW125355   1.546   0.415   2.817
 8152SOL    HW225356   1.508   0.460   2.969
 8153SOL     OW25357   1.864   7.006   0.067
 8153SOL    HW125358   1.832   0.022   0.152
 8153SOL    HW225359   1.792   7.012   7.025
 8154SOL     OW25360   2.560   6.859   3.463
 8154SOL    HW125361   2.651   6.872   3.502
 8154SOL    HW225362   2.565   6.795   3.386
 8155SOL     OW25363   3.411   3.140   3.665
 8155SOL    HW125364   3.420   3.187   3.577
 8155SOL    HW225365   3.466   3.187   3.734
 8156SOL     OW25366   6.736   0.575   5.641
 8156SOL    HW125367   6.695   0.542   5.727
 8156SOL    HW225368   6.740   0.500   5.576
 8157SOL     OW25369   5.945   2.792   6.863
 8157SOL    HW125370   6.028   2.816   6.812
 8157SOL    HW225371   5.900   2.714   6.819
 8158SOL     OW25372   2.037   5.094   2.528
 8158SOL    HW125373   2.120   5.076   2.474
 8158SOL    HW225374   1.985   5.168   2.485
 8159SOL     OW25375   1.061   5.128   1.627
 8159SOL    HW125376   0.961   5.134   1.627
 8159SOL    HW225377   1.092   5.096   1.537
 8160SOL     OW25378   4.284   2.306   2.117
 8160SOL    HW125379   4.194   2.322   2.077
 8160SOL    HW225380   4.349   2.373   2.080
 8161SOL     OW25381   4.206   2.164   1.190
 8161SOL    HW125382   4.268   2.208   1.255
 8161SOL    HW225383   4.164   2.234   1.132
 8162SOL     OW25384   6.620   0.724   1.550
 8162SOL    HW125385   6.567   0.715   1.466
 8162SOL    HW225386   6.592   0.652   1.615
 8163SOL     OW25387   2.155   3.716   4.970
 8163SOL    HW125388   2.164   3.770   5.054
 8163SOL    HW225389   2.152   3.776   4.891
 8164SOL     OW25390   4.775   2.044   2.016
 8164SOL    HW125391   4.770   2.009   1.922
 8164SOL    HW225392   4.843   2.117   2.020
 8165SOL     OW25393   2.367   4.930   1.557
 8165SOL    HW125394   2.318   4.866   1.616
 8165SOL    HW225395   2.420   4.879   1.489
 8166SOL     OW25396   3.416   6.745   1.163
 8166SOL    HW125397   3.319   6.763   1.181
 8166SOL    HW225398   3.449   6.675   1.228
 8167SOL     OW25399   4.877   2.985   3.960
 8167SOL    HW125400   4.856   3.076   3.923
 8167SOL    HW225401   4.971   2.984   3.994
 8168SOL     OW25402   3.285   1.730   2.847
 8168SOL    HW125403   3.348   1.807   2.857
 8168SOL    HW225404   3.327   1.662   2.786
 8169SOL     OW25405   5.152   4.201   5.743
 8169SOL    HW125406   5.096   4.246   5.673
 8169SOL    HW225407   5.096   4.182   5.824
 8170SOL     OW25408   0.669   5.055   3.948
 8170SOL    HW125409   0.654   4.972   4.002
 8170SOL    HW225410   0.643   5.038   3.853
 8171SOL     OW25411   1.571   1.515   5.757
 8171SOL    HW125412   1.597   1.482   5.666
 8171SOL    HW225413   1.596   1.448   5.826
 8172SOL     OW25414   0.139   6.449   1.438
 8172SOL    HW125415   0.219   6.427   1.494
 8172SOL    HW225416   0.085   6.367   1.423
 8173SOL     OW25417   5.361   2.977   6.578
 8173SOL    HW125418   5.311   2.892   6.565
 8173SOL    HW225419   5.305   3.054   6.546
 8174SOL     OW25420   5.524   0.180   2.202
 8174SOL    HW125421   5.546   0.093   2.156
 8174SOL    HW225422   5.449   0.166   2.266
 8175SOL     OW25423   1.560   3.038   5.370
 8175SOL    HW125424   1.649   3.055   5.328
 8175SOL    HW225425   1.563   2.952   5.421
 8176SOL     OW25426   3.992   5.472   2.967
 8176SOL    HW125427   3.904   5.497   2.926
 8176SOL    HW225428   3.982   5.469   3.067
 8177SOL     OW25429   1.262   0.390   6.097
 8177SOL    HW125430   1.300   0.346   6.017
 8177SOL    HW225431   1.203   0.465   6.069
 8178SOL     OW25432   1.854   6.699   6.235
 8178SOL    HW125433   1.859   6.766   6.161
 8178SOL    HW225434   1.895   6.613   6.205
 8179SOL     OW25435   3.205   0.743   0.222
 8179SOL    HW125436   3.120   0.786   0.193
 8179SOL    HW225437   3.276   0.759   0.153
 8180SOL     OW25438   4.977   5.285   5.459
 8180SOL    HW125439   5.026   5.364   5.495
 8180SOL    HW225440   5.037   5.233   5.398
 8181SOL     OW25441   2.503   2.344   2.534
 8181SOL    HW125442   2.480   2.432   2.491
 8181SOL    HW225443   2.583   2.305   2.490
 8182SOL     OW25444   4.554   2.557   6.000
 8182SOL    HW125445   4.569   2.509   5.914
 8182SOL    HW225446   4.555   2.492   6.076
 8183SOL     OW25447   1.939   2.952   4.102
 8183SOL    HW125448   1.961   2.963   4.199
 8183SOL    HW225449   1.986   3.024   4.050
 8184SOL     OW25450   5.975   5.878   5.790
 8184SOL    HW125451   5.877   5.858   5.785
 8184SOL    HW225452   6.022   5.803   5.836
 8185SOL     OW25453   1.700   1.753   2.786
 8185SOL    HW125454   1.651   1.822   2.733
 8185SOL    HW225455   1.798   1.756   2.763
 8186SOL     OW25456   3.572   4.372   6.277
 8186SOL    HW125457   3.654   4.327   6.314
 8186SOL    HW225458   3.597   4.462   6.243
 8187SOL     OW25459   1.798   1.358   6.270
 8187SOL    HW125460   1.871   1.311   6.319
 8187SOL    HW225461   1.798   1.455   6.296
 8188SOL     OW25462   6.069   3.102   2.542
 8188SOL    HW125463   6.009   3.022   2.545
 8188SOL    HW225464   6.153   3.080   2.492
 8189SOL     OW25465   6.739   4.904   3.104
 8189SOL    HW125466   6.777   4.993   3.126
 8189SOL    HW225467   6.729   4.850   3.188
 8190SOL     OW25468   5.351   3.431   2.451
 8190SOL    HW125469   5.406   3.481   2.383
 8190SOL    HW225470   5.321   3.344   2.412
 8191SOL     OW25471   0.127   5.609   2.171
 8191SOL    HW125472   0.206   5.551   2.150
 8191SOL    HW225473   0.102   5.598   2.267
 8192SOL     OW25474   1.578   3.598   0.891
 8192SOL    HW125475   1.622   3.679   0.929
 8192SOL    HW225476   1.485   3.619   0.863
 8193SOL     OW25477   3.442   0.316   5.574
 8193SOL    HW125478   3.405   0.283   5.661
 8193SOL    HW225479   3.379   0.384   5.535
 8194SOL     OW25480   1.722   0.173   1.142
 8194SOL    HW125481   1.811   0.145   1.105
 8194SOL    HW225482   1.676   0.233   1.077
 8195SOL     OW25483   5.684   0.640   0.941
 8195SOL    HW125484   5.734   0.670   1.022
 8195SOL    HW225485   5.613   0.706   0.919
 8196SOL     OW25486   2.146   0.413   0.119
 8196SOL    HW125487   2.186   0.331   0.159
 8196SOL    HW225488   2.169   0.492   0.175
 8197SOL     OW25489   0.665   6.829   1.099
 8197SOL    HW125490   0.763   6.850   1.100
 8197SOL    HW225491   0.646   6.754   1.162
 8198SOL     OW25492   3.916   7.006   2.633
 8198SOL    HW125493   3.824   6.967   2.634
 8198SOL    HW225494   3.983   6.932   2.625
 8199SOL     OW25495   5.888   4.466   0.315
 8199SOL    HW125496   5.858   4.421   0.231
 8199SOL    HW225497   5.967   4.417   0.352
 8200SOL     OW25498   4.482   3.012   1.447
 8200SOL    HW125499   4.528   3.081   1.391
 8200SOL    HW225500   4.403   2.976   1.397
 8201SOL     OW25501   6.238   1.020   4.556
 8201SOL    HW125502   6.209   1.103   4.509
 8201SOL    HW225503   6.292   0.963   4.494
 8202SOL     OW25504   1.836   4.014   4.296
 8202SOL    HW125505   1.847   3.920   4.328
 8202SOL    HW225506   1.785   4.067   4.363
 8203SOL     OW25507   6.103   4.044   0.678
 8203SOL    HW125508   6.044   4.124   0.689
 8203SOL    HW225509   6.094   3.984   0.757
 8204SOL     OW25510   3.267   0.541   0.722
 8204SOL    HW125511   3.229   0.558   0.631
 8204SOL    HW225512   3.226   0.605   0.787
 8205SOL     OW25513   5.929   5.841   2.717
 8205SOL    HW125514   5.839   5.828   2.758
 8205SOL    HW225515   5.984   5.900   2.777
 8206SOL     OW25516   3.730   1.490   4.597
 8206SOL    HW125517   3.688   1.580   4.589
 8206SOL    HW225518   3.663   1.420   4.574
 8207SOL     OW25519   3.053   5.724   0.014
 8207SOL    HW125520   3.137   5.683   0.050
 8207SOL    HW225521   3.052   5.715   6.942
 8208SOL     OW25522   1.497   5.566   6.355
 8208SOL    HW125523   1.468   5.498   6.287
 8208SOL    HW225524   1.459   5.541   6.444
 8209SOL     OW25525   1.095   5.994   5.339
 8209SOL    HW125526   1.073   6.062   5.269
 8209SOL    HW225527   1.159   6.033   5.404
 8210SOL     OW25528   2.611   1.722   0.170
 8210SOL    HW125529   2.558   1.658   0.225
 8210SOL    HW225530   2.709   1.701   0.179
 8211SOL     OW25531   2.957   3.349   4.266
 8211SOL    HW125532   2.972   3.300   4.352
 8211SOL    HW225533   3.017   3.429   4.263
 8212SOL     OW25534   3.895   5.864   0.817
 8212SOL    HW125535   3.866   5.870   0.912
 8212SOL    HW225536   3.955   5.941   0.795
 8213SOL     OW25537   4.514   4.380   1.678
 8213SOL    HW125538   4.524   4.290   1.720
 8213SOL    HW225539   4.430   4.423   1.713
 8214SOL     OW25540   4.253   5.599   3.423
 8214SOL    HW125541   4.235   5.693   3.454
 8214SOL    HW225542   4.175   5.566   3.370
 8215SOL     OW25543   2.154   5.933   6.481
 8215SOL    HW125544   2.225   5.901   6.418
 8215SOL    HW225545   2.119   6.021   6.450
 8216SOL     OW25546   5.812   5.640   1.543
 8216SOL    HW125547   5.886   5.574   1.552
 8216SOL    HW225548   5.754   5.637   1.625
 8217SOL     OW25549   2.742   6.431   4.286
 8217SOL    HW125550   2.814   6.487   4.328
 8217SOL    HW225551   2.784   6.352   4.240
 8218SOL     OW25552   2.493   5.930   4.827
 8218SOL    HW125553   2.532   5.997   4.889
 8218SOL    HW225554   2.396   5.950   4.813
 8219SOL     OW25555   4.180   3.272   2.134
 8219SOL    HW125556   4.149   3.365   2.111
 8219SOL    HW225557   4.275   3.261   2.106
 8220SOL     OW25558   3.219   4.057   5.253
 8220SOL    HW125559   3.150   4.127   5.272
 8220SOL    HW225560   3.174   3.968   5.244
 8221SOL     OW25561   6.191   3.705   4.248
 8221SOL    HW125562   6.250   3.642   4.298
 8221SOL    HW225563   6.217   3.799   4.269
 8222SOL     OW25564   6.658   2.763   0.052
 8222SOL    HW125565   6.740   2.782   7.025
 8222SOL    HW225566   6.626   2.670   0.032
 8223SOL     OW25567   2.380   6.338   5.919
 8223SOL    HW125568   2.331   6.294   5.843
 8223SOL    HW225569   2.376   6.437   5.908
 8224SOL     OW25570   4.713   1.092   6.968
 8224SOL    HW125571   4.795   1.044   6.937
 8224SOL    HW225572   4.699   1.174   6.912
 8225SOL     OW25573   5.592   2.756   0.150
 8225SOL    HW125574   5.607   2.834   0.089
 8225SOL    HW225575   5.674   2.741   0.205
 8226SOL     OW25576   3.651   0.748   0.137
 8226SOL    HW125577   3.737   0.796   0.123
 8226SOL    HW225578   3.663   0.679   0.209
 8227SOL     OW25579   4.402   2.239   2.957
 8227SOL    HW125580   4.437   2.331   2.973
 8227SOL    HW225581   4.305   2.243   2.934
 8228SOL     OW25582   3.070   6.876   5.161
 8228SOL    HW125583   3.001   6.922   5.105
 8228SOL    HW225584   3.038   6.785   5.186
 8229SOL     OW25585   4.457   4.839   1.261
 8229SOL    HW125586   4.461   4.744   1.291
 8229SOL    HW225587   4.390   4.848   1.188
 8230SOL     OW25588   6.423   0.521   5.753
 8230SOL    HW125589   6.438   0.613   5.789
 8230SOL    HW225590   6.335   0.518   5.705
 8231SOL     OW25591   3.081   0.905   2.388
 8231SOL    HW125592   3.083   0.901   2.488
 8231SOL    HW225593   2.992   0.940   2.358
 8232SOL     OW25594   3.492   6.020   3.562
 8232SOL    HW125595   3.439   6.004   3.479
 8232SOL    HW225596   3.587   5.992   3.546
 8233SOL     OW25597   1.908   1.060   6.919
 8233SOL    HW125598   1.999   1.100   6.934
 8233SOL    HW225599   1.916   0.986   6.852
 8234SOL     OW25600   1.373   2.829   0.803
 8234SOL    HW125601   1.363   2.861   0.897
 8234SOL    HW225602   1.375   2.907   0.741
 8235SOL     OW25603   0.901   1.194   1.367
 8235SOL    HW125604   0.885   1.277   1.314
 8235SOL    HW225605   0.855   1.202   1.455
 8236SOL     OW25606   0.518   0.339   1.835
 8236SOL    HW125607   0.587   0.270   1.856
 8236SOL    HW225608   0.494   0.389   1.919
 8237SOL     OW25609   3.860   4.562   5.391
 8237SOL    HW125610   3.930   4.492   5.371
 8237SOL    HW225611   3.781   4.547   5.332
 8238SOL     OW25612   0.446   5.445   0.969
 8238SOL    HW125613   0.531   5.449   1.022
 8238SOL    HW225614   0.428   5.351   0.942
 8239SOL     OW25615   2.725   1.347   6.100
 8239SOL    HW125616   2.726   1.440   6.063
 8239SOL    HW225617   2.765   1.347   6.191
 8240SOL     OW25618   3.674   2.863   4.861
 8240SOL    HW125619   3.639   2.874   4.954
 8240SOL    HW225620   3.676   2.766   4.838
 8241SOL     OW25621   1.674   3.514   6.052
 8241SOL    HW125622   1.684   3.613   6.044
 8241SOL    HW225623   1.646   3.476   5.964
 8242SOL     OW25624   0.734   2.867   2.255
 8242SOL    HW125625   0.650   2.901   2.298
 8242SOL    HW225626   0.789   2.820   2.323
 8243SOL     OW25627   0.981   6.311   3.879
 8243SOL    HW125628   1.002   6.314   3.977
 8243SOL    HW225629   1.061   6.276   3.829
 8244SOL     OW25630   6.933   1.122   3.166
 8244SOL    HW125631   6.858   1.141   3.230
 8244SOL    HW225632   6.936   1.024   3.146
 8245SOL     OW25633   5.316   2.698   2.800
 8245SOL    HW125634   5.296   2.680   2.896
 8245SOL    HW225635   5.277   2.786   2.774
 8246SOL     OW25636   1.643   4.894   6.820
 8246SOL    HW125637   1.543   4.890   6.823
 8246SOL    HW225638   1.672   4.987   6.798
 8247SOL     OW25639   3.134   5.471   3.613
 8247SOL    HW125640   3.178   5.384   3.635
 8247SOL    HW225641   3.035   5.461   3.623
 8248SOL     OW25642   6.992   5.186   3.726
 8248SOL    HW125643   0.005   5.208   3.637
 8248SOL    HW225644   6.894   5.204   3.724
 8249SOL     OW25645   3.652   1.151   6.816
 8249SOL    HW125646   3.648   1.249   6.796
 8249SOL    HW225647   3.743   1.128   6.850
 8250SOL     OW25648   1.077   2.050   6.533
 8250SOL    HW125649   1.123   2.129   6.572
 8250SOL    HW225650   1.093   2.047   6.434
 8251SOL     OW25651   0.543   2.266   5.540
 8251SOL    HW125652   0.599   2.201   5.589
 8251SOL    HW225653   0.595   2.305   5.464
 8252SOL     OW25654   0.589   2.442   6.312
 8252SOL    HW125655   0.681   2.472   6.289
 8252SOL    HW225656   0.593   2.352   6.354
 8253SOL     OW25657   5.279   4.716   6.356
 8253SOL    HW125658   5.188   4.686   6.385
 8253SOL    HW225659   5.313   4.654   6.285
 8254SOL     OW25660   6.277   5.670   0.441
 8254SOL    HW125661   6.334   5.722   0.505
 8254SOL    HW225662   6.307   5.689   0.347
 8255SOL     OW25663   1.604   0.480   5.939
 8255SOL    HW125664   1.691   0.498   5.895
 8255SOL    HW225665   1.606   0.513   6.034
 8256SOL     OW25666   1.005   6.144   4.724
 8256SOL    HW125667   1.098   6.179   4.724
 8256SOL    HW225668   0.947   6.203   4.668
 8257SOL     OW25669   4.837   4.035   3.778
 8257SOL    HW125670   4.824   3.945   3.818
 8257SOL    HW225671   4.848   4.103   3.851
 8258SOL     OW25672   0.439   2.802   3.761
 8258SOL    HW125673   0.371   2.870   3.733
 8258SOL    HW225674   0.395   2.730   3.814
 8259SOL     OW25675   5.450   2.104   4.289
 8259SOL    HW125676   5.493   2.051   4.215
 8259SOL    HW225677   5.411   2.188   4.251
 8260SOL     OW25678   4.871   3.003   0.570
 8260SOL    HW125679   4.938   3.013   0.644
 8260SOL    HW225680   4.811   3.083   0.568
 8261SOL     OW25681   6.346   1.634   2.310
 8261SOL    HW125682   6.381   1.541   2.323
 8261SOL    HW225683   6.267   1.632   2.249
 8262SOL     OW25684   5.328   3.895   2.175
 8262SOL    HW125685   5.291   3.806   2.205
 8262SOL    HW225686   5.268   3.968   2.208
 8263SOL     OW25687   6.908   1.794   5.955
 8263SOL    HW125688   6.881   1.737   5.878
 8263SOL    HW225689   7.005   1.817   5.948
 8264SOL     OW25690   2.980   0.726   2.019
 8264SOL    HW125691   2.939   0.807   2.062
 8264SOL    HW225692   3.072   0.747   1.988
 8265SOL     OW25693   4.700   5.431   0.637
 8265SOL    HW125694   4.695   5.335   0.608
 8265SOL    HW225695   4.714   5.436   0.736
 8266SOL     OW25696   3.760   0.975   3.517
 8266SOL    HW125697   3.704   0.898   3.549
 8266SOL    HW225698   3.717   1.061   3.543
 8267SOL     OW25699   1.997   2.643   3.505
 8267SOL    HW125700   1.921   2.612   3.447
 8267SOL    HW225701   2.023   2.569   3.567
 8268SOL     OW25702   3.578   4.849   6.897
 8268SOL    HW125703   3.621   4.814   6.980
 8268SOL    HW225704   3.490   4.891   6.920
 8269SOL     OW25705   6.438   1.974   5.185
 8269SOL    HW125706   6.384   2.005   5.264
 8269SOL    HW225707   6.474   2.053   5.136
 8270SOL     OW25708   4.387   5.172   0.206
 8270SOL    HW125709   4.290   5.180   0.184
 8270SOL    HW225710   4.410   5.075   0.218
 8271SOL     OW25711   3.221   6.627   6.125
 8271SOL    HW125712   3.167   6.568   6.185
 8271SOL    HW225713   3.201   6.723   6.146
 8272SOL     OW25714   0.764   0.422   2.138
 8272SOL    HW125715   0.796   0.331   2.110
 8272SOL    HW225716   0.713   0.414   2.224
 8273SOL     OW25717   3.654   6.864   6.864
 8273SOL    HW125718   3.685   6.791   6.803
 8273SOL    HW225719   3.609   6.824   6.943
 8274SOL     OW25720   5.586   5.978   5.552
 8274SOL    HW125721   5.569   6.075   5.571
 8274SOL    HW225722   5.519   5.945   5.486
 8275SOL     OW25723   5.182   1.240   5.055
 8275SOL    HW125724   5.095   1.276   5.021
 8275SOL    HW225725   5.165   1.153   5.103
 8276SOL     OW25726   6.205   2.144   0.079
 8276SOL    HW125727   6.184   2.061   0.028
 8276SOL    HW225728   6.154   2.221   0.041
 8277SOL     OW25729   1.495   6.462   1.138
 8277SOL    HW125730   1.558   6.531   1.173
 8277SOL    HW225731   1.483   6.474   1.039
 8278SOL     OW25732   1.858   0.511   0.830
 8278SOL    HW125733   1.813   0.551   0.910
 8278SOL    HW225734   1.954   0.494   0.851
 8279SOL     OW25735   4.512   6.037   5.640
 8279SOL    HW125736   4.510   6.123   5.691
 8279SOL    HW225737   4.606   6.003   5.637
 8280SOL     OW25738   5.265   4.290   0.004
 8280SOL    HW125739   5.186   4.237   0.037
 8280SOL    HW225740   5.296   4.252   6.943
 8281SOL     OW25741   2.867   5.730   6.408
 8281SOL    HW125742   2.786   5.744   6.465
 8281SOL    HW225743   2.948   5.762   6.456
 8282SOL     OW25744   3.481   2.739   1.524
 8282SOL    HW125745   3.494   2.826   1.573
 8282SOL    HW225746   3.551   2.674   1.554
 8283SOL     OW25747   0.673   0.380   3.413
 8283SOL    HW125748   0.694   0.393   3.510
 8283SOL    HW225749   0.606   0.307   3.403
 8284SOL     OW25750   4.746   1.949   1.776
 8284SOL    HW125751   4.720   1.948   1.679
 8284SOL    HW225752   4.814   1.878   1.793
 8285SOL     OW25753   0.985   4.507   0.686
 8285SOL    HW125754   1.049   4.431   0.680
 8285SOL    HW225755   0.901   4.484   0.638
 8286SOL     OW25756   6.607   1.990   6.388
 8286SOL    HW125757   6.521   1.940   6.385
 8286SOL    HW225758   6.644   1.989   6.481
 8287SOL     OW25759   1.382   1.273   3.151
 8287SOL    HW125760   1.462   1.329   3.174
 8287SOL    HW225761   1.322   1.267   3.230
 8288SOL     OW25762   2.067   0.422   2.788
 8288SOL    HW125763   2.015   0.342   2.758
 8288SOL    HW225764   2.031   0.455   2.875
 8289SOL     OW25765   5.554   0.022   0.134
 8289SOL    HW125766   5.501   0.040   0.051
 8289SOL    HW225767   5.520   0.081   0.208
 8290SOL     OW25768   4.670   2.648   2.021
 8290SOL    HW125769   4.719   2.717   2.074
 8290SOL    HW225770   4.646   2.685   1.932
 8291SOL     OW25771   4.829   6.080   6.556
 8291SOL    HW125772   4.848   6.176   6.579
 8291SOL    HW225773   4.914   6.027   6.562
 8292SOL     OW25774   0.067   2.694   5.561
 8292SOL    HW125775   0.076   2.757   5.484
 8292SOL    HW225776   0.005   2.733   5.629
 8293SOL     OW25777   2.936   5.484   4.540
 8293SOL    HW125778   2.853   5.523   4.580
 8293SOL    HW225779   3.013   5.498   4.602
 8294SOL     OW25780   5.691   3.712   5.343
 8294SOL    HW125781   5.604   3.758   5.328
 8294SOL    HW225782   5.712   3.653   5.265
 8295SOL     OW25783   4.505   5.025   2.857
 8295SOL    HW125784   4.450   4.946   2.829
 8295SOL    HW225785   4.549   5.005   2.945
 8296SOL     OW25786   4.320   0.362   2.390
 8296SOL    HW125787   4.380   0.429   2.433
 8296SOL    HW225788   4.278   0.305   2.461
 8297SOL     OW25789   5.296   4.561   2.161
 8297SOL    HW125790   5.293   4.465   2.188
 8297SOL    HW225791   5.271   4.569   2.064
 8298SOL     OW25792   6.342   6.778   0.451
 8298SOL    HW125793   6.332   6.766   0.352
 8298SOL    HW225794   6.254   6.758   0.495
 8299SOL     OW25795   1.369   3.483   6.874
 8299SOL    HW125796   1.419   3.486   6.787
 8299SOL    HW225797   1.356   3.387   6.902
 8300SOL     OW25798   6.249   5.106   4.154
 8300SOL    HW125799   6.162   5.099   4.106
 8300SOL    HW225800   6.324   5.093   4.089
 8301SOL     OW25801   6.345   6.074   0.238
 8301SOL    HW125802   6.247   6.056   0.243
 8301SOL    HW225803   6.362   6.171   0.257
 8302SOL     OW25804   4.039   6.633   5.116
 8302SOL    HW125805   4.001   6.675   5.034
 8302SOL    HW225806   4.062   6.538   5.096
 8303SOL     OW25807   0.539   4.955   3.701
 8303SOL    HW125808   0.447   4.964   3.664
 8303SOL    HW225809   0.559   4.858   3.717
 8304SOL     OW25810   6.039   2.952   3.727
 8304SOL    HW125811   6.119   2.892   3.726
 8304SOL    HW225812   6.028   2.991   3.819
 8305SOL     OW25813   4.582   0.258   5.983
 8305SOL    HW125814   4.642   0.253   6.064
 8305SOL    HW225815   4.537   0.170   5.970
 8306SOL     OW25816   6.304   0.557   3.658
 8306SOL    HW125817   6.361   0.578   3.738
 8306SOL    HW225818   6.307   0.634   3.594
 8307SOL     OW25819   1.370   3.728   3.287
 8307SOL    HW125820   1.424   3.755   3.207
 8307SOL    HW225821   1.311   3.803   3.315
 8308SOL     OW25822   1.086   5.185   0.218
 8308SOL    HW125823   1.074   5.266   0.274
 8308SOL    HW225824   1.025   5.189   0.139
 8309SOL     OW25825   6.488   5.472   4.304
 8309SOL    HW125826   6.420   5.430   4.364
 8309SOL    HW225827   6.501   5.416   4.223
 8310SOL     OW25828   2.689   6.936   2.854
 8310SOL    HW125829   2.672   7.018   2.800
 8310SOL    HW225830   2.719   6.963   2.946
 8311SOL     OW25831   4.289   5.761   2.684
 8311SOL    HW125832   4.274   5.708   2.768
 8311SOL    HW225833   4.222   5.834   2.678
 8312SOL     OW25834   6.120   2.059   0.834
 8312SOL    HW125835   6.138   1.967   0.799
 8312SOL    HW225836   6.205   2.102   0.863
 8313SOL     OW25837   5.416   2.342   6.344
 8313SOL    HW125838   5.515   2.329   6.352
 8313SOL    HW225839   5.379   2.275   6.279
 8314SOL     OW25840   4.400   5.910   4.173
 8314SOL    HW125841   4.411   5.835   4.107
 8314SOL    HW225842   4.466   5.983   4.151
 8315SOL     OW25843   3.194   3.005   5.823
 8315SOL    HW125844   3.210   2.910   5.852
 8315SOL    HW225845   3.097   3.017   5.801
 8316SOL     OW25846   2.156   2.072   5.312
 8316SOL    HW125847   2.177   2.158   5.266
 8316SOL    HW225848   2.059   2.071   5.339
 8317SOL     OW25849   1.398   1.989   3.956
 8317SOL    HW125850   1.388   1.930   4.036
 8317SOL    HW225851   1.312   1.991   3.905
 8318SOL     OW25852   4.565   6.733   5.932
 8318SOL    HW125853   4.541   6.685   6.016
 8318SOL    HW225854   4.601   6.667   5.866
 8319SOL     OW25855   2.155   5.296   6.514
 8319SOL    HW125856   2.073   5.328   6.466
 8319SOL    HW225857   2.127   5.237   6.590
 8320SOL     OW25858   3.849   3.663   5.751
 8320SOL    HW125859   3.820   3.623   5.664
 8320SOL    HW225860   3.772   3.713   5.792
 8321SOL     OW25861   0.472   0.427   1.060
 8321SOL    HW125862   0.497   0.522   1.078
 8321SOL    HW225863   0.520   0.368   1.125
 8322SOL     OW25864   1.063   0.277   0.523
 8322SOL    HW125865   1.108   0.190   0.542
 8322SOL    HW225866   1.123   0.334   0.468
 8323SOL     OW25867   5.210   4.424   6.485
 8323SOL    HW125868   5.239   4.334   6.451
 8323SOL    HW225869   5.282   4.491   6.465
 8324SOL     OW25870   5.642   6.473   6.932
 8324SOL    HW125871   5.734   6.476   6.972
 8324SOL    HW225872   5.592   6.556   6.957
 8325SOL     OW25873   1.534   6.632   4.919
 8325SOL    HW125874   1.581   6.705   4.968
 8325SOL    HW225875   1.582   6.545   4.934
 8326SOL     OW25876   1.837   2.774   6.526
 8326SOL    HW125877   1.756   2.746   6.577
 8326SOL    HW225878   1.837   2.729   6.436
 8327SOL     OW25879   0.278   6.453   4.931
 8327SOL    HW125880   0.330   6.405   4.861
 8327SOL    HW225881   0.285   6.404   5.018
 8328SOL     OW25882   1.292   6.068   0.554
 8328SOL    HW125883   1.232   6.009   0.499
 8328SOL    HW225884   1.299   6.158   0.511
 8329SOL     OW25885   1.769   2.411   5.172
 8329SOL    HW125886   1.851   2.413   5.229
 8329SOL    HW225887   1.792   2.379   5.081
 8330SOL     OW25888   2.511   6.422   0.111
 8330SOL    HW125889   2.584   6.387   0.169
 8330SOL    HW225890   2.432   6.448   0.167
 8331SOL     OW25891   2.580   2.266   6.272
 8331SOL    HW125892   2.572   2.293   6.176
 8331SOL    HW225893   2.605   2.345   6.327
 8332SOL     OW25894   6.345   4.206   1.446
 8332SOL    HW125895   6.345   4.300   1.480
 8332SOL    HW225896   6.282   4.150   1.501
 8333SOL     OW25897   2.367   4.160   6.680
 8333SOL    HW125898   2.432   4.109   6.735
 8333SOL    HW225899   2.313   4.220   6.740
 8334SOL     OW25900   3.414   2.351   5.344
 8334SOL    HW125901   3.331   2.340   5.289
 8334SOL    HW225902   3.479   2.279   5.319
 8335SOL     OW25903   5.481   4.814   5.561
 8335SOL    HW125904   5.514   4.823   5.467
 8335SOL    HW225905   5.542   4.753   5.612
 8336SOL     OW25906   1.559   3.286   3.510
 8336SOL    HW125907   1.646   3.302   3.558
 8336SOL    HW225908   1.544   3.359   3.443
 8337SOL     OW25909   6.421   0.803   4.489
 8337SOL    HW125910   6.486   0.864   4.444
 8337SOL    HW225911   6.462   0.712   4.498
 8338SOL     OW25912   2.352   5.846   0.981
 8338SOL    HW125913   2.287   5.856   1.056
 8338SOL    HW225914   2.328   5.765   0.927
 8339SOL     OW25915   6.056   0.164   1.931
 8339SOL    HW125916   5.969   0.148   1.978
 8339SOL    HW225917   6.044   0.152   1.833
 8340SOL     OW25918   5.679   2.314   6.380
 8340SOL    HW125919   5.697   2.367   6.297
 8340SOL    HW225920   5.759   2.258   6.402
 8341SOL     OW25921   3.974   1.190   0.560
 8341SOL    HW125922   4.072   1.186   0.582
 8341SOL    HW225923   3.921   1.148   0.633
 8342SOL     OW25924   3.968   0.487   0.359
 8342SOL    HW125925   3.950   0.462   0.264
 8342SOL    HW225926   3.966   0.405   0.416
 8343SOL     OW25927   5.495   4.903   2.803
 8343SOL    HW125928   5.434   4.836   2.761
 8343SOL    HW225929   5.440   4.975   2.847
 8344SOL     OW25930   1.696   5.318   5.654
 8344SOL    HW125931   1.672   5.247   5.589
 8344SOL    HW225932   1.631   5.318   5.729
 8345SOL     OW25933   5.828   0.543   3.815
 8345SOL    HW125934   5.789   0.489   3.891
 8345SOL    HW225935   5.928   0.544   3.824
 8346SOL     OW25936   5.228   3.623   4.225
 8346SOL    HW125937   5.293   3.551   4.205
 8346SOL    HW225938   5.241   3.657   4.318
 8347SOL     OW25939   2.058   1.771   5.733
 8347SOL    HW125940   2.092   1.678   5.746
 8347SOL    HW225941   1.963   1.767   5.701
 8348SOL     OW25942   2.857   5.688   2.254
 8348SOL    HW125943   2.758   5.696   2.246
 8348SOL    HW225944   2.894   5.648   2.170
 8349SOL     OW25945   5.221   5.897   1.584
 8349SOL    HW125946   5.188   5.841   1.661
 8349SOL    HW225947   5.142   5.936   1.535
 8350SOL     OW25948   1.237   0.135   0.039
 8350SOL    HW125949   1.297   0.165   6.992
 8350SOL    HW225950   1.143   0.163   0.019
 8351SOL     OW25951   0.286   2.188   3.191
 8351SOL    HW125952   0.335   2.239   3.120
 8351SOL    HW225953   0.212   2.244   3.227
 8352SOL     OW25954   2.219   5.942   0.114
 8352SOL    HW125955   2.310   5.950   0.153
 8352SOL    HW225956   2.185   6.033   0.089
 8353SOL     OW25957   0.603   6.154   2.194
 8353SOL    HW125958   0.702   6.153   2.206
 8353SOL    HW225959   0.560   6.190   2.277
 8354SOL     OW25960   4.231   1.465   3.535
 8354SOL    HW125961   4.143   1.461   3.487
 8354SOL    HW225962   4.270   1.373   3.542
 8355SOL     OW25963   3.367   5.208   6.181
 8355SOL    HW125964   3.354   5.254   6.093
 8355SOL    HW225965   3.304   5.131   6.187
 8356SOL     OW25966   2.965   4.602   1.009
 8356SOL    HW125967   2.986   4.596   1.106
 8356SOL    HW225968   2.869   4.576   0.994
 8357SOL     OW25969   4.614   0.051   5.083
 8357SOL    HW125970   4.630   6.995   5.135
 8357SOL    HW225971   4.675   0.123   5.116
 8358SOL     OW25972   0.474   0.403   5.590
 8358SOL    HW125973   0.436   0.325   5.639
 8358SOL    HW225974   0.558   0.433   5.634
 8359SOL     OW25975   4.314   1.624   5.879
 8359SOL    HW125976   4.325   1.722   5.863
 8359SOL    HW225977   4.390   1.575   5.836
 8360SOL     OW25978   4.412   0.022   0.999
 8360SOL    HW125979   4.313   0.026   1.009
 8360SOL    HW225980   4.435   7.019   0.906
 8361SOL     OW25981   4.662   1.336   6.844
 8361SOL    HW125982   4.575   1.360   6.801
 8361SOL    HW225983   4.698   1.415   6.894
 8362SOL     OW25984   6.570   3.651   1.292
 8362SOL    HW125985   6.502   3.653   1.366
 8362SOL    HW225986   6.618   3.738   1.289
 8363SOL     OW25987   1.796   2.383   1.235
 8363SOL    HW125988   1.883   2.360   1.193
 8363SOL    HW225989   1.792   2.345   1.327
 8364SOL     OW25990   0.645   1.980   4.379
 8364SOL    HW125991   0.567   2.039   4.359
 8364SOL    HW225992   0.614   1.886   4.391
 8365SOL     OW25993   1.783   2.059   1.665
 8365SOL    HW125994   1.831   2.016   1.742
 8365SOL    HW225995   1.704   2.109   1.698
 8366SOL     OW25996   5.612   5.291   2.111
 8366SOL    HW125997   5.603   5.236   2.194
 8366SOL    HW225998   5.689   5.257   2.057
 8367SOL     OW25999   1.897   4.595   3.233
 8367SOL    HW126000   1.952   4.517   3.261
 8367SOL    HW226001   1.955   4.661   3.186
 8368SOL     OW26002   6.166   5.605   5.462
 8368SOL    HW126003   6.212   5.608   5.551
 8368SOL    HW226004   6.071   5.577   5.474
 8369SOL     OW26005   1.819   6.905   0.484
 8369SOL    HW126006   1.793   6.834   0.550
 8369SOL    HW226007   1.870   6.863   0.409
 8370SOL     OW26008   2.753   3.288   0.853
 8370SOL    HW126009   2.694   3.214   0.886
 8370SOL    HW226010   2.773   3.351   0.929
 8371SOL     OW26011   2.584   3.731   6.383
 8371SOL    HW126012   2.609   3.779   6.298
 8371SOL    HW226013   2.551   3.797   6.450
 8372SOL     OW26014   1.565   6.256   1.308
 8372SOL    HW126015   1.514   6.314   1.245
 8372SOL    HW226016   1.594   6.173   1.261
 8373SOL     OW26017   6.784   1.458   3.777
 8373SOL    HW126018   6.732   1.541   3.793
 8373SOL    HW226019   6.745   1.383   3.830
 8374SOL     OW26020   0.318   1.032   4.013
 8374SOL    HW126021   0.321   1.129   3.993
 8374SOL    HW226022   0.369   1.013   4.097
 8375SOL     OW26023   1.741   1.729   5.018
 8375SOL    HW126024   1.708   1.820   4.994
 8375SOL    HW226025   1.700   1.661   4.958
 8376SOL     OW26026   1.141   2.036   3.869
 8376SOL    HW126027   1.119   1.978   3.791
 8376SOL    HW226028   1.076   2.019   3.943
 8377SOL     OW26029   4.060   5.364   6.953
 8377SOL    HW126030   4.057   5.380   6.854
 8377SOL    HW226031   3.968   5.368   6.991
 8378SOL     OW26032   4.792   6.069   4.840
 8378SOL    HW126033   4.792   5.974   4.871
 8378SOL    HW226034   4.812   6.073   4.742
 8379SOL     OW26035   6.038   2.236   1.788
 8379SOL    HW126036   6.047   2.154   1.844
 8379SOL    HW226037   6.109   2.302   1.813
 8380SOL     OW26038   0.566   6.283   1.620
 8380SOL    HW126039   0.485   6.334   1.591
 8380SOL    HW226040   0.631   6.279   1.544
 8381SOL     OW26041   0.274   1.713   2.789
 8381SOL    HW126042   0.331   1.712   2.707
 8381SOL    HW226043   0.262   1.619   2.822
 8382SOL     OW26044   0.884   0.237   1.624
 8382SOL    HW126045   0.923   0.293   1.698
 8382SOL    HW226046   0.802   0.282   1.589
 8383SOL     OW26047   2.601   6.936   6.086
 8383SOL    HW126048   2.513   6.984   6.096
 8383SOL    HW226049   2.601   6.887   5.999
 8384SOL     OW26050   0.697   3.699   3.128
 8384SOL    HW126051   0.731   3.630   3.063
 8384SOL    HW226052   0.676   3.654   3.215
 8385SOL     OW26053   4.103   2.219   1.867
 8385SOL    HW126054   4.121   2.277   1.788
 8385SOL    HW226055   4.015   2.173   1.856
 8386SOL     OW26056   2.685   5.695   1.846
 8386SOL    HW126057   2.638   5.669   1.930
 8386SOL    HW226058   2.625   5.678   1.767
 8387SOL     OW26059   0.926   1.076   3.616
 8387SOL    HW126060   1.004   1.137   3.626
 8387SOL    HW226061   0.892   1.049   3.706
 8388SOL     OW26062   3.609   5.330   1.203
 8388SOL    HW126063   3.689   5.280   1.171
 8388SOL    HW226064   3.585   5.401   1.136
 8389SOL     OW26065   0.590   2.701   4.377
 8389SOL    HW126066   0.676   2.746   4.405
 8389SOL    HW226067   0.528   2.697   4.455
 8390SOL     OW26068   2.343   0.175   5.813
 8390SOL    HW126069   2.422   0.235   5.802
 8390SOL    HW226070   2.317   0.138   5.724
 8391SOL     OW26071   5.470   5.925   1.142
 8391SOL    HW126072   5.440   5.868   1.218
 8391SOL    HW226073   5.391   5.974   1.104
 8392SOL     OW26074   4.697   6.136   0.117
 8392SOL    HW126075   4.782   6.087   0.140
 8392SOL    HW226076   4.719   6.224   0.075
 8393SOL     OW26077   0.230   4.672   3.225
 8393SOL    HW126078   0.263   4.635   3.138
 8393SOL    HW226079   0.130   4.683   3.221
 8394SOL     OW26080   0.933   1.333   2.752
 8394SOL    HW126081   1.015   1.389   2.748
 8394SOL    HW226082   0.941   1.268   2.827
 8395SOL     OW26083   0.666   6.416   5.771
 8395SOL    HW126084   0.612   6.346   5.725
 8395SOL    HW226085   0.685   6.492   5.709
 8396SOL     OW26086   4.300   2.821   1.598
 8396SOL    HW126087   4.304   2.861   1.507
 8396SOL    HW226088   4.218   2.764   1.606
 8397SOL     OW26089   2.308   5.246   4.031
 8397SOL    HW126090   2.208   5.246   4.030
 8397SOL    HW226091   2.342   5.169   3.978
 8398SOL     OW26092   5.768   1.265   0.008
 8398SOL    HW126093   5.686   1.210   0.020
 8398SOL    HW226094   5.840   1.210   6.995
 8399SOL     OW26095   5.465   5.790   0.036
 8399SOL    HW126096   5.437   5.871   0.087
 8399SOL    HW226097   5.534   5.816   6.996
 8400SOL     OW26098   6.124   6.714   4.230
 8400SOL    HW126099   6.135   6.617   4.209
 8400SOL    HW226100   6.105   6.765   4.146
 8401SOL     OW26101   2.902   4.235   5.866
 8401SOL    HW126102   2.856   4.151   5.895
 8401SOL    HW226103   2.891   4.247   5.767
 8402SOL     OW26104   4.641   0.776   5.993
 8402SOL    HW126105   4.621   0.832   6.074
 8402SOL    HW226106   4.591   0.689   6.001
 8403SOL     OW26107   1.025   2.380   4.762
 8403SOL    HW126108   1.036   2.290   4.720
 8403SOL    HW226109   1.032   2.451   4.691
 8404SOL     OW26110   4.530   5.087   5.243
 8404SOL    HW126111   4.488   5.168   5.204
 8404SOL    HW226112   4.578   5.112   5.327
 8405SOL     OW26113   1.151   2.601   4.541
 8405SOL    HW126114   1.122   2.694   4.519
 8405SOL    HW226115   1.223   2.573   4.477
 8406SOL     OW26116   5.418   3.810   1.083
 8406SOL    HW126117   5.401   3.852   1.172
 8406SOL    HW226118   5.439   3.713   1.095
 8407SOL     OW26119   4.927   3.457   2.934
 8407SOL    HW126120   4.856   3.387   2.927
 8407SOL    HW226121   4.950   3.492   2.844
 8408SOL     OW26122   4.910   4.418   4.501
 8408SOL    HW126123   4.920   4.492   4.434
 8408SOL    HW226124   5.001   4.384   4.526
 8409SOL     OW26125   0.718   1.621   3.859
 8409SOL    HW126126   0.721   1.536   3.912
 8409SOL    HW226127   0.623   1.648   3.844
 8410SOL     OW26128   2.439   6.374   2.585
 8410SOL    HW126129   2.537   6.357   2.587
 8410SOL    HW226130   2.390   6.295   2.622
 8411SOL     OW26131   1.938   3.106   3.446
 8411SOL    HW126132   2.036   3.101   3.464
 8411SOL    HW226133   1.922   3.091   3.349
 8412SOL     OW26134   6.285   3.072   2.390
 8412SOL    HW126135   6.347   3.027   2.454
 8412SOL    HW226136   6.335   3.099   2.308
 8413SOL     OW26137   2.501   4.732   1.364
 8413SOL    HW126138   2.550   4.715   1.278
 8413SOL    HW226139   2.539   4.674   1.436
 8414SOL     OW26140   6.041   6.871   3.175
 8414SOL    HW126141   6.015   6.926   3.096
 8414SOL    HW226142   6.088   6.788   3.145
 8415SOL     OW26143   6.320   4.011   1.987
 8415SOL    HW126144   6.301   3.914   1.997
 8415SOL    HW226145   6.372   4.043   2.066
 8416SOL     OW26146   4.600   4.424   2.468
 8416SOL    HW126147   4.560   4.364   2.536
 8416SOL    HW226148   4.586   4.385   2.377
 8417SOL     OW26149   2.358   5.443   6.667
 8417SOL    HW126150   2.279   5.403   6.620
 8417SOL    HW226151   2.442   5.421   6.617
 8418SOL     OW26152   6.043   5.785   3.077
 8418SOL    HW126153   5.995   5.731   3.147
 8418SOL    HW226154   6.042   5.735   2.990
 8419SOL     OW26155   5.107   0.292   3.862
 8419SOL    HW126156   5.099   0.351   3.782
 8419SOL    HW226157   5.084   0.198   3.837
 8420SOL     OW26158   3.512   2.094   5.804
 8420SOL    HW126159   3.559   2.145   5.733
 8420SOL    HW226160   3.579   2.062   5.872
 8421SOL     OW26161   0.965   6.899   1.419
 8421SOL    HW126162   0.868   6.922   1.431
 8421SOL    HW226163   1.011   6.902   1.508
 8422SOL     OW26164   4.373   0.068   1.301
 8422SOL    HW126165   4.336   0.158   1.324
 8422SOL    HW226166   4.420   0.072   1.213
 8423SOL     OW26167   2.035   3.755   1.549
 8423SOL    HW126168   2.061   3.668   1.590
 8423SOL    HW226169   2.025   3.744   1.450
 8424SOL     OW26170   2.701   2.342   2.168
 8424SOL    HW126171   2.709   2.340   2.268
 8424SOL    HW226172   2.792   2.335   2.127
 8425SOL     OW26173   6.507   4.723   6.434
 8425SOL    HW126174   6.457   4.790   6.379
 8425SOL    HW226175   6.490   4.740   6.531
 8426SOL     OW26176   3.989   3.634   2.622
 8426SOL    HW126177   4.074   3.583   2.635
 8426SOL    HW226178   3.965   3.681   2.707
 8427SOL     OW26179   1.786   2.634   6.289
 8427SOL    HW126180   1.698   2.632   6.241
 8427SOL    HW226181   1.817   2.540   6.305
 8428SOL     OW26182   6.158   4.243   2.013
 8428SOL    HW126183   6.158   4.299   1.930
 8428SOL    HW226184   6.206   4.157   1.995
 8429SOL     OW26185   2.683   6.452   3.166
 8429SOL    HW126186   2.639   6.536   3.133
 8429SOL    HW226187   2.660   6.376   3.105
 8430SOL     OW26188   5.159   4.074   3.211
 8430SOL    HW126189   5.256   4.088   3.228
 8430SOL    HW226190   5.144   3.980   3.180
 8431SOL     OW26191   2.951   3.670   1.793
 8431SOL    HW126192   2.965   3.581   1.749
 8431SOL    HW226193   2.857   3.700   1.780
 8432SOL     OW26194   4.684   6.444   0.292
 8432SOL    HW126195   4.766   6.458   0.236
 8432SOL    HW226196   4.711   6.411   0.383
 8433SOL     OW26197   1.061   1.481   4.129
 8433SOL    HW126198   1.065   1.521   4.037
 8433SOL    HW226199   1.145   1.428   4.145
 8434SOL     OW26200   5.235   6.316   6.520
 8434SOL    HW126201   5.188   6.300   6.607
 8434SOL    HW226202   5.332   6.291   6.529
 8435SOL     OW26203   5.096   2.704   1.610
 8435SOL    HW126204   5.084   2.803   1.609
 8435SOL    HW226205   5.008   2.660   1.631
 8436SOL     OW26206   3.193   4.409   1.607
 8436SOL    HW126207   3.161   4.351   1.682
 8436SOL    HW226208   3.129   4.484   1.593
 8437SOL     OW26209   6.916   1.519   1.150
 8437SOL    HW126210   6.932   1.425   1.182
 8437SOL    HW226211   6.855   1.566   1.214
 8438SOL     OW26212   2.102   6.565   0.926
 8438SOL    HW126213   2.074   6.469   0.915
 8438SOL    HW226214   2.040   6.610   0.991
 8439SOL     OW26215   6.466   0.272   2.307
 8439SOL    HW126216   6.498   0.191   2.259
 8439SOL    HW226217   6.381   0.304   2.265
 8440SOL     OW26218   6.843   2.101   4.419
 8440SOL    HW126219   6.790   2.181   4.449
 8440SOL    HW226220   6.818   2.021   4.473
 8441SOL     OW26221   4.173   5.316   2.231
 8441SOL    HW126222   4.154   5.408   2.265
 8441SOL    HW226223   4.241   5.272   2.289
 8442SOL     OW26224   1.931   3.441   0.120
 8442SOL    HW126225   1.847   3.472   0.166
 8442SOL    HW226226   1.908   3.373   0.050
 8443SOL     OW26227   0.708   1.956   1.851
 8443SOL    HW126228   0.672   1.874   1.895
 8443SOL    HW226229   0.733   2.023   1.921
 8444SOL     OW26230   4.842   1.184   2.785
 8444SOL    HW126231   4.933   1.200   2.822
 8444SOL    HW226232   4.797   1.272   2.768
 8445SOL     OW26233   4.624   5.666   1.836
 8445SOL    HW126234   4.559   5.668   1.912
 8445SOL    HW226235   4.588   5.721   1.760
 8446SOL     OW26236   6.472   4.097   3.094
 8446SOL    HW126237   6.531   4.017   3.102
 8446SOL    HW226238   6.484   4.138   3.003
 8447SOL     OW26239   4.558   3.225   1.318
 8447SOL    HW126240   4.630   3.216   1.249
 8447SOL    HW226241   4.565   3.314   1.363
 8448SOL     OW26242   1.422   3.064   5.725
 8448SOL    HW126243   1.322   3.065   5.732
 8448SOL    HW226244   1.452   2.974   5.691
 8449SOL     OW26245   1.347   1.632   4.369
 8449SOL    HW126246   1.358   1.678   4.458
 8449SOL    HW226247   1.306   1.696   4.304
 8450SOL     OW26248   2.324   5.296   1.669
 8450SOL    HW126249   2.299   5.222   1.606
 8450SOL    HW226250   2.395   5.352   1.626
 8451SOL     OW26251   4.337   3.040   0.478
 8451SOL    HW126252   4.420   2.983   0.485
 8451SOL    HW226253   4.319   3.060   0.382
 8452SOL     OW26254   6.774   5.617   1.312
 8452SOL    HW126255   6.847   5.555   1.340
 8452SOL    HW226256   6.786   5.705   1.356
 8453SOL     OW26257   6.607   5.408   5.368
 8453SOL    HW126258   6.643   5.494   5.332
 8453SOL    HW226259   6.551   5.426   5.449
 8454SOL     OW26260   1.907   6.314   4.751
 8454SOL    HW126261   1.984   6.294   4.691
 8454SOL    HW226262   1.934   6.387   4.815
 8455SOL     OW26263   6.310   2.692   0.333
 8455SOL    HW126264   6.321   2.783   0.291
 8455SOL    HW226265   6.383   2.678   0.400
 8456SOL     OW26266   5.655   5.431   3.178
 8456SOL    HW126267   5.731   5.426   3.242
 8456SOL    HW226268   5.683   5.482   3.097
 8457SOL     OW26269   6.167   6.174   6.795
 8457SOL    HW126270   6.203   6.130   6.876
 8457SOL    HW226271   6.069   6.189   6.806
 8458SOL     OW26272   1.556   2.101   1.201
 8458SOL    HW126273   1.459   2.116   1.218
 8458SOL    HW226274   1.599   2.063   1.283
 8459SOL     OW26275   2.666   5.887   2.625
 8459SOL    HW126276   2.581   5.838   2.640
 8459SOL    HW226277   2.741   5.821   2.613
 8460SOL     OW26278   3.867   1.406   0.406
 8460SOL    HW126279   3.930   1.334   0.434
 8460SOL    HW226280   3.784   1.365   0.368
 8461SOL     OW26281   4.882   3.659   3.103
 8461SOL    HW126282   4.836   3.618   3.181
 8461SOL    HW226283   4.923   3.588   3.047
 8462SOL     OW26284   2.611   4.321   0.353
 8462SOL    HW126285   2.561   4.369   0.425
 8462SOL    HW226286   2.693   4.372   0.329
 8463SOL     OW26287   6.559   0.890   0.395
 8463SOL    HW126288   6.650   0.859   0.371
 8463SOL    HW226289   6.519   0.940   0.318
 8464SOL     OW26290   6.497   3.913   6.795
 8464SOL    HW126291   6.596   3.925   6.789
 8464SOL    HW226292   6.452   4.002   6.790
 8465SOL     OW26293   4.485   3.258   1.012
 8465SOL    HW126294   4.458   3.314   0.934
 8465SOL    HW226295   4.417   3.185   1.026
 8466SOL     OW26296   0.375   1.453   5.654
 8466SOL    HW126297   0.356   1.531   5.715
 8466SOL    HW226298   0.472   1.453   5.630
 8467SOL     OW26299   3.196   1.616   7.025
 8467SOL    HW126300   3.273   1.576   6.976
 8467SOL    HW226301   3.225   1.703   0.038
 8468SOL     OW26302   5.555   3.302   6.609
 8468SOL    HW126303   5.529   3.399   6.606
 8468SOL    HW226304   5.609   3.279   6.529
 8469SOL     OW26305   3.877   3.311   5.490
 8469SOL    HW126306   3.911   3.304   5.397
 8469SOL    HW226307   3.828   3.226   5.514
 8470SOL     OW26308   1.687   4.805   1.725
 8470SOL    HW126309   1.709   4.849   1.812
 8470SOL    HW226310   1.767   4.807   1.666
 8471SOL     OW26311   4.222   1.564   4.263
 8471SOL    HW126312   4.262   1.488   4.212
 8471SOL    HW226313   4.291   1.635   4.278
 8472SOL     OW26314   6.201   1.840   6.226
 8472SOL    HW126315   6.248   1.827   6.313
 8472SOL    HW226316   6.102   1.828   6.239
 8473SOL     OW26317   5.130   4.657   0.212
 8473SOL    HW126318   5.121   4.607   0.298
 8473SOL    HW226319   5.047   4.645   0.157
 8474SOL     OW26320   3.578   4.133   4.147
 8474SOL    HW126321   3.530   4.048   4.123
 8474SOL    HW226322   3.584   4.191   4.066
 8475SOL     OW26323   6.461   2.460   3.208
 8475SOL    HW126324   6.368   2.498   3.210
 8475SOL    HW226325   6.525   2.531   3.181
 8476SOL     OW26326   5.873   1.078   1.679
 8476SOL    HW126327   5.958   1.122   1.710
 8476SOL    HW226328   5.880   0.979   1.695
 8477SOL     OW26329   5.849   6.924   1.708
 8477SOL    HW126330   5.911   7.000   1.688
 8477SOL    HW226331   5.755   6.953   1.692
 8478SOL     OW26332   0.309   0.087   5.191
 8478SOL    HW126333   0.209   0.091   5.194
 8478SOL    HW226334   0.339   0.080   5.096
 8479SOL     OW26335   0.503   3.375   0.678
 8479SOL    HW126336   0.584   3.349   0.624
 8479SOL    HW226337   0.516   3.348   0.773
 8480SOL     OW26338   4.057   3.845   0.486
 8480SOL    HW126339   4.142   3.894   0.503
 8480SOL    HW226340   4.058   3.759   0.537
 8481SOL     OW26341   4.183   2.247   3.241
 8481SOL    HW126342   4.217   2.153   3.230
 8481SOL    HW226343   4.150   2.281   3.152
 8482SOL     OW26344   4.269   0.880   6.821
 8482SOL    HW126345   4.214   0.817   6.876
 8482SOL    HW226346   4.365   0.870   6.846
 8483SOL     OW26347   4.231   5.135   3.161
 8483SOL    HW126348   4.184   5.179   3.238
 8483SOL    HW226349   4.165   5.120   3.087
 8484SOL     OW26350   5.525   5.757   4.973
 8484SOL    HW126351   5.481   5.744   4.884
 8484SOL    HW226352   5.559   5.669   5.006
 8485SOL     OW26353   3.592   1.871   0.011
 8485SOL    HW126354   3.567   1.928   6.960
 8485SOL    HW226355   3.674   1.817   7.016
 8486SOL     OW26356   5.972   2.154   3.865
 8486SOL    HW126357   5.931   2.162   3.956
 8486SOL    HW226358   6.042   2.082   3.866
 8487SOL     OW26359   6.682   1.959   6.657
 8487SOL    HW126360   6.624   1.906   6.719
 8487SOL    HW226361   6.765   1.906   6.637
 8488SOL     OW26362   4.584   5.250   1.946
 8488SOL    HW126363   4.615   5.306   1.869
 8488SOL    HW226364   4.558   5.310   2.022
 8489SOL     OW26365   6.289   2.409   1.948
 8489SOL    HW126366   6.289   2.341   2.021
 8489SOL    HW226367   6.206   2.465   1.954
 8490SOL     OW26368   3.281   0.333   6.822
 8490SOL    HW126369   3.188   0.338   6.788
 8490SOL    HW226370   3.296   0.406   6.889
 8491SOL     OW26371   2.961   5.640   2.012
 8491SOL    HW126372   3.055   5.674   2.005
 8491SOL    HW226373   2.919   5.641   1.921
 8492SOL     OW26374   6.216   6.456   4.547
 8492SOL    HW126375   6.162   6.404   4.481
 8492SOL    HW226376   6.170   6.455   4.636
 8493SOL     OW26377   5.153   1.387   6.244
 8493SOL    HW126378   5.071   1.419   6.197
 8493SOL    HW226379   5.155   1.424   6.336
 8494SOL     OW26380   6.673   3.488   2.124
 8494SOL    HW126381   6.609   3.480   2.048
 8494SOL    HW226382   6.742   3.415   2.117
 8495SOL     OW26383   6.026   4.946   5.912
 8495SOL    HW126384   5.991   4.992   5.994
 8495SOL    HW226385   6.032   4.847   5.929
 8496SOL     OW26386   5.182   2.450   2.672
 8496SOL    HW126387   5.086   2.429   2.654
 8496SOL    HW226388   5.189   2.531   2.730
 8497SOL     OW26389   6.619   0.359   3.077
 8497SOL    HW126390   6.665   0.427   3.019
 8497SOL    HW226391   6.538   0.326   3.030
 8498SOL     OW26392   4.832   0.029   3.712
 8498SOL    HW126393   4.823   6.959   3.690
 8498SOL    HW226394   4.860   0.079   3.629
 8499SOL     OW26395   5.912   6.790   5.581
 8499SOL    HW126396   5.954   6.751   5.499
 8499SOL    HW226397   5.920   6.890   5.578
 8500SOL     OW26398   0.999   0.702   6.468
 8500SOL    HW126399   1.073   0.706   6.401
 8500SOL    HW226400   0.988   0.791   6.511
 8501SOL     OW26401   1.980   1.434   6.549
 8501SOL    HW126402   2.075   1.457   6.525
 8501SOL    HW226403   1.972   1.335   6.559
 8502SOL     OW26404   0.010   4.066   0.049
 8502SOL    HW126405   6.964   4.070   0.117
 8502SOL    HW226406   0.057   3.978   0.055
 8503SOL     OW26407   4.913   2.028   5.660
 8503SOL    HW126408   4.890   2.112   5.709
 8503SOL    HW226409   4.950   1.961   5.725
 8504SOL     OW26410   1.432   0.329   2.553
 8504SOL    HW126411   1.494   0.317   2.631
 8504SOL    HW226412   1.376   0.248   2.542
 8505SOL     OW26413   5.419   2.923   2.294
 8505SOL    HW126414   5.343   2.875   2.338
 8505SOL    HW226415   5.480   2.856   2.252
 8506SOL     OW26416   1.402   0.392   6.516
 8506SOL    HW126417   1.454   0.477   6.506
 8506SOL    HW226418   1.322   0.409   6.573
 8507SOL     OW26419   2.923   6.170   5.352
 8507SOL    HW126420   2.890   6.219   5.272
 8507SOL    HW226421   2.969   6.233   5.414
 8508SOL     OW26422   2.460   1.317   0.009
 8508SOL    HW126423   2.526   1.390   0.025
 8508SOL    HW226424   2.504   1.228   0.023
 8509SOL     OW26425   5.847   2.109   2.476
 8509SOL    HW126426   5.769   2.060   2.437
 8509SOL    HW226427   5.857   2.085   2.573
 8510SOL     OW26428   0.064   1.461   4.720
 8510SOL    HW126429   7.025   1.527   4.755
 8510SOL    HW226430   0.154   1.505   4.713
 8511SOL     OW26431   5.640   1.829   3.005
 8511SOL    HW126432   5.682   1.803   2.918
 8511SOL    HW226433   5.690   1.907   3.044
 8512SOL     OW26434   2.179   6.560   5.687
 8512SOL    HW126435   2.207   6.571   5.592
 8512SOL    HW226436   2.156   6.464   5.704
 8513SOL     OW26437   5.436   6.006   0.195
 8513SOL    HW126438   5.492   6.080   0.157
 8513SOL    HW226439   5.361   6.046   0.248
 8514SOL     OW26440   3.887   6.360   4.050
 8514SOL    HW126441   3.795   6.378   4.084
 8514SOL    HW226442   3.882   6.318   3.960
 8515SOL     OW26443   5.922   2.252   0.760
 8515SOL    HW126444   5.879   2.275   0.847
 8515SOL    HW226445   6.003   2.196   0.776
 8516SOL     OW26446   6.735   2.015   2.191
 8516SOL    HW126447   6.773   1.982   2.105
 8516SOL    HW226448   6.756   2.113   2.201
 8517SOL     OW26449   1.024   4.071   0.409
 8517SOL    HW126450   0.944   4.011   0.411
 8517SOL    HW226451   1.105   4.020   0.437
 8518SOL     OW26452   2.860   5.749   0.826
 8518SOL    HW126453   2.761   5.740   0.836
 8518SOL    HW226454   2.903   5.660   0.844
 8519SOL     OW26455   2.822   5.798   3.405
 8519SOL    HW126456   2.813   5.894   3.376
 8519SOL    HW226457   2.741   5.771   3.456
 8520SOL     OW26458   3.344   0.099   6.987
 8520SOL    HW126459   3.300   0.183   6.956
 8520SOL    HW226460   3.283   0.022   6.971
 8521SOL     OW26461   1.703   0.391   1.321
 8521SOL    HW126462   1.706   0.387   1.421
 8521SOL    HW226463   1.713   0.299   1.284
 8522SOL     OW26464   2.202   6.280   4.277
 8522SOL    HW126465   2.221   6.183   4.261
 8522SOL    HW226466   2.276   6.320   4.332
 8523SOL     OW26467   0.984   6.601   6.816
 8523SOL    HW126468   0.973   6.579   6.718
 8523SOL    HW226469   0.907   6.657   6.846
 8524SOL     OW26470   1.129   1.617   6.700
 8524SOL    HW126471   1.181   1.569   6.629
 8524SOL    HW226472   1.086   1.550   6.761
 8525SOL     OW26473   5.397   3.825   3.835
 8525SOL    HW126474   5.327   3.874   3.888
 8525SOL    HW226475   5.389   3.850   3.739
 8526SOL     OW26476   1.832   3.332   2.099
 8526SOL    HW126477   1.830   3.245   2.147
 8526SOL    HW226478   1.914   3.338   2.042
 8527SOL     OW26479   4.261   1.082   3.800
 8527SOL    HW126480   4.287   1.170   3.839
 8527SOL    HW226481   4.192   1.039   3.859
 8528SOL     OW26482   5.407   2.320   6.951
 8528SOL    HW126483   5.340   2.360   6.889
 8528SOL    HW226484   5.416   2.222   6.933
 8529SOL     OW26485   6.820   5.371   5.994
 8529SOL    HW126486   6.810   5.319   6.078
 8529SOL    HW226487   6.903   5.427   5.999
 8530SOL     OW26488   1.836   4.791   6.500
 8530SOL    HW126489   1.928   4.755   6.486
 8530SOL    HW226490   1.793   4.743   6.577
 8531SOL     OW26491   4.033   4.759   1.955
 8531SOL    HW126492   3.984   4.746   2.041
 8531SOL    HW226493   4.132   4.751   1.971
 8532SOL     OW26494   1.270   3.881   0.253
 8532SOL    HW126495   1.352   3.915   0.206
 8532SOL    HW226496   1.188   3.921   0.211
 8533SOL     OW26497   4.299   6.484   5.919
 8533SOL    HW126498   4.232   6.411   5.934
 8533SOL    HW226499   4.326   6.485   5.823
 8534SOL     OW26500   1.896   2.792   2.028
 8534SOL    HW126501   1.833   2.720   2.059
 8534SOL    HW226502   1.970   2.751   1.975
 8535SOL     OW26503   6.906   3.495   5.090
 8535SOL    HW126504   6.902   3.397   5.111
 8535SOL    HW226505   6.978   3.538   5.144
 8536SOL     OW26506   6.246   1.750   5.399
 8536SOL    HW126507   6.311   1.706   5.337
 8536SOL    HW226508   6.267   1.724   5.494
 8537SOL     OW26509   5.066   6.577   2.802
 8537SOL    HW126510   5.101   6.615   2.887
 8537SOL    HW226511   5.088   6.639   2.726
 8538SOL     OW26512   5.050   0.879   5.525
 8538SOL    HW126513   5.000   0.803   5.484
 8538SOL    HW226514   4.989   0.931   5.584
 8539SOL     OW26515   0.380   3.248   3.176
 8539SOL    HW126516   0.376   3.156   3.138
 8539SOL    HW226517   0.417   3.311   3.109
 8540SOL     OW26518   3.753   6.601   0.097
 8540SOL    HW126519   3.669   6.645   0.066
 8540SOL    HW226520   3.803   6.566   0.017
 8541SOL     OW26521   3.302   6.160   5.076
 8541SOL    HW126522   3.305   6.109   5.162
 8541SOL    HW226523   3.301   6.258   5.096
 8542SOL     OW26524   0.958   5.079   5.783
 8542SOL    HW126525   0.897   5.012   5.740
 8542SOL    HW226526   0.905   5.157   5.816
 8543SOL     OW26527   2.880   2.760   5.382
 8543SOL    HW126528   2.973   2.779   5.348
 8543SOL    HW226529   2.853   2.668   5.352
 8544SOL     OW26530   5.308   4.603   5.219
 8544SOL    HW126531   5.314   4.599   5.119
 8544SOL    HW226532   5.377   4.665   5.254
 8545SOL     OW26533   1.959   6.818   6.454
 8545SOL    HW126534   2.048   6.820   6.410
 8545SOL    HW226535   1.890   6.786   6.389
 8546SOL     OW26536   4.617   1.590   3.452
 8546SOL    HW126537   4.714   1.568   3.442
 8546SOL    HW226538   4.575   1.594   3.361
 8547SOL     OW26539   5.513   6.355   5.933
 8547SOL    HW126540   5.491   6.409   5.852
 8547SOL    HW226541   5.556   6.269   5.905
 8548SOL     OW26542   0.987   4.531   4.884
 8548SOL    HW126543   0.944   4.553   4.971
 8548SOL    HW226544   0.943   4.450   4.844
 8549SOL     OW26545   1.484   0.229   3.792
 8549SOL    HW126546   1.470   0.306   3.854
 8549SOL    HW226547   1.419   0.234   3.717
 8550SOL     OW26548   6.876   5.107   5.674
 8550SOL    HW126549   6.820   5.066   5.746
 8550SOL    HW226550   6.954   5.155   5.716
 8551SOL     OW26551   3.841   0.412   5.056
 8551SOL    HW126552   3.782   0.419   5.136
 8551SOL    HW226553   3.931   0.377   5.084
 8552SOL     OW26554   3.377   1.552   1.872
 8552SOL    HW126555   3.365   1.498   1.789
 8552SOL    HW226556   3.398   1.492   1.949
 8553SOL     OW26557   4.661   3.722   0.723
 8553SOL    HW126558   4.673   3.661   0.801
 8553SOL    HW226559   4.744   3.776   0.709
 8554SOL     OW26560   1.577   1.118   6.989
 8554SOL    HW126561   1.668   1.097   7.026
 8554SOL    HW226562   1.585   1.134   6.890
 8555SOL     OW26563   4.306   2.106   3.846
 8555SOL    HW126564   4.266   2.160   3.773
 8555SOL    HW226565   4.322   2.164   3.926
 8556SOL     OW26566   0.624   5.741   5.850
 8556SOL    HW126567   0.532   5.704   5.845
 8556SOL    HW226568   0.687   5.684   5.798
 8557SOL     OW26569   6.791   0.667   6.648
 8557SOL    HW126570   6.740   0.627   6.572
 8557SOL    HW226571   6.874   0.613   6.664
 8558SOL     OW26572   2.976   5.648   4.340
 8558SOL    HW126573   2.949   5.581   4.409
 8558SOL    HW226574   3.010   5.599   4.259
 8559SOL     OW26575   1.554   4.001   2.202
 8559SOL    HW126576   1.493   4.046   2.267
 8559SOL    HW226577   1.644   3.988   2.245
 8560SOL     OW26578   3.489   4.352   1.165
 8560SOL    HW126579   3.555   4.280   1.185
 8560SOL    HW226580   3.424   4.321   1.097
 8561SOL     OW26581   3.876   0.444   2.898
 8561SOL    HW126582   3.779   0.462   2.880
 8561SOL    HW226583   3.930   0.523   2.871
 8562SOL     OW26584   5.097   3.048   6.804
 8562SOL    HW126585   5.017   3.105   6.788
 8562SOL    HW226586   5.155   3.091   6.874
 8563SOL     OW26587   2.836   5.111   2.935
 8563SOL    HW126588   2.827   5.193   2.879
 8563SOL    HW226589   2.763   5.046   2.912
 8564SOL     OW26590   4.140   6.779   0.716
 8564SOL    HW126591   4.079   6.801   0.792
 8564SOL    HW226592   4.100   6.705   0.662
 8565SOL     OW26593   1.188   4.650   1.334
 8565SOL    HW126594   1.216   4.713   1.261
 8565SOL    HW226595   1.093   4.622   1.319
 8566SOL     OW26596   3.601   0.485   2.913
 8566SOL    HW126597   3.546   0.464   2.994
 8566SOL    HW226598   3.565   0.434   2.835
 8567SOL     OW26599   1.619   2.335   2.203
 8567SOL    HW126600   1.549   2.337   2.275
 8567SOL    HW226601   1.580   2.295   2.120
 8568SOL     OW26602   5.848   0.804   5.948
 8568SOL    HW126603   5.913   0.729   5.939
 8568SOL    HW226604   5.835   0.847   5.859
 8569SOL     OW26605   5.228   2.134   0.470
 8569SOL    HW126606   5.202   2.177   0.384
 8569SOL    HW226607   5.147   2.100   0.517
 8570SOL     OW26608   2.223   1.971   2.424
 8570SOL    HW126609   2.301   1.990   2.365
 8570SOL    HW226610   2.205   2.052   2.481
 8571SOL     OW26611   2.130   0.712   2.962
 8571SOL    HW126612   2.159   0.718   3.058
 8571SOL    HW226613   2.040   0.754   2.951
 8572SOL     OW26614   2.738   4.018   5.932
 8572SOL    HW126615   2.655   4.006   5.878
 8572SOL    HW226616   2.787   3.931   5.936
 8573SOL     OW26617   2.649   5.932   6.369
 8573SOL    HW126618   2.668   5.847   6.319
 8573SOL    HW226619   2.554   5.959   6.352
 8574SOL     OW26620   4.739   0.892   5.603
 8574SOL    HW126621   4.777   0.809   5.563
 8574SOL    HW226622   4.734   0.964   5.534
 8575SOL     OW26623   3.291   6.198   4.141
 8575SOL    HW126624   3.279   6.133   4.216
 8575SOL    HW226625   3.329   6.150   4.062
 8576SOL     OW26626   1.735   4.703   3.760
 8576SOL    HW126627   1.716   4.634   3.830
 8576SOL    HW226628   1.833   4.722   3.758
 8577SOL     OW26629   1.095   1.058   0.623
 8577SOL    HW126630   1.125   0.990   0.556
 8577SOL    HW226631   1.087   1.148   0.578
 8578SOL     OW26632   1.579   6.964   6.412
 8578SOL    HW126633   1.481   6.981   6.425
 8578SOL    HW226634   1.608   7.002   6.325
 8579SOL     OW26635   3.209   0.053   2.542
 8579SOL    HW126636   3.239   0.093   2.456
 8579SOL    HW226637   3.289   0.034   2.600
 8580SOL     OW26638   1.418   0.487   1.894
 8580SOL    HW126639   1.429   0.451   1.801
 8580SOL    HW226640   1.441   0.584   1.895
 8581SOL     OW26641   3.599   4.279   1.498
 8581SOL    HW126642   3.505   4.304   1.472
 8581SOL    HW226643   3.605   4.180   1.511
 8582SOL     OW26644   4.435   5.304   5.571
 8582SOL    HW126645   4.433   5.377   5.502
 8582SOL    HW226646   4.389   5.335   5.654
 8583SOL     OW26647   3.519   6.838   2.859
 8583SOL    HW126648   3.576   6.773   2.810
 8583SOL    HW226649   3.557   6.930   2.851
 8584SOL     OW26650   6.270   1.699   4.518
 8584SOL    HW126651   6.261   1.745   4.430
 8584SOL    HW226652   6.190   1.640   4.534
 8585SOL     OW26653   5.240   2.750   2.366
 8585SOL    HW126654   5.290   2.671   2.401
 8585SOL    HW226655   5.163   2.719   2.310
 8586SOL     OW26656   6.075   5.906   6.177
 8586SOL    HW126657   6.026   5.832   6.223
 8586SOL    HW226658   6.012   5.958   6.121
 8587SOL     OW26659   0.005   1.639   6.967
 8587SOL    HW126660   0.080   1.704   6.957
 8587SOL    HW226661   0.039   1.556   7.013
 8588SOL     OW26662   2.040   0.801   5.589
 8588SOL    HW126663   2.001   0.709   5.597
 8588SOL    HW226664   2.039   0.830   5.493
 8589SOL     OW26665   5.162   3.124   0.048
 8589SOL    HW126666   5.222   3.158   0.120
 8589SOL    HW226667   5.162   3.024   0.049
 8590SOL     OW26668   0.438   0.998   4.256
 8590SOL    HW126669   0.527   0.954   4.265
 8590SOL    HW226670   0.381   0.974   4.335
 8591SOL     OW26671   6.745   4.665   5.532
 8591SOL    HW126672   6.660   4.615   5.544
 8591SOL    HW226673   6.784   4.645   5.442
 8592SOL     OW26674   0.478   1.932   4.112
 8592SOL    HW126675   0.442   1.997   4.178
 8592SOL    HW226676   0.578   1.928   4.121
 8593SOL     OW26677   5.966   1.473   6.823
 8593SOL    HW126678   5.910   1.555   6.825
 8593SOL    HW226679   5.914   1.397   6.784
 8594SOL     OW26680   6.188   4.028   6.337
 8594SOL    HW126681   6.234   3.943   6.364
 8594SOL    HW226682   6.222   4.103   6.393
 8595SOL     OW26683   5.671   6.457   3.222
 8595SOL    HW126684   5.749   6.507   3.261
 8595SOL    HW226685   5.705   6.383   3.164
 8596SOL     OW26686   1.012   1.428   4.418
 8596SOL    HW126687   0.913   1.436   4.411
 8596SOL    HW226688   1.052   1.430   4.326
 8597SOL     OW26689   6.117   3.071   6.395
 8597SOL    HW126690   6.141   3.151   6.340
 8597SOL    HW226691   6.049   3.016   6.346
 8598SOL     OW26692   6.742   0.418   5.408
 8598SOL    HW126693   6.780   0.454   5.322
 8598SOL    HW226694   6.695   0.332   5.389
 8599SOL     OW26695   6.485   3.613   4.709
 8599SOL    HW126696   6.411   3.611   4.776
 8599SOL    HW226697   6.543   3.533   4.722
 8600SOL     OW26698   4.463   2.490   1.145
 8600SOL    HW126699   4.471   2.421   1.073
 8600SOL    HW226700   4.553   2.507   1.186
 8601SOL     OW26701   6.550   6.114   3.643
 8601SOL    HW126702   6.512   6.188   3.587
 8601SOL    HW226703   6.621   6.150   3.703
 8602SOL     OW26704   1.909   6.601   5.455
 8602SOL    HW126705   1.981   6.532   5.453
 8602SOL    HW226706   1.892   6.628   5.549
 8603SOL     OW26707   0.408   0.441   6.798
 8603SOL    HW126708   0.502   0.466   6.822
 8603SOL    HW226709   0.404   0.342   6.782
 8604SOL     OW26710   1.959   5.052   6.097
 8604SOL    HW126711   1.894   5.035   6.172
 8604SOL    HW226712   1.966   5.150   6.080
 8605SOL     OW26713   0.811   5.449   4.015
 8605SOL    HW126714   0.882   5.519   4.006
 8605SOL    HW226715   0.838   5.367   3.966
 8606SOL     OW26716   1.541   1.803   0.481
 8606SOL    HW126717   1.611   1.755   0.535
 8606SOL    HW226718   1.564   1.798   0.384
 8607SOL     OW26719   2.003   3.744   1.288
 8607SOL    HW126720   2.045   3.654   1.273
 8607SOL    HW226721   2.020   3.802   1.208
 8608SOL     OW26722   1.843   5.983   2.675
 8608SOL    HW126723   1.930   5.944   2.645
 8608SOL    HW226724   1.785   6.001   2.596
 8609SOL     OW26725   4.412   2.007   4.645
 8609SOL    HW126726   4.328   1.971   4.603
 8609SOL    HW226727   4.448   2.082   4.590
 8610SOL     OW26728   0.686   5.968   3.248
 8610SOL    HW126729   0.721   5.909   3.175
 8610SOL    HW226730   0.702   6.064   3.225
 8611SOL     OW26731   2.191   1.487   4.843
 8611SOL    HW126732   2.191   1.388   4.855
 8611SOL    HW226733   2.172   1.510   4.747
 8612SOL     OW26734   3.154   3.057   4.478
 8612SOL    HW126735   3.219   2.985   4.454
 8612SOL    HW226736   3.094   3.025   4.551
 8613SOL     OW26737   4.075   3.143   2.978
 8613SOL    HW126738   4.099   3.066   2.919
 8613SOL    HW226739   3.993   3.122   3.030
 8614SOL     OW26740   0.460   2.341   3.034
 8614SOL    HW126741   0.544   2.300   3.070
 8614SOL    HW226742   0.468   2.353   2.935
 8615SOL     OW26743   3.636   2.234   5.583
 8615SOL    HW126744   3.706   2.186   5.529
 8615SOL    HW226745   3.554   2.247   5.527
 8616SOL     OW26746   5.591   3.940   3.984
 8616SOL    HW126747   5.545   3.951   4.073
 8616SOL    HW226748   5.525   3.909   3.916
 8617SOL     OW26749   2.205   0.264   3.064
 8617SOL    HW126750   2.208   0.185   3.125
 8617SOL    HW226751   2.298   0.294   3.043
 8618SOL     OW26752   5.689   4.085   1.202
 8618SOL    HW126753   5.658   4.048   1.290
 8618SOL    HW226754   5.666   4.020   1.129
 8619SOL     OW26755   5.386   5.737   0.710
 8619SOL    HW126756   5.324   5.672   0.666
 8619SOL    HW226757   5.399   5.816   0.651
 8620SOL     OW26758   2.412   6.940   4.315
 8620SOL    HW126759   2.316   6.915   4.327
 8620SOL    HW226760   2.449   6.972   4.402
 8621SOL     OW26761   5.577   3.595   1.199
 8621SOL    HW126762   5.633   3.631   1.124
 8621SOL    HW226763   5.582   3.657   1.277
 8622SOL     OW26764   0.248   5.239   2.458
 8622SOL    HW126765   0.302   5.321   2.474
 8622SOL    HW226766   0.183   5.256   2.383
 8623SOL     OW26767   1.896   2.703   3.986
 8623SOL    HW126768   1.952   2.630   4.024
 8623SOL    HW226769   1.916   2.789   4.033
 8624SOL     OW26770   3.515   3.719   4.930
 8624SOL    HW126771   3.557   3.654   4.993
 8624SOL    HW226772   3.506   3.678   4.839
 8625SOL     OW26773   3.761   3.009   5.558
 8625SOL    HW126774   3.849   2.977   5.594
 8625SOL    HW226775   3.693   3.008   5.632
 8626SOL     OW26776   4.082   2.323   1.586
 8626SOL    HW126777   4.104   2.382   1.509
 8626SOL    HW226778   3.985   2.328   1.606
 8627SOL     OW26779   2.052   1.200   2.529
 8627SOL    HW126780   2.059   1.101   2.527
 8627SOL    HW226781   1.957   1.227   2.509
 8628SOL     OW26782   0.853   6.510   0.808
 8628SOL    HW126783   0.928   6.575   0.821
 8628SOL    HW226784   0.775   6.538   0.864
 8629SOL     OW26785   0.602   6.500   4.814
 8629SOL    HW126786   0.647   6.466   4.897
 8629SOL    HW226787   0.548   6.428   4.772
 8630SOL     OW26788   4.962   2.641   2.295
 8630SOL    HW126789   4.932   2.573   2.362
 8630SOL    HW226790   4.886   2.700   2.271
 8631SOL     OW26791   2.458   5.676   6.475
 8631SOL    HW126792   2.495   5.585   6.494
 8631SOL    HW226793   2.481   5.738   6.551
 8632SOL     OW26794   5.641   6.038   4.289
 8632SOL    HW126795   5.736   6.012   4.307
 8632SOL    HW226796   5.592   6.047   4.376
 8633SOL     OW26797   5.772   3.624   4.786
 8633SOL    HW126798   5.781   3.625   4.886
 8633SOL    HW226799   5.818   3.544   4.749
 8634SOL     OW26800   5.084   4.160   0.196
 8634SOL    HW126801   5.008   4.225   0.192
 8634SOL    HW226802   5.053   4.076   0.241
 8635SOL     OW26803   5.240   2.428   6.743
 8635SOL    HW126804   5.221   2.330   6.748
 8635SOL    HW226805   5.224   2.461   6.650
 8636SOL     OW26806   4.726   6.534   1.551
 8636SOL    HW126807   4.676   6.598   1.610
 8636SOL    HW226808   4.772   6.585   1.478
 8637SOL     OW26809   2.075   1.992   5.900
 8637SOL    HW126810   2.047   1.905   5.859
 8637SOL    HW226811   2.117   1.975   5.990
 8638SOL     OW26812   4.697   2.853   3.530
 8638SOL    HW126813   4.747   2.837   3.445
 8638SOL    HW226814   4.717   2.946   3.564
 8639SOL     OW26815   3.558   3.707   0.012
 8639SOL    HW126816   3.597   3.676   6.953
 8639SOL    HW226817   3.539   3.805   0.008
 8640SOL     OW26818   3.064   2.664   0.870
 8640SOL    HW126819   3.130   2.604   0.916
 8640SOL    HW226820   3.079   2.659   0.771
 8641SOL     OW26821   3.958   4.863   2.415
 8641SOL    HW126822   3.897   4.929   2.458
 8641SOL    HW226823   3.936   4.858   2.317
 8642SOL     OW26824   1.076   5.822   2.814
 8642SOL    HW126825   1.033   5.754   2.754
 8642SOL    HW226826   1.053   5.914   2.782
 8643SOL     OW26827   4.119   7.005   1.035
 8643SOL    HW126828   4.088   0.028   0.954
 8643SOL    HW226829   4.090   0.027   1.118
 8644SOL     OW26830   6.474   2.414   6.316
 8644SOL    HW126831   6.434   2.362   6.392
 8644SOL    HW226832   6.476   2.511   6.340
 8645SOL     OW26833   6.240   5.916   3.242
 8645SOL    HW126834   6.334   5.943   3.224
 8645SOL    HW226835   6.213   5.843   3.180
 8646SOL     OW26836   6.830   2.655   5.228
 8646SOL    HW126837   6.895   2.715   5.181
 8646SOL    HW226838   6.878   2.578   5.268
 8647SOL     OW26839   2.219   5.527   1.834
 8647SOL    HW126840   2.260   5.438   1.813
 8647SOL    HW226841   2.138   5.541   1.777
 8648SOL     OW26842   5.201   5.363   0.254
 8648SOL    HW126843   5.160   5.287   0.203
 8648SOL    HW226844   5.257   5.326   0.328
 8649SOL     OW26845   5.268   1.576   0.924
 8649SOL    HW126846   5.220   1.492   0.900
 8649SOL    HW226847   5.213   1.655   0.894
 8650SOL     OW26848   1.933   0.215   5.608
 8650SOL    HW126849   1.875   0.152   5.658
 8650SOL    HW226850   1.997   0.260   5.671
 8651SOL     OW26851   4.104   2.627   1.621
 8651SOL    HW126852   4.090   2.573   1.538
 8651SOL    HW226853   4.158   2.574   1.687
 8652SOL     OW26854   0.832   2.459   3.074
 8652SOL    HW126855   0.804   2.457   3.170
 8652SOL    HW226856   0.838   2.365   3.038
 8653SOL     OW26857   5.917   1.749   6.237
 8653SOL    HW126858   5.919   1.660   6.193
 8653SOL    HW226859   5.823   1.775   6.256
 8654SOL     OW26860   0.531   4.292   2.596
 8654SOL    HW126861   0.611   4.296   2.655
 8654SOL    HW226862   0.518   4.198   2.564
 8655SOL     OW26863   0.846   0.353   4.711
 8655SOL    HW126864   0.802   0.442   4.704
 8655SOL    HW226865   0.821   0.297   4.632
 8656SOL     OW26866   5.760   6.667   1.409
 8656SOL    HW126867   5.844   6.628   1.371
 8656SOL    HW226868   5.694   6.683   1.336
 8657SOL     OW26869   3.329   2.067   3.446
 8657SOL    HW126870   3.240   2.090   3.486
 8657SOL    HW226871   3.317   1.994   3.378
 8658SOL     OW26872   5.463   4.708   1.683
 8658SOL    HW126873   5.482   4.653   1.601
 8658SOL    HW226874   5.541   4.767   1.702
 8659SOL     OW26875   3.591   0.725   2.300
 8659SOL    HW126876   3.665   0.712   2.235
 8659SOL    HW226877   3.556   0.818   2.293
 8660SOL     OW26878   0.403   5.044   1.894
 8660SOL    HW126879   0.426   5.128   1.943
 8660SOL    HW226880   0.334   5.065   1.824
 8661SOL     OW26881   0.029   3.757   2.361
 8661SOL    HW126882   0.088   3.700   2.303
 8661SOL    HW226883   6.983   3.796   2.305
 8662SOL     OW26884   1.766   2.790   2.909
 8662SOL    HW126885   1.826   2.780   2.830
 8662SOL    HW226886   1.677   2.750   2.889
 8663SOL     OW26887   3.750   4.854   2.663
 8663SOL    HW126888   3.686   4.851   2.587
 8663SOL    HW226889   3.826   4.792   2.646
 8664SOL     OW26890   4.164   6.436   3.435
 8664SOL    HW126891   4.163   6.481   3.345
 8664SOL    HW226892   4.195   6.502   3.504
 8665SOL     OW26893   4.598   3.961   6.779
 8665SOL    HW126894   4.604   4.043   6.835
 8665SOL    HW226895   4.670   3.963   6.709
 8666SOL     OW26896   4.364   6.826   2.866
 8666SOL    HW126897   4.378   6.740   2.915
 8666SOL    HW226898   4.447   6.881   2.869
 8667SOL     OW26899   5.574   2.279   2.585
 8667SOL    HW126900   5.512   2.283   2.664
 8667SOL    HW226901   5.602   2.184   2.570
 8668SOL     OW26902   4.737   2.444   4.905
 8668SOL    HW126903   4.714   2.368   4.966
 8668SOL    HW226904   4.737   2.412   4.810
 8669SOL     OW26905   6.125   6.510   5.914
 8669SOL    HW126906   6.131   6.496   5.815
 8669SOL    HW226907   6.052   6.576   5.934
 8670SOL     OW26908   6.328   4.974   5.622
 8670SOL    HW126909   6.314   4.918   5.704
 8670SOL    HW226910   6.425   4.996   5.612
 8671SOL     OW26911   0.121   3.356   2.835
 8671SOL    HW126912   0.056   3.322   2.767
 8671SOL    HW226913   0.119   3.297   2.916
 8672SOL     OW26914   0.038   1.379   2.555
 8672SOL    HW126915   0.087   1.445   2.499
 8672SOL    HW226916   6.977   1.357   2.512
 8673SOL     OW26917   1.047   1.780   0.997
 8673SOL    HW126918   1.108   1.844   1.044
 8673SOL    HW226919   0.955   1.786   1.037
 8674SOL     OW26920   6.908   3.952   3.039
 8674SOL    HW126921   6.893   3.972   2.942
 8674SOL    HW226922   7.002   3.975   3.063
 8675SOL     OW26923   4.169   2.224   4.836
 8675SOL    HW126924   4.254   2.181   4.868
 8675SOL    HW226925   4.133   2.284   4.907
 8676SOL     OW26926   5.170   1.974   0.709
 8676SOL    HW126927   5.138   2.056   0.756
 8676SOL    HW226928   5.266   1.959   0.730
 8677SOL     OW26929   2.284   0.077   6.466
 8677SOL    HW126930   2.343   0.016   6.413
 8677SOL    HW226931   2.255   0.153   6.408
 8678SOL     OW26932   2.551   2.459   0.138
 8678SOL    HW126933   2.517   2.533   0.195
 8678SOL    HW226934   2.585   2.496   0.052
 8679SOL     OW26935   1.397   1.734   6.018
 8679SOL    HW126936   1.481   1.736   5.964
 8679SOL    HW226937   1.383   1.642   6.053
 8680SOL     OW26938   6.914   0.389   0.444
 8680SOL    HW126939   6.938   0.351   0.533
 8680SOL    HW226940   6.994   0.437   0.406
 8681SOL     OW26941   4.798   5.237   1.037
 8681SOL    HW126942   4.885   5.281   1.014
 8681SOL    HW226943   4.815   5.163   1.103
 8682SOL     OW26944   2.109   0.653   2.131
 8682SOL    HW126945   2.153   0.563   2.126
 8682SOL    HW226946   2.160   0.711   2.194
 8683SOL     OW26947   2.460   4.388   4.174
 8683SOL    HW126948   2.450   4.293   4.203
 8683SOL    HW226949   2.409   4.404   4.090
 8684SOL     OW26950   2.300   4.289   3.700
 8684SOL    HW126951   2.255   4.227   3.764
 8684SOL    HW226952   2.360   4.237   3.640
 8685SOL     OW26953   4.902   2.820   4.397
 8685SOL    HW126954   4.853   2.852   4.478
 8685SOL    HW226955   4.966   2.748   4.423
 8686SOL     OW26956   1.396   5.340   3.411
 8686SOL    HW126957   1.385   5.275   3.336
 8686SOL    HW226958   1.477   5.397   3.395
 8687SOL     OW26959   5.776   4.564   4.877
 8687SOL    HW126960   5.694   4.507   4.879
 8687SOL    HW226961   5.781   4.610   4.788
 8688SOL     OW26962   1.569   4.045   4.961
 8688SOL    HW126963   1.650   4.085   5.006
 8688SOL    HW226964   1.592   4.019   4.867
 8689SOL     OW26965   4.189   3.152   0.736
 8689SOL    HW126966   4.236   3.110   0.659
 8689SOL    HW226967   4.148   3.239   0.707
 8690SOL     OW26968   1.580   1.718   2.369
 8690SOL    HW126969   1.494   1.730   2.318
 8690SOL    HW226970   1.648   1.676   2.309
 8691SOL     OW26971   3.518   2.431   5.881
 8691SOL    HW126972   3.603   2.420   5.830
 8691SOL    HW226973   3.489   2.526   5.878
 8692SOL     OW26974   4.762   2.863   4.175
 8692SOL    HW126975   4.814   2.861   4.260
 8692SOL    HW226976   4.803   2.929   4.112
 8693SOL     OW26977   6.395   6.997   5.388
 8693SOL    HW126978   6.385   6.916   5.331
 8693SOL    HW226979   6.359   6.979   5.480
 8694SOL     OW26980   5.226   2.596   5.537
 8694SOL    HW126981   5.247   2.635   5.447
 8694SOL    HW226982   5.135   2.626   5.566
 8695SOL     OW26983   3.324   5.277   1.114
 8695SOL    HW126984   3.353   5.289   1.019
 8695SOL    HW226985   3.405   5.270   1.173
 8696SOL     OW26986   2.461   5.199   5.562
 8696SOL    HW126987   2.557   5.180   5.541
 8696SOL    HW226988   2.434   5.146   5.643
 8697SOL     OW26989   1.246   3.942   5.323
 8697SOL    HW126990   1.279   4.010   5.389
 8697SOL    HW226991   1.222   3.988   5.237
 8698SOL     OW26992   4.475   5.120   6.529
 8698SOL    HW126993   4.395   5.155   6.579
 8698SOL    HW226994   4.445   5.059   6.456
 8699SOL     OW26995   1.859   2.470   0.112
 8699SOL    HW126996   1.867   2.494   0.209
 8699SOL    HW226997   1.827   2.376   0.104
 8700SOL     OW26998   1.220   1.170   4.387
 8700SOL    HW126999   1.171   1.196   4.470
 8700SOL    HW227000   1.291   1.103   4.408
 8701SOL     OW27001   1.253   3.195   6.855
 8701SOL    HW127002   1.178   3.143   6.813
 8701SOL    HW227003   1.269   3.162   6.948
 8702SOL     OW27004   5.656   4.832   1.236
 8702SOL    HW127005   5.664   4.813   1.334
 8702SOL    HW227006   5.746   4.820   1.193
 8703SOL     OW27007   2.776   5.866   1.484
 8703SOL    HW127008   2.728   5.781   1.462
 8703SOL    HW227009   2.766   5.931   1.408
 8704SOL     OW27010   0.301   1.074   5.094
 8704SOL    HW127011   0.393   1.103   5.120
 8704SOL    HW227012   0.267   1.009   5.162
 8705SOL     OW27013   3.680   2.303   6.843
 8705SOL    HW127014   3.589   2.321   6.882
 8705SOL    HW227015   3.746   2.290   6.917
 8706SOL     OW27016   4.782   2.626   6.665
 8706SOL    HW127017   4.873   2.657   6.692
 8706SOL    HW227018   4.788   2.535   6.625
 8707SOL     OW27019   1.921   0.844   4.296
 8707SOL    HW127020   1.948   0.813   4.205
 8707SOL    HW227021   1.934   0.769   4.361
 8708SOL     OW27022   6.283   2.426   0.706
 8708SOL    HW127023   6.315   2.337   0.737
 8708SOL    HW227024   6.302   2.495   0.775
 8709SOL     OW27025   6.205   6.492   4.836
 8709SOL    HW127026   6.244   6.584   4.842
 8709SOL    HW227027   6.202   6.451   4.927
 8710SOL     OW27028   1.851   1.868   3.249
 8710SOL    HW127029   1.777   1.928   3.218
 8710SOL    HW227030   1.905   1.916   3.318
 8711SOL     OW27031   1.455   1.320   1.396
 8711SOL    HW127032   1.399   1.350   1.319
 8711SOL    HW227033   1.396   1.290   1.471
 8712SOL     OW27034   1.387   4.156   4.621
 8712SOL    HW127035   1.397   4.174   4.523
 8712SOL    HW227036   1.438   4.225   4.673
 8713SOL     OW27037   0.344   2.992   1.651
 8713SOL    HW127038   0.336   3.091   1.668
 8713SOL    HW227039   0.413   2.954   1.712
 8714SOL     OW27040   6.483   4.201   6.696
 8714SOL    HW127041   6.400   4.219   6.643
 8714SOL    HW227042   6.461   4.200   6.793
 8715SOL     OW27043   2.330   4.498   1.513
 8715SOL    HW127044   2.268   4.437   1.462
 8715SOL    HW227045   2.282   4.535   1.593
 8716SOL     OW27046   6.946   0.430   2.448
 8716SOL    HW127047   6.894   0.496   2.394
 8716SOL    HW227048   6.953   0.463   2.542
 8717SOL     OW27049   2.789   2.914   0.220
 8717SOL    HW127050   2.877   2.928   0.173
 8717SOL    HW227051   2.715   2.934   0.156
 8718SOL     OW27052   2.846   5.421   6.726
 8718SOL    HW127053   2.867   5.387   6.635
 8718SOL    HW227054   2.777   5.363   6.769
 8719SOL     OW27055   3.705   1.326   4.946
 8719SOL    HW127056   3.754   1.239   4.939
 8719SOL    HW227057   3.679   1.341   5.041
 8720SOL     OW27058   0.976   5.503   4.857
 8720SOL    HW127059   1.040   5.529   4.929
 8720SOL    HW227060   0.970   5.577   4.790
 8721SOL     OW27061   0.149   6.638   0.011
 8721SOL    HW127062   0.095   6.697   6.978
 8721SOL    HW227063   0.183   6.559   6.986
 8722SOL     OW27064   3.276   0.912   1.045
 8722SOL    HW127065   3.340   0.918   1.122
 8722SOL    HW227066   3.256   1.005   1.012
 8723SOL     OW27067   4.323   0.083   1.737
 8723SOL    HW127068   4.417   0.058   1.761
 8723SOL    HW227069   4.291   0.156   1.797
 8724SOL     OW27070   3.835   1.517   5.236
 8724SOL    HW127071   3.838   1.443   5.304
 8724SOL    HW227072   3.828   1.605   5.283
 8725SOL     OW27073   0.111   0.280   3.462
 8725SOL    HW127074   0.012   0.289   3.450
 8725SOL    HW227075   0.130   0.205   3.526
 8726SOL     OW27076   6.382   1.103   1.162
 8726SOL    HW127077   6.423   1.063   1.244
 8726SOL    HW227078   6.405   1.046   1.083
 8727SOL     OW27079   5.160   5.794   0.355
 8727SOL    HW127080   5.102   5.720   0.320
 8727SOL    HW227081   5.253   5.759   0.370
 8728SOL     OW27082   6.564   0.267   4.904
 8728SOL    HW127083   6.552   0.324   4.986
 8728SOL    HW227084   6.478   0.219   4.884
 8729SOL     OW27085   5.775   5.773   6.287
 8729SOL    HW127086   5.802   5.860   6.327
 8729SOL    HW227087   5.779   5.701   6.356
 8730SOL     OW27088   4.420   5.070   1.625
 8730SOL    HW127089   4.491   5.082   1.556
 8730SOL    HW227090   4.330   5.078   1.583
 8731SOL     OW27091   0.081   1.514   4.032
 8731SOL    HW127092   7.012   1.519   4.059
 8731SOL    HW227093   0.092   1.444   3.961
 8732SOL     OW27094   5.053   6.695   6.535
 8732SOL    HW127095   5.052   6.635   6.615
 8732SOL    HW227096   5.003   6.779   6.556
 8733SOL     OW27097   6.429   4.617   2.555
 8733SOL    HW127098   6.354   4.575   2.605
 8733SOL    HW227099   6.494   4.546   2.527
 8734SOL     OW27100   0.811   4.369   1.084
 8734SOL    HW127101   0.745   4.312   1.133
 8734SOL    HW227102   0.873   4.310   1.032
 8735SOL     OW27103   0.654   3.146   5.322
 8735SOL    HW127104   0.686   3.212   5.254
 8735SOL    HW227105   0.585   3.189   5.380
 8736SOL     OW27106   1.665   5.940   3.084
 8736SOL    HW127107   1.670   5.918   3.181
 8736SOL    HW227108   1.694   6.035   3.069
 8737SOL     OW27109   0.828   5.924   0.128
 8737SOL    HW127110   0.762   5.967   0.065
 8737SOL    HW227111   0.844   5.830   0.100
 8738SOL     OW27112   1.644   2.741   2.592
 8738SOL    HW127113   1.634   2.678   2.670
 8738SOL    HW227114   1.739   2.770   2.585
 8739SOL     OW27115   6.035   5.038   4.015
 8739SOL    HW127116   6.021   5.023   3.917
 8739SOL    HW227117   5.950   5.073   4.055
 8740SOL     OW27118   3.430   1.408   3.792
 8740SOL    HW127119   3.520   1.429   3.755
 8740SOL    HW227120   3.362   1.412   3.718
 8741SOL     OW27121   1.179   1.495   2.726
 8741SOL    HW127122   1.257   1.471   2.668
 8741SOL    HW227123   1.168   1.595   2.727
 8742SOL     OW27124   2.642   2.400   1.912
 8742SOL    HW127125   2.735   2.407   1.878
 8742SOL    HW227126   2.643   2.362   2.004
 8743SOL     OW27127   0.890   2.763   1.142
 8743SOL    HW127128   0.871   2.756   1.240
 8743SOL    HW227129   0.944   2.846   1.125
 8744SOL     OW27130   3.630   3.966   5.802
 8744SOL    HW127131   3.682   3.944   5.885
 8744SOL    HW227132   3.692   3.975   5.725
 8745SOL     OW27133   5.958   1.428   6.252
 8745SOL    HW127134   5.885   1.448   6.318
 8745SOL    HW227135   6.045   1.418   6.300
 8746SOL     OW27136   4.188   4.695   5.373
 8746SOL    HW127137   4.117   4.762   5.352
 8746SOL    HW227138   4.147   4.616   5.419
 8747SOL     OW27139   1.565   0.410   3.136
 8747SOL    HW127140   1.616   0.478   3.188
 8747SOL    HW227141   1.517   0.348   3.199
 8748SOL     OW27142   5.237   1.955   4.364
 8748SOL    HW127143   5.326   1.999   4.355
 8748SOL    HW227144   5.241   1.884   4.435
 8749SOL     OW27145   3.077   1.103   4.453
 8749SOL    HW127146   3.085   1.018   4.402
 8749SOL    HW227147   3.116   1.178   4.400
 8750SOL     OW27148   4.138   4.173   0.893
 8750SOL    HW127149   4.089   4.209   0.814
 8750SOL    HW227150   4.231   4.148   0.867
 8751SOL     OW27151   2.695   0.143   0.146
 8751SOL    HW127152   2.760   0.175   0.077
 8751SOL    HW227153   2.636   0.072   0.106
 8752SOL     OW27154   6.727   2.712   5.511
 8752SOL    HW127155   6.784   2.715   5.593
 8752SOL    HW227156   6.777   2.667   5.437
 8753SOL     OW27157   2.423   2.316   0.627
 8753SOL    HW127158   2.337   2.352   0.591
 8753SOL    HW227159   2.404   2.262   0.709
 8754SOL     OW27160   0.954   5.803   6.751
 8754SOL    HW127161   0.980   5.774   6.843
 8754SOL    HW227162   1.002   5.747   6.683
 8755SOL     OW27163   0.846   2.802   1.789
 8755SOL    HW127164   0.808   2.797   1.882
 8755SOL    HW227165   0.921   2.869   1.787
 8756SOL     OW27166   1.691   1.663   2.111
 8756SOL    HW127167   1.791   1.659   2.116
 8756SOL    HW227168   1.655   1.572   2.091
 8757SOL     OW27169   5.539   6.291   5.554
 8757SOL    HW127170   5.515   6.367   5.614
 8757SOL    HW227171   5.617   6.317   5.498
 8758SOL     OW27172   3.629   5.720   5.544
 8758SOL    HW127173   3.578   5.638   5.571
 8758SOL    HW227174   3.716   5.693   5.503
 8759SOL     OW27175   6.091   1.451   1.597
 8759SOL    HW127176   6.153   1.389   1.549
 8759SOL    HW227177   6.075   1.533   1.542
 8760SOL     OW27178   2.493   2.402   4.003
 8760SOL    HW127179   2.456   2.308   4.001
 8760SOL    HW227180   2.463   2.447   4.087
 8761SOL     OW27181   4.762   2.027   2.817
 8761SOL    HW127182   4.754   2.108   2.759
 8761SOL    HW227183   4.734   1.946   2.766
 8762SOL     OW27184   3.736   5.939   3.483
 8762SOL    HW127185   3.808   6.007   3.496
 8762SOL    HW227186   3.776   5.852   3.454
 8763SOL     OW27187   0.152   0.758   6.364
 8763SOL    HW127188   0.139   0.659   6.360
 8763SOL    HW227189   0.089   0.798   6.431
 8764SOL     OW27190   3.557   4.940   5.873
 8764SOL    HW127191   3.573   4.910   5.968
 8764SOL    HW227192   3.534   4.860   5.817
 8765SOL     OW27193   4.231   6.821   3.680
 8765SOL    HW127194   4.319   6.847   3.719
 8765SOL    HW227195   4.159   6.877   3.721
 8766SOL     OW27196   4.979   0.017   5.152
 8766SOL    HW127197   5.019   6.953   5.149
 8766SOL    HW227198   5.012   0.065   5.234
 8767SOL     OW27199   1.517   1.734   3.598
 8767SOL    HW127200   1.493   1.675   3.521
 8767SOL    HW227201   1.614   1.720   3.621
 8768SOL     OW27202   0.096   2.036   6.881
 8768SOL    HW127203   0.012   2.066   6.925
 8768SOL    HW227204   0.126   2.103   6.814
 8769SOL     OW27205   6.089   0.050   6.324
 8769SOL    HW127206   6.074   0.145   6.350
 8769SOL    HW227207   6.020   7.019   6.368
 8770SOL     OW27208   5.233   2.198   0.198
 8770SOL    HW127209   5.241   2.278   0.139
 8770SOL    HW227210   5.324   2.160   0.214
 8771SOL     OW27211   0.566   2.932   6.462
 8771SOL    HW127212   0.606   3.018   6.496
 8771SOL    HW227213   0.591   2.857   6.523
 8772SOL     OW27214   0.209   0.331   4.319
 8772SOL    HW127215   0.180   0.350   4.225
 8772SOL    HW227216   0.188   0.410   4.376
 8773SOL     OW27217   0.013   1.116   4.047
 8773SOL    HW127218   0.105   1.139   4.014
 8773SOL    HW227219   0.001   1.152   4.139
 8774SOL     OW27220   1.047   1.743   0.061
 8774SOL    HW127221   1.047   1.666   0.125
 8774SOL    HW227222   1.136   1.750   0.017
 8775SOL     OW27223   5.020   2.570   3.225
 8775SOL    HW127224   4.987   2.559   3.131
 8775SOL    HW227225   5.089   2.500   3.244
 8776SOL     OW27226   4.688   2.793   0.990
 8776SOL    HW127227   4.593   2.822   0.998
 8776SOL    HW227228   4.746   2.873   0.973
 8777SOL     OW27229   0.108   1.997   3.819
 8777SOL    HW127230   0.071   2.069   3.760
 8777SOL    HW227231   0.144   1.923   3.762
 8778SOL     OW27232   2.978   3.971   6.574
 8778SOL    HW127233   3.075   3.961   6.596
 8778SOL    HW227234   2.967   3.974   6.474
 8779SOL     OW27235   4.051   5.076   2.951
 8779SOL    HW127236   4.052   4.992   2.895
 8779SOL    HW227237   4.084   5.152   2.896
 8780SOL     OW27238   1.082   3.785   3.699
 8780SOL    HW127239   1.015   3.788   3.773
 8780SOL    HW227240   1.141   3.866   3.703
 8781SOL     OW27241   2.426   0.672   1.086
 8781SOL    HW127242   2.449   0.661   1.182
 8781SOL    HW227243   2.433   0.768   1.060
 8782SOL     OW27244   6.018   2.503   0.680
 8782SOL    HW127245   6.118   2.498   0.681
 8782SOL    HW227246   5.980   2.417   0.714
 8783SOL     OW27247   4.928   4.288   4.842
 8783SOL    HW127248   4.878   4.201   4.844
 8783SOL    HW227249   4.864   4.363   4.826
 8784SOL     OW27250   4.398   0.729   0.070
 8784SOL    HW127251   4.468   0.658   0.074
 8784SOL    HW227252   4.434   0.808   0.019
 8785SOL     OW27253   0.223   5.584   4.986
 8785SOL    HW127254   0.271   5.659   5.031
 8785SOL    HW227255   0.256   5.497   5.022
 8786SOL     OW27256   5.740   1.838   2.743
 8786SOL    HW127257   5.822   1.895   2.740
 8786SOL    HW227258   5.766   1.742   2.731
 8787SOL     OW27259   3.298   5.964   1.510
 8787SOL    HW127260   3.391   5.928   1.521
 8787SOL    HW227261   3.300   6.045   1.452
 8788SOL     OW27262   0.383   6.586   4.337
 8788SOL    HW127263   0.469   6.538   4.323
 8788SOL    HW227264   0.322   6.530   4.394
 8789SOL     OW27265   1.412   2.219   5.695
 8789SOL    HW127266   1.323   2.202   5.737
 8789SOL    HW227267   1.458   2.132   5.677
 8790SOL     OW27268   4.524   3.084   5.317
 8790SOL    HW127269   4.429   3.092   5.289
 8790SOL    HW227270   4.556   3.173   5.350
 8791SOL     OW27271   3.918   6.507   4.471
 8791SOL    HW127272   3.959   6.498   4.381
 8791SOL    HW227273   3.874   6.596   4.480
 8792SOL     OW27274   5.495   5.078   2.283
 8792SOL    HW127275   5.521   5.048   2.192
 8792SOL    HW227276   5.412   5.133   2.278
 8793SOL     OW27277   6.978   6.193   5.350
 8793SOL    HW127278   6.948   6.109   5.395
 8793SOL    HW227279   6.989   6.176   5.252
 8794SOL     OW27280   6.932   1.459   2.834
 8794SOL    HW127281   6.838   1.490   2.849
 8794SOL    HW227282   6.972   1.509   2.757
 8795SOL     OW27283   0.718   6.489   0.068
 8795SOL    HW127284   0.770   6.418   0.020
 8795SOL    HW227285   0.780   6.558   0.104
 8796SOL     OW27286   5.984   3.807   4.507
 8796SOL    HW127287   6.067   3.773   4.552
 8796SOL    HW227288   6.007   3.840   4.415
 8797SOL     OW27289   4.590   6.952   4.104
 8797SOL    HW127290   4.671   6.978   4.156
 8797SOL    HW227291   4.520   6.916   4.165
 8798SOL     OW27292   2.687   6.222   5.589
 8798SOL    HW127293   2.705   6.303   5.533
 8798SOL    HW227294   2.693   6.140   5.532
 8799SOL     OW27295   1.442   5.673   1.685
 8799SOL    HW127296   1.388   5.593   1.662
 8799SOL    HW227297   1.383   5.753   1.694
 8800SOL     OW27298   6.014   6.221   4.686
 8800SOL    HW127299   5.947   6.233   4.760
 8800SOL    HW227300   6.098   6.183   4.723
 8801SOL     OW27301   5.700   3.314   5.745
 8801SOL    HW127302   5.724   3.223   5.711
 8801SOL    HW227303   5.674   3.373   5.668
 8802SOL     OW27304   1.737   5.722   6.144
 8802SOL    HW127305   1.710   5.644   6.202
 8802SOL    HW227306   1.723   5.699   6.048
 8803SOL     OW27307   5.949   6.130   5.713
 8803SOL    HW127308   5.967   6.035   5.738
 8803SOL    HW227309   5.952   6.187   5.795
 8804SOL     OW27310   1.342   6.124   2.098
 8804SOL    HW127311   1.350   6.114   1.999
 8804SOL    HW227312   1.288   6.049   2.136
 8805SOL     OW27313   5.150   4.849   3.541
 8805SOL    HW127314   5.160   4.865   3.443
 8805SOL    HW227315   5.054   4.828   3.562
 8806SOL     OW27316   1.207   0.247   1.805
 8806SOL    HW127317   1.139   0.319   1.813
 8806SOL    HW227318   1.292   0.285   1.766
 8807SOL     OW27319   5.860   2.965   0.639
 8807SOL    HW127320   5.856   2.988   0.736
 8807SOL    HW227321   5.833   2.869   0.626
 8808SOL     OW27322   1.924   2.377   6.253
 8808SOL    HW127323   1.905   2.301   6.192
 8808SOL    HW227324   2.017   2.368   6.290
 8809SOL     OW27325   0.014   3.568   3.213
 8809SOL    HW127326   0.101   3.593   3.256
 8809SOL    HW227327   6.972   3.554   3.284
 8810SOL     OW27328   0.422   1.708   5.099
 8810SOL    HW127329   0.372   1.750   5.025
 8810SOL    HW227330   0.479   1.777   5.145
 8811SOL     OW27331   4.162   4.689   2.516
 8811SOL    HW127332   4.089   4.748   2.481
 8811SOL    HW227333   4.232   4.679   2.445
 8812SOL     OW27334   4.957   1.034   6.847
 8812SOL    HW127335   4.988   1.090   6.770
 8812SOL    HW227336   5.029   0.969   6.873
 8813SOL     OW27337   2.160   3.279   2.960
 8813SOL    HW127338   2.155   3.378   2.968
 8813SOL    HW227339   2.080   3.245   2.909
 8814SOL     OW27340   5.054   0.332   5.107
 8814SOL    HW127341   5.120   0.376   5.045
 8814SOL    HW227342   5.100   0.258   5.156
 8815SOL     OW27343   5.565   0.991   1.335
 8815SOL    HW127344   5.505   1.062   1.298
 8815SOL    HW227345   5.633   1.033   1.395
 8816SOL     OW27346   1.159   6.631   4.359
 8816SOL    HW127347   1.107   6.595   4.436
 8816SOL    HW227348   1.156   6.566   4.283
 8817SOL     OW27349   1.296   2.632   2.949
 8817SOL    HW127350   1.301   2.729   2.927
 8817SOL    HW227351   1.237   2.618   3.028
 8818SOL     OW27352   0.952   6.647   6.012
 8818SOL    HW127353   0.931   6.568   6.069
 8818SOL    HW227354   1.050   6.652   5.996
 8819SOL     OW27355   4.366   5.619   6.317
 8819SOL    HW127356   4.465   5.634   6.312
 8819SOL    HW227357   4.342   5.584   6.408
 8820SOL     OW27358   4.427   6.967   5.480
 8820SOL    HW127359   4.408   6.954   5.577
 8820SOL    HW227360   4.522   6.996   5.468
 8821SOL     OW27361   0.431   4.637   6.194
 8821SOL    HW127362   0.364   4.611   6.125
 8821SOL    HW227363   0.523   4.633   6.154
 8822SOL     OW27364   6.174   0.433   4.972
 8822SOL    HW127365   6.134   0.447   5.062
 8822SOL    HW227366   6.143   0.346   4.935
 8823SOL     OW27367   3.787   1.739   2.868
 8823SOL    HW127368   3.709   1.797   2.842
 8823SOL    HW227369   3.872   1.789   2.854
 8824SOL     OW27370   1.857   6.843   3.275
 8824SOL    HW127371   1.917   6.876   3.348
 8824SOL    HW227372   1.825   6.920   3.220
 8825SOL     OW27373   0.281   0.114   0.604
 8825SOL    HW127374   0.363   0.110   0.546
 8825SOL    HW227375   0.309   0.124   0.699
 8826SOL     OW27376   0.212   4.771   1.266
 8826SOL    HW127377   0.155   4.757   1.185
 8826SOL    HW227378   0.291   4.709   1.264
 8827SOL     OW27379   4.385   6.872   3.202
 8827SOL    HW127380   4.356   6.957   3.158
 8827SOL    HW227381   4.394   6.800   3.133
 8828SOL     OW27382   5.002   2.301   6.338
 8828SOL    HW127383   5.052   2.347   6.265
 8828SOL    HW227384   4.911   2.277   6.305
 8829SOL     OW27385   0.245   1.115   3.048
 8829SOL    HW127386   0.184   1.194   3.051
 8829SOL    HW227387   0.235   1.068   2.960
 8830SOL     OW27388   3.351   0.452   3.768
 8830SOL    HW127389   3.390   0.382   3.828
 8830SOL    HW227390   3.255   0.429   3.750
 8831SOL     OW27391   0.384   3.222   2.438
 8831SOL    HW127392   0.287   3.207   2.417
 8831SOL    HW227393   0.393   3.254   2.532
 8832SOL     OW27394   5.488   0.214   5.982
 8832SOL    HW127395   5.569   0.263   6.015
 8832SOL    HW227396   5.442   0.171   6.060
 8833SOL     OW27397   5.181   2.221   1.129
 8833SOL    HW127398   5.150   2.314   1.111
 8833SOL    HW227399   5.106   2.157   1.110
 8834SOL     OW27400   5.597   3.958   5.986
 8834SOL    HW127401   5.587   4.055   5.966
 8834SOL    HW227402   5.656   3.945   6.065
 8835SOL     OW27403   7.006   0.857   5.151
 8835SOL    HW127404   0.068   0.849   5.195
 8835SOL    HW227405   7.018   0.875   5.054
 8836SOL     OW27406   4.572   1.615   1.316
 8836SOL    HW127407   4.639   1.647   1.382
 8836SOL    HW227408   4.486   1.664   1.329
 8837SOL     OW27409   4.767   6.335   0.545
 8837SOL    HW127410   4.688   6.325   0.606
 8837SOL    HW227411   4.839   6.385   0.592
 8838SOL     OW27412   1.837   3.343   3.537
 8838SOL    HW127413   1.890   3.395   3.604
 8838SOL    HW227414   1.876   3.252   3.527
 8839SOL     OW27415   4.983   5.599   1.520
 8839SOL    HW127416   5.047   5.522   1.524
 8839SOL    HW227417   5.001   5.662   1.596
 8840SOL     OW27418   6.196   0.919   0.911
 8840SOL    HW127419   6.164   0.853   0.844
 8840SOL    HW227420   6.296   0.920   0.913
 8841SOL     OW27421   3.368   1.594   0.591
 8841SOL    HW127422   3.394   1.637   0.677
 8841SOL    HW227423   3.283   1.543   0.604
 8842SOL     OW27424   3.261   3.528   4.282
 8842SOL    HW127425   3.261   3.481   4.194
 8842SOL    HW227426   3.194   3.486   4.343
 8843SOL     OW27427   2.288   5.423   5.470
 8843SOL    HW127428   2.336   5.362   5.533
 8843SOL    HW227429   2.345   5.503   5.453
 8844SOL     OW27430   3.315   2.613   6.455
 8844SOL    HW127431   3.276   2.680   6.391
 8844SOL    HW227432   3.411   2.635   6.472
 8845SOL     OW27433   0.849   3.362   2.061
 8845SOL    HW127434   0.749   3.356   2.059
 8845SOL    HW227435   0.886   3.287   2.116
 8846SOL     OW27436   5.551   4.705   4.459
 8846SOL    HW127437   5.621   4.635   4.470
 8846SOL    HW227438   5.561   4.774   4.531
 8847SOL     OW27439   1.073   2.310   3.873
 8847SOL    HW127440   1.105   2.344   3.962
 8847SOL    HW227441   1.107   2.218   3.858
 8848SOL     OW27442   5.874   1.730   0.549
 8848SOL    HW127443   5.797   1.674   0.520
 8848SOL    HW227444   5.842   1.820   0.578
 8849SOL     OW27445   3.461   5.149   4.579
 8849SOL    HW127446   3.543   5.132   4.633
 8849SOL    HW227447   3.423   5.063   4.546
 8850SOL     OW27448   3.042   1.453   1.531
 8850SOL    HW127449   3.123   1.405   1.497
 8850SOL    HW227450   3.066   1.547   1.553
 8851SOL     OW27451   6.839   5.123   2.755
 8851SOL    HW127452   6.745   5.156   2.762
 8851SOL    HW227453   6.858   5.096   2.661
 8852SOL     OW27454   4.515   2.446   4.471
 8852SOL    HW127455   4.513   2.520   4.403
 8852SOL    HW227456   4.490   2.360   4.426
 8853SOL     OW27457   4.634   1.851   5.645
 8853SOL    HW127458   4.685   1.895   5.719
 8853SOL    HW227459   4.635   1.752   5.659
 8854SOL     OW27460   1.654   1.310   6.574
 8854SOL    HW127461   1.717   1.306   6.652
 8854SOL    HW227462   1.704   1.290   6.490
 8855SOL     OW27463   6.666   4.883   6.839
 8855SOL    HW127464   6.634   4.874   6.933
 8855SOL    HW227465   6.682   4.979   6.818
 8856SOL     OW27466   5.182   0.985   5.171
 8856SOL    HW127467   5.098   0.960   5.123
 8856SOL    HW227468   5.163   0.997   5.268
 8857SOL     OW27469   0.609   3.039   5.008
 8857SOL    HW127470   0.579   2.999   5.094
 8857SOL    HW227471   0.697   3.086   5.022
 8858SOL     OW27472   6.654   4.052   5.654
 8858SOL    HW127473   6.622   4.111   5.729
 8858SOL    HW227474   6.750   4.072   5.634
 8859SOL     OW27475   3.095   5.916   5.436
 8859SOL    HW127476   3.017   5.888   5.491
 8859SOL    HW227477   3.084   6.011   5.407
 8860SOL     OW27478   1.687   1.979   1.408
 8860SOL    HW127479   1.703   1.881   1.397
 8860SOL    HW227480   1.734   2.011   1.490
 8861SOL     OW27481   2.471   2.971   1.349
 8861SOL    HW127482   2.449   2.875   1.333
 8861SOL    HW227483   2.436   3.027   1.273
 8862SOL     OW27484   6.553   2.187   5.079
 8862SOL    HW127485   6.532   2.283   5.096
 8862SOL    HW227486   6.646   2.167   5.111
 8863SOL     OW27487   1.063   5.476   5.288
 8863SOL    HW127488   1.062   5.559   5.232
 8863SOL    HW227489   1.138   5.417   5.258
 8864SOL     OW27490   1.370   3.439   6.123
 8864SOL    HW127491   1.437   3.365   6.114
 8864SOL    HW227492   1.373   3.475   6.216
 8865SOL     OW27493   2.240   1.989   5.640
 8865SOL    HW127494   2.270   1.940   5.559
 8865SOL    HW227495   2.209   1.924   5.709
 8866SOL     OW27496   4.879   6.621   6.038
 8866SOL    HW127497   4.834   6.635   5.950
 8866SOL    HW227498   4.883   6.523   6.058
 8867SOL     OW27499   6.631   1.682   3.822
 8867SOL    HW127500   6.539   1.697   3.858
 8867SOL    HW227501   6.671   1.770   3.797
 8868SOL     OW27502   4.865   3.476   1.226
 8868SOL    HW127503   4.955   3.455   1.265
 8868SOL    HW227504   4.794   3.430   1.279
 8869SOL     OW27505   4.570   2.666   3.656
 8869SOL    HW127506   4.594   2.753   3.611
 8869SOL    HW227507   4.651   2.608   3.661
 8870SOL     OW27508   4.572   1.255   1.730
 8870SOL    HW127509   4.476   1.260   1.757
 8870SOL    HW227510   4.626   1.215   1.804
 8871SOL     OW27511   0.849   2.515   4.497
 8871SOL    HW127512   0.777   2.544   4.560
 8871SOL    HW227513   0.903   2.595   4.470
 8872SOL     OW27514   2.176   3.072   3.143
 8872SOL    HW127515   2.175   3.134   3.065
 8872SOL    HW227516   2.082   3.046   3.166
 8873SOL     OW27517   7.009   6.203   5.045
 8873SOL    HW127518   6.956   6.287   5.035
 8873SOL    HW227519   0.032   6.185   4.959
 8874SOL     OW27520   0.848   1.312   6.935
 8874SOL    HW127521   0.791   1.324   6.853
 8874SOL    HW227522   0.807   1.242   6.994
 8875SOL     OW27523   1.796   1.085   4.024
 8875SOL    HW127524   1.851   1.168   4.017
 8875SOL    HW227525   1.744   1.071   3.939
 8876SOL     OW27526   2.493   1.018   4.882
 8876SOL    HW127527   2.580   0.978   4.910
 8876SOL    HW227528   2.508   1.107   4.839
 8877SOL     OW27529   2.812   6.219   4.610
 8877SOL    HW127530   2.787   6.278   4.533
 8877SOL    HW227531   2.898   6.172   4.590
 8878SOL     OW27532   5.483   4.360   5.487
 8878SOL    HW127533   5.577   4.378   5.514
 8878SOL    HW227534   5.482   4.294   5.412
 8879SOL     OW27535   4.375   5.924   4.814
 8879SOL    HW127536   4.351   5.829   4.794
 8879SOL    HW227537   4.293   5.981   4.810
 8880SOL     OW27538   6.830   5.899   5.957
 8880SOL    HW127539   6.856   5.828   5.892
 8880SOL    HW227540   6.903   5.913   6.023
 8881SOL     OW27541   0.218   0.396   1.618
 8881SOL    HW127542   0.162   0.441   1.687
 8881SOL    HW227543   0.216   0.297   1.632
 8882SOL     OW27544   5.300   1.932   6.387
 8882SOL    HW127545   5.317   1.868   6.463
 8882SOL    HW227546   5.232   1.999   6.415
 8883SOL     OW27547   0.492   1.044   5.361
 8883SOL    HW127548   0.493   0.971   5.293
 8883SOL    HW227549   0.552   1.020   5.437
 8884SOL     OW27550   6.698   0.818   5.543
 8884SOL    HW127551   6.772   0.885   5.539
 8884SOL    HW227552   6.732   0.733   5.584
 8885SOL     OW27553   5.553   3.797   1.372
 8885SOL    HW127554   5.454   3.813   1.365
 8885SOL    HW227555   5.589   3.844   1.452
 8886SOL     OW27556   2.943   6.038   6.430
 8886SOL    HW127557   2.955   6.099   6.352
 8886SOL    HW227558   2.856   5.989   6.421
 8887SOL     OW27559   1.929   0.158   0.945
 8887SOL    HW127560   1.988   0.239   0.954
 8887SOL    HW227561   1.986   0.077   0.933
 8888SOL     OW27562   3.589   1.802   3.394
 8888SOL    HW127563   3.516   1.823   3.329
 8888SOL    HW227564   3.621   1.887   3.436
 8889SOL     OW27565   3.266   6.761   4.839
 8889SOL    HW127566   3.340   6.717   4.788
 8889SOL    HW227567   3.238   6.702   4.915
 8890SOL     OW27568   1.207   4.393   3.926
 8890SOL    HW127569   1.247   4.305   3.902
 8890SOL    HW227570   1.268   4.467   3.899
 8891SOL     OW27571   2.447   1.900   6.735
 8891SOL    HW127572   2.371   1.961   6.756
 8891SOL    HW227573   2.509   1.896   6.814
 8892SOL     OW27574   1.215   6.632   2.509
 8892SOL    HW127575   1.229   6.534   2.515
 8892SOL    HW227576   1.254   6.677   2.589
 8893SOL     OW27577   0.295   1.189   1.475
 8893SOL    HW127578   0.317   1.136   1.394
 8893SOL    HW227579   0.379   1.229   1.512
 8894SOL     OW27580   3.893   2.793   6.433
 8894SOL    HW127581   3.795   2.790   6.410
 8894SOL    HW227582   3.903   2.821   6.529
 8895SOL     OW27583   1.328   0.946   2.041
 8895SOL    HW127584   1.245   0.979   1.997
 8895SOL    HW227585   1.305   0.904   2.129
 8896SOL     OW27586   2.188   4.139   4.863
 8896SOL    HW127587   2.242   4.095   4.934
 8896SOL    HW227588   2.163   4.232   4.892
 8897SOL     OW27589   1.317   2.196   1.271
 8897SOL    HW127590   1.317   2.206   1.370
 8897SOL    HW227591   1.237   2.243   1.233
 8898SOL     OW27592   6.747   3.249   4.854
 8898SOL    HW127593   6.821   3.233   4.919
 8898SOL    HW227594   6.683   3.316   4.892
 8899SOL     OW27595   3.149   4.646   0.340
 8899SOL    HW127596   3.234   4.594   0.329
 8899SOL    HW227597   3.109   4.627   0.429
 8900SOL     OW27598   6.600   1.727   3.203
 8900SOL    HW127599   6.552   1.642   3.227
 8900SOL    HW227600   6.584   1.748   3.107
 8901SOL     OW27601   2.217   6.806   1.799
 8901SOL    HW127602   2.149   6.845   1.738
 8901SOL    HW227603   2.207   6.706   1.801
 8902SOL     OW27604   3.074   5.441   5.435
 8902SOL    HW127605   3.003   5.393   5.384
 8902SOL    HW227606   3.033   5.513   5.491
 8903SOL     OW27607   0.780   1.353   3.969
 8903SOL    HW127608   0.722   1.335   3.890
 8903SOL    HW227609   0.863   1.298   3.962
 8904SOL     OW27610   1.305   5.609   3.416
 8904SOL    HW127611   1.336   5.515   3.436
 8904SOL    HW227612   1.337   5.636   3.325
 8905SOL     OW27613   2.168   4.263   5.168
 8905SOL    HW127614   2.149   4.315   5.085
 8905SOL    HW227615   2.238   4.194   5.149
 8906SOL     OW27616   1.504   5.011   4.715
 8906SOL    HW127617   1.470   4.930   4.763
 8906SOL    HW227618   1.603   5.016   4.725
 8907SOL     OW27619   3.982   2.700   5.961
 8907SOL    HW127620   3.935   2.616   5.990
 8907SOL    HW227621   3.930   2.745   5.889
 8908SOL     OW27622   0.362   2.744   2.082
 8908SOL    HW127623   0.326   2.837   2.079
 8908SOL    HW227624   0.290   2.679   2.059
 8909SOL     OW27625   2.443   6.658   5.492
 8909SOL    HW127626   2.506   6.682   5.566
 8909SOL    HW227627   2.487   6.592   5.431
 8910SOL     OW27628   3.667   3.061   6.422
 8910SOL    HW127629   3.610   3.123   6.368
 8910SOL    HW227630   3.733   3.113   6.475
 8911SOL     OW27631   4.620   2.266   3.697
 8911SOL    HW127632   4.663   2.343   3.650
 8911SOL    HW227633   4.680   2.234   3.771
 8912SOL     OW27634   5.012   1.845   6.271
 8912SOL    HW127635   5.056   1.764   6.232
 8912SOL    HW227636   5.047   1.927   6.225
 8913SOL     OW27637   4.685   4.136   0.894
 8913SOL    HW127638   4.648   4.077   0.965
 8913SOL    HW227639   4.742   4.082   0.831
 8914SOL     OW27640   4.691   1.824   3.155
 8914SOL    HW127641   4.780   1.844   3.197
 8914SOL    HW227642   4.671   1.895   3.087
 8915SOL     OW27643   0.890   5.354   1.757
 8915SOL    HW127644   0.986   5.342   1.731
 8915SOL    HW227645   0.882   5.352   1.857
 8916SOL     OW27646   6.365   3.740   1.925
 8916SOL    HW127647   6.403   3.726   2.016
 8916SOL    HW227648   6.433   3.715   1.856
 8917SOL     OW27649   5.851   5.611   6.072
 8917SOL    HW127650   5.844   5.512   6.084
 8917SOL    HW227651   5.835   5.656   6.160
 8918SOL     OW27652   5.081   4.438   6.076
 8918SOL    HW127653   5.011   4.492   6.123
 8918SOL    HW227654   5.059   4.341   6.084
 8919SOL     OW27655   2.570   3.873   1.439
 8919SOL    HW127656   2.655   3.918   1.412
 8919SOL    HW227657   2.492   3.923   1.401
 8920SOL     OW27658   6.059   5.313   5.358
 8920SOL    HW127659   6.135   5.303   5.294
 8920SOL    HW227660   6.040   5.225   5.402
 8921SOL     OW27661   1.162   5.781   3.573
 8921SOL    HW127662   1.232   5.713   3.554
 8921SOL    HW227663   1.104   5.793   3.492
 8922SOL     OW27664   6.639   4.401   6.979
 8922SOL    HW127665   6.581   4.378   0.030
 8922SOL    HW227666   6.731   4.425   7.011
 8923SOL     OW27667   2.202   4.242   4.607
 8923SOL    HW127668   2.210   4.196   4.695
 8923SOL    HW227669   2.106   4.245   4.580
 8924SOL     OW27670   2.717   5.898   5.136
 8924SOL    HW127671   2.673   5.834   5.199
 8924SOL    HW227672   2.771   5.848   5.069
 8925SOL     OW27673   5.390   6.935   1.452
 8925SOL    HW127674   5.448   6.871   1.504
 8925SOL    HW227675   5.372   6.897   1.361
 8926SOL     OW27676   5.089   1.198   0.074
 8926SOL    HW127677   5.081   1.098   0.072
 8926SOL    HW227678   5.154   1.228   0.005
 8927SOL     OW27679   2.631   1.432   4.242
 8927SOL    HW127680   2.612   1.496   4.168
 8927SOL    HW227681   2.704   1.369   4.214
 8928SOL     OW27682   1.057   6.910   4.594
 8928SOL    HW127683   1.126   6.898   4.522
 8928SOL    HW227684   1.093   6.873   4.680
 8929SOL     OW27685   5.152   4.574   4.308
 8929SOL    HW127686   5.221   4.555   4.237
 8929SOL    HW227687   5.197   4.580   4.397
 8930SOL     OW27688   1.453   5.128   5.067
 8930SOL    HW127689   1.531   5.064   5.062
 8930SOL    HW227690   1.386   5.103   4.998
 8931SOL     OW27691   5.343   1.131   1.528
 8931SOL    HW127692   5.259   1.108   1.579
 8931SOL    HW227693   5.423   1.105   1.583
 8932SOL     OW27694   6.695   0.597   0.049
 8932SOL    HW127695   6.644   0.549   0.120
 8932SOL    HW227696   6.792   0.572   0.055
 8933SOL     OW27697   1.455   0.494   5.478
 8933SOL    HW127698   1.544   0.503   5.524
 8933SOL    HW227699   1.469   0.492   5.379
 8934SOL     OW27700   4.849   6.539   3.106
 8934SOL    HW127701   4.844   6.451   3.059
 8934SOL    HW227702   4.825   6.526   3.203
 8935SOL     OW27703   5.928   2.372   2.533
 8935SOL    HW127704   5.884   2.296   2.485
 8935SOL    HW227705   5.867   2.451   2.534
 8936SOL     OW27706   1.696   3.613   2.841
 8936SOL    HW127707   1.715   3.583   2.934
 8936SOL    HW227708   1.679   3.533   2.783
 8937SOL     OW27709   4.178   0.204   5.365
 8937SOL    HW127710   4.154   0.149   5.446
 8937SOL    HW227711   4.253   0.161   5.316
 8938SOL     OW27712   5.817   6.770   2.088
 8938SOL    HW127713   5.902   6.719   2.103
 8938SOL    HW227714   5.838   6.866   2.073
 8939SOL     OW27715   0.435   2.503   4.149
 8939SOL    HW127716   0.519   2.492   4.203
 8939SOL    HW227717   0.361   2.532   4.209
 8940SOL     OW27718   6.352   3.006   1.819
 8940SOL    HW127719   6.368   3.080   1.884
 8940SOL    HW227720   6.357   2.918   1.866
 8941SOL     OW27721   5.148   1.920   2.866
 8941SOL    HW127722   5.228   1.973   2.838
 8941SOL    HW227723   5.071   1.981   2.883
 8942SOL     OW27724   4.896   4.592   4.242
 8942SOL    HW127725   4.886   4.595   4.142
 8942SOL    HW227726   4.993   4.590   4.265
 8943SOL     OW27727   4.411   2.857   0.937
 8943SOL    HW127728   4.459   2.811   0.862
 8943SOL    HW227729   4.317   2.823   0.941
 8944SOL     OW27730   5.074   5.541   5.267
 8944SOL    HW127731   5.121   5.547   5.178
 8944SOL    HW227732   5.048   5.633   5.297
 8945SOL     OW27733   6.031   3.872   2.682
 8945SOL    HW127734   6.067   3.950   2.631
 8945SOL    HW227735   5.934   3.859   2.659
 8946SOL     OW27736   4.398   0.959   5.394
 8946SOL    HW127737   4.402   0.891   5.467
 8946SOL    HW227738   4.405   0.913   5.305
 8947SOL     OW27739   1.992   4.340   6.963
 8947SOL    HW127740   1.906   4.375   7.001
 8947SOL    HW227741   2.031   4.408   6.902
 8948SOL     OW27742   5.707   0.910   2.480
 8948SOL    HW127743   5.779   0.841   2.484
 8948SOL    HW227744   5.727   0.984   2.544
 8949SOL     OW27745   4.070   6.067   1.009
 8949SOL    HW127746   4.089   6.063   0.911
 8949SOL    HW227747   4.080   5.976   1.049
 8950SOL     OW27748   3.563   3.600   2.209
 8950SOL    HW127749   3.491   3.549   2.256
 8950SOL    HW227750   3.629   3.535   2.170
 8951SOL     OW27751   1.430   0.170   4.630
 8951SOL    HW127752   1.496   0.111   4.676
 8951SOL    HW227753   1.338   0.135   4.644
 8952SOL     OW27754   1.292   4.688   4.189
 8952SOL    HW127755   1.301   4.690   4.288
 8952SOL    HW227756   1.354   4.755   4.148
 8953SOL     OW27757   0.805   4.830   1.451
 8953SOL    HW127758   0.904   4.821   1.450
 8953SOL    HW227759   0.773   4.848   1.544
 8954SOL     OW27760   2.292   4.333   5.386
 8954SOL    HW127761   2.250   4.294   5.304
 8954SOL    HW227762   2.310   4.430   5.371
 8955SOL     OW27763   5.568   2.803   5.004
 8955SOL    HW127764   5.579   2.779   5.100
 8955SOL    HW227765   5.590   2.900   4.992
 8956SOL     OW27766   0.655   5.752   0.996
 8956SOL    HW127767   0.644   5.669   1.051
 8956SOL    HW227768   0.743   5.795   1.017
 8957SOL     OW27769   1.417   6.074   2.728
 8957SOL    HW127770   1.475   6.035   2.656
 8957SOL    HW227771   1.465   6.151   2.771
 8958SOL     OW27772   0.900   4.323   4.750
 8958SOL    HW127773   0.915   4.270   4.834
 8958SOL    HW227774   0.953   4.282   4.675
 8959SOL     OW27775   5.642   2.128   3.888
 8959SOL    HW127776   5.717   2.109   3.824
 8959SOL    HW227777   5.624   2.226   3.890
 8960SOL     OW27778   4.849   5.103   3.200
 8960SOL    HW127779   4.923   5.048   3.161
 8960SOL    HW227780   4.864   5.199   3.176
 8961SOL     OW27781   2.713   1.888   4.721
 8961SOL    HW127782   2.676   1.808   4.767
 8961SOL    HW227783   2.810   1.873   4.701
 8962SOL     OW27784   6.283   5.627   2.119
 8962SOL    HW127785   6.251   5.615   2.213
 8962SOL    HW227786   6.269   5.542   2.068
 8963SOL     OW27787   3.095   6.459   6.321
 8963SOL    HW127788   3.096   6.361   6.302
 8963SOL    HW227789   3.015   6.482   6.376
 8964SOL     OW27790   2.108   3.376   4.197
 8964SOL    HW127791   2.127   3.278   4.202
 8964SOL    HW227792   2.047   3.402   4.272
 8965SOL     OW27793   3.544   5.258   0.274
 8965SOL    HW127794   3.522   5.161   0.265
 8965SOL    HW227795   3.460   5.311   0.283
 8966SOL     OW27796   5.393   0.084   5.223
 8966SOL    HW127797   5.408   0.122   5.132
 8966SOL    HW227798   5.480   0.083   5.272
 8967SOL     OW27799   3.186   0.204   3.495
 8967SOL    HW127800   3.120   0.195   3.570
 8967SOL    HW227801   3.219   0.114   3.468
 8968SOL     OW27802   3.869   4.937   2.169
 8968SOL    HW127803   3.771   4.945   2.154
 8968SOL    HW227804   3.908   5.027   2.184
 8969SOL     OW27805   0.537   0.761   3.078
 8969SOL    HW127806   0.628   0.720   3.074
 8969SOL    HW227807   0.545   0.860   3.066
 8970SOL     OW27808   1.926   1.216   3.515
 8970SOL    HW127809   1.843   1.228   3.570
 8970SOL    HW227810   2.005   1.207   3.575
 8971SOL     OW27811   2.887   4.181   1.008
 8971SOL    HW127812   2.803   4.169   1.061
 8971SOL    HW227813   2.902   4.101   0.951
 8972SOL     OW27814   5.202   4.205   6.734
 8972SOL    HW127815   5.188   4.282   6.673
 8972SOL    HW227816   5.300   4.193   6.752
 8973SOL     OW27817   2.349   2.323   3.299
 8973SOL    HW127818   2.420   2.255   3.279
 8973SOL    HW227819   2.376   2.375   3.380
 8974SOL     OW27820   1.962   4.357   3.796
 8974SOL    HW127821   1.937   4.417   3.872
 8974SOL    HW227822   1.913   4.270   3.806
 8975SOL     OW27823   6.603   4.783   5.991
 8975SOL    HW127824   6.638   4.718   6.059
 8975SOL    HW227825   6.672   4.798   5.920
 8976SOL     OW27826   6.162   6.951   2.158
 8976SOL    HW127827   6.113   0.008   2.136
 8976SOL    HW227828   6.126   6.912   2.243
 8977SOL     OW27829   6.205   4.412   6.788
 8977SOL    HW127830   6.261   4.355   6.728
 8977SOL    HW227831   6.265   4.471   6.843
 8978SOL     OW27832   6.108   5.811   6.621
 8978SOL    HW127833   6.135   5.894   6.572
 8978SOL    HW227834   6.190   5.764   6.654
 8979SOL     OW27835   1.734   4.852   3.498
 8979SOL    HW127836   1.713   4.800   3.415
 8979SOL    HW227837   1.722   4.794   3.578
 8980SOL     OW27838   3.659   0.583   0.362
 8980SOL    HW127839   3.701   0.502   0.403
 8980SOL    HW227840   3.623   0.642   0.434
 8981SOL     OW27841   4.220   2.902   6.557
 8981SOL    HW127842   4.162   2.927   6.480
 8981SOL    HW227843   4.191   2.953   6.638
 8982SOL     OW27844   0.238   1.391   1.735
 8982SOL    HW127845   0.151   1.428   1.701
 8982SOL    HW227846   0.222   1.301   1.775
 8983SOL     OW27847   1.580   6.877   1.842
 8983SOL    HW127848   1.526   6.818   1.781
 8983SOL    HW227849   1.607   6.960   1.793
 8984SOL     OW27850   6.860   1.409   4.935
 8984SOL    HW127851   6.838   1.314   4.911
 8984SOL    HW227852   6.959   1.418   4.949
 8985SOL     OW27853   5.297   1.517   2.354
 8985SOL    HW127854   5.294   1.515   2.454
 8985SOL    HW227855   5.217   1.566   2.319
 8986SOL     OW27856   6.582   5.013   0.511
 8986SOL    HW127857   6.621   5.089   0.458
 8986SOL    HW227858   6.656   4.950   0.538
 8987SOL     OW27859   2.055   6.925   1.635
 8987SOL    HW127860   1.999   7.008   1.638
 8987SOL    HW227861   2.080   6.905   1.540
 8988SOL     OW27862   2.940   0.107   1.199
 8988SOL    HW127863   2.988   0.145   1.278
 8988SOL    HW227864   3.007   0.072   1.133
 8989SOL     OW27865   5.724   1.917   2.261
 8989SOL    HW127866   5.727   1.914   2.161
 8989SOL    HW227867   5.683   1.832   2.296
 8990SOL     OW27868   3.440   0.715   2.900
 8990SOL    HW127869   3.504   0.641   2.921
 8990SOL    HW227870   3.488   0.802   2.902
 8991SOL     OW27871   1.197   2.595   0.560
 8991SOL    HW127872   1.296   2.592   0.569
 8991SOL    HW227873   1.171   2.563   0.469
 8992SOL     OW27874   6.263   4.228   6.519
 8992SOL    HW127875   6.173   4.269   6.531
 8992SOL    HW227876   6.308   4.268   6.439
 8993SOL     OW27877   5.347   4.147   5.090
 8993SOL    HW127878   5.341   4.086   5.010
 8993SOL    HW227879   5.287   4.225   5.077
 8994SOL     OW27880   1.595   6.356   2.578
 8994SOL    HW127881   1.555   6.353   2.669
 8994SOL    HW227882   1.571   6.272   2.528
 8995SOL     OW27883   1.986   3.892   4.506
 8995SOL    HW127884   2.037   3.907   4.591
 8995SOL    HW227885   1.889   3.881   4.526
 8996SOL     OW27886   1.723   3.794   1.384
 8996SOL    HW127887   1.822   3.795   1.396
 8996SOL    HW227888   1.682   3.865   1.442
 8997SOL     OW27889   4.466   0.823   5.630
 8997SOL    HW127890   4.431   0.730   5.646
 8997SOL    HW227891   4.566   0.821   5.629
 8998SOL     OW27892   0.937   1.520   6.215
 8998SOL    HW127893   0.868   1.579   6.256
 8998SOL    HW227894   0.955   1.550   6.121
 8999SOL     OW27895   5.183   1.989   5.064
 8999SOL    HW127896   5.158   1.904   5.110
 8999SOL    HW227897   5.265   2.027   5.105
 9000SOL     OW27898   3.018   4.866   0.670
 9000SOL    HW127899   3.109   4.831   0.647
 9000SOL    HW227900   3.024   4.920   0.754
 9001SOL     OW27901   2.037   4.213   3.389
 9001SOL    HW127902   2.125   4.165   3.393
 9001SOL    HW227903   2.033   4.270   3.308
 9002SOL     OW27904   5.474   3.904   5.422
 9002SOL    HW127905   5.377   3.923   5.435
 9002SOL    HW227906   5.517   3.891   5.512
 9003SOL     OW27907   6.103   2.939   6.648
 9003SOL    HW127908   6.098   3.003   6.572
 9003SOL    HW227909   6.174   2.970   6.712
 9004SOL     OW27910   5.013   5.350   0.905
 9004SOL    HW127911   5.098   5.404   0.902
 9004SOL    HW227912   5.003   5.299   0.820
 9005SOL     OW27913   4.679   2.686   3.182
 9005SOL    HW127914   4.614   2.740   3.236
 9005SOL    HW227915   4.765   2.736   3.174
 9006SOL     OW27916   2.128   7.012   0.867
 9006SOL    HW127917   2.071   7.014   0.785
 9006SOL    HW227918   2.208   0.044   0.853
 9007SOL     OW27919   2.354   6.383   4.703
 9007SOL    HW127920   2.417   6.362   4.628
 9007SOL    HW227921   2.396   6.359   4.790
 9008SOL     OW27922   0.296   4.114   2.421
 9008SOL    HW127923   0.251   4.089   2.335
 9008SOL    HW227924   0.355   4.038   2.451
 9009SOL     OW27925   4.377   6.464   0.448
 9009SOL    HW127926   4.382   6.365   0.432
 9009SOL    HW227927   4.413   6.485   0.539
 9010SOL     OW27928   0.331   5.340   5.065
 9010SOL    HW127929   0.417   5.300   5.098
 9010SOL    HW227930   0.312   5.309   4.972
 9011SOL     OW27931   4.602   2.055   2.546
 9011SOL    HW127932   4.552   1.976   2.583
 9011SOL    HW227933   4.537   2.121   2.509
 9012SOL     OW27934   5.286   5.542   2.366
 9012SOL    HW127935   5.261   5.543   2.463
 9012SOL    HW227936   5.273   5.450   2.329
 9013SOL     OW27937   4.221   6.407   2.197
 9013SOL    HW127938   4.140   6.357   2.168
 9013SOL    HW227939   4.240   6.482   2.133
 9014SOL     OW27940   2.116   0.550   1.081
 9014SOL    HW127941   2.207   0.592   1.084
 9014SOL    HW227942   2.057   0.592   1.149
 9015SOL     OW27943   6.079   1.263   4.790
 9015SOL    HW127944   6.061   1.248   4.693
 9015SOL    HW227945   6.071   1.360   4.811
 9016SOL     OW27946   6.959   5.567   6.345
 9016SOL    HW127947   6.948   5.655   6.391
 9016SOL    HW227948   6.885   5.554   6.280
 9017SOL     OW27949   0.141   4.040   3.097
 9017SOL    HW127950   0.191   3.955   3.081
 9017SOL    HW227951   0.163   4.076   3.188
 9018SOL     OW27952   4.079   1.661   6.470
 9018SOL    HW127953   4.095   1.579   6.415
 9018SOL    HW227954   4.101   1.742   6.416
 9019SOL     OW27955   1.224   5.513   0.285
 9019SOL    HW127956   1.140   5.476   0.326
 9019SOL    HW227957   1.264   5.580   0.347
 9020SOL     OW27958   0.830   4.932   3.077
 9020SOL    HW127959   0.739   4.900   3.050
 9020SOL    HW227960   0.823   4.980   3.164
 9021SOL     OW27961   6.321   5.842   5.342
 9021SOL    HW127962   6.266   5.915   5.383
 9021SOL    HW227963   6.285   5.754   5.371
 9022SOL     OW27964   3.137   6.859   6.481
 9022SOL    HW127965   3.184   6.772   6.463
 9022SOL    HW227966   3.174   6.901   6.563
 9023SOL     OW27967   3.510   2.891   3.495
 9023SOL    HW127968   3.604   2.919   3.476
 9023SOL    HW227969   3.495   2.891   3.594
 9024SOL     OW27970   0.690   0.407   6.756
 9024SOL    HW127971   0.645   0.344   6.692
 9024SOL    HW227972   0.768   0.450   6.712
 9025SOL     OW27973   0.163   4.146   0.623
 9025SOL    HW127974   0.086   4.098   0.580
 9025SOL    HW227975   0.141   4.165   0.718
 9026SOL     OW27976   3.100   3.364   5.683
 9026SOL    HW127977   3.112   3.450   5.732
 9026SOL    HW227978   3.052   3.380   5.597
 9027SOL     OW27979   2.538   2.554   3.014
 9027SOL    HW127980   2.603   2.502   3.068
 9027SOL    HW227981   2.531   2.515   2.922
 9028SOL     OW27982   2.504   4.570   4.402
 9028SOL    HW127983   2.472   4.484   4.363
 9028SOL    HW227984   2.539   4.554   4.495
 9029SOL     OW27985   5.714   5.479   2.925
 9029SOL    HW127986   5.673   5.498   2.836
 9029SOL    HW227987   5.805   5.439   2.912
 9030SOL     OW27988   3.623   1.576   2.192
 9030SOL    HW127989   3.540   1.526   2.213
 9030SOL    HW227990   3.602   1.649   2.126
 9031SOL     OW27991   1.088   1.507   0.963
 9031SOL    HW127992   1.157   1.468   1.024
 9031SOL    HW227993   1.060   1.597   0.997
 9032SOL     OW27994   1.068   2.831   2.247
 9032SOL    HW127995   1.004   2.803   2.319
 9032SOL    HW227996   1.079   2.931   2.251
 9033SOL     OW27997   1.214   4.090   1.819
 9033SOL    HW127998   1.272   4.011   1.843
 9033SOL    HW227999   1.242   4.169   1.874
 9034SOL     OW28000   1.444   6.794   6.857
 9034SOL    HW128001   1.510   6.827   6.924
 9034SOL    HW228002   1.365   6.755   6.903
 9035SOL     OW28003   7.008   0.580   4.271
 9035SOL    HW128004   6.929   0.550   4.218
 9035SOL    HW228005   0.018   0.664   4.230
 9036SOL     OW28006   1.606   1.370   4.389
 9036SOL    HW128007   1.595   1.292   4.327
 9036SOL    HW228008   1.524   1.380   4.445
 9037SOL     OW28009   2.452   4.057   5.832
 9037SOL    HW128010   2.405   4.059   5.920
 9037SOL    HW228011   2.407   3.989   5.773
 9038SOL     OW28012   4.921   6.566   5.537
 9038SOL    HW128013   5.012   6.569   5.494
 9038SOL    HW228014   4.870   6.489   5.500
 9039SOL     OW28015   2.329   4.732   6.629
 9039SOL    HW128016   2.304   4.829   6.630
 9039SOL    HW228017   2.274   4.685   6.560
 9040SOL     OW28018   2.656   1.898   2.187
 9040SOL    HW128019   2.705   1.953   2.119
 9040SOL    HW228020   2.714   1.823   2.217
 9041SOL     OW28021   1.736   3.111   6.376
 9041SOL    HW128022   1.653   3.058   6.359
 9041SOL    HW228023   1.815   3.064   6.335
 9042SOL     OW28024   2.332   5.068   3.787
 9042SOL    HW128025   2.237   5.082   3.759
 9042SOL    HW228026   2.367   4.983   3.747
 9043SOL     OW28027   6.729   2.712   0.810
 9043SOL    HW128028   6.738   2.791   0.870
 9043SOL    HW228029   6.656   2.729   0.744
 9044SOL     OW28030   6.863   4.593   0.816
 9044SOL    HW128031   6.843   4.643   0.900
 9044SOL    HW228032   6.864   4.494   0.835
 9045SOL     OW28033   2.867   5.331   4.305
 9045SOL    HW128034   2.840   5.391   4.380
 9045SOL    HW228035   2.846   5.374   4.217
 9046SOL     OW28036   3.718   4.369   5.809
 9046SOL    HW128037   3.691   4.462   5.787
 9046SOL    HW228038   3.641   4.320   5.851
 9047SOL     OW28039   1.269   4.563   4.918
 9047SOL    HW128040   1.169   4.559   4.910
 9047SOL    HW228041   1.294   4.565   5.015
 9048SOL     OW28042   2.049   1.889   4.468
 9048SOL    HW128043   2.079   1.980   4.496
 9048SOL    HW228044   2.019   1.838   4.548
 9049SOL     OW28045   4.850   6.356   6.542
 9049SOL    HW128046   4.926   6.351   6.476
 9049SOL    HW228047   4.860   6.439   6.596
 9050SOL     OW28048   0.559   5.254   5.453
 9050SOL    HW128049   0.465   5.219   5.455
 9050SOL    HW228050   0.565   5.331   5.389
 9051SOL     OW28051   5.441   6.490   5.726
 9051SOL    HW128052   5.489   6.578   5.735
 9051SOL    HW228053   5.344   6.507   5.712
 9052SOL     OW28054   2.426   5.225   5.212
 9052SOL    HW128055   2.472   5.182   5.290
 9052SOL    HW228056   2.348   5.169   5.184
 9053SOL     OW28057   3.112   1.658   3.553
 9053SOL    HW128058   3.078   1.667   3.459
 9053SOL    HW228059   3.209   1.685   3.556
 9054SOL     OW28060   2.683   0.171   0.866
 9054SOL    HW128061   2.649   0.259   0.833
 9054SOL    HW228062   2.776   0.156   0.833
 9055SOL     OW28063   0.559   1.977   4.972
 9055SOL    HW128064   0.612   1.996   4.889
 9055SOL    HW228065   0.606   2.017   5.051
 9056SOL     OW28066   4.461   2.329   2.620
 9056SOL    HW128067   4.385   2.318   2.684
 9056SOL    HW228068   4.523   2.401   2.653
 9057SOL     OW28069   4.333   6.158   0.087
 9057SOL    HW128070   4.378   6.173   0.175
 9057SOL    HW228071   4.318   6.060   0.074
 9058SOL     OW28072   1.788   2.495   4.250
 9058SOL    HW128073   1.792   2.571   4.314
 9058SOL    HW228074   1.855   2.509   4.177
 9059SOL     OW28075   0.355   0.893   2.364
 9059SOL    HW128076   0.398   0.847   2.442
 9059SOL    HW228077   0.413   0.969   2.335
 9060SOL     OW28078   0.681   5.461   1.601
 9060SOL    HW128079   0.613   5.392   1.580
 9060SOL    HW228080   0.755   5.420   1.655
 9061SOL     OW28081   5.070   4.217   2.639
 9061SOL    HW128082   5.127   4.196   2.719
 9061SOL    HW228083   4.985   4.164   2.645
 9062SOL     OW28084   0.660   5.286   3.001
 9062SOL    HW128085   0.700   5.287   2.910
 9062SOL    HW228086   0.730   5.309   3.069
 9063SOL     OW28087   4.463   1.870   1.905
 9063SOL    HW128088   4.557   1.839   1.891
 9063SOL    HW228089   4.453   1.962   1.867
 9064SOL     OW28090   0.694   5.649   3.211
 9064SOL    HW128091   0.711   5.682   3.118
 9064SOL    HW228092   0.665   5.554   3.208
 9065SOL     OW28093   3.163   4.250   6.174
 9065SOL    HW128094   3.162   4.305   6.091
 9065SOL    HW228095   3.219   4.295   6.244
 9066SOL     OW28096   4.992   5.146   4.262
 9066SOL    HW128097   4.977   5.053   4.296
 9066SOL    HW228098   5.089   5.158   4.238
 9067SOL     OW28099   1.270   6.265   4.708
 9067SOL    HW128100   1.338   6.289   4.638
 9067SOL    HW228101   1.311   6.275   4.798
 9068SOL     OW28102   3.969   0.454   6.108
 9068SOL    HW128103   4.065   0.467   6.085
 9068SOL    HW228104   3.927   0.390   6.043
 9069SOL     OW28105   4.751   2.799   1.356
 9069SOL    HW128106   4.809   2.744   1.296
 9069SOL    HW228107   4.787   2.892   1.361
 9070SOL     OW28108   2.029   1.244   5.500
 9070SOL    HW128109   1.989   1.333   5.523
 9070SOL    HW228110   2.020   1.182   5.578
 9071SOL     OW28111   5.584   2.863   6.690
 9071SOL    HW128112   5.583   2.781   6.633
 9071SOL    HW228113   5.507   2.922   6.666
 9072SOL     OW28114   5.700   0.380   2.279
 9072SOL    HW128115   5.708   0.444   2.203
 9072SOL    HW228116   5.642   0.303   2.252
 9073SOL     OW28117   4.738   2.946   5.223
 9073SOL    HW128118   4.709   2.851   5.207
 9073SOL    HW228119   4.658   3.001   5.248
 9074SOL     OW28120   2.015   0.946   2.655
 9074SOL    HW128121   2.029   0.850   2.681
 9074SOL    HW228122   1.917   0.968   2.661
 9075SOL     OW28123   5.788   5.746   0.925
 9075SOL    HW128124   5.774   5.803   1.006
 9075SOL    HW228125   5.874   5.696   0.933
 9076SOL     OW28126   0.379   6.691   2.264
 9076SOL    HW128127   0.429   6.757   2.320
 9076SOL    HW228128   0.426   6.678   2.177
 9077SOL     OW28129   6.352   1.665   0.132
 9077SOL    HW128130   6.316   1.669   0.039
 9077SOL    HW228131   6.355   1.758   0.171
 9078SOL     OW28132   5.457   0.364   6.960
 9078SOL    HW128133   5.481   0.461   6.960
 9078SOL    HW228134   5.460   0.329   0.027
 9079SOL     OW28135   1.038   1.288   6.358
 9079SOL    HW128136   0.976   1.355   6.316
 9079SOL    HW228137   1.008   1.196   6.336
 9080SOL     OW28138   6.139   3.758   2.380
 9080SOL    HW128139   6.102   3.694   2.447
 9080SOL    HW228140   6.152   3.847   2.423
 9081SOL     OW28141   4.903   1.539   0.410
 9081SOL    HW128142   4.919   1.513   0.315
 9081SOL    HW228143   4.990   1.569   0.451
 9082SOL     OW28144   3.215   5.885   6.214
 9082SOL    HW128145   3.212   5.984   6.226
 9082SOL    HW228146   3.287   5.846   6.270
 9083SOL     OW28147   4.036   6.077   0.463
 9083SOL    HW128148   4.126   6.119   0.450
 9083SOL    HW228149   3.965   6.147   0.459
 9084SOL     OW28150   0.241   3.297   4.951
 9084SOL    HW128151   0.225   3.320   4.855
 9084SOL    HW228152   0.329   3.335   4.980
 9085SOL     OW28153   2.519   4.804   0.716
 9085SOL    HW128154   2.444   4.769   0.771
 9085SOL    HW228155   2.483   4.846   0.632
 9086SOL     OW28156   0.133   3.751   0.813
 9086SOL    HW128157   0.090   3.805   0.740
 9086SOL    HW228158   0.069   3.739   0.889
 9087SOL     OW28159   5.332   1.132   1.215
 9087SOL    HW128160   5.326   1.115   1.313
 9087SOL    HW228161   5.288   1.056   1.166
 9088SOL     OW28162   6.017   5.935   0.448
 9088SOL    HW128163   6.024   5.836   0.463
 9088SOL    HW228164   6.018   5.982   0.536
 9089SOL     OW28165   5.684   5.622   3.584
 9089SOL    HW128166   5.626   5.645   3.506
 9089SOL    HW228167   5.631   5.631   3.669
 9090SOL     OW28168   5.135   6.220   5.844
 9090SOL    HW128169   5.037   6.197   5.849
 9090SOL    HW228170   5.188   6.144   5.882
 9091SOL     OW28171   2.575   1.619   1.699
 9091SOL    HW128172   2.558   1.628   1.797
 9091SOL    HW228173   2.492   1.586   1.653
 9092SOL     OW28174   2.290   0.999   5.238
 9092SOL    HW128175   2.342   0.915   5.252
 9092SOL    HW228176   2.302   1.059   5.317
 9093SOL     OW28177   2.178   4.071   0.934
 9093SOL    HW128178   2.086   4.108   0.948
 9093SOL    HW228179   2.229   4.074   1.020
 9094SOL     OW28180   6.540   4.117   1.292
 9094SOL    HW128181   6.542   4.163   1.204
 9094SOL    HW228182   6.473   4.162   1.352
 9095SOL     OW28183   2.657   3.427   6.880
 9095SOL    HW128184   2.594   3.452   6.953
 9095SOL    HW228185   2.663   3.327   6.873
 9096SOL     OW28186   6.268   3.240   3.026
 9096SOL    HW128187   6.330   3.193   3.089
 9096SOL    HW228188   6.289   3.337   3.025
 9097SOL     OW28189   0.028   5.228   5.833
 9097SOL    HW128190   0.098   5.164   5.865
 9097SOL    HW228191   6.987   5.243   5.905
 9098SOL     OW28192   3.346   3.653   3.889
 9098SOL    HW128193   3.254   3.633   3.923
 9098SOL    HW228194   3.384   3.573   3.844
 9099SOL     OW28195   2.258   2.568   0.329
 9099SOL    HW128196   2.225   2.506   0.400
 9099SOL    HW228197   2.292   2.652   0.371
 9100SOL     OW28198   1.240   3.221   0.315
 9100SOL    HW128199   1.163   3.174   0.359
 9100SOL    HW228200   1.218   3.318   0.304
 9101SOL     OW28201   2.057   2.096   6.608
 9101SOL    HW128202   1.966   2.136   6.615
 9101SOL    HW228203   2.066   2.021   6.674
 9102SOL     OW28204   4.488   6.070   2.293
 9102SOL    HW128205   4.543   6.143   2.334
 9102SOL    HW228206   4.500   6.072   2.193
 9103SOL     OW28207   0.196   4.092   6.812
 9103SOL    HW128208   0.203   3.994   6.793
 9103SOL    HW228209   0.106   4.125   6.786
 9104SOL     OW28210   4.766   0.116   1.915
 9104SOL    HW128211   4.794   0.165   1.998
 9104SOL    HW228212   4.844   0.105   1.854
 9105SOL     OW28213   2.208   1.603   5.503
 9105SOL    HW128214   2.216   1.702   5.494
 9105SOL    HW228215   2.207   1.578   5.600
 9106SOL     OW28216   6.264   5.042   1.347
 9106SOL    HW128217   6.212   5.128   1.346
 9106SOL    HW228218   6.299   5.026   1.439
 9107SOL     OW28219   4.401   0.481   1.507
 9107SOL    HW128220   4.495   0.449   1.510
 9107SOL    HW228221   4.395   0.564   1.451
 9108SOL     OW28222   4.496   5.885   6.905
 9108SOL    HW128223   4.538   5.935   6.829
 9108SOL    HW228224   4.545   5.907   6.990
 9109SOL     OW28225   2.965   1.775   4.170
 9109SOL    HW128226   2.964   1.807   4.075
 9109SOL    HW228227   3.042   1.816   4.218
 9110SOL     OW28228   1.967   3.149   2.757
 9110SOL    HW128229   2.042   3.082   2.761
 9110SOL    HW228230   1.944   3.167   2.661
 9111SOL     OW28231   4.268   4.172   1.681
 9111SOL    HW128232   4.245   4.075   1.675
 9111SOL    HW228233   4.354   4.183   1.732
 9112SOL     OW28234   0.225   5.085   2.691
 9112SOL    HW128235   0.318   5.054   2.706
 9112SOL    HW228236   0.220   5.140   2.607
 9113SOL     OW28237   3.435   6.222   0.278
 9113SOL    HW128238   3.450   6.188   0.185
 9113SOL    HW228239   3.478   6.161   0.344
 9114SOL     OW28240   2.453   4.594   2.205
 9114SOL    HW128241   2.398   4.553   2.278
 9114SOL    HW228242   2.426   4.556   2.117
 9115SOL     OW28243   1.894   4.182   4.084
 9115SOL    HW128244   1.869   4.140   4.171
 9115SOL    HW228245   1.993   4.198   4.082
 9116SOL     OW28246   1.745   1.391   5.997
 9116SOL    HW128247   1.833   1.399   5.950
 9116SOL    HW228248   1.760   1.358   6.090
 9117SOL     OW28249   6.522   2.928   6.796
 9117SOL    HW128250   6.567   2.998   6.852
 9117SOL    HW228251   6.586   2.855   6.775
 9118SOL     OW28252   6.433   5.707   1.690
 9118SOL    HW128253   6.487   5.752   1.761
 9118SOL    HW228254   6.345   5.754   1.680
 9119SOL     OW28255   6.654   0.040   1.465
 9119SOL    HW128256   6.569   0.025   1.413
 9119SOL    HW228257   6.731   0.042   1.402
 9120SOL     OW28258   5.418   1.539   6.442
 9120SOL    HW128259   5.436   1.545   6.344
 9120SOL    HW228260   5.320   1.527   6.457
 9121SOL     OW28261   1.255   1.104   6.808
 9121SOL    HW128262   1.293   1.017   6.777
 9121SOL    HW228263   1.318   1.178   6.787
 9122SOL     OW28264   0.529   2.556   1.283
 9122SOL    HW128265   0.502   2.632   1.224
 9122SOL    HW228266   0.622   2.528   1.262
 9123SOL     OW28267   2.548   5.897   0.196
 9123SOL    HW128268   2.510   5.807   0.176
 9123SOL    HW228269   2.617   5.921   0.128
 9124SOL     OW28270   5.842   5.195   5.222
 9124SOL    HW128271   5.905   5.164   5.151
 9124SOL    HW228272   5.892   5.249   5.290
 9125SOL     OW28273   4.809   5.827   3.370
 9125SOL    HW128274   4.822   5.890   3.293
 9125SOL    HW228275   4.888   5.834   3.432
 9126SOL     OW28276   6.042   0.538   1.453
 9126SOL    HW128277   6.098   0.498   1.525
 9126SOL    HW228278   6.081   0.626   1.425
 9127SOL     OW28279   5.130   0.856   6.973
 9127SOL    HW128280   5.165   0.763   6.958
 9127SOL    HW228281   5.105   0.867   0.042
 9128SOL     OW28282   4.493   2.583   5.053
 9128SOL    HW128283   4.540   2.536   4.979
 9128SOL    HW228284   4.397   2.555   5.054
 9129SOL     OW28285   2.040   2.499   5.836
 9129SOL    HW128286   2.002   2.409   5.855
 9129SOL    HW228287   2.034   2.556   5.918
 9130SOL     OW28288   6.374   4.981   0.795
 9130SOL    HW128289   6.431   5.061   0.813
 9130SOL    HW228290   6.334   4.987   0.704
 9131SOL     OW28291   0.724   4.001   4.642
 9131SOL    HW128292   0.817   3.969   4.626
 9131SOL    HW228293   0.696   4.059   4.565
 9132SOL     OW28294   0.334   3.042   4.673
 9132SOL    HW128295   0.261   3.099   4.710
 9132SOL    HW228296   0.339   3.053   4.574
 9133SOL     OW28297   1.687   4.463   1.361
 9133SOL    HW128298   1.740   4.380   1.343
 9133SOL    HW228299   1.591   4.445   1.343
 9134SOL     OW28300   3.016   5.717   6.139
 9134SOL    HW128301   3.089   5.776   6.173
 9134SOL    HW228302   2.945   5.708   6.208
 9135SOL     OW28303   6.690   6.519   4.357
 9135SOL    HW128304   6.626   6.470   4.298
 9135SOL    HW228305   6.639   6.580   4.418
 9136SOL     OW28306   4.770   4.772   5.360
 9136SOL    HW128307   4.860   4.737   5.336
 9136SOL    HW228308   4.761   4.777   5.459
 9137SOL     OW28309   4.202   1.252   2.100
 9137SOL    HW128310   4.216   1.349   2.078
 9137SOL    HW228311   4.290   1.205   2.100
 9138SOL     OW28312   3.784   4.953   0.352
 9138SOL    HW128313   3.774   5.021   0.426
 9138SOL    HW228314   3.714   4.883   0.362
 9139SOL     OW28315   3.026   1.670   5.444
 9139SOL    HW128316   3.111   1.641   5.489
 9139SOL    HW228317   3.009   1.767   5.464
 9140SOL     OW28318   6.991   2.024   3.426
 9140SOL    HW128319   6.993   1.929   3.456
 9140SOL    HW228320   0.050   2.069   3.450
 9141SOL     OW28321   6.014   0.342   5.903
 9141SOL    HW128322   6.112   0.323   5.906
 9141SOL    HW228323   6.000   0.435   5.869
 9142SOL     OW28324   6.785   3.441   5.966
 9142SOL    HW128325   6.731   3.461   6.048
 9142SOL    HW228326   6.861   3.381   5.989
 9143SOL     OW28327   5.008   3.772   0.699
 9143SOL    HW128328   5.022   3.673   0.700
 9143SOL    HW228329   5.037   3.811   0.787
 9144SOL     OW28330   1.982   4.632   5.119
 9144SOL    HW128331   2.053   4.638   5.048
 9144SOL    HW228332   2.024   4.637   5.209
 9145SOL     OW28333   0.454   4.729   6.439
 9145SOL    HW128334   0.469   4.670   6.519
 9145SOL    HW228335   0.444   4.672   6.358
 9146SOL     OW28336   6.373   2.283   2.372
 9146SOL    HW128337   6.375   2.262   2.274
 9146SOL    HW228338   6.305   2.224   2.417
 9147SOL     OW28339   4.503   5.589   5.678
 9147SOL    HW128340   4.491   5.553   5.585
 9147SOL    HW228341   4.468   5.683   5.682
 9148SOL     OW28342   4.205   5.848   3.668
 9148SOL    HW128343   4.123   5.899   3.645
 9148SOL    HW228344   4.285   5.895   3.631
 9149SOL     OW28345   5.953   3.582   3.904
 9149SOL    HW128346   5.854   3.569   3.898
 9149SOL    HW228347   5.975   3.677   3.885
 9150SOL     OW28348   5.169   0.315   2.924
 9150SOL    HW128349   5.214   0.378   2.861
 9150SOL    HW228350   5.098   0.364   2.975
 9151SOL     OW28351   1.574   4.231   1.879
 9151SOL    HW128352   1.506   4.214   1.950
 9151SOL    HW228353   1.659   4.183   1.902
 9152SOL     OW28354   1.844   5.583   3.239
 9152SOL    HW128355   1.773   5.569   3.307
 9152SOL    HW228356   1.918   5.639   3.278
 9153SOL     OW28357   1.214   3.001   6.107
 9153SOL    HW128358   1.240   2.914   6.066
 9153SOL    HW228359   1.252   3.007   6.200
 9154SOL     OW28360   2.027   5.622   7.015
 9154SOL    HW128361   2.114   5.579   0.011
 9154SOL    HW228362   1.990   5.581   6.932
 9155SOL     OW28363   1.176   3.920   0.606
 9155SOL    HW128364   1.225   4.004   0.630
 9155SOL    HW228365   1.099   3.908   0.669
 9156SOL     OW28366   5.088   2.352   1.544
 9156SOL    HW128367   5.027   2.349   1.624
 9156SOL    HW228368   5.170   2.299   1.563
 9157SOL     OW28369   5.346   4.019   5.690
 9157SOL    HW128370   5.289   4.092   5.727
 9157SOL    HW228371   5.301   3.977   5.612
 9158SOL     OW28372   0.900   3.771   3.931
 9158SOL    HW128373   0.834   3.814   3.868
 9158SOL    HW228374   0.896   3.672   3.921
 9159SOL     OW28375   0.007   4.548   3.766
 9159SOL    HW128376   7.020   4.594   3.679
 9159SOL    HW228377   0.076   4.597   3.819
 9160SOL     OW28378   0.060   0.023   6.873
 9160SOL    HW128379   0.015   0.103   6.912
 9160SOL    HW228380   0.110   7.002   6.945
 9161SOL     OW28381   4.744   4.146   4.563
 9161SOL    HW128382   4.696   4.223   4.605
 9161SOL    HW228383   4.766   4.169   4.468
 9162SOL     OW28384   4.865   2.438   2.450
 9162SOL    HW128385   4.830   2.363   2.507
 9162SOL    HW228386   4.825   2.432   2.359
 9163SOL     OW28387   3.100   1.938   3.974
 9163SOL    HW128388   3.079   2.013   4.037
 9163SOL    HW228389   3.199   1.921   3.973
 9164SOL     OW28390   3.307   0.274   0.372
 9164SOL    HW128391   3.210   0.295   0.357
 9164SOL    HW228392   3.319   0.227   0.459
 9165SOL     OW28393   6.078   0.018   6.642
 9165SOL    HW128394   6.064   6.998   6.729
 9165SOL    HW228395   6.024   6.999   6.571
 9166SOL     OW28396   3.069   5.813   1.462
 9166SOL    HW128397   2.980   5.841   1.497
 9166SOL    HW228398   3.136   5.885   1.481
 9167SOL     OW28399   1.516   4.293   5.395
 9167SOL    HW128400   1.571   4.363   5.350
 9167SOL    HW228401   1.570   4.247   5.465
 9168SOL     OW28402   2.165   1.019   6.514
 9168SOL    HW128403   2.082   1.071   6.533
 9168SOL    HW228404   2.152   0.966   6.430
 9169SOL     OW28405   0.801   0.604   3.681
 9169SOL    HW128406   0.818   0.506   3.677
 9169SOL    HW228407   0.761   0.628   3.769
 9170SOL     OW28408   6.621   5.944   6.595
 9170SOL    HW128409   6.566   5.971   6.516
 9170SOL    HW228410   6.604   5.847   6.615
 9171SOL     OW28411   2.746   5.915   0.008
 9171SOL    HW128412   2.816   5.925   6.965
 9171SOL    HW228413   2.767   5.834   0.064
 9172SOL     OW28414   3.046   1.501   4.193
 9172SOL    HW128415   3.003   1.592   4.193
 9172SOL    HW228416   3.095   1.487   4.108
 9173SOL     OW28417   0.663   5.741   4.338
 9173SOL    HW128418   0.612   5.781   4.262
 9173SOL    HW228419   0.654   5.642   4.337
 9174SOL     OW28420   0.211   5.217   0.374
 9174SOL    HW128421   0.186   5.147   0.308
 9174SOL    HW228422   0.197   5.182   0.467
 9175SOL     OW28423   2.146   5.907   5.966
 9175SOL    HW128424   2.099   5.946   6.045
 9175SOL    HW228425   2.234   5.954   5.953
 9176SOL     OW28426   1.999   0.445   5.755
 9176SOL    HW128427   2.092   0.474   5.731
 9176SOL    HW228428   1.939   0.524   5.761
 9177SOL     OW28429   0.953   4.169   3.643
 9177SOL    HW128430   0.923   4.223   3.722
 9177SOL    HW228431   0.934   4.219   3.559
 9178SOL     OW28432   2.133   4.691   0.553
 9178SOL    HW128433   2.161   4.763   0.618
 9178SOL    HW228434   2.174   4.710   0.464
 9179SOL     OW28435   3.521   4.975   4.173
 9179SOL    HW128436   3.439   4.961   4.229
 9179SOL    HW228437   3.603   4.965   4.230
 9180SOL     OW28438   5.416   1.820   3.412
 9180SOL    HW128439   5.491   1.875   3.449
 9180SOL    HW228440   5.402   1.844   3.316
 9181SOL     OW28441   4.253   1.943   2.310
 9181SOL    HW128442   4.157   1.971   2.313
 9181SOL    HW228443   4.312   2.024   2.307
 9182SOL     OW28444   1.024   6.642   1.335
 9182SOL    HW128445   1.055   6.643   1.240
 9182SOL    HW228446   0.984   6.731   1.357
 9183SOL     OW28447   5.480   6.382   0.530
 9183SOL    HW128448   5.495   6.454   0.598
 9183SOL    HW228449   5.524   6.298   0.562
 9184SOL     OW28450   4.870   0.028   0.294
 9184SOL    HW128451   4.970   0.026   0.298
 9184SOL    HW228452   4.833   0.027   0.386
 9185SOL     OW28453   3.474   1.086   5.026
 9185SOL    HW128454   3.443   1.050   5.114
 9185SOL    HW228455   3.494   1.184   5.035
 9186SOL     OW28456   6.348   1.098   5.513
 9186SOL    HW128457   6.291   1.153   5.452
 9186SOL    HW228458   6.386   1.021   5.461
 9187SOL     OW28459   2.369   6.357   2.012
 9187SOL    HW128460   2.459   6.338   1.974
 9187SOL    HW228461   2.360   6.455   2.028
 9188SOL     OW28462   2.197   6.643   1.221
 9188SOL    HW128463   2.270   6.621   1.155
 9188SOL    HW228464   2.172   6.560   1.271
 9189SOL     OW28465   4.920   5.534   2.416
 9189SOL    HW128466   4.974   5.598   2.470
 9189SOL    HW228467   4.942   5.440   2.444
 9190SOL     OW28468   1.992   5.038   0.312
 9190SOL    HW128469   1.956   4.948   0.337
 9190SOL    HW228470   2.012   5.040   0.214
 9191SOL     OW28471   0.042   0.326   5.588
 9191SOL    HW128472   0.028   0.227   5.583
 9191SOL    HW228473   0.043   0.355   5.684
 9192SOL     OW28474   6.880   4.420   4.319
 9192SOL    HW128475   6.903   4.343   4.259
 9192SOL    HW228476   6.788   4.408   4.355
 9193SOL     OW28477   2.896   3.683   0.183
 9193SOL    HW128478   2.867   3.674   0.088
 9193SOL    HW228479   2.912   3.780   0.203
 9194SOL     OW28480   3.663   0.876   3.957
 9194SOL    HW128481   3.684   0.907   4.050
 9194SOL    HW228482   3.677   0.777   3.952
 9195SOL     OW28483   1.676   1.894   3.946
 9195SOL    HW128484   1.678   1.886   3.846
 9195SOL    HW228485   1.614   1.825   3.984
 9196SOL     OW28486   4.697   2.165   5.020
 9196SOL    HW128487   4.767   2.153   5.091
 9196SOL    HW228488   4.705   2.092   4.952
 9197SOL     OW28489   2.440   3.841   1.739
 9197SOL    HW128490   2.372   3.837   1.812
 9197SOL    HW228491   2.463   3.936   1.720
 9198SOL     OW28492   6.533   5.129   4.904
 9198SOL    HW128493   6.445   5.171   4.927
 9198SOL    HW228494   6.546   5.047   4.960
 9199SOL     OW28495   6.544   4.324   4.768
 9199SOL    HW128496   6.595   4.359   4.846
 9199SOL    HW228497   6.516   4.230   4.785
 9200SOL     OW28498   3.371   6.762   0.729
 9200SOL    HW128499   3.359   6.861   0.720
 9200SOL    HW228500   3.326   6.730   0.812
 9201SOL     OW28501   1.561   4.392   0.236
 9201SOL    HW128502   1.581   4.477   0.285
 9201SOL    HW228503   1.581   4.314   0.295
 9202SOL     OW28504   2.462   0.193   3.402
 9202SOL    HW128505   2.550   0.189   3.449
 9202SOL    HW228506   2.406   0.115   3.430
 9203SOL     OW28507   6.793   5.983   0.837
 9203SOL    HW128508   6.746   5.953   0.920
 9203SOL    HW228509   6.729   6.031   0.777
 9204SOL     OW28510   5.060   1.149   6.340
 9204SOL    HW128511   4.963   1.175   6.341
 9204SOL    HW228512   5.115   1.226   6.306
 9205SOL     OW28513   0.046   3.950   2.565
 9205SOL    HW128514   0.045   3.863   2.517
 9205SOL    HW228515   0.112   4.012   2.522
 9206SOL     OW28516   3.588   6.130   0.813
 9206SOL    HW128517   3.639   6.071   0.750
 9206SOL    HW228518   3.556   6.211   0.763
 9207SOL     OW28519   5.018   5.548   0.320
 9207SOL    HW128520   5.100   5.498   0.293
 9207SOL    HW228521   4.938   5.507   0.277
 9208SOL     OW28522   0.907   3.572   3.566
 9208SOL    HW128523   0.808   3.579   3.553
 9208SOL    HW228524   0.945   3.664   3.583
 9209SOL     OW28525   2.835   0.952   6.270
 9209SOL    HW128526   2.835   1.011   6.190
 9209SOL    HW228527   2.791   0.999   6.347
 9210SOL     OW28528   6.510   0.912   3.684
 9210SOL    HW128529   6.411   0.924   3.694
 9210SOL    HW228530   6.530   0.870   3.595
 9211SOL     OW28531   0.662   1.365   3.363
 9211SOL    HW128532   0.744   1.329   3.408
 9211SOL    HW228533   0.670   1.353   3.264
 9212SOL     OW28534   3.416   4.932   4.847
 9212SOL    HW128535   3.412   4.861   4.777
 9212SOL    HW228536   3.331   4.985   4.845
 9213SOL     OW28537   6.094   3.726   6.029
 9213SOL    HW128538   6.053   3.658   5.969
 9213SOL    HW228539   6.043   3.812   6.022
 9214SOL     OW28540   0.287   5.234   0.894
 9214SOL    HW128541   0.208   5.270   0.944
 9214SOL    HW228542   0.316   5.149   0.938
 9215SOL     OW28543   0.641   1.240   0.523
 9215SOL    HW128544   0.715   1.205   0.580
 9215SOL    HW228545   0.649   1.339   0.515
 9216SOL     OW28546   2.346   6.385   3.146
 9216SOL    HW128547   2.392   6.468   3.115
 9216SOL    HW228548   2.295   6.344   3.071
 9217SOL     OW28549   1.190   2.828   6.981
 9217SOL    HW128550   1.245   2.840   6.898
 9217SOL    HW228551   1.185   2.915   0.003
 9218SOL     OW28552   3.147   0.570   0.481
 9218SOL    HW128553   3.079   0.501   0.502
 9218SOL    HW228554   3.121   0.619   0.397
 9219SOL     OW28555   0.114   2.799   0.945
 9219SOL    HW128556   0.131   2.756   1.034
 9219SOL    HW228557   0.199   2.802   0.893
 9220SOL     OW28558   3.577   6.789   1.923
 9220SOL    HW128559   3.548   6.804   2.017
 9220SOL    HW228560   3.533   6.857   1.864
 9221SOL     OW28561   2.653   5.548   4.621
 9221SOL    HW128562   2.632   5.453   4.644
 9221SOL    HW228563   2.568   5.599   4.610
 9222SOL     OW28564   2.277   2.368   6.055
 9222SOL    HW128565   2.359   2.420   6.030
 9222SOL    HW228566   2.249   2.311   5.978
 9223SOL     OW28567   2.762   2.992   5.372
 9223SOL    HW128568   2.801   2.901   5.358
 9223SOL    HW228569   2.693   3.009   5.301
 9224SOL     OW28570   2.113   5.122   5.098
 9224SOL    HW128571   2.076   5.205   5.056
 9224SOL    HW228572   2.126   5.138   5.196
 9225SOL     OW28573   2.191   5.705   6.663
 9225SOL    HW128574   2.184   5.740   6.570
 9225SOL    HW228575   2.264   5.636   6.668
 9226SOL     OW28576   4.854   0.001   0.952
 9226SOL    HW128577   4.792   0.057   1.008
 9226SOL    HW228578   4.947   0.036   0.960
 9227SOL     OW28579   1.901   5.582   2.406
 9227SOL    HW128580   1.949   5.513   2.351
 9227SOL    HW228581   1.888   5.665   2.351
 9228SOL     OW28582   1.064   0.314   6.890
 9228SOL    HW128583   1.110   0.365   6.818
 9228SOL    HW228584   1.032   0.377   6.961
 9229SOL     OW28585   0.624   5.360   5.163
 9229SOL    HW128586   0.619   5.460   5.161
 9229SOL    HW228587   0.716   5.332   5.190
 9230SOL     OW28588   5.441   0.676   4.421
 9230SOL    HW128589   5.476   0.766   4.396
 9230SOL    HW228590   5.517   0.613   4.435
 9231SOL     OW28591   1.527   2.705   3.539
 9231SOL    HW128592   1.472   2.651   3.602
 9231SOL    HW228593   1.617   2.723   3.579
 9232SOL     OW28594   3.883   4.597   1.420
 9232SOL    HW128595   3.959   4.660   1.437
 9232SOL    HW228596   3.909   4.504   1.448
 9233SOL     OW28597   5.555   5.154   0.610
 9233SOL    HW128598   5.585   5.058   0.606
 9233SOL    HW228599   5.631   5.211   0.642
 9234SOL     OW28600   2.203   5.926   3.700
 9234SOL    HW128601   2.140   5.960   3.770
 9234SOL    HW228602   2.293   5.965   3.714
 9235SOL     OW28603   0.680   1.858   3.185
 9235SOL    HW128604   0.755   1.796   3.164
 9235SOL    HW228605   0.604   1.841   3.122
 9236SOL     OW28606   2.962   3.353   5.449
 9236SOL    HW128607   3.005   3.277   5.401
 9236SOL    HW228608   2.863   3.352   5.431
 9237SOL     OW28609   1.947   4.023   3.566
 9237SOL    HW128610   1.922   4.051   3.659
 9237SOL    HW228611   1.977   4.103   3.514
 9238SOL     OW28612   4.792   2.827   6.213
 9238SOL    HW128613   4.733   2.773   6.273
 9238SOL    HW228614   4.736   2.875   6.145
 9239SOL     OW28615   1.639   4.314   1.021
 9239SOL    HW128616   1.631   4.214   1.015
 9239SOL    HW228617   1.595   4.355   0.941
 9240SOL     OW28618   4.398   1.470   2.255
 9240SOL    HW128619   4.423   1.408   2.329
 9240SOL    HW228620   4.432   1.562   2.275
 9241SOL     OW28621   0.522   5.765   6.753
 9241SOL    HW128622   0.600   5.825   6.737
 9241SOL    HW228623   0.466   5.802   6.827
 9242SOL     OW28624   6.408   6.076   2.023
 9242SOL    HW128625   6.364   6.107   1.939
 9242SOL    HW228626   6.505   6.100   2.021
 9243SOL     OW28627   5.912   5.742   4.849
 9243SOL    HW128628   5.842   5.812   4.831
 9243SOL    HW228629   5.872   5.652   4.837
 9244SOL     OW28630   3.665   4.793   6.435
 9244SOL    HW128631   3.670   4.882   6.480
 9244SOL    HW228632   3.593   4.737   6.477
 9245SOL     OW28633   0.192   5.778   1.567
 9245SOL    HW128634   0.272   5.719   1.563
 9245SOL    HW228635   0.198   5.848   1.496
 9246SOL     OW28636   0.396   5.236   3.874
 9246SOL    HW128637   0.374   5.237   3.777
 9246SOL    HW228638   0.484   5.281   3.890
 9247SOL     OW28639   2.054   6.463   2.404
 9247SOL    HW128640   2.016   6.388   2.458
 9247SOL    HW228641   1.987   6.493   2.336
 9248SOL     OW28642   2.596   1.632   6.327
 9248SOL    HW128643   2.570   1.569   6.401
 9248SOL    HW228644   2.516   1.684   6.298
 9249SOL     OW28645   4.677   0.340   3.616
 9249SOL    HW128646   4.750   0.290   3.570
 9249SOL    HW228647   4.640   0.284   3.691
 9250SOL     OW28648   5.255   3.584   3.867
 9250SOL    HW128649   5.288   3.540   3.950
 9250SOL    HW228650   5.298   3.674   3.858
 9251SOL     OW28651   3.197   1.950   2.599
 9251SOL    HW128652   3.206   1.858   2.559
 9251SOL    HW228653   3.228   2.018   2.533
 9252SOL     OW28654   0.970   0.251   4.953
 9252SOL    HW128655   0.907   0.173   4.954
 9252SOL    HW228656   0.946   0.312   4.879
 9253SOL     OW28657   1.365   6.888   6.136
 9253SOL    HW128658   1.329   6.952   6.069
 9253SOL    HW228659   1.465   6.889   6.134
 9254SOL     OW28660   5.741   3.710   0.992
 9254SOL    HW128661   5.828   3.704   1.041
 9254SOL    HW228662   5.758   3.730   0.896
 9255SOL     OW28663   5.971   4.749   0.986
 9255SOL    HW128664   5.942   4.713   1.075
 9255SOL    HW228665   5.981   4.673   0.922
 9256SOL     OW28666   4.280   4.703   2.092
 9256SOL    HW128667   4.325   4.636   2.032
 9256SOL    HW228668   4.273   4.665   2.184
 9257SOL     OW28669   1.316   4.305   1.074
 9257SOL    HW128670   1.395   4.344   1.122
 9257SOL    HW228671   1.288   4.366   1.001
 9258SOL     OW28672   4.042   3.591   3.265
 9258SOL    HW128673   3.997   3.516   3.315
 9258SOL    HW228674   4.095   3.646   3.329
 9259SOL     OW28675   0.911   3.011   0.628
 9259SOL    HW128676   0.984   2.944   0.632
 9259SOL    HW228677   0.825   2.971   0.660
 9260SOL     OW28678   5.129   3.364   5.725
 9260SOL    HW128679   5.127   3.292   5.794
 9260SOL    HW228680   5.169   3.447   5.765
 9261SOL     OW28681   4.445   0.043   6.489
 9261SOL    HW128682   4.531   7.020   6.493
 9261SOL    HW228683   4.421   0.060   6.393
 9262SOL     OW28684   4.929   1.224   5.610
 9262SOL    HW128685   5.026   1.245   5.622
 9262SOL    HW228686   4.874   1.291   5.660
 9263SOL     OW28687   5.308   3.899   1.328
 9263SOL    HW128688   5.211   3.896   1.304
 9263SOL    HW228689   5.337   3.993   1.342
 9264SOL     OW28690   6.396   3.845   0.286
 9264SOL    HW128691   6.300   3.818   0.300
 9264SOL    HW228692   6.456   3.773   0.321
 9265SOL     OW28693   1.792   1.287   6.825
 9265SOL    HW128694   1.843   1.363   6.866
 9265SOL    HW228695   1.830   1.201   6.856
 9266SOL     OW28696   2.190   5.986   3.251
 9266SOL    HW128697   2.288   5.965   3.259
 9266SOL    HW228698   2.139   5.930   3.316
 9267SOL     OW28699   1.439   4.799   4.451
 9267SOL    HW128700   1.356   4.743   4.453
 9267SOL    HW228701   1.422   4.881   4.396
 9268SOL     OW28702   0.680   0.150   3.133
 9268SOL    HW128703   0.715   0.097   3.055
 9268SOL    HW228704   0.715   0.243   3.127
 9269SOL     OW28705   3.291   1.375   6.208
 9269SOL    HW128706   3.228   1.434   6.158
 9269SOL    HW228707   3.257   1.359   6.300
 9270SOL     OW28708   6.732   6.873   5.835
 9270SOL    HW128709   6.688   6.811   5.899
 9270SOL    HW228710   6.830   6.855   5.832
 9271SOL     OW28711   1.536   5.137   0.134
 9271SOL    HW128712   1.602   5.065   0.115
 9271SOL    HW228713   1.466   5.103   0.197
 9272SOL     OW28714   2.485   4.793   5.890
 9272SOL    HW128715   2.507   4.772   5.986
 9272SOL    HW228716   2.554   4.751   5.831
 9273SOL     OW28717   4.320   5.651   4.743
 9273SOL    HW128718   4.321   5.602   4.830
 9273SOL    HW228719   4.260   5.603   4.678
 9274SOL     OW28720   6.306   2.462   6.943
 9274SOL    HW128721   6.361   2.518   7.005
 9274SOL    HW228722   6.235   2.415   6.995
 9275SOL     OW28723   1.188   0.471   6.700
 9275SOL    HW128724   1.134   0.554   6.687
 9275SOL    HW228725   1.277   0.496   6.739
 9276SOL     OW28726   4.467   5.745   5.208
 9276SOL    HW128727   4.435   5.822   5.264
 9276SOL    HW228728   4.554   5.769   5.165
 9277SOL     OW28729   3.372   2.949   0.213
 9277SOL    HW128730   3.468   2.951   0.241
 9277SOL    HW228731   3.364   2.894   0.130
 9278SOL     OW28732   1.086   2.146   2.430
 9278SOL    HW128733   1.034   2.198   2.362
 9278SOL    HW228734   1.073   2.187   2.520
 9279SOL     OW28735   3.662   0.100   1.986
 9279SOL    HW128736   3.623   0.115   1.895
 9279SOL    HW228737   3.738   0.035   1.979
 9280SOL     OW28738   2.171   6.796   3.654
 9280SOL    HW128739   2.248   6.780   3.592
 9280SOL    HW228740   2.170   6.725   3.724
 9281SOL     OW28741   2.036   2.270   0.410
 9281SOL    HW128742   2.124   2.264   0.363
 9281SOL    HW228743   1.977   2.194   0.380
 9282SOL     OW28744   4.427   2.056   5.645
 9282SOL    HW128745   4.513   2.006   5.657
 9282SOL    HW228746   4.446   2.147   5.610
 9283SOL     OW28747   5.715   2.534   2.330
 9283SOL    HW128748   5.663   2.593   2.267
 9283SOL    HW228749   5.664   2.449   2.345
 9284SOL     OW28750   3.129   3.170   1.344
 9284SOL    HW128751   3.104   3.154   1.248
 9284SOL    HW228752   3.053   3.142   1.402
 9285SOL     OW28753   6.263   2.971   6.863
 9285SOL    HW128754   6.248   3.033   6.939
 9285SOL    HW228755   6.360   2.947   6.857
 9286SOL     OW28756   5.539   6.642   5.279
 9286SOL    HW128757   5.443   6.620   5.263
 9286SOL    HW228758   5.554   6.661   5.376
 9287SOL     OW28759   3.406   6.985   1.808
 9287SOL    HW128760   3.394   0.023   1.883
 9287SOL    HW228761   3.323   6.929   1.800
 9288SOL     OW28762   5.127   2.167   5.836
 9288SOL    HW128763   5.202   2.228   5.865
 9288SOL    HW228764   5.165   2.093   5.781
 9289SOL     OW28765   4.844   2.972   2.520
 9289SOL    HW128766   4.883   3.046   2.467
 9289SOL    HW228767   4.883   2.885   2.490
 9290SOL     OW28768   4.719   1.901   4.384
 9290SOL    HW128769   4.653   1.842   4.431
 9290SOL    HW228770   4.788   1.844   4.339
 9291SOL     OW28771   0.478   1.411   4.561
 9291SOL    HW128772   0.515   1.323   4.589
 9291SOL    HW228773   0.499   1.427   4.465
 9292SOL     OW28774   0.102   3.268   6.578
 9292SOL    HW128775   0.055   3.329   6.641
 9292SOL    HW228776   0.036   3.204   6.538
 9293SOL     OW28777   5.414   4.063   0.127
 9293SOL    HW128778   5.366   4.151   0.126
 9293SOL    HW228779   5.478   4.058   0.051
 9294SOL     OW28780   5.718   6.405   6.665
 9294SOL    HW128781   5.669   6.423   6.750
 9294SOL    HW228782   5.801   6.461   6.663
 9295SOL     OW28783   4.751   1.658   2.909
 9295SOL    HW128784   4.772   1.710   2.992
 9295SOL    HW228785   4.670   1.602   2.925
 9296SOL     OW28786   5.939   0.094   5.811
 9296SOL    HW128787   5.964   0.018   5.871
 9296SOL    HW228788   5.969   0.180   5.852
 9297SOL     OW28789   0.405   1.213   1.000
 9297SOL    HW128790   0.378   1.119   0.980
 9297SOL    HW228791   0.379   1.236   1.094
 9298SOL     OW28792   1.324   5.906   4.999
 9298SOL    HW128793   1.356   5.813   4.982
 9298SOL    HW228794   1.386   5.951   5.063
 9299SOL     OW28795   1.995   2.980   4.372
 9299SOL    HW128796   2.042   3.025   4.448
 9299SOL    HW228797   1.896   2.986   4.385
 9300SOL     OW28798   5.288   4.595   4.537
 9300SOL    HW128799   5.301   4.500   4.563
 9300SOL    HW228800   5.376   4.642   4.535
 9301SOL     OW28801   5.226   4.451   2.652
 9301SOL    HW128802   5.205   4.507   2.572
 9301SOL    HW228803   5.163   4.373   2.656
 9302SOL     OW28804   2.248   2.176   2.600
 9302SOL    HW128805   2.323   2.241   2.587
 9302SOL    HW228806   2.190   2.207   2.675
 9303SOL     OW28807   3.668   5.524   0.152
 9303SOL    HW128808   3.677   5.581   0.233
 9303SOL    HW228809   3.620   5.440   0.175
 9304SOL     OW28810   3.727   3.580   0.862
 9304SOL    HW128811   3.726   3.503   0.926
 9304SOL    HW228812   3.652   3.643   0.883
 9305SOL     OW28813   5.446   3.068   2.053
 9305SOL    HW128814   5.409   3.027   1.970
 9305SOL    HW228815   5.409   3.022   2.133
 9306SOL     OW28816   6.636   3.880   4.159
 9306SOL    HW128817   6.687   3.855   4.076
 9306SOL    HW228818   6.541   3.853   4.149
 9307SOL     OW28819   1.679   1.961   0.095
 9307SOL    HW128820   1.583   1.932   0.092
 9307SOL    HW228821   1.714   1.951   0.188
 9308SOL     OW28822   6.935   2.931   0.871
 9308SOL    HW128823   7.019   2.892   0.909
 9308SOL    HW228824   6.906   2.877   0.792
 9309SOL     OW28825   5.013   3.241   5.988
 9309SOL    HW128826   5.026   3.326   6.038
 9309SOL    HW228827   4.930   3.247   5.932
 9310SOL     OW28828   4.129   5.906   6.856
 9310SOL    HW128829   4.158   5.915   6.761
 9310SOL    HW228830   4.205   5.931   6.916
 9311SOL     OW28831   6.100   3.226   1.076
 9311SOL    HW128832   6.150   3.238   1.161
 9311SOL    HW228833   6.029   3.156   1.089
 9312SOL     OW28834   1.481   4.398   6.481
 9312SOL    HW128835   1.500   4.435   6.390
 9312SOL    HW228836   1.390   4.356   6.481
 9313SOL     OW28837   6.688   6.904   2.756
 9313SOL    HW128838   6.768   6.846   2.740
 9313SOL    HW228839   6.705   6.962   2.836
 9314SOL     OW28840   5.012   4.532   0.466
 9314SOL    HW128841   4.952   4.453   0.473
 9314SOL    HW228842   4.958   4.614   0.448
 9315SOL     OW28843   0.143   6.582   6.159
 9315SOL    HW128844   0.196   6.520   6.217
 9315SOL    HW228845   0.091   6.528   6.092
 9316SOL     OW28846   4.186   6.107   4.105
 9316SOL    HW128847   4.274   6.069   4.132
 9316SOL    HW228848   4.133   6.129   4.187
 9317SOL     OW28849   6.570   4.619   3.906
 9317SOL    HW128850   6.560   4.690   3.976
 9317SOL    HW228851   6.573   4.529   3.949
 9318SOL     OW28852   7.018   0.295   6.172
 9318SOL    HW128853   0.077   0.341   6.151
 9318SOL    HW228854   7.019   0.202   6.135
 9319SOL     OW28855   0.261   3.347   5.685
 9319SOL    HW128856   0.190   3.414   5.710
 9319SOL    HW228857   0.224   3.283   5.619
 9320SOL     OW28858   4.647   2.469   6.250
 9320SOL    HW128859   4.641   2.546   6.313
 9320SOL    HW228860   4.633   2.384   6.300
 9321SOL     OW28861   6.693   5.632   3.230
 9321SOL    HW128862   6.672   5.612   3.326
 9321SOL    HW228863   6.663   5.555   3.173
 9322SOL     OW28864   1.302   6.507   6.602
 9322SOL    HW128865   1.380   6.562   6.633
 9322SOL    HW228866   1.221   6.565   6.594
 9323SOL     OW28867   0.407   0.541   6.460
 9323SOL    HW128868   0.448   0.518   6.372
 9323SOL    HW228869   0.393   0.458   6.514
 9324SOL     OW28870   1.358   5.713   0.413
 9324SOL    HW128871   1.340   5.793   0.357
 9324SOL    HW228872   1.436   5.731   0.473
 9325SOL     OW28873   6.068   2.429   1.068
 9325SOL    HW128874   6.044   2.371   1.146
 9325SOL    HW228875   6.162   2.460   1.078
 9326SOL     OW28876   1.692   6.674   1.222
 9326SOL    HW128877   1.718   6.713   1.310
 9326SOL    HW228878   1.705   6.743   1.150
 9327SOL     OW28879   4.454   1.082   2.933
 9327SOL    HW128880   4.442   1.093   2.834
 9327SOL    HW228881   4.542   1.120   2.960
 9328SOL     OW28882   3.448   1.302   1.670
 9328SOL    HW128883   3.438   1.213   1.715
 9328SOL    HW228884   3.471   1.289   1.574
 9329SOL     OW28885   1.313   3.313   1.472
 9329SOL    HW128886   1.349   3.250   1.403
 9329SOL    HW228887   1.373   3.313   1.552
 9330SOL     OW28888   6.095   0.899   0.045
 9330SOL    HW128889   6.123   0.955   6.993
 9330SOL    HW228890   6.139   0.935   0.127
 9331SOL     OW28891   0.703   1.142   0.062
 9331SOL    HW128892   0.668   1.100   7.006
 9331SOL    HW228893   0.638   1.212   0.094
 9332SOL     OW28894   3.103   3.046   4.122
 9332SOL    HW128895   3.190   3.065   4.169
 9332SOL    HW228896   3.030   3.098   4.165
 9333SOL     OW28897   5.968   4.669   0.716
 9333SOL    HW128898   5.907   4.642   0.641
 9333SOL    HW228899   6.000   4.762   0.700
 9334SOL     OW28900   2.840   6.966   5.033
 9334SOL    HW128901   2.799   6.939   4.946
 9334SOL    HW228902   2.797   0.023   5.065
 9335SOL     OW28903   0.315   0.687   0.732
 9335SOL    HW128904   0.350   0.714   0.642
 9335SOL    HW228905   0.352   0.597   0.756
 9336SOL     OW28906   2.883   6.922   5.889
 9336SOL    HW128907   2.890   6.948   5.986
 9336SOL    HW228908   2.788   6.934   5.858
 9337SOL     OW28909   5.573   0.566   2.439
 9337SOL    HW128910   5.572   0.648   2.382
 9337SOL    HW228911   5.630   0.496   2.396
 9338SOL     OW28912   3.838   0.416   2.018
 9338SOL    HW128913   3.878   0.386   1.931
 9338SOL    HW228914   3.890   0.377   2.094
 9339SOL     OW28915   4.694   6.474   0.888
 9339SOL    HW128916   4.705   6.531   0.969
 9339SOL    HW228917   4.774   6.415   0.878
 9340SOL     OW28918   6.023   3.246   6.682
 9340SOL    HW128919   6.005   3.162   6.732
 9340SOL    HW228920   5.952   3.313   6.704
 9341SOL     OW28921   6.895   5.312   6.405
 9341SOL    HW128922   6.916   5.280   6.497
 9341SOL    HW228923   6.894   5.412   6.404
 9342SOL     OW28924   1.581   6.363   5.791
 9342SOL    HW128925   1.500   6.305   5.801
 9342SOL    HW228926   1.566   6.427   5.715
 9343SOL     OW28927   6.243   5.419   4.762
 9343SOL    HW128928   6.295   5.466   4.690
 9343SOL    HW228929   6.304   5.398   4.839
 9344SOL     OW28930   5.245   0.043   1.653
 9344SOL    HW128931   5.284   0.002   1.570
 9344SOL    HW228932   5.189   0.122   1.629
 9345SOL     OW28933   6.658   3.131   1.272
 9345SOL    HW128934   6.586   3.187   1.312
 9345SOL    HW228935   6.731   3.117   1.339
 9346SOL     OW28936   5.759   0.045   0.656
 9346SOL    HW128937   5.788   0.019   0.748
 9346SOL    HW228938   5.752   0.145   0.650
 9347SOL     OW28939   1.451   6.708   1.682
 9347SOL    HW128940   1.494   6.657   1.607
 9347SOL    HW228941   1.367   6.661   1.710
 9348SOL     OW28942   3.067   4.981   6.816
 9348SOL    HW128943   3.059   4.905   6.881
 9348SOL    HW228944   3.018   5.060   6.853
 9349SOL     OW28945   2.136   6.932   2.547
 9349SOL    HW128946   2.158   6.981   2.631
 9349SOL    HW228947   2.214   6.875   2.520
 9350SOL     OW28948   0.565   2.984   5.933
 9350SOL    HW128949   0.583   3.082   5.931
 9350SOL    HW228950   0.636   2.938   5.987
 9351SOL     OW28951   2.944   1.956   6.527
 9351SOL    HW128952   3.038   1.929   6.544
 9351SOL    HW228953   2.900   1.980   6.613
 9352SOL     OW28954   2.304   4.601   5.364
 9352SOL    HW128955   2.209   4.632   5.363
 9352SOL    HW228956   2.360   4.670   5.409
 9353SOL     OW28957   6.441   0.148   1.258
 9353SOL    HW128958   6.492   0.192   1.184
 9353SOL    HW228959   6.344   0.172   1.250
 9354SOL     OW28960   0.092   2.465   6.419
 9354SOL    HW128961   0.117   2.483   6.324
 9354SOL    HW228962   0.163   2.410   6.462
 9355SOL     OW28963   0.178   1.369   5.450
 9355SOL    HW128964   0.236   1.379   5.531
 9355SOL    HW228965   0.196   1.445   5.387
 9356SOL     OW28966   5.413   6.914   2.386
 9356SOL    HW128967   5.372   6.949   2.471
 9356SOL    HW228968   5.387   6.973   2.310
 9357SOL     OW28969   0.781   2.231   6.910
 9357SOL    HW128970   0.713   2.279   6.965
 9357SOL    HW228971   0.735   2.182   6.835
 9358SOL     OW28972   0.697   3.560   1.084
 9358SOL    HW128973   0.784   3.523   1.117
 9358SOL    HW228974   0.630   3.486   1.078
 9359SOL     OW28975   1.727   0.445   5.571
 9359SOL    HW128976   1.822   0.421   5.589
 9359SOL    HW228977   1.711   0.447   5.473
 9360SOL     OW28978   1.166   7.008   6.302
 9360SOL    HW128979   1.224   6.963   6.233
 9360SOL    HW228980   1.220   0.047   6.353
 9361SOL     OW28981   1.851   5.837   4.192
 9361SOL    HW128982   1.907   5.769   4.145
 9361SOL    HW228983   1.876   5.839   4.289
 9362SOL     OW28984   1.978   0.143   2.353
 9362SOL    HW128985   1.911   0.184   2.415
 9362SOL    HW228986   1.981   0.044   2.368
 9363SOL     OW28987   2.095   4.823   2.280
 9363SOL    HW128988   2.076   4.808   2.377
 9363SOL    HW228989   2.100   4.734   2.233
 9364SOL     OW28990   1.325   2.328   0.943
 9364SOL    HW128991   1.406   2.386   0.943
 9364SOL    HW228992   1.253   2.371   0.997
 9365SOL     OW28993   3.187   1.933   4.304
 9365SOL    HW128994   3.218   1.884   4.386
 9365SOL    HW228995   3.241   2.016   4.292
 9366SOL     OW28996   4.089   5.671   1.808
 9366SOL    HW128997   4.083   5.630   1.899
 9366SOL    HW228998   4.142   5.610   1.748
 9367SOL     OW28999   0.018   0.957   1.359
 9367SOL    HW129000   7.000   0.870   1.374
 9367SOL    HW229001   0.117   0.943   1.350
 9368SOL     OW29002   3.302   7.023   3.163
 9368SOL    HW129003   3.335   6.929   3.148
 9368SOL    HW229004   3.378   0.060   3.153
 9369SOL     OW29005   2.972   5.279   0.516
 9369SOL    HW129006   2.953   5.186   0.483
 9369SOL    HW229007   2.943   5.288   0.611
 9370SOL     OW29008   4.472   1.697   4.260
 9370SOL    HW129009   4.528   1.705   4.178
 9370SOL    HW229010   4.504   1.618   4.314
 9371SOL     OW29011   4.341   5.356   0.928
 9371SOL    HW129012   4.287   5.276   0.904
 9371SOL    HW229013   4.284   5.438   0.926
 9372SOL     OW29014   4.690   6.222   1.539
 9372SOL    HW129015   4.725   6.299   1.486
 9372SOL    HW229016   4.604   6.248   1.584
 9373SOL     OW29017   6.923   2.597   1.105
 9373SOL    HW129018   6.954   2.563   1.017
 9373SOL    HW229019   6.935   2.696   1.109
 9374SOL     OW29020   0.412   5.587   5.808
 9374SOL    HW129021   0.380   5.497   5.781
 9374SOL    HW229022   0.336   5.653   5.800
 9375SOL     OW29023   0.306   0.773   0.447
 9375SOL    HW129024   0.360   0.781   0.363
 9375SOL    HW229025   0.320   0.854   0.504
 9376SOL     OW29026   2.261   3.935   1.464
 9376SOL    HW129027   2.189   3.875   1.499
 9376SOL    HW229028   2.301   3.986   1.539
 9377SOL     OW29029   1.871   0.938   3.694
 9377SOL    HW129030   1.821   1.021   3.667
 9377SOL    HW229031   1.924   0.905   3.616
 9378SOL     OW29032   3.281   0.835   4.842
 9378SOL    HW129033   3.237   0.917   4.807
 9378SOL    HW229034   3.380   0.842   4.831
 9379SOL     OW29035   4.390   6.882   4.288
 9379SOL    HW129036   4.373   6.785   4.307
 9379SOL    HW229037   4.394   6.932   4.375
 9380SOL     OW29038   4.933   6.045   0.209
 9380SOL    HW129039   4.950   6.096   0.294
 9380SOL    HW229040   5.013   5.989   0.188
 9381SOL     OW29041   5.762   1.358   5.236
 9381SOL    HW129042   5.774   1.259   5.232
 9381SOL    HW229043   5.843   1.400   5.277
 9382SOL     OW29044   3.305   6.031   5.651
 9382SOL    HW129045   3.277   6.010   5.557
 9382SOL    HW229046   3.400   6.001   5.664
 9383SOL     OW29047   5.819   4.277   2.404
 9383SOL    HW129048   5.891   4.256   2.338
 9383SOL    HW229049   5.841   4.362   2.451
 9384SOL     OW29050   2.441   0.940   2.305
 9384SOL    HW129051   2.375   0.936   2.230
 9384SOL    HW229052   2.468   0.847   2.329
 9385SOL     OW29053   4.894   1.524   3.719
 9385SOL    HW129054   4.838   1.447   3.689
 9385SOL    HW229055   4.835   1.595   3.758
 9386SOL     OW29056   4.887   6.087   0.580
 9386SOL    HW129057   4.825   6.164   0.563
 9386SOL    HW229058   4.841   6.002   0.557
 9387SOL     OW29059   2.878   2.758   0.448
 9387SOL    HW129060   2.836   2.823   0.385
 9387SOL    HW229061   2.816   2.740   0.523
 9388SOL     OW29062   2.141   6.588   5.211
 9388SOL    HW129063   2.173   6.562   5.120
 9388SOL    HW229064   2.138   6.508   5.270
 9389SOL     OW29065   2.418   5.164   2.156
 9389SOL    HW129066   2.384   5.073   2.177
 9389SOL    HW229067   2.390   5.189   2.063
 9390SOL     OW29068   5.372   5.284   4.464
 9390SOL    HW129069   5.356   5.224   4.386
 9390SOL    HW229070   5.361   5.232   4.549
 9391SOL     OW29071   1.537   4.552   4.062
 9391SOL    HW129072   1.440   4.572   4.078
 9391SOL    HW229073   1.592   4.608   4.124
 9392SOL     OW29074   5.045   4.588   3.238
 9392SOL    HW129075   4.946   4.593   3.227
 9392SOL    HW229076   5.071   4.495   3.264
 9393SOL     OW29077   2.451   6.317   6.196
 9393SOL    HW129078   2.362   6.279   6.222
 9393SOL    HW229079   2.445   6.354   6.103
 9394SOL     OW29080   3.755   0.987   0.420
 9394SOL    HW129081   3.740   1.086   0.416
 9394SOL    HW229082   3.849   0.967   0.393
 9395SOL     OW29083   1.569   1.692   0.890
 9395SOL    HW129084   1.497   1.748   0.849
 9395SOL    HW229085   1.620   1.645   0.817
 9396SOL     OW29086   0.728   6.740   6.869
 9396SOL    HW129087   0.657   6.683   6.911
 9396SOL    HW229088   0.728   6.727   6.770
 9397SOL     OW29089   3.402   0.491   5.143
 9397SOL    HW129090   3.482   0.548   5.123
 9397SOL    HW229091   3.351   0.473   5.059
 9398SOL     OW29092   0.831   1.985   7.012
 9398SOL    HW129093   0.877   1.974   0.073
 9398SOL    HW229094   0.828   2.082   6.988
 9399SOL     OW29095   0.808   2.822   4.468
 9399SOL    HW129096   0.787   2.897   4.531
 9399SOL    HW229097   0.904   2.828   4.440
 9400SOL     OW29098   5.523   1.669   0.682
 9400SOL    HW129099   5.583   1.596   0.651
 9400SOL    HW229100   5.428   1.647   0.659
 9401SOL     OW29101   0.645   2.431   3.773
 9401SOL    HW129102   0.549   2.407   3.791
 9401SOL    HW229103   0.672   2.395   3.684
 9402SOL     OW29104   2.451   6.675   4.463
 9402SOL    HW129105   2.464   6.763   4.509
 9402SOL    HW229106   2.513   6.669   4.385
 9403SOL     OW29107   5.769   2.433   1.866
 9403SOL    HW129108   5.728   2.342   1.872
 9403SOL    HW229109   5.779   2.459   1.770
 9404SOL     OW29110   2.341   2.611   0.688
 9404SOL    HW129111   2.274   2.542   0.660
 9404SOL    HW229112   2.394   2.577   0.766
 9405SOL     OW29113   6.933   5.583   5.416
 9405SOL    HW129114   6.981   5.532   5.344
 9405SOL    HW229115   6.971   5.558   5.505
 9406SOL     OW29116   0.827   2.500   0.275
 9406SOL    HW129117   0.893   2.430   0.302
 9406SOL    HW229118   0.865   2.556   0.201
 9407SOL     OW29119   1.667   5.134   5.449
 9407SOL    HW129120   1.582   5.156   5.402
 9407SOL    HW229121   1.744   5.149   5.388
 9408SOL     OW29122   0.084   3.746   4.441
 9408SOL    HW129123   0.174   3.780   4.414
 9408SOL    HW229124   0.031   3.820   4.483
 9409SOL     OW29125   6.321   5.234   2.960
 9409SOL    HW129126   6.336   5.331   2.981
 9409SOL    HW229127   6.302   5.184   3.044
 9410SOL     OW29128   3.543   0.889   0.809
 9410SOL    HW129129   3.554   0.871   0.711
 9410SOL    HW229130   3.477   0.825   0.848
 9411SOL     OW29131   2.905   3.618   2.823
 9411SOL    HW129132   2.852   3.582   2.747
 9411SOL    HW229133   2.954   3.543   2.868
 9412SOL     OW29134   5.536   6.316   1.418
 9412SOL    HW129135   5.520   6.256   1.496
 9412SOL    HW229136   5.634   6.318   1.397
 9413SOL     OW29137   4.850   3.875   2.920
 9413SOL    HW129138   4.858   3.806   2.992
 9413SOL    HW229139   4.868   3.834   2.831
 9414SOL     OW29140   2.098   2.306   3.389
 9414SOL    HW129141   2.194   2.310   3.362
 9414SOL    HW229142   2.040   2.322   3.309
 9415SOL     OW29143   5.332   1.322   2.163
 9415SOL    HW129144   5.317   1.398   2.225
 9415SOL    HW229145   5.271   1.246   2.188
 9416SOL     OW29146   5.587   5.235   5.121
 9416SOL    HW129147   5.680   5.234   5.159
 9416SOL    HW229148   5.530   5.169   5.169
 9417SOL     OW29149   2.890   5.724   2.772
 9417SOL    HW129150   2.871   5.702   2.868
 9417SOL    HW229151   2.844   5.659   2.713
 9418SOL     OW29152   3.739   1.686   5.037
 9418SOL    HW129153   3.640   1.679   5.029
 9418SOL    HW229154   3.773   1.615   5.099
 9419SOL     OW29155   1.652   3.063   6.656
 9419SOL    HW129156   1.720   3.090   6.588
 9419SOL    HW229157   1.690   2.991   6.715
 9420SOL     OW29158   5.800   4.112   6.439
 9420SOL    HW129159   5.866   4.186   6.450
 9420SOL    HW229160   5.707   4.148   6.446
 9421SOL     OW29161   3.885   6.252   6.992
 9421SOL    HW129162   3.871   6.329   6.930
 9421SOL    HW229163   3.982   6.246   7.017
 9422SOL     OW29164   1.983   6.105   5.748
 9422SOL    HW129165   1.973   6.072   5.842
 9422SOL    HW229166   1.926   6.186   5.735
 9423SOL     OW29167   4.355   4.660   2.348
 9423SOL    HW129168   4.424   4.607   2.298
 9423SOL    HW229169   4.398   4.742   2.387
 9424SOL     OW29170   6.443   0.169   3.916
 9424SOL    HW129171   6.379   0.245   3.906
 9424SOL    HW229172   6.534   0.205   3.941
 9425SOL     OW29173   6.704   3.896   1.249
 9425SOL    HW129174   6.615   3.942   1.256
 9425SOL    HW229175   6.725   3.878   1.153
 9426SOL     OW29176   6.230   2.862   6.106
 9426SOL    HW129177   6.305   2.913   6.147
 9426SOL    HW229178   6.189   2.916   6.033
 9427SOL     OW29179   4.611   4.330   2.760
 9427SOL    HW129180   4.648   4.423   2.769
 9427SOL    HW229181   4.605   4.288   2.850
 9428SOL     OW29182   1.313   5.777   5.729
 9428SOL    HW129183   1.351   5.719   5.800
 9428SOL    HW229184   1.236   5.730   5.685
 9429SOL     OW29185   2.176   2.781   4.315
 9429SOL    HW129186   2.114   2.851   4.349
 9429SOL    HW229187   2.162   2.696   4.366
 9430SOL     OW29188   1.682   1.575   4.221
 9430SOL    HW129189   1.750   1.635   4.265
 9430SOL    HW229190   1.657   1.501   4.283
 9431SOL     OW29191   0.567   4.358   5.724
 9431SOL    HW129192   0.597   4.444   5.765
 9431SOL    HW229193   0.564   4.367   5.625
 9432SOL     OW29194   6.638   1.146   3.640
 9432SOL    HW129195   6.716   1.154   3.703
 9432SOL    HW229196   6.581   1.069   3.668
 9433SOL     OW29197   4.499   5.775   1.597
 9433SOL    HW129198   4.410   5.773   1.551
 9433SOL    HW229199   4.567   5.729   1.540
 9434SOL     OW29200   4.727   5.650   3.858
 9434SOL    HW129201   4.775   5.735   3.837
 9434SOL    HW229202   4.631   5.669   3.875
 9435SOL     OW29203   6.617   3.763   0.700
 9435SOL    HW129204   6.667   3.676   0.704
 9435SOL    HW229205   6.527   3.752   0.742
 9436SOL     OW29206   2.698   1.017   2.909
 9436SOL    HW129207   2.668   0.943   2.850
 9436SOL    HW229208   2.657   1.103   2.878
 9437SOL     OW29209   5.380   0.424   5.241
 9437SOL    HW129210   5.364   0.371   5.158
 9437SOL    HW229211   5.437   0.371   5.304
 9438SOL     OW29212   4.706   0.094   2.560
 9438SOL    HW129213   4.792   0.146   2.561
 9438SOL    HW229214   4.637   0.142   2.615
 9439SOL     OW29215   1.841   4.244   1.272
 9439SOL    HW129216   1.926   4.192   1.271
 9439SOL    HW229217   1.790   4.227   1.188
 9440SOL     OW29218   1.941   5.037   3.499
 9440SOL    HW129219   1.863   4.974   3.505
 9440SOL    HW229220   2.012   4.997   3.441
 9441SOL     OW29221   0.145   6.859   4.407
 9441SOL    HW129222   0.201   6.895   4.332
 9441SOL    HW229223   0.090   6.783   4.373
 9442SOL     OW29224   6.199   3.225   0.826
 9442SOL    HW129225   6.152   3.183   0.903
 9442SOL    HW229226   6.178   3.322   0.823
 9443SOL     OW29227   2.287   4.503   2.379
 9443SOL    HW129228   2.212   4.449   2.416
 9443SOL    HW229229   2.356   4.519   2.450
 9444SOL     OW29230   1.772   4.985   6.310
 9444SOL    HW129231   1.812   4.910   6.363
 9444SOL    HW229232   1.759   5.065   6.369
 9445SOL     OW29233   0.053   1.438   4.453
 9445SOL    HW129234   0.063   1.413   4.550
 9445SOL    HW229235   0.142   1.464   4.416
 9446SOL     OW29236   6.356   3.794   4.555
 9446SOL    HW129237   6.314   3.824   4.641
 9446SOL    HW229238   6.404   3.707   4.569
 9447SOL     OW29239   4.878   4.232   2.137
 9447SOL    HW129240   4.815   4.302   2.170
 9447SOL    HW229241   4.835   4.142   2.147
 9448SOL     OW29242   6.281   1.426   6.285
 9448SOL    HW129243   6.291   1.420   6.186
 9448SOL    HW229244   6.262   1.336   6.323
 9449SOL     OW29245   5.305   6.661   2.248
 9449SOL    HW129246   5.256   6.709   2.176
 9449SOL    HW229247   5.315   6.721   2.328
 9450SOL     OW29248   1.438   6.246   3.132
 9450SOL    HW129249   1.375   6.253   3.209
 9450SOL    HW229250   1.421   6.160   3.083
 9451SOL     OW29251   3.946   5.121   6.723
 9451SOL    HW129252   3.874   5.188   6.704
 9451SOL    HW229253   3.944   5.098   6.821
 9452SOL     OW29254   6.004   4.347   6.460
 9452SOL    HW129255   6.032   4.430   6.413
 9452SOL    HW229256   5.979   4.368   6.554
 9453SOL     OW29257   5.148   4.376   1.902
 9453SOL    HW129258   5.139   4.474   1.883
 9453SOL    HW229259   5.079   4.349   1.969
 9454SOL     OW29260   5.957   4.747   0.303
 9454SOL    HW129261   5.888   4.787   0.364
 9454SOL    HW229262   5.937   4.650   0.289
 9455SOL     OW29263   4.307   1.042   1.674
 9455SOL    HW129264   4.304   1.119   1.738
 9455SOL    HW229265   4.343   0.961   1.721
 9456SOL     OW29266   6.832   2.446   3.527
 9456SOL    HW129267   6.746   2.493   3.544
 9456SOL    HW229268   6.908   2.503   3.556
 9457SOL     OW29269   6.576   6.416   4.904
 9457SOL    HW129270   6.618   6.332   4.870
 9457SOL    HW229271   6.548   6.473   4.826
 9458SOL     OW29272   5.607   3.873   0.235
 9458SOL    HW129273   5.533   3.939   0.219
 9458SOL    HW229274   5.695   3.916   0.216
 9459SOL     OW29275   4.570   4.431   4.972
 9459SOL    HW129276   4.597   4.448   4.877
 9459SOL    HW229277   4.477   4.467   4.986
 9460SOL     OW29278   1.139   3.090   2.281
 9460SOL    HW129279   1.192   3.073   2.198
 9460SOL    HW229280   1.185   3.161   2.335
 9461SOL     OW29281   1.829   1.670   1.338
 9461SOL    HW129282   1.915   1.626   1.362
 9461SOL    HW229283   1.752   1.613   1.366
 9462SOL     OW29284   6.803   1.083   4.359
 9462SOL    HW129285   6.897   1.056   4.340
 9462SOL    HW229286   6.803   1.175   4.398
 9463SOL     OW29287   5.934   4.352   1.214
 9463SOL    HW129288   5.884   4.350   1.128
 9463SOL    HW229289   6.031   4.369   1.196
 9464SOL     OW29290   1.468   0.759   1.906
 9464SOL    HW129291   1.487   0.780   1.810
 9464SOL    HW229292   1.419   0.836   1.948
 9465SOL     OW29293   6.552   5.200   0.749
 9465SOL    HW129294   6.637   5.158   0.718
 9465SOL    HW229295   6.552   5.297   0.723
 9466SOL     OW29296   4.332   3.694   5.590
 9466SOL    HW129297   4.386   3.653   5.516
 9466SOL    HW229298   4.236   3.665   5.581
 9467SOL     OW29299   1.483   2.622   0.622
 9467SOL    HW129300   1.520   2.640   0.531
 9467SOL    HW229301   1.474   2.708   0.672
 9468SOL     OW29302   5.914   1.325   0.580
 9468SOL    HW129303   5.956   1.247   0.626
 9468SOL    HW229304   5.876   1.296   0.492
 9469SOL     OW29305   0.014   6.587   1.124
 9469SOL    HW129306   6.959   6.643   1.133
 9469SOL    HW229307   0.015   6.546   1.032
 9470SOL     OW29308   3.170   3.173   0.270
 9470SOL    HW129309   3.236   3.208   0.336
 9470SOL    HW229310   3.196   3.202   0.178
 9471SOL     OW29311   6.342   2.633   4.867
 9471SOL    HW129312   6.290   2.643   4.782
 9471SOL    HW229313   6.286   2.665   4.944
 9472SOL     OW29314   1.663   3.522   5.740
 9472SOL    HW129315   1.740   3.586   5.732
 9472SOL    HW229316   1.671   3.451   5.670
 9473SOL     OW29317   2.708   4.055   1.199
 9473SOL    HW129318   2.618   4.085   1.229
 9473SOL    HW229319   2.774   4.069   1.273
 9474SOL     OW29320   5.485   4.314   0.872
 9474SOL    HW129321   5.496   4.410   0.848
 9474SOL    HW229322   5.511   4.256   0.795
 9475SOL     OW29323   4.983   4.178   5.967
 9475SOL    HW129324   4.926   4.161   6.047
 9475SOL    HW229325   4.926   4.185   5.885
 9476SOL     OW29326   4.390   4.019   0.882
 9476SOL    HW129327   4.376   3.922   0.900
 9476SOL    HW229328   4.417   4.065   0.967
 9477SOL     OW29329   2.679   4.944   0.381
 9477SOL    HW129330   2.614   4.869   0.391
 9477SOL    HW229331   2.646   5.023   0.432
 9478SOL     OW29332   5.757   3.695   5.985
 9478SOL    HW129333   5.799   3.668   5.899
 9478SOL    HW229334   5.665   3.729   5.968
 9479SOL     OW29335   4.953   0.675   1.778
 9479SOL    HW129336   4.854   0.687   1.788
 9479SOL    HW229337   4.998   0.706   1.862
 9480SOL     OW29338   6.084   0.742   1.092
 9480SOL    HW129339   6.115   0.810   1.026
 9480SOL    HW229340   5.984   0.740   1.093
 9481SOL     OW29341   4.210   0.403   3.061
 9481SOL    HW129342   4.267   0.369   3.136
 9481SOL    HW229343   4.127   0.348   3.055
 9482SOL     OW29344   5.929   5.898   6.784
 9482SOL    HW129345   5.999   5.867   6.720
 9482SOL    HW229346   5.874   5.970   6.741
 9483SOL     OW29347   6.887   6.568   0.006
 9483SOL    HW129348   6.810   6.516   0.042
 9483SOL    HW229349   6.925   6.626   0.079
 9484SOL     OW29350   3.351   6.146   4.455
 9484SOL    HW129351   3.378   6.225   4.400
 9484SOL    HW229352   3.399   6.064   4.422
 9485SOL     OW29353   6.952   1.162   6.134
 9485SOL    HW129354   6.862   1.143   6.095
 9485SOL    HW229355   6.941   1.195   6.228
 9486SOL     OW29356   6.300   5.334   6.706
 9486SOL    HW129357   6.210   5.341   6.748
 9486SOL    HW229358   6.371   5.343   6.776
 9487SOL     OW29359   3.287   3.674   2.802
 9487SOL    HW129360   3.322   3.735   2.732
 9487SOL    HW229361   3.239   3.727   2.872
 9488SOL     OW29362   1.769   0.955   1.153
 9488SOL    HW129363   1.777   0.898   1.235
 9488SOL    HW229364   1.828   0.917   1.081
 9489SOL     OW29365   5.468   3.285   0.680
 9489SOL    HW129366   5.510   3.238   0.758
 9489SOL    HW229367   5.451   3.218   0.607
 9490SOL     OW29368   5.413   3.447   4.940
 9490SOL    HW129369   5.494   3.395   4.913
 9490SOL    HW229370   5.409   3.532   4.888
 9491SOL     OW29371   5.717   0.303   2.698
 9491SOL    HW129372   5.631   0.268   2.659
 9491SOL    HW229373   5.777   0.334   2.624
 9492SOL     OW29374   5.199   3.001   3.378
 9492SOL    HW129375   5.101   3.012   3.395
 9492SOL    HW229376   5.241   3.090   3.364
 9493SOL     OW29377   3.932   6.049   1.288
 9493SOL    HW129378   3.952   6.131   1.342
 9493SOL    HW229379   4.017   6.000   1.269
 9494SOL     OW29380   5.739   1.845   1.999
 9494SOL    HW129381   5.664   1.785   1.972
 9494SOL    HW229382   5.723   1.937   1.963
 9495SOL     OW29383   6.337   2.476   1.128
 9495SOL    HW129384   6.423   2.441   1.090
 9495SOL    HW229385   6.325   2.442   1.221
 9496SOL     OW29386   5.825   1.986   1.302
 9496SOL    HW129387   5.761   1.932   1.248
 9496SOL    HW229388   5.834   1.945   1.393
 9497SOL     OW29389   4.480   4.565   4.673
 9497SOL    HW129390   4.490   4.664   4.663
 9497SOL    HW229391   4.411   4.545   4.742
 9498SOL     OW29392   1.259   5.633   4.520
 9498SOL    HW129393   1.258   5.732   4.508
 9498SOL    HW229394   1.174   5.594   4.484
 9499SOL     OW29395   5.631   5.753   4.636
 9499SOL    HW129396   5.535   5.752   4.665
 9499SOL    HW229397   5.676   5.835   4.671
 9500SOL     OW29398   3.184   1.941   0.842
 9500SOL    HW129399   3.137   1.853   0.837
 9500SOL    HW229400   3.169   1.983   0.931
 9501SOL     OW29401   1.912   3.961   4.902
 9501SOL    HW129402   1.904   4.060   4.896
 9501SOL    HW229403   1.932   3.935   4.996
 9502SOL     OW29404   5.617   4.779   4.012
 9502SOL    HW129405   5.704   4.799   3.967
 9502SOL    HW229406   5.542   4.808   3.953
 9503SOL     OW29407   6.112   1.298   0.245
 9503SOL    HW129408   6.176   1.347   0.303
 9503SOL    HW229409   6.130   1.321   0.149
 9504SOL     OW29410   6.057   5.251   2.156
 9504SOL    HW129411   6.034   5.228   2.251
 9504SOL    HW229412   6.129   5.190   2.123
 9505SOL     OW29413   4.471   4.337   6.131
 9505SOL    HW129414   4.514   4.422   6.100
 9505SOL    HW229415   4.521   4.259   6.093
 9506SOL     OW29416   2.810   0.493   1.252
 9506SOL    HW129417   2.833   0.494   1.155
 9506SOL    HW229418   2.829   0.403   1.290
 9507SOL     OW29419   5.888   0.207   2.422
 9507SOL    HW129420   5.839   0.265   2.357
 9507SOL    HW229421   5.840   0.120   2.433
 9508SOL     OW29422   4.427   1.606   2.590
 9508SOL    HW129423   4.339   1.653   2.598
 9508SOL    HW229424   4.425   1.521   2.641
 9509SOL     OW29425   5.326   0.888   3.111
 9509SOL    HW129426   5.353   0.982   3.131
 9509SOL    HW229427   5.372   0.856   3.028
 9510SOL     OW29428   1.672   2.966   3.661
 9510SOL    HW129429   1.732   2.886   3.667
 9510SOL    HW229430   1.662   2.994   3.566
 9511SOL     OW29431   0.163   1.534   1.055
 9511SOL    HW129432   0.068   1.526   1.083
 9511SOL    HW229433   0.182   1.467   0.983
 9512SOL     OW29434   6.659   1.984   1.284
 9512SOL    HW129435   6.568   1.964   1.247
 9512SOL    HW229436   6.665   2.082   1.305
 9513SOL     OW29437   4.385   4.136   5.674
 9513SOL    HW129438   4.328   4.061   5.708
 9513SOL    HW229439   4.327   4.215   5.654
 9514SOL     OW29440   3.635   3.017   6.707
 9514SOL    HW129441   3.610   3.032   6.611
 9514SOL    HW229442   3.553   2.994   6.759
 9515SOL     OW29443   0.567   5.437   3.925
 9515SOL    HW129444   0.492   5.469   3.983
 9515SOL    HW229445   0.654   5.448   3.974
 9516SOL     OW29446   0.101   4.325   7.020
 9516SOL    HW129447   0.174   4.326   6.952
 9516SOL    HW229448   0.072   4.231   0.010
 9517SOL     OW29449   0.285   6.360   1.635
 9517SOL    HW129450   0.251   6.268   1.655
 9517SOL    HW229451   0.308   6.406   1.721
 9518SOL     OW29452   1.176   0.793   1.112
 9518SOL    HW129453   1.269   0.800   1.146
 9518SOL    HW229454   1.143   0.883   1.084
 9519SOL     OW29455   1.314   2.740   5.354
 9519SOL    HW129456   1.225   2.763   5.392
 9519SOL    HW229457   1.316   2.763   5.256
 9520SOL     OW29458   4.665   0.259   1.531
 9520SOL    HW129459   4.679   0.264   1.432
 9520SOL    HW229460   4.690   0.168   1.564
 9521SOL     OW29461   5.318   5.368   3.157
 9521SOL    HW129462   5.265   5.415   3.228
 9521SOL    HW229463   5.360   5.286   3.196
 9522SOL     OW29464   2.991   5.923   0.348
 9522SOL    HW129465   2.959   5.995   0.409
 9522SOL    HW229466   3.010   5.963   0.258
 9523SOL     OW29467   2.216   6.258   5.677
 9523SOL    HW129468   2.285   6.203   5.630
 9523SOL    HW229469   2.137   6.201   5.698
 9524SOL     OW29470   4.501   2.300   0.952
 9524SOL    HW129471   4.461   2.360   0.882
 9524SOL    HW229472   4.507   2.207   0.917
 9525SOL     OW29473   3.958   0.327   4.803
 9525SOL    HW129474   3.911   0.373   4.878
 9525SOL    HW229475   4.054   0.314   4.827
 9526SOL     OW29476   4.597   6.096   2.024
 9526SOL    HW129477   4.544   6.175   2.056
 9526SOL    HW229478   4.659   6.126   1.951
 9527SOL     OW29479   6.397   1.907   1.101
 9527SOL    HW129480   6.454   1.879   1.024
 9527SOL    HW229481   6.309   1.859   1.097
 9528SOL     OW29482   6.954   0.942   1.844
 9528SOL    HW129483   6.935   1.031   1.803
 9528SOL    HW229484   6.967   0.874   1.771
 9529SOL     OW29485   1.098   3.643   4.632
 9529SOL    HW129486   1.188   3.652   4.590
 9529SOL    HW229487   1.032   3.612   4.564
 9530SOL     OW29488   1.157   2.371   4.138
 9530SOL    HW129489   1.236   2.311   4.129
 9530SOL    HW229490   1.106   2.346   4.221
 9531SOL     OW29491   2.767   6.248   3.503
 9531SOL    HW129492   2.764   6.199   3.590
 9531SOL    HW229493   2.683   6.301   3.492
 9532SOL     OW29494   2.576   1.315   1.719
 9532SOL    HW129495   2.518   1.361   1.786
 9532SOL    HW229496   2.599   1.380   1.646
 9533SOL     OW29497   1.865   0.532   4.709
 9533SOL    HW129498   1.879   0.631   4.706
 9533SOL    HW229499   1.782   0.508   4.658
 9534SOL     OW29500   4.643   2.198   4.223
 9534SOL    HW129501   4.741   2.185   4.236
 9534SOL    HW229502   4.594   2.159   4.301
 9535SOL     OW29503   2.835   2.236   4.471
 9535SOL    HW129504   2.808   2.329   4.495
 9535SOL    HW229505   2.753   2.181   4.452
 9536SOL     OW29506   2.992   6.544   6.746
 9536SOL    HW129507   3.076   6.596   6.733
 9536SOL    HW229508   2.953   6.566   6.835
 9537SOL     OW29509   2.328   6.206   0.492
 9537SOL    HW129510   2.372   6.225   0.580
 9537SOL    HW229511   2.360   6.272   0.423
 9538SOL     OW29512   6.083   3.331   3.879
 9538SOL    HW129513   6.166   3.341   3.825
 9538SOL    HW229514   6.031   3.417   3.877
 9539SOL     OW29515   0.365   4.293   0.559
 9539SOL    HW129516   0.429   4.216   0.565
 9539SOL    HW229517   0.278   4.267   0.600
 9540SOL     OW29518   5.509   3.008   5.535
 9540SOL    HW129519   5.427   3.061   5.557
 9540SOL    HW229520   5.577   3.067   5.491
 9541SOL     OW29521   0.161   1.459   3.382
 9541SOL    HW129522   0.242   1.508   3.349
 9541SOL    HW229523   0.079   1.499   3.340
 9542SOL     OW29524   4.702   4.413   4.687
 9542SOL    HW129525   4.763   4.397   4.609
 9542SOL    HW229526   4.628   4.476   4.659
 9543SOL     OW29527   5.698   2.242   1.238
 9543SOL    HW129528   5.712   2.148   1.268
 9543SOL    HW229529   5.612   2.277   1.276
 9544SOL     OW29530   3.912   1.507   2.073
 9544SOL    HW129531   3.866   1.569   2.008
 9544SOL    HW229532   3.884   1.529   2.166
 9545SOL     OW29533   1.523   7.008   4.347
 9545SOL    HW129534   1.576   6.946   4.290
 9545SOL    HW229535   1.540   0.075   4.319
 9546SOL     OW29536   2.514   4.805   1.943
 9546SOL    HW129537   2.480   4.834   2.032
 9546SOL    HW229538   2.541   4.885   1.890
 9547SOL     OW29539   6.332   5.544   3.951
 9547SOL    HW129540   6.425   5.525   3.920
 9547SOL    HW229541   6.297   5.465   4.002
 9548SOL     OW29542   4.541   7.019   2.857
 9548SOL    HW129543   4.544   0.067   2.792
 9548SOL    HW229544   4.601   0.012   2.935
 9549SOL     OW29545   2.578   5.158   0.515
 9549SOL    HW129546   2.569   5.256   0.497
 9549SOL    HW229547   2.640   5.144   0.592
 9550SOL     OW29548   1.436   0.885   0.022
 9550SOL    HW129549   1.481   0.973   0.005
 9550SOL    HW229550   1.500   0.810   0.001
 9551SOL     OW29551   1.373   6.172   5.807
 9551SOL    HW129552   1.279   6.152   5.777
 9551SOL    HW229553   1.434   6.101   5.773
 9552SOL     OW29554   0.459   5.184   3.342
 9552SOL    HW129555   0.461   5.278   3.306
 9552SOL    HW229556   0.547   5.139   3.323
 9553SOL     OW29557   5.407   4.547   5.891
 9553SOL    HW129558   5.318   4.582   5.864
 9553SOL    HW229559   5.436   4.476   5.827
 9554SOL     OW29560   2.039   1.877   1.242
 9554SOL    HW129561   2.052   1.953   1.306
 9554SOL    HW229562   1.979   1.809   1.282
 9555SOL     OW29563   0.078   2.811   6.257
 9555SOL    HW129564   0.085   2.715   6.229
 9555SOL    HW229565   0.166   2.841   6.294
 9556SOL     OW29566   6.427   1.598   0.638
 9556SOL    HW129567   6.399   1.542   0.716
 9556SOL    HW229568   6.360   1.671   0.624
 9557SOL     OW29569   5.611   2.046   1.895
 9557SOL    HW129570   5.536   1.986   1.868
 9557SOL    HW229571   5.637   2.104   1.818
 9558SOL     OW29572   5.490   4.480   1.862
 9558SOL    HW129573   5.488   4.451   1.766
 9558SOL    HW229574   5.439   4.565   1.873
 9559SOL     OW29575   6.547   3.856   2.802
 9559SOL    HW129576   6.636   3.894   2.825
 9559SOL    HW229577   6.558   3.779   2.739
 9560SOL     OW29578   3.938   2.240   5.185
 9560SOL    HW129579   4.001   2.294   5.129
 9560SOL    HW229580   3.875   2.300   5.233
 9561SOL     OW29581   2.742   6.456   6.179
 9561SOL    HW129582   2.783   6.501   6.258
 9561SOL    HW229583   2.723   6.360   6.200
 9562SOL     OW29584   6.002   4.495   4.228
 9562SOL    HW129585   6.027   4.588   4.200
 9562SOL    HW229586   5.904   4.491   4.246
 9563SOL     OW29587   0.624   6.047   6.407
 9563SOL    HW129588   0.641   6.021   6.502
 9563SOL    HW229589   0.710   6.068   6.362
 9564SOL     OW29590   1.748   0.654   6.615
 9564SOL    HW129591   1.698   0.711   6.681
 9564SOL    HW229592   1.811   0.594   6.664
 9565SOL     OW29593   3.818   5.898   3.969
 9565SOL    HW129594   3.909   5.937   3.952
 9565SOL    HW229595   3.817   5.852   4.057
 9566SOL     OW29596   3.669   4.856   6.132
 9566SOL    HW129597   3.670   4.855   6.232
 9566SOL    HW229598   3.760   4.880   6.098
 9567SOL     OW29599   6.167   5.677   4.892
 9567SOL    HW129600   6.166   5.597   4.833
 9567SOL    HW229601   6.074   5.711   4.905
 9568SOL     OW29602   5.114   4.025   6.405
 9568SOL    HW129603   5.039   3.988   6.350
 9568SOL    HW229604   5.081   4.045   6.497
 9569SOL     OW29605   5.150   6.820   2.082
 9569SOL    HW129606   5.173   6.823   1.985
 9569SOL    HW229607   5.069   6.763   2.096
 9570SOL     OW29608   0.642   1.377   6.740
 9570SOL    HW129609   0.568   1.311   6.737
 9570SOL    HW229610   0.661   1.411   6.648
 9571SOL     OW29611   2.173   2.653   0.083
 9571SOL    HW129612   2.210   2.651   0.176
 9571SOL    HW229613   2.171   2.560   0.046
 9572SOL     OW29614   0.594   3.447   1.356
 9572SOL    HW129615   0.630   3.426   1.265
 9572SOL    HW229616   0.648   3.521   1.397
 9573SOL     OW29617   5.567   1.297   2.062
 9573SOL    HW129618   5.624   1.280   2.142
 9573SOL    HW229619   5.473   1.317   2.092
 9574SOL     OW29620   2.802   1.919   3.824
 9574SOL    HW129621   2.870   1.949   3.891
 9574SOL    HW229622   2.713   1.961   3.846
 9575SOL     OW29623   4.725   1.018   2.555
 9575SOL    HW129624   4.778   1.064   2.626
 9575SOL    HW229625   4.639   1.067   2.541
 9576SOL     OW29626   4.206   3.072   5.335
 9576SOL    HW129627   4.234   3.113   5.422
 9576SOL    HW229628   4.106   3.068   5.331
 9577SOL     OW29629   0.719   6.059   3.516
 9577SOL    HW129630   0.695   6.018   3.428
 9577SOL    HW229631   0.783   6.135   3.501
 9578SOL     OW29632   6.454   4.413   2.157
 9578SOL    HW129633   6.357   4.422   2.137
 9578SOL    HW229634   6.468   4.415   2.256
 9579SOL     OW29635   1.955   5.697   2.903
 9579SOL    HW129636   1.864   5.732   2.880
 9579SOL    HW229637   1.947   5.624   2.971
 9580SOL     OW29638   4.143   3.397   5.648
 9580SOL    HW129639   4.224   3.372   5.595
 9580SOL    HW229640   4.079   3.320   5.648
 9581SOL     OW29641   1.122   5.659   5.595
 9581SOL    HW129642   1.061   5.580   5.588
 9581SOL    HW229643   1.165   5.676   5.507
 9582SOL     OW29644   4.346   4.927   3.494
 9582SOL    HW129645   4.373   5.014   3.452
 9582SOL    HW229646   4.309   4.867   3.424
 9583SOL     OW29647   2.140   4.902   1.851
 9583SOL    HW129648   2.042   4.900   1.871
 9583SOL    HW229649   2.179   4.811   1.865
 9584SOL     OW29650   4.916   4.992   6.965
 9584SOL    HW129651   4.947   5.078   6.927
 9584SOL    HW229652   4.855   4.947   6.900
 9585SOL     OW29653   0.774   0.648   3.153
 9585SOL    HW129654   0.769   0.552   3.182
 9585SOL    HW229655   0.861   0.687   3.182
 9586SOL     OW29656   5.178   3.663   2.248
 9586SOL    HW129657   5.250   3.610   2.203
 9586SOL    HW229658   5.195   3.665   2.347
 9587SOL     OW29659   5.041   6.390   1.289
 9587SOL    HW129660   4.943   6.380   1.302
 9587SOL    HW229661   5.088   6.369   1.375
 9588SOL     OW29662   6.586   0.844   2.800
 9588SOL    HW129663   6.499   0.796   2.796
 9588SOL    HW229664   6.659   0.784   2.767
 9589SOL     OW29665   3.133   1.923   4.971
 9589SOL    HW129666   3.044   1.941   5.013
 9589SOL    HW229667   3.167   2.007   4.928
 9590SOL     OW29668   0.659   5.316   4.585
 9590SOL    HW129669   0.601   5.236   4.571
 9590SOL    HW229670   0.738   5.292   4.641
 9591SOL     OW29671   1.311   4.813   2.523
 9591SOL    HW129672   1.375   4.837   2.450
 9591SOL    HW229673   1.217   4.816   2.488
 9592SOL     OW29674   5.220   6.009   1.024
 9592SOL    HW129675   5.266   5.929   0.985
 9592SOL    HW229676   5.121   6.000   1.011
 9593SOL     OW29677   2.613   2.160   3.450
 9593SOL    HW129678   2.573   2.232   3.506
 9593SOL    HW229679   2.635   2.081   3.507
 9594SOL     OW29680   6.133   6.913   0.737
 9594SOL    HW129681   6.100   6.939   0.828
 9594SOL    HW229682   6.184   6.989   0.697
 9595SOL     OW29683   0.790   4.439   4.226
 9595SOL    HW129684   0.791   4.482   4.136
 9595SOL    HW229685   0.878   4.453   4.271
 9596SOL     OW29686   4.823   5.451   2.169
 9596SOL    HW129687   4.851   5.480   2.261
 9596SOL    HW229688   4.725   5.429   2.170
 9597SOL     OW29689   1.926   4.184   0.887
 9597SOL    HW129690   1.881   4.256   0.833
 9597SOL    HW229691   1.859   4.142   0.948
 9598SOL     OW29692   1.122   6.048   5.891
 9598SOL    HW129693   1.181   5.985   5.942
 9598SOL    HW229694   1.063   5.997   5.830
 9599SOL     OW29695   4.349   1.284   4.906
 9599SOL    HW129696   4.367   1.381   4.917
 9599SOL    HW229697   4.251   1.270   4.887
 9600SOL     OW29698   1.731   6.108   6.637
 9600SOL    HW129699   1.656   6.060   6.683
 9600SOL    HW229700   1.818   6.069   6.665
 9601SOL     OW29701   0.688   6.726   6.006
 9601SOL    HW129702   0.783   6.695   6.001
 9601SOL    HW229703   0.627   6.646   6.001
 9602SOL     OW29704   0.201   5.148   6.477
 9602SOL    HW129705   0.163   5.172   6.567
 9602SOL    HW229706   0.241   5.229   6.436
 9603SOL     OW29707   1.039   5.330   2.589
 9603SOL    HW129708   1.079   5.262   2.649
 9603SOL    HW229709   1.112   5.379   2.541
 9604SOL     OW29710   6.680   6.735   6.879
 9604SOL    HW129711   6.761   6.706   6.931
 9604SOL    HW229712   6.702   6.735   6.781
 9605SOL     OW29713   2.922   5.013   0.476
 9605SOL    HW129714   2.948   4.967   0.561
 9605SOL    HW229715   2.831   4.982   0.448
 9606SOL     OW29716   6.783   0.102   5.211
 9606SOL    HW129717   6.718   0.125   5.284
 9606SOL    HW229718   6.744   0.029   5.155
 9607SOL     OW29719   0.163   2.182   2.120
 9607SOL    HW129720   0.158   2.157   2.024
 9607SOL    HW229721   0.123   2.273   2.132
 9608SOL     OW29722   6.490   0.383   2.552
 9608SOL    HW129723   6.468   0.347   2.461
 9608SOL    HW229724   6.449   0.473   2.563
 9609SOL     OW29725   1.990   2.396   3.608
 9609SOL    HW129726   1.914   2.344   3.647
 9609SOL    HW229727   2.012   2.360   3.517
 9610SOL     OW29728   3.564   0.517   5.865
 9610SOL    HW129729   3.628   0.577   5.913
 9610SOL    HW229730   3.604   0.487   5.779
 9611SOL     OW29731   5.506   6.284   1.123
 9611SOL    HW129732   5.482   6.197   1.079
 9611SOL    HW229733   5.470   6.285   1.216
 9612SOL     OW29734   5.238   3.711   3.431
 9612SOL    HW129735   5.287   3.640   3.381
 9612SOL    HW229736   5.304   3.773   3.474
 9613SOL     OW29737   5.765   0.242   5.576
 9613SOL    HW129738   5.698   0.240   5.650
 9613SOL    HW229739   5.823   0.161   5.581
 9614SOL     OW29740   3.234   2.596   1.546
 9614SOL    HW129741   3.296   2.672   1.531
 9614SOL    HW229742   3.158   2.625   1.604
 9615SOL     OW29743   0.754   6.303   3.744
 9615SOL    HW129744   0.732   6.222   3.690
 9615SOL    HW229745   0.839   6.288   3.793
 9616SOL     OW29746   1.390   2.875   1.517
 9616SOL    HW129747   1.441   2.948   1.471
 9616SOL    HW229748   1.304   2.860   1.468
 9617SOL     OW29749   0.172   2.865   2.312
 9617SOL    HW129750   0.091   2.812   2.289
 9617SOL    HW229751   0.243   2.804   2.347
 9618SOL     OW29752   4.532   4.070   0.648
 9618SOL    HW129753   4.628   4.043   0.649
 9618SOL    HW229754   4.488   4.042   0.734
 9619SOL     OW29755   0.708   6.957   1.528
 9619SOL    HW129756   0.718   6.966   1.627
 9619SOL    HW229757   0.654   0.007   1.493
 9620SOL     OW29758   3.007   1.750   6.824
 9620SOL    HW129759   3.059   1.686   6.881
 9620SOL    HW229760   3.051   1.758   6.735
 9621SOL     OW29761   0.726   0.765   1.808
 9621SOL    HW129762   0.757   0.856   1.783
 9621SOL    HW229763   0.637   0.771   1.853
 9622SOL     OW29764   6.271   5.625   5.736
 9622SOL    HW129765   6.325   5.708   5.743
 9622SOL    HW229766   6.186   5.636   5.787
 9623SOL     OW29767   3.603   6.271   5.714
 9623SOL    HW129768   3.509   6.256   5.745
 9623SOL    HW229769   3.605   6.278   5.614
 9624SOL     OW29770   4.731   5.464   5.356
 9624SOL    HW129771   4.768   5.395   5.418
 9624SOL    HW229772   4.772   5.453   5.265
 9625SOL     OW29773   4.416   4.008   6.570
 9625SOL    HW129774   4.466   4.092   6.550
 9625SOL    HW229775   4.429   3.983   6.666
 9626SOL     OW29776   2.328   2.129   6.756
 9626SOL    HW129777   2.239   2.151   6.717
 9626SOL    HW229778   2.400   2.167   6.698
 9627SOL     OW29779   0.057   5.568   0.866
 9627SOL    HW129780   0.155   5.579   0.849
 9627SOL    HW229781   0.030   5.620   0.946
 9628SOL     OW29782   0.190   1.831   6.016
 9628SOL    HW129783   0.191   1.882   5.930
 9628SOL    HW229784   0.183   1.895   6.092
 9629SOL     OW29785   0.229   6.194   3.689
 9629SOL    HW129786   0.200   6.271   3.633
 9629SOL    HW229787   0.318   6.161   3.657
 9630SOL     OW29788   5.698   1.762   5.851
 9630SOL    HW129789   5.786   1.717   5.840
 9630SOL    HW229790   5.633   1.724   5.785
 9631SOL     OW29791   4.449   6.744   0.428
 9631SOL    HW129792   4.535   6.758   0.477
 9631SOL    HW229793   4.433   6.646   0.415
 9632SOL     OW29794   2.762   4.795   2.814
 9632SOL    HW129795   2.789   4.775   2.720
 9632SOL    HW229796   2.843   4.805   2.871
 9633SOL     OW29797   3.879   3.022   3.968
 9633SOL    HW129798   3.895   3.006   3.871
 9633SOL    HW229799   3.866   3.120   3.984
 9634SOL     OW29800   5.266   4.738   3.246
 9634SOL    HW129801   5.345   4.681   3.264
 9634SOL    HW229802   5.182   4.687   3.264
 9635SOL     OW29803   0.465   4.713   3.967
 9635SOL    HW129804   0.560   4.680   3.968
 9635SOL    HW229805   0.417   4.678   4.048
 9636SOL     OW29806   5.758   3.747   4.133
 9636SOL    HW129807   5.688   3.762   4.063
 9636SOL    HW229808   5.848   3.757   4.091
 9637SOL     OW29809   1.488   3.997   0.107
 9637SOL    HW129810   1.490   3.940   0.025
 9637SOL    HW229811   1.454   4.088   0.083
 9638SOL     OW29812   5.947   5.285   6.198
 9638SOL    HW129813   5.901   5.207   6.154
 9638SOL    HW229814   6.044   5.265   6.209
 9639SOL     OW29815   4.395   2.305   1.368
 9639SOL    HW129816   4.442   2.347   1.291
 9639SOL    HW229817   4.414   2.357   1.451
 9640SOL     OW29818   3.981   0.624   3.369
 9640SOL    HW129819   3.932   0.666   3.292
 9640SOL    HW229820   3.990   0.526   3.352
 9641SOL     OW29821   6.748   2.737   4.505
 9641SOL    HW129822   6.754   2.637   4.505
 9641SOL    HW229823   6.657   2.765   4.474
 9642SOL     OW29824   0.907   1.786   4.512
 9642SOL    HW129825   0.926   1.778   4.610
 9642SOL    HW229826   0.830   1.726   4.489
 9643SOL     OW29827   5.754   5.359   4.128
 9643SOL    HW129828   5.667   5.329   4.090
 9643SOL    HW229829   5.792   5.432   4.071
 9644SOL     OW29830   1.117   4.971   2.972
 9644SOL    HW129831   1.017   4.976   2.973
 9644SOL    HW229832   1.148   4.907   3.043
 9645SOL     OW29833   1.360   5.062   6.002
 9645SOL    HW129834   1.279   5.110   6.037
 9645SOL    HW229835   1.418   5.035   6.079
 9646SOL     OW29836   3.181   5.839   0.487
 9646SOL    HW129837   3.107   5.853   0.421
 9646SOL    HW229838   3.161   5.888   0.572
 9647SOL     OW29839   6.114   6.619   3.091
 9647SOL    HW129840   6.154   6.556   3.157
 9647SOL    HW229841   6.141   6.593   2.998
 9648SOL     OW29842   2.974   1.476   1.120
 9648SOL    HW129843   2.895   1.414   1.126
 9648SOL    HW229844   3.055   1.430   1.155
 9649SOL     OW29845   0.163   5.758   1.236
 9649SOL    HW129846   0.236   5.691   1.253
 9649SOL    HW229847   0.085   5.713   1.195
 9650SOL     OW29848   0.843   4.847   4.181
 9650SOL    HW129849   0.897   4.928   4.207
 9650SOL    HW229850   0.746   4.869   4.187
 9651SOL     OW29851   3.355   1.808   0.110
 9651SOL    HW129852   3.439   1.830   0.060
 9651SOL    HW229853   3.377   1.746   0.186
 9652SOL     OW29854   0.253   4.126   0.275
 9652SOL    HW129855   0.217   4.059   0.340
 9652SOL    HW229856   0.234   4.218   0.308
 9653SOL     OW29857   5.070   4.638   5.564
 9653SOL    HW129858   5.089   4.648   5.662
 9653SOL    HW229859   5.110   4.553   5.531
 9654SOL     OW29860   3.801   3.575   3.036
 9654SOL    HW129861   3.785   3.628   3.119
 9654SOL    HW229862   3.898   3.552   3.030
 9655SOL     OW29863   4.550   1.740   0.806
 9655SOL    HW129864   4.602   1.737   0.891
 9655SOL    HW229865   4.459   1.777   0.823
 9656SOL     OW29866   4.813   4.331   6.421
 9656SOL    HW129867   4.760   4.408   6.386
 9656SOL    HW229868   4.814   4.333   6.521
 9657SOL     OW29869   5.346   4.784   3.916
 9657SOL    HW129870   5.270   4.729   3.882
 9657SOL    HW229871   5.333   4.805   4.013
 9658SOL     OW29872   5.455   1.481   1.887
 9658SOL    HW129873   5.388   1.421   1.842
 9658SOL    HW229874   5.507   1.427   1.953
 9659SOL     OW29875   2.916   3.189   6.760
 9659SOL    HW129876   2.985   3.146   6.701
 9659SOL    HW229877   2.850   3.238   6.704
 9660SOL     OW29878   1.200   6.595   1.550
 9660SOL    HW129879   1.206   6.497   1.566
 9660SOL    HW229880   1.129   6.614   1.483
 9661SOL     OW29881   4.316   3.961   1.304
 9661SOL    HW129882   4.355   4.012   1.227
 9661SOL    HW229883   4.220   3.940   1.285
 9662SOL     OW29884   4.822   6.369   5.950
 9662SOL    HW129885   4.852   6.281   5.914
 9662SOL    HW229886   4.745   6.403   5.896
 9663SOL     OW29887   1.469   4.994   2.767
 9663SOL    HW129888   1.409   4.923   2.805
 9663SOL    HW229889   1.414   5.075   2.746
 9664SOL     OW29890   3.599   4.942   2.164
 9664SOL    HW129891   3.573   4.871   2.098
 9664SOL    HW229892   3.549   5.026   2.145
 9665SOL     OW29893   6.267   4.126   5.696
 9665SOL    HW129894   6.319   4.108   5.613
 9665SOL    HW229895   6.178   4.083   5.690
 9666SOL     OW29896   5.126   3.814   0.428
 9666SOL    HW129897   5.086   3.724   0.411
 9666SOL    HW229898   5.085   3.855   0.510
 9667SOL     OW29899   5.780   6.050   0.442
 9667SOL    HW129900   5.772   6.123   0.374
 9667SOL    HW229901   5.869   6.004   0.431
 9668SOL     OW29902   1.981   1.655   6.173
 9668SOL    HW129903   1.926   1.706   6.108
 9668SOL    HW229904   1.924   1.624   6.249
 9669SOL     OW29905   3.001   0.508   0.031
 9669SOL    HW129906   3.089   0.465   0.050
 9669SOL    HW229907   3.012   0.581   6.991
 9670SOL     OW29908   0.848   0.717   0.695
 9670SOL    HW129909   0.812   0.707   0.602
 9670SOL    HW229910   0.947   0.730   0.691
 9671SOL     OW29911   0.965   5.099   6.942
 9671SOL    HW129912   0.992   5.007   6.970
 9671SOL    HW229913   0.865   5.106   6.940
 9672SOL     OW29914   0.936   3.842   4.442
 9672SOL    HW129915   0.920   3.812   4.536
 9672SOL    HW229916   1.033   3.862   4.429
 9673SOL     OW29917   2.056   3.617   6.955
 9673SOL    HW129918   2.121   3.552   6.916
 9673SOL    HW229919   2.013   3.578   0.009
 9674SOL     OW29920   1.961   6.600   3.846
 9674SOL    HW129921   1.963   6.607   3.945
 9674SOL    HW229922   1.877   6.643   3.811
 9675SOL     OW29923   6.016   3.740   5.307
 9675SOL    HW129924   6.057   3.655   5.274
 9675SOL    HW229925   5.977   3.790   5.230
 9676SOL     OW29926   0.583   3.250   5.981
 9676SOL    HW129927   0.527   3.259   6.062
 9676SOL    HW229928   0.580   3.334   5.928
 9677SOL     OW29929   6.596   5.264   2.736
 9677SOL    HW129930   6.545   5.256   2.821
 9677SOL    HW229931   6.608   5.360   2.712
 9678SOL     OW29932   3.605   3.818   5.274
 9678SOL    HW129933   3.576   3.722   5.274
 9678SOL    HW229934   3.697   3.826   5.312
 9679SOL     OW29935   2.111   0.476   3.947
 9679SOL    HW129936   2.202   0.470   3.987
 9679SOL    HW229937   2.118   0.512   3.854
 9680SOL     OW29938   4.485   0.761   1.883
 9680SOL    HW129939   4.553   0.689   1.893
 9680SOL    HW229940   4.497   0.830   1.955
 9681SOL     OW29941   1.537   2.306   1.472
 9681SOL    HW129942   1.460   2.369   1.467
 9681SOL    HW229943   1.582   2.300   1.382
 9682SOL     OW29944   5.180   6.984   6.042
 9682SOL    HW129945   5.268   6.939   6.058
 9682SOL    HW229946   5.193   0.034   5.981
 9683SOL     OW29947   3.424   6.303   3.653
 9683SOL    HW129948   3.429   6.220   3.597
 9683SOL    HW229949   3.515   6.324   3.689
 9684SOL     OW29950   6.941   3.270   5.346
 9684SOL    HW129951   0.002   3.307   5.320
 9684SOL    HW229952   6.948   3.225   5.436
 9685SOL     OW29953   3.315   4.654   1.659
 9685SOL    HW129954   3.404   4.651   1.705
 9685SOL    HW229955   3.276   4.562   1.655
 9686SOL     OW29956   0.201   1.234   5.724
 9686SOL    HW129957   0.286   1.283   5.704
 9686SOL    HW229958   0.167   1.192   5.640
 9687SOL     OW29959   5.507   1.157   3.111
 9687SOL    HW129960   5.581   1.121   3.168
 9687SOL    HW229961   5.546   1.196   3.027
 9688SOL     OW29962   0.308   4.927   1.469
 9688SOL    HW129963   0.311   4.871   1.386
 9688SOL    HW229964   0.394   4.914   1.520
 9689SOL     OW29965   1.712   6.105   1.480
 9689SOL    HW129966   1.666   6.193   1.483
 9689SOL    HW229967   1.732   6.080   1.385
 9690SOL     OW29968   0.542   4.643   4.673
 9690SOL    HW129969   0.470   4.675   4.611
 9690SOL    HW229970   0.585   4.562   4.634
 9691SOL     OW29971   3.298   3.435   1.623
 9691SOL    HW129972   3.318   3.393   1.711
 9691SOL    HW229973   3.377   3.426   1.563
 9692SOL     OW29974   5.075   4.397   0.760
 9692SOL    HW129975   5.089   4.334   0.836
 9692SOL    HW229976   5.155   4.396   0.700
 9693SOL     OW29977   4.535   2.925   5.554
 9693SOL    HW129978   4.538   2.975   5.467
 9693SOL    HW229979   4.619   2.873   5.565
 9694SOL     OW29980   3.124   6.590   1.509
 9694SOL    HW129981   3.077   6.654   1.448
 9694SOL    HW229982   3.084   6.597   1.601
 9695SOL     OW29983   0.851   3.218   3.936
 9695SOL    HW129984   0.768   3.166   3.952
 9695SOL    HW229985   0.917   3.200   4.009
 9696SOL     OW29986   5.069   2.864   3.063
 9696SOL    HW129987   5.066   2.781   3.118
 9696SOL    HW229988   5.159   2.906   3.070
 9697SOL     OW29989   0.203   6.925   1.619
 9697SOL    HW129990   0.201   6.918   1.719
 9697SOL    HW229991   0.110   6.916   1.584
 9698SOL     OW29992   0.390   3.825   2.273
 9698SOL    HW129993   0.412   3.807   2.369
 9698SOL    HW229994   0.293   3.806   2.257
 9699SOL     OW29995   1.369   5.503   1.222
 9699SOL    HW129996   1.401   5.484   1.315
 9699SOL    HW229997   1.375   5.601   1.205
 9700SOL     OW29998   5.269   0.342   6.236
 9700SOL    HW129999   5.213   0.359   6.155
 9700SOL    HW230000   5.363   0.371   6.218
 9701SOL     OW30001   4.998   3.993   6.748
 9701SOL    HW130002   4.980   3.971   6.844
 9701SOL    HW230003   5.081   4.049   6.742
 9702SOL     OW30004   3.789   4.075   2.287
 9702SOL    HW130005   3.772   4.054   2.384
 9702SOL    HW230006   3.788   4.174   2.274
 9703SOL     OW30007   6.113   4.855   3.573
 9703SOL    HW130008   6.066   4.889   3.655
 9703SOL    HW230009   6.045   4.827   3.505
 9704SOL     OW30010   1.573   4.558   2.276
 9704SOL    HW130011   1.607   4.576   2.368
 9704SOL    HW230012   1.578   4.460   2.258
 9705SOL     OW30013   0.280   2.862   5.621
 9705SOL    HW130014   0.273   2.859   5.721
 9705SOL    HW230015   0.211   2.801   5.582
 9706SOL     OW30016   1.079   1.139   2.882
 9706SOL    HW130017   1.080   1.047   2.920
 9706SOL    HW230018   1.121   1.139   2.792
 9707SOL     OW30019   1.014   4.825   2.763
 9707SOL    HW130020   0.991   4.918   2.790
 9707SOL    HW230021   0.996   4.763   2.839
 9708SOL     OW30022   2.424   0.860   1.798
 9708SOL    HW130023   2.450   0.943   1.846
 9708SOL    HW230024   2.374   0.884   1.715
 9709SOL     OW30025   5.495   1.945   1.572
 9709SOL    HW130026   5.562   2.019   1.583
 9709SOL    HW230027   5.537   1.869   1.523
 9710SOL     OW30028   5.234   5.483   4.622
 9710SOL    HW130029   5.248   5.425   4.702
 9710SOL    HW230030   5.289   5.447   4.546
 9711SOL     OW30031   2.918   0.773   6.482
 9711SOL    HW130032   2.900   0.793   6.385
 9711SOL    HW230033   2.922   0.674   6.495
 9712SOL     OW30034   5.817   0.719   6.787
 9712SOL    HW130035   5.897   0.755   6.739
 9712SOL    HW230036   5.845   0.647   6.850
 9713SOL     OW30037   2.576   6.761   2.517
 9713SOL    HW130038   2.480   6.739   2.501
 9713SOL    HW230039   2.595   6.758   2.615
 9714SOL     OW30040   2.202   3.989   3.733
 9714SOL    HW130041   2.228   4.021   3.825
 9714SOL    HW230042   2.160   3.898   3.740
 9715SOL     OW30043   6.869   3.114   6.520
 9715SOL    HW130044   6.866   3.053   6.599
 9715SOL    HW230045   6.790   3.096   6.461
 9716SOL     OW30046   2.349   5.955   0.454
 9716SOL    HW130047   2.447   5.933   0.455
 9716SOL    HW230048   2.336   6.049   0.485
 9717SOL     OW30049   3.865   2.295   5.950
 9717SOL    HW130050   3.834   2.371   6.008
 9717SOL    HW230051   3.964   2.287   5.956
 9718SOL     OW30052   4.371   2.175   5.999
 9718SOL    HW130053   4.463   2.138   6.007
 9718SOL    HW230054   4.352   2.233   6.078
 9719SOL     OW30055   4.991   0.185   6.197
 9719SOL    HW130056   5.053   0.223   6.128
 9719SOL    HW230057   5.045   0.143   6.270
 9720SOL     OW30058   2.119   2.915   2.791
 9720SOL    HW130059   2.176   2.950   2.716
 9720SOL    HW230060   2.171   2.917   2.876
 9721SOL     OW30061   0.458   1.654   0.986
 9721SOL    HW130062   0.359   1.655   1.002
 9721SOL    HW230063   0.500   1.729   1.036
 9722SOL     OW30064   4.060   2.403   5.420
 9722SOL    HW130065   3.978   2.360   5.382
 9722SOL    HW230066   4.039   2.497   5.446
 9723SOL     OW30067   6.367   0.625   4.983
 9723SOL    HW130068   6.431   0.575   5.042
 9723SOL    HW230069   6.304   0.560   4.941
 9724SOL     OW30070   1.302   4.332   0.740
 9724SOL    HW130071   1.316   4.328   0.641
 9724SOL    HW230072   1.303   4.240   0.778
 9725SOL     OW30073   4.535   5.373   4.577
 9725SOL    HW130074   4.511   5.286   4.620
 9725SOL    HW230075   4.634   5.385   4.579
 9726SOL     OW30076   6.958   0.126   3.197
 9726SOL    HW130077   6.937   0.153   3.103
 9726SOL    HW230078   6.886   0.066   3.232
 9727SOL     OW30079   6.058   2.724   1.670
 9727SOL    HW130080   6.065   2.816   1.707
 9727SOL    HW230081   6.144   2.699   1.626
 9728SOL     OW30082   5.250   2.249   4.459
 9728SOL    HW130083   5.209   2.158   4.460
 9728SOL    HW230084   5.272   2.275   4.365
 9729SOL     OW30085   0.248   4.214   3.304
 9729SOL    HW130086   0.245   4.231   3.403
 9729SOL    HW230087   0.341   4.190   3.277
 9730SOL     OW30088   0.873   5.045   2.817
 9730SOL    HW130089   0.828   5.029   2.904
 9730SOL    HW230090   0.824   5.117   2.767
 9731SOL     OW30091   5.366   2.842   1.524
 9731SOL    HW130092   5.298   2.770   1.537
 9731SOL    HW230093   5.396   2.843   1.428
 9732SOL     OW30094   1.033   3.924   2.817
 9732SOL    HW130095   1.111   3.986   2.821
 9732SOL    HW230096   1.060   3.834   2.853
 9733SOL     OW30097   6.314   4.691   1.999
 9733SOL    HW130098   6.280   4.600   1.975
 9733SOL    HW230099   6.237   4.750   2.025
 9734SOL     OW30100   4.613   5.274   6.242
 9734SOL    HW130101   4.591   5.247   6.148
 9734SOL    HW230102   4.541   5.242   6.303
 9735SOL     OW30103   0.012   2.159   0.361
 9735SOL    HW130104   0.014   2.074   0.309
 9735SOL    HW230105   6.949   2.202   0.352
 9736SOL     OW30106   4.759   2.082   4.587
 9736SOL    HW130107   4.736   2.015   4.517
 9736SOL    HW230108   4.858   2.091   4.595
 9737SOL     OW30109   5.729   2.692   3.773
 9737SOL    HW130110   5.699   2.667   3.681
 9737SOL    HW230111   5.701   2.621   3.838
 9738SOL     OW30112   2.490   6.476   1.701
 9738SOL    HW130113   2.436   6.392   1.701
 9738SOL    HW230114   2.548   6.479   1.620
 9739SOL     OW30115   6.158   6.465   0.670
 9739SOL    HW130116   6.067   6.429   0.693
 9739SOL    HW230117   6.184   6.533   0.738
 9740SOL     OW30118   6.173   0.408   1.884
 9740SOL    HW130119   6.144   0.314   1.865
 9740SOL    HW230120   6.261   0.407   1.931
 9741SOL     OW30121   2.156   2.102   3.848
 9741SOL    HW130122   2.058   2.085   3.852
 9741SOL    HW230123   2.201   2.029   3.796
 9742SOL     OW30124   3.395   1.816   6.302
 9742SOL    HW130125   3.299   1.844   6.293
 9742SOL    HW230126   3.411   1.779   6.393
 9743SOL     OW30127   6.259   3.431   3.679
 9743SOL    HW130128   6.186   3.424   3.611
 9743SOL    HW230129   6.297   3.524   3.678
 9744SOL     OW30130   1.952   1.546   2.392
 9744SOL    HW130131   1.888   1.470   2.403
 9744SOL    HW230132   1.999   1.562   2.479
 9745SOL     OW30133   0.182   0.141   5.890
 9745SOL    HW130134   0.216   0.234   5.882
 9745SOL    HW230135   0.082   0.143   5.897
 9746SOL     OW30136   3.467   6.287   6.229
 9746SOL    HW130137   3.500   6.381   6.244
 9746SOL    HW230138   3.533   6.238   6.172
 9747SOL     OW30139   3.265   1.566   3.108
 9747SOL    HW130140   3.329   1.489   3.097
 9747SOL    HW230141   3.265   1.622   3.025
 9748SOL     OW30142   1.719   1.034   2.968
 9748SOL    HW130143   1.728   0.998   2.874
 9748SOL    HW230144   1.635   0.999   3.009
 9749SOL     OW30145   6.826   0.625   1.841
 9749SOL    HW130146   6.777   0.554   1.789
 9749SOL    HW230147   6.767   0.660   1.913
 9750SOL     OW30148   5.600   2.726   5.270
 9750SOL    HW130149   5.611   2.805   5.330
 9750SOL    HW230150   5.678   2.664   5.283
 9751SOL     OW30151   3.288   6.880   1.469
 9751SOL    HW130152   3.256   6.868   1.563
 9751SOL    HW230153   3.382   6.846   1.461
 9752SOL     OW30154   3.011   3.074   0.561
 9752SOL    HW130155   3.026   3.056   0.464
 9752SOL    HW230156   3.082   3.028   0.614
 9753SOL     OW30157   6.265   6.053   4.766
 9753SOL    HW130158   6.326   6.063   4.845
 9753SOL    HW230159   6.318   6.057   4.682
 9754SOL     OW30160   3.217   1.350   2.480
 9754SOL    HW130161   3.267   1.363   2.566
 9754SOL    HW230162   3.229   1.255   2.449
 9755SOL     OW30163   3.625   3.981   0.271
 9755SOL    HW130164   3.662   4.017   0.185
 9755SOL    HW230165   3.698   3.973   0.338
 9756SOL     OW30166   5.776   0.304   6.119
 9756SOL    HW130167   5.863   0.335   6.080
 9756SOL    HW230168   5.787   0.213   6.158
 9757SOL     OW30169   5.063   3.320   4.068
 9757SOL    HW130170   5.034   3.252   4.135
 9757SOL    HW230171   5.156   3.298   4.037
 9758SOL     OW30172   2.327   1.079   2.556
 9758SOL    HW130173   2.286   0.996   2.520
 9758SOL    HW230174   2.272   1.114   2.632
 9759SOL     OW30175   6.670   1.919   1.905
 9759SOL    HW130176   6.632   1.885   1.819
 9759SOL    HW230177   6.617   1.882   1.982
 9760SOL     OW30178   4.651   0.560   0.049
 9760SOL    HW130179   4.603   0.477   0.075
 9760SOL    HW230180   4.720   0.538   7.007
 9761SOL     OW30181   1.210   2.516   1.276
 9761SOL    HW130182   1.200   2.612   1.302
 9761SOL    HW230183   1.246   2.463   1.353
 9762SOL     OW30184   3.126   1.287   5.590
 9762SOL    HW130185   3.053   1.288   5.521
 9762SOL    HW230186   3.121   1.203   5.643
 9763SOL     OW30187   6.492   2.215   1.338
 9763SOL    HW130188   6.488   2.211   1.238
 9763SOL    HW230189   6.413   2.264   1.373
 9764SOL     OW30190   0.444   2.077   2.729
 9764SOL    HW130191   0.446   2.158   2.787
 9764SOL    HW230192   0.450   2.104   2.633
 9765SOL     OW30193   6.641   0.229   1.985
 9765SOL    HW130194   6.712   0.170   1.947
 9765SOL    HW230195   6.679   0.282   2.061
 9766SOL     OW30196   1.048   2.564   2.589
 9766SOL    HW130197   1.023   2.534   2.681
 9766SOL    HW230198   1.127   2.624   2.594
 9767SOL     OW30199   2.528   1.598   4.868
 9767SOL    HW130200   2.525   1.658   4.948
 9767SOL    HW230201   2.568   1.510   4.894
 9768SOL     OW30202   5.500   3.099   0.465
 9768SOL    HW130203   5.596   3.105   0.495
 9768SOL    HW230204   5.455   3.025   0.514
 9769SOL     OW30205   3.483   1.853   5.652
 9769SOL    HW130206   3.460   1.937   5.702
 9769SOL    HW230207   3.508   1.876   5.558
 9770SOL     OW30208   1.925   3.106   5.459
 9770SOL    HW130209   1.880   3.146   5.379
 9770SOL    HW230210   1.990   3.172   5.497
 9771SOL     OW30211   2.581   0.627   1.313
 9771SOL    HW130212   2.623   0.717   1.324
 9771SOL    HW230213   2.652   0.557   1.314
 9772SOL     OW30214   1.052   0.626   1.296
 9772SOL    HW130215   1.101   0.684   1.231
 9772SOL    HW230216   0.959   0.609   1.262
 9773SOL     OW30217   5.846   5.789   2.453
 9773SOL    HW130218   5.855   5.690   2.448
 9773SOL    HW230219   5.867   5.819   2.546
 9774SOL     OW30220   1.885   4.567   3.968
 9774SOL    HW130221   1.984   4.575   3.978
 9774SOL    HW230222   1.841   4.586   4.056
 9775SOL     OW30223   2.128   1.455   3.224
 9775SOL    HW130224   2.075   1.524   3.174
 9775SOL    HW230225   2.222   1.487   3.236
 9776SOL     OW30226   2.587   5.314   1.313
 9776SOL    HW130227   2.661   5.334   1.248
 9776SOL    HW230228   2.592   5.217   1.338
 9777SOL     OW30229   4.585   1.350   5.534
 9777SOL    HW130230   4.640   1.399   5.601
 9777SOL    HW230231   4.518   1.293   5.580
 9778SOL     OW30232   0.954   3.566   3.243
 9778SOL    HW130233   0.944   3.537   3.338
 9778SOL    HW230234   1.006   3.651   3.240
 9779SOL     OW30235   3.130   0.840   3.792
 9779SOL    HW130236   3.118   0.772   3.720
 9779SOL    HW230237   3.091   0.806   3.878
 9780SOL     OW30238   0.570   2.456   1.556
 9780SOL    HW130239   0.561   2.515   1.635
 9780SOL    HW230240   0.568   2.511   1.472
 9781SOL     OW30241   1.773   1.191   2.117
 9781SOL    HW130242   1.721   1.261   2.166
 9781SOL    HW230243   1.793   1.115   2.178
 9782SOL     OW30244   0.249   2.014   0.569
 9782SOL    HW130245   0.280   2.053   0.656
 9782SOL    HW230246   0.293   2.063   0.494
 9783SOL     OW30247   4.529   1.466   3.019
 9783SOL    HW130248   4.561   1.377   3.050
 9783SOL    HW230249   4.485   1.458   2.930
 9784SOL     OW30250   1.827   1.598   6.415
 9784SOL    HW130251   1.827   1.692   6.447
 9784SOL    HW230252   1.862   1.538   6.487
 9785SOL     OW30253   0.672   4.036   4.904
 9785SOL    HW130254   0.577   4.029   4.933
 9785SOL    HW230255   0.681   4.003   4.810
 9786SOL     OW30256   2.435   4.412   6.307
 9786SOL    HW130257   2.475   4.455   6.388
 9786SOL    HW230258   2.347   4.371   6.331
 9787SOL     OW30259   2.940   3.358   2.222
 9787SOL    HW130260   2.941   3.334   2.124
 9787SOL    HW230261   2.892   3.287   2.273
 9788SOL     OW30262   4.109   6.991   1.663
 9788SOL    HW130263   4.030   0.016   1.696
 9788SOL    HW230264   4.193   0.006   1.697
 9789SOL     OW30265   3.243   1.410   6.794
 9789SOL    HW130266   3.282   1.318   6.783
 9789SOL    HW230267   3.317   1.477   6.793
 9790SOL     OW30268   5.401   6.061   4.498
 9790SOL    HW130269   5.345   6.116   4.435
 9790SOL    HW230270   5.346   6.037   4.578
 9791SOL     OW30271   0.732   0.155   1.835
 9791SOL    HW130272   0.821   0.165   1.791
 9791SOL    HW230273   0.709   0.058   1.842
 9792SOL     OW30274   3.670   4.925   0.723
 9792SOL    HW130275   3.589   4.974   0.691
 9792SOL    HW230276   3.752   4.976   0.696
 9793SOL     OW30277   6.517   0.971   3.044
 9793SOL    HW130278   6.517   0.958   2.945
 9793SOL    HW230279   6.422   0.978   3.077
 9794SOL     OW30280   4.503   4.577   4.395
 9794SOL    HW130281   4.521   4.520   4.315
 9794SOL    HW230282   4.523   4.526   4.478
 9795SOL     OW30283   1.054   3.122   2.824
 9795SOL    HW130284   1.075   3.160   2.734
 9795SOL    HW230285   0.961   3.148   2.851
 9796SOL     OW30286   3.094   3.843   4.016
 9796SOL    HW130287   3.094   3.880   4.109
 9796SOL    HW230288   3.018   3.778   4.006
 9797SOL     OW30289   2.800   5.020   0.158
 9797SOL    HW130290   2.770   4.986   0.248
 9797SOL    HW230291   2.897   5.000   0.146
 9798SOL     OW30292   0.187   4.307   6.298
 9798SOL    HW130293   0.136   4.292   6.382
 9798SOL    HW230294   0.193   4.405   6.280
 9799SOL     OW30295   3.049   0.246   0.298
 9799SOL    HW130296   2.957   0.246   0.336
 9799SOL    HW230297   3.044   0.253   0.199
 9800SOL     OW30298   6.562   3.195   4.244
 9800SOL    HW130299   6.484   3.164   4.190
 9800SOL    HW230300   6.547   3.290   4.273
 9801SOL     OW30301   5.278   6.302   0.869
 9801SOL    HW130302   5.313   6.386   0.911
 9801SOL    HW230303   5.220   6.254   0.935
 9802SOL     OW30304   4.052   3.563   6.904
 9802SOL    HW130305   3.977   3.512   6.946
 9802SOL    HW230306   4.111   3.601   6.975
 9803SOL     OW30307   0.844   2.991   6.284
 9803SOL    HW130308   0.846   3.056   6.208
 9803SOL    HW230309   0.786   3.028   6.357
 9804SOL     OW30310   0.516   4.565   2.573
 9804SOL    HW130311   0.530   4.467   2.561
 9804SOL    HW230312   0.538   4.591   2.667
 9805SOL     OW30313   1.029   5.475   3.447
 9805SOL    HW130314   0.965   5.549   3.427
 9805SOL    HW230315   1.120   5.500   3.412
 9806SOL     OW30316   3.920   1.735   0.074
 9806SOL    HW130317   3.936   1.686   0.159
 9806SOL    HW230318   3.986   1.809   0.064
 9807SOL     OW30319   3.979   3.080   3.320
 9807SOL    HW130320   3.937   3.035   3.241
 9807SOL    HW230321   4.074   3.101   3.299
 9808SOL     OW30322   4.174   5.435   1.974
 9808SOL    HW130323   4.162   5.357   1.912
 9808SOL    HW230324   4.164   5.405   2.068
 9809SOL     OW30325   6.830   3.301   0.505
 9809SOL    HW130326   6.748   3.327   0.556
 9809SOL    HW230327   6.814   3.214   0.459
 9810SOL     OW30328   2.520   1.828   0.552
 9810SOL    HW130329   2.483   1.902   0.496
 9810SOL    HW230330   2.620   1.827   0.544
 9811SOL     OW30331   5.633   3.704   4.380
 9811SOL    HW130332   5.698   3.705   4.305
 9811SOL    HW230333   5.665   3.764   4.453
 9812SOL     OW30334   3.359   6.280   5.866
 9812SOL    HW130335   3.302   6.353   5.905
 9812SOL    HW230336   3.334   6.193   5.907
 9813SOL     OW30337   5.173   0.448   2.137
 9813SOL    HW130338   5.104   0.456   2.209
 9813SOL    HW230339   5.137   0.485   2.051
 9814SOL     OW30340   6.673   1.160   6.581
 9814SOL    HW130341   6.772   1.165   6.595
 9814SOL    HW230342   6.649   1.069   6.547
 9815SOL     OW30343   4.459   2.512   3.978
 9815SOL    HW130344   4.466   2.611   3.993
 9815SOL    HW230345   4.428   2.496   3.884
 9816SOL     OW30346   2.542   1.102   1.521
 9816SOL    HW130347   2.560   1.174   1.588
 9816SOL    HW230348   2.532   1.143   1.430
 9817SOL     OW30349   6.627   6.832   2.312
 9817SOL    HW130350   6.586   6.764   2.372
 9817SOL    HW230351   6.670   6.903   2.367
 9818SOL     OW30352   5.315   2.485   4.917
 9818SOL    HW130353   5.272   2.574   4.905
 9818SOL    HW230354   5.254   2.425   4.969
 9819SOL     OW30355   4.362   0.739   2.164
 9819SOL    HW130356   4.345   0.713   2.069
 9819SOL    HW230357   4.278   0.731   2.217
 9820SOL     OW30358   4.526   2.924   6.430
 9820SOL    HW130359   4.445   2.866   6.420
 9820SOL    HW230360   4.545   2.971   6.344
 9821SOL     OW30361   6.629   5.303   0.379
 9821SOL    HW130362   6.723   5.297   0.413
 9821SOL    HW230363   6.619   5.385   0.323
 9822SOL     OW30364   0.989   6.719   2.662
 9822SOL    HW130365   1.065   6.729   2.598
 9822SOL    HW230366   0.989   6.797   2.725
 9823SOL     OW30367   3.873   0.110   1.691
 9823SOL    HW130368   3.792   0.067   1.653
 9823SOL    HW230369   3.912   0.174   1.624
 9824SOL     OW30370   1.524   4.077   5.721
 9824SOL    HW130371   1.617   4.080   5.758
 9824SOL    HW230372   1.465   4.024   5.783
 9825SOL     OW30373   4.266   4.975   5.464
 9825SOL    HW130374   4.250   4.878   5.450
 9825SOL    HW230375   4.358   4.998   5.431
 9826SOL     OW30376   4.791   0.578   6.182
 9826SOL    HW130377   4.720   0.509   6.201
 9826SOL    HW230378   4.842   0.551   6.100
 9827SOL     OW30379   1.266   3.357   4.462
 9827SOL    HW130380   1.311   3.348   4.373
 9827SOL    HW230381   1.190   3.421   4.455
 9828SOL     OW30382   2.967   2.929   6.658
 9828SOL    HW130383   3.050   2.948   6.710
 9828SOL    HW230384   2.989   2.922   6.560
 9829SOL     OW30385   3.371   4.801   1.134
 9829SOL    HW130386   3.383   4.724   1.196
 9829SOL    HW230387   3.456   4.854   1.130
 9830SOL     OW30388   5.963   0.397   0.553
 9830SOL    HW130389   6.000   0.426   0.465
 9830SOL    HW230390   5.895   0.463   0.584
 9831SOL     OW30391   6.081   6.801   0.501
 9831SOL    HW130392   6.040   6.877   0.452
 9831SOL    HW230393   6.076   6.818   0.600
 9832SOL     OW30394   4.336   4.885   0.859
 9832SOL    HW130395   4.373   4.793   0.876
 9832SOL    HW230396   4.255   4.877   0.801
 9833SOL     OW30397   4.114   4.027   5.575
 9833SOL    HW130398   4.087   4.123   5.584
 9833SOL    HW230399   4.155   3.995   5.660
 9834SOL     OW30400   1.100   3.518   4.907
 9834SOL    HW130401   1.132   3.544   4.816
 9834SOL    HW230402   1.133   3.584   4.975
 9835SOL     OW30403   4.971   1.263   4.134
 9835SOL    HW130404   4.969   1.305   4.225
 9835SOL    HW230405   4.982   1.334   4.065
 9836SOL     OW30406   4.846   5.325   2.601
 9836SOL    HW130407   4.847   5.411   2.652
 9836SOL    HW230408   4.803   5.254   2.657
 9837SOL     OW30409   1.576   6.427   4.178
 9837SOL    HW130410   1.537   6.457   4.265
 9837SOL    HW230411   1.540   6.485   4.104
 9838SOL     OW30412   0.304   5.551   5.457
 9838SOL    HW130413   0.399   5.577   5.468
 9838SOL    HW230414   0.246   5.632   5.461
 9839SOL     OW30415   6.533   1.859   2.244
 9839SOL    HW130416   6.615   1.916   2.234
 9839SOL    HW230417   6.498   1.867   2.337
 9840SOL     OW30418   6.605   0.509   1.012
 9840SOL    HW130419   6.624   0.544   0.921
 9840SOL    HW230420   6.578   0.413   1.006
 9841SOL     OW30421   1.491   3.843   4.193
 9841SOL    HW130422   1.578   3.813   4.232
 9841SOL    HW230423   1.456   3.773   4.131
 9842SOL     OW30424   3.402   2.891   2.397
 9842SOL    HW130425   3.482   2.879   2.338
 9842SOL    HW230426   3.319   2.893   2.341
 9843SOL     OW30427   5.692   3.334   2.212
 9843SOL    HW130428   5.617   3.354   2.149
 9843SOL    HW230429   5.658   3.279   2.288
 9844SOL     OW30430   4.949   0.189   2.544
 9844SOL    HW130431   4.977   0.183   2.640
 9844SOL    HW230432   5.004   0.259   2.498
 9845SOL     OW30433   0.609   2.003   3.632
 9845SOL    HW130434   0.624   1.936   3.559
 9845SOL    HW230435   0.697   2.035   3.667
 9846SOL     OW30436   3.005   3.119   3.080
 9846SOL    HW130437   3.049   3.061   3.011
 9846SOL    HW230438   2.908   3.097   3.084
 9847SOL     OW30439   2.089   4.396   4.914
 9847SOL    HW130440   2.150   4.453   4.858
 9847SOL    HW230441   1.995   4.428   4.902
 9848SOL     OW30442   4.527   3.756   0.504
 9848SOL    HW130443   4.550   3.739   0.600
 9848SOL    HW230444   4.428   3.759   0.493
 9849SOL     OW30445   0.262   6.960   5.720
 9849SOL    HW130446   0.210   7.004   5.794
 9849SOL    HW230447   0.273   6.863   5.741
 9850SOL     OW30448   4.317   6.470   2.459
 9850SOL    HW130449   4.266   6.416   2.526
 9850SOL    HW230450   4.291   6.443   2.367
 9851SOL     OW30451   5.579   2.036   4.986
 9851SOL    HW130452   5.629   2.121   4.971
 9851SOL    HW230453   5.615   1.990   5.067
 9852SOL     OW30454   5.125   1.924   3.385
 9852SOL    HW130455   5.104   1.832   3.353
 9852SOL    HW230456   5.219   1.925   3.420
 9853SOL     OW30457   6.505   4.151   2.133
 9853SOL    HW130458   6.493   4.249   2.113
 9853SOL    HW230459   6.469   4.132   2.225
 9854SOL     OW30460   4.896   5.993   3.797
 9854SOL    HW130461   4.941   5.988   3.886
 9854SOL    HW230462   4.797   6.001   3.810
 9855SOL     OW30463   1.458   3.185   1.299
 9855SOL    HW130464   1.481   3.269   1.250
 9855SOL    HW230465   1.541   3.150   1.344
 9856SOL     OW30466   4.256   2.670   1.200
 9856SOL    HW130467   4.190   2.653   1.127
 9856SOL    HW230468   4.342   2.622   1.180
 9857SOL     OW30469   5.362   4.327   3.754
 9857SOL    HW130470   5.280   4.286   3.796
 9857SOL    HW230471   5.443   4.299   3.806
 9858SOL     OW30472   4.831   0.957   0.936
 9858SOL    HW130473   4.833   0.943   1.035
 9858SOL    HW230474   4.756   1.018   0.913
 9859SOL     OW30475   6.407   0.419   2.013
 9859SOL    HW130476   6.486   0.372   1.972
 9859SOL    HW230477   6.430   0.515   2.027
 9860SOL     OW30478   0.483   0.888   2.783
 9860SOL    HW130479   0.393   0.900   2.823
 9860SOL    HW230480   0.536   0.973   2.793
 9861SOL     OW30481   3.719   6.837   4.704
 9861SOL    HW130482   3.636   6.795   4.669
 9861SOL    HW230483   3.750   6.907   4.639
 9862SOL     OW30484   0.710   2.478   0.556
 9862SOL    HW130485   0.691   2.505   0.462
 9862SOL    HW230486   0.737   2.559   0.609
 9863SOL     OW30487   2.899   6.696   0.815
 9863SOL    HW130488   2.918   6.621   0.752
 9863SOL    HW230489   2.942   6.780   0.781
 9864SOL     OW30490   4.445   5.791   2.228
 9864SOL    HW130491   4.479   5.884   2.243
 9864SOL    HW230492   4.397   5.759   2.310
 9865SOL     OW30493   0.098   1.501   5.020
 9865SOL    HW130494   0.191   1.472   4.996
 9865SOL    HW230495   0.092   1.600   5.014
 9866SOL     OW30496   4.505   4.598   3.728
 9866SOL    HW130497   4.467   4.615   3.637
 9866SOL    HW230498   4.478   4.671   3.790
 9867SOL     OW30499   3.905   0.411   6.589
 9867SOL    HW130500   3.885   0.330   6.645
 9867SOL    HW230501   3.858   0.403   6.501
 9868SOL     OW30502   6.530   5.338   6.944
 9868SOL    HW130503   6.452   5.281   6.971
 9868SOL    HW230504   6.587   5.355   7.024
 9869SOL     OW30505   1.563   3.741   3.044
 9869SOL    HW130506   1.604   3.656   3.077
 9869SOL    HW230507   1.627   3.816   3.059
 9870SOL     OW30508   4.755   4.576   2.937
 9870SOL    HW130509   4.821   4.647   2.912
 9870SOL    HW230510   4.677   4.578   2.875
 9871SOL     OW30511   1.777   1.165   5.315
 9871SOL    HW130512   1.876   1.170   5.328
 9871SOL    HW230513   1.732   1.170   5.404
 9872SOL     OW30514   1.660   4.742   3.265
 9872SOL    HW130515   1.700   4.825   3.225
 9872SOL    HW230516   1.719   4.664   3.245
 9873SOL     OW30517   0.685   2.711   0.966
 9873SOL    HW130518   0.601   2.726   1.018
 9873SOL    HW230519   0.764   2.736   1.022
 9874SOL     OW30520   0.674   2.740   3.628
 9874SOL    HW130521   0.730   2.687   3.691
 9874SOL    HW230522   0.583   2.755   3.667
 9875SOL     OW30523   1.292   0.637   3.057
 9875SOL    HW130524   1.387   0.651   3.030
 9875SOL    HW230525   1.238   0.611   2.977
 9876SOL     OW30526   0.143   6.089   2.588
 9876SOL    HW130527   0.100   6.001   2.606
 9876SOL    HW230528   0.105   6.128   2.504
 9877SOL     OW30529   3.622   0.201   2.245
 9877SOL    HW130530   3.658   0.289   2.274
 9877SOL    HW230531   3.648   0.184   2.150
 9878SOL     OW30532   0.510   6.430   5.299
 9878SOL    HW130533   0.454   6.379   5.234
 9878SOL    HW230534   0.554   6.507   5.253
 9879SOL     OW30535   4.593   5.903   6.277
 9879SOL    HW130536   4.598   5.992   6.322
 9879SOL    HW230537   4.679   5.885   6.228
 9880SOL     OW30538   1.629   1.582   5.227
 9880SOL    HW130539   1.603   1.495   5.187
 9880SOL    HW230540   1.661   1.644   5.155
 9881SOL     OW30541   0.328   2.807   5.976
 9881SOL    HW130542   0.401   2.847   6.033
 9881SOL    HW230543   0.351   2.711   5.956
 9882SOL     OW30544   1.166   1.197   3.671
 9882SOL    HW130545   1.231   1.140   3.722
 9882SOL    HW230546   1.160   1.287   3.714
 9883SOL     OW30547   1.803   0.896   1.766
 9883SOL    HW130548   1.856   0.883   1.850
 9883SOL    HW230549   1.777   0.992   1.757
 9884SOL     OW30550   4.038   0.761   3.994
 9884SOL    HW130551   3.999   0.740   4.084
 9884SOL    HW230552   4.024   0.858   3.975
 9885SOL     OW30553   6.355   5.223   4.394
 9885SOL    HW130554   6.299   5.199   4.474
 9885SOL    HW230555   6.314   5.186   4.311
 9886SOL     OW30556   1.019   3.888   2.368
 9886SOL    HW130557   0.984   3.954   2.301
 9886SOL    HW230558   1.073   3.819   2.321
 9887SOL     OW30559   4.114   0.572   6.563
 9887SOL    HW130560   4.036   0.510   6.560
 9887SOL    HW230561   4.184   0.536   6.624
 9888SOL     OW30562   0.207   4.423   0.257
 9888SOL    HW130563   0.163   4.394   0.172
 9888SOL    HW230564   0.187   4.520   0.274
 9889SOL     OW30565   6.895   5.259   0.430
 9889SOL    HW130566   6.849   5.181   0.387
 9889SOL    HW230567   6.949   5.228   0.508
 9890SOL     OW30568   1.452   2.669   1.162
 9890SOL    HW130569   1.518   2.665   1.237
 9890SOL    HW230570   1.400   2.584   1.158
 9891SOL     OW30571   5.014   2.007   1.439
 9891SOL    HW130572   5.033   1.957   1.524
 9891SOL    HW230573   5.100   2.042   1.401
 9892SOL     OW30574   6.532   5.637   6.637
 9892SOL    HW130575   6.602   5.573   6.668
 9892SOL    HW230576   6.540   5.649   6.538
 9893SOL     OW30577   2.226   1.209   0.547
 9893SOL    HW130578   2.166   1.269   0.599
 9893SOL    HW230579   2.233   1.120   0.592
 9894SOL     OW30580   1.690   2.238   0.070
 9894SOL    HW130581   1.690   2.138   0.080
 9894SOL    HW230582   1.611   2.277   0.115
 9895SOL     OW30583   5.243   3.169   5.572
 9895SOL    HW130584   5.203   3.257   5.598
 9895SOL    HW230585   5.246   3.162   5.472
 9896SOL     OW30586   5.852   0.238   6.925
 9896SOL    HW130587   5.946   0.206   6.909
 9896SOL    HW230588   5.788   0.175   6.882
 9897SOL     OW30589   5.756   5.258   3.777
 9897SOL    HW130590   5.778   5.301   3.865
 9897SOL    HW230591   5.710   5.325   3.718
 9898SOL     OW30592   3.639   6.301   5.406
 9898SOL    HW130593   3.550   6.346   5.413
 9898SOL    HW230594   3.627   6.202   5.409
 9899SOL     OW30595   0.079   5.392   6.937
 9899SOL    HW130596   0.110   5.474   6.984
 9899SOL    HW230597   0.020   5.417   6.860
 9900SOL     OW30598   2.094   3.724   3.171
 9900SOL    HW130599   2.086   3.768   3.260
 9900SOL    HW230600   2.096   3.794   3.099
 9901SOL     OW30601   2.273   1.842   5.408
 9901SOL    HW130602   2.210   1.907   5.366
 9901SOL    HW230603   2.351   1.828   5.347
 9902SOL     OW30604   2.759   4.263   6.852
 9902SOL    HW130605   2.773   4.218   6.764
 9902SOL    HW230606   2.848   4.289   6.890
 9903SOL     OW30607   5.457   0.823   2.881
 9903SOL    HW130608   5.398   0.892   2.838
 9903SOL    HW230609   5.485   0.756   2.813
 9904SOL     OW30610   6.478   3.120   6.594
 9904SOL    HW130611   6.479   3.064   6.677
 9904SOL    HW230612   6.395   3.176   6.591
 9905SOL     OW30613   4.013   1.510   0.211
 9905SOL    HW130614   3.942   1.481   0.276
 9905SOL    HW230615   3.992   1.473   0.120
 9906SOL     OW30616   4.151   3.590   4.109
 9906SOL    HW130617   4.080   3.658   4.125
 9906SOL    HW230618   4.239   3.636   4.099
 9907SOL     OW30619   0.669   6.929   2.167
 9907SOL    HW130620   0.632   6.854   2.113
 9907SOL    HW230621   0.723   6.892   2.243
 9908SOL     OW30622   5.139   3.276   3.165
 9908SOL    HW130623   5.192   3.357   3.142
 9908SOL    HW230624   5.191   3.194   3.138
 9909SOL     OW30625   2.098   0.089   5.084
 9909SOL    HW130626   2.052   0.090   5.173
 9909SOL    HW230627   2.137   0.179   5.065
 9910SOL     OW30628   1.457   4.101   3.090
 9910SOL    HW130629   1.525   4.052   3.143
 9910SOL    HW230630   1.365   4.069   3.115
 9911SOL     OW30631   3.239   6.333   1.924
 9911SOL    HW130632   3.301   6.373   1.856
 9911SOL    HW230633   3.231   6.235   1.908
 9912SOL     OW30634   4.609   1.646   0.002
 9912SOL    HW130635   4.629   1.640   0.100
 9912SOL    HW230636   4.510   1.640   7.015
 9913SOL     OW30637   5.671   3.314   6.860
 9913SOL    HW130638   5.637   3.279   6.773
 9913SOL    HW230639   5.650   3.249   6.933
 9914SOL     OW30640   0.968   2.815   5.161
 9914SOL    HW130641   1.038   2.883   5.138
 9914SOL    HW230642   0.992   2.771   5.247
 9915SOL     OW30643   5.683   1.319   3.427
 9915SOL    HW130644   5.593   1.338   3.467
 9915SOL    HW230645   5.724   1.404   3.395
 9916SOL     OW30646   2.165   2.853   2.516
 9916SOL    HW130647   2.068   2.877   2.525
 9916SOL    HW230648   2.182   2.817   2.425
 9917SOL     OW30649   6.666   4.158   5.111
 9917SOL    HW130650   6.709   4.172   5.022
 9917SOL    HW230651   6.651   4.061   5.127
 9918SOL     OW30652   4.013   2.204   2.478
 9918SOL    HW130653   4.089   2.260   2.444
 9918SOL    HW230654   3.965   2.162   2.402
 9919SOL     OW30655   6.077   5.719   0.784
 9919SOL    HW130656   6.079   5.640   0.845
 9919SOL    HW230657   6.051   5.689   0.692
 9920SOL     OW30658   4.684   1.470   2.355
 9920SOL    HW130659   4.694   1.567   2.379
 9920SOL    HW230660   4.754   1.445   2.288
 9921SOL     OW30661   3.363   5.315   5.907
 9921SOL    HW130662   3.449   5.265   5.907
 9921SOL    HW230663   3.287   5.251   5.891
 9922SOL     OW30664   0.165   5.650   0.522
 9922SOL    HW130665   0.222   5.624   0.599
 9922SOL    HW230666   0.180   5.587   0.446
 9923SOL     OW30667   4.861   4.942   0.192
 9923SOL    HW130668   4.935   4.877   0.209
 9923SOL    HW230669   4.863   4.971   0.096
 9924SOL     OW30670   0.670   3.576   4.632
 9924SOL    HW130671   0.615   3.494   4.623
 9924SOL    HW230672   0.673   3.604   4.728
 9925SOL     OW30673   5.217   2.168   3.984
 9925SOL    HW130674   5.278   2.124   3.918
 9925SOL    HW230675   5.151   2.226   3.935
 9926SOL     OW30676   1.910   4.724   0.186
 9926SOL    HW130677   1.944   4.716   0.280
 9926SOL    HW230678   1.903   4.633   0.145
 9927SOL     OW30679   6.384   0.073   3.065
 9927SOL    HW130680   6.406   7.020   3.010
 9927SOL    HW230681   6.388   0.155   3.008
 9928SOL     OW30682   4.734   4.510   1.534
 9928SOL    HW130683   4.678   4.570   1.591
 9928SOL    HW230684   4.741   4.420   1.577
 9929SOL     OW30685   2.557   4.630   4.024
 9929SOL    HW130686   2.581   4.616   3.927
 9929SOL    HW230687   2.571   4.544   4.073
 9930SOL     OW30688   6.798   0.494   4.153
 9930SOL    HW130689   6.792   0.441   4.069
 9930SOL    HW230690   6.749   0.447   4.226
 9931SOL     OW30691   0.955   4.621   5.335
 9931SOL    HW130692   1.027   4.552   5.347
 9931SOL    HW230693   0.994   4.704   5.294
 9932SOL     OW30694   0.746   6.815   5.654
 9932SOL    HW130695   0.682   6.850   5.586
 9932SOL    HW230696   0.790   6.732   5.620
 9933SOL     OW30697   0.668   5.471   2.139
 9933SOL    HW130698   0.705   5.420   2.217
 9933SOL    HW230699   0.649   5.565   2.167
 9934SOL     OW30700   6.631   1.628   6.407
 9934SOL    HW130701   6.634   1.698   6.335
 9934SOL    HW230702   6.569   1.657   6.479
 9935SOL     OW30703   2.598   1.213   6.385
 9935SOL    HW130704   2.672   1.277   6.365
 9935SOL    HW230705   2.576   1.161   6.302
 9936SOL     OW30706   0.707   4.435   4.604
 9936SOL    HW130707   0.667   4.353   4.563
 9936SOL    HW230708   0.781   4.408   4.666
 9937SOL     OW30709   6.772   2.293   5.979
 9937SOL    HW130710   6.799   2.238   5.900
 9937SOL    HW230711   6.754   2.233   6.057
 9938SOL     OW30712   6.809   6.141   2.988
 9938SOL    HW130713   6.773   6.081   2.917
 9938SOL    HW230714   6.787   6.236   2.966
 9939SOL     OW30715   3.199   2.939   2.213
 9939SOL    HW130716   3.132   2.868   2.191
 9939SOL    HW230717   3.283   2.923   2.160
 9940SOL     OW30718   6.853   1.274   0.539
 9940SOL    HW130719   6.769   1.243   0.495
 9940SOL    HW230720   6.836   1.292   0.636
 9941SOL     OW30721   3.453   4.648   5.803
 9941SOL    HW130722   3.541   4.646   5.755
 9941SOL    HW230723   3.379   4.643   5.737
 9942SOL     OW30724   2.485   5.381   3.280
 9942SOL    HW130725   2.514   5.305   3.337
 9942SOL    HW230726   2.417   5.349   3.214
 9943SOL     OW30727   0.901   6.350   5.893
 9943SOL    HW130728   0.884   6.270   5.950
 9943SOL    HW230729   0.816   6.377   5.848
 9944SOL     OW30730   0.742   4.031   0.059
 9944SOL    HW130731   0.718   4.087   7.007
 9944SOL    HW230732   0.707   4.074   0.142
 9945SOL     OW30733   6.703   5.833   0.278
 9945SOL    HW130734   6.780   5.782   0.318
 9945SOL    HW230735   6.719   5.931   0.288
 9946SOL     OW30736   4.653   0.519   5.144
 9946SOL    HW130737   4.696   0.434   5.113
 9946SOL    HW230738   4.568   0.498   5.191
 9947SOL     OW30739   6.357   4.422   4.112
 9947SOL    HW130740   6.453   4.399   4.097
 9947SOL    HW230741   6.351   4.506   4.165
 9948SOL     OW30742   4.717   4.701   5.004
 9948SOL    HW130743   4.662   4.784   5.012
 9948SOL    HW230744   4.662   4.622   5.033
 9949SOL     OW30745   5.516   5.119   3.249
 9949SOL    HW130746   5.532   5.158   3.158
 9949SOL    HW230747   5.436   5.059   3.246
 9950SOL     OW30748   4.114   6.061   5.551
 9950SOL    HW130749   4.053   6.075   5.473
 9950SOL    HW230750   4.059   6.053   5.634
 9951SOL     OW30751   5.811   2.087   3.014
 9951SOL    HW130752   5.899   2.131   2.995
 9951SOL    HW230753   5.745   2.155   3.044
 9952SOL     OW30754   6.967   4.877   0.465
 9952SOL    HW130755   6.958   4.969   0.503
 9952SOL    HW230756   0.018   4.875   0.402
 9953SOL     OW30757   6.771   1.216   3.922
 9953SOL    HW130758   6.701   1.208   3.993
 9953SOL    HW230759   6.853   1.167   3.951
 9954SOL     OW30760   4.635   0.527   5.530
 9954SOL    HW130761   4.734   0.523   5.512
 9954SOL    HW230762   4.615   0.481   5.616
 9955SOL     OW30763   0.575   4.381   4.896
 9955SOL    HW130764   0.476   4.371   4.892
 9955SOL    HW230765   0.617   4.325   4.825
 9956SOL     OW30766   1.705   6.498   1.484
 9956SOL    HW130767   1.656   6.486   1.397
 9956SOL    HW230768   1.651   6.458   1.558
 9957SOL     OW30769   6.423   4.001   3.947
 9957SOL    HW130770   6.488   4.055   3.893
 9957SOL    HW230771   6.441   3.904   3.933
 9958SOL     OW30772   2.678   4.290   1.498
 9958SOL    HW130773   2.767   4.266   1.536
 9958SOL    HW230774   2.654   4.383   1.524
 9959SOL     OW30775   3.731   3.389   0.388
 9959SOL    HW130776   3.749   3.483   0.358
 9959SOL    HW230777   3.777   3.371   0.475
 9960SOL     OW30778   0.422   1.662   2.560
 9960SOL    HW130779   0.400   1.708   2.474
 9960SOL    HW230780   0.521   1.666   2.575
 9961SOL     OW30781   1.977   5.116   4.554
 9961SOL    HW130782   2.024   5.028   4.567
 9961SOL    HW230783   1.891   5.116   4.606
 9962SOL     OW30784   4.988   6.215   5.070
 9962SOL    HW130785   4.974   6.262   5.158
 9962SOL    HW230786   4.912   6.235   5.009
 9963SOL     OW30787   3.097   1.222   0.752
 9963SOL    HW130788   3.134   1.229   0.659
 9963SOL    HW230789   3.039   1.301   0.770
 9964SOL     OW30790   4.378   5.942   5.399
 9964SOL    HW130791   4.435   5.971   5.475
 9964SOL    HW230792   4.296   6.000   5.395
 9965SOL     OW30793   4.218   0.148   0.376
 9965SOL    HW130794   4.278   0.223   0.406
 9965SOL    HW230795   4.241   0.065   0.426
 9966SOL     OW30796   1.142   6.980   2.351
 9966SOL    HW130797   1.066   6.988   2.287
 9966SOL    HW230798   1.216   6.927   2.309
 9967SOL     OW30799   1.008   5.406   0.418
 9967SOL    HW130800   0.909   5.416   0.408
 9967SOL    HW230801   1.029   5.375   0.511
 9968SOL     OW30802   3.626   2.949   2.583
 9968SOL    HW130803   3.709   2.961   2.528
 9968SOL    HW230804   3.550   2.921   2.523
 9969SOL     OW30805   0.756   3.492   1.728
 9969SOL    HW130806   0.782   3.509   1.824
 9969SOL    HW230807   0.786   3.569   1.672
 9970SOL     OW30808   5.350   4.538   1.197
 9970SOL    HW130809   5.355   4.441   1.173
 9970SOL    HW230810   5.350   4.593   1.113
 9971SOL     OW30811   1.975   4.935   0.040
 9971SOL    HW130812   1.940   4.916   6.976
 9971SOL    HW230813   1.966   4.854   0.097
 9972SOL     OW30814   6.678   4.497   2.023
 9972SOL    HW130815   6.609   4.451   2.078
 9972SOL    HW230816   6.636   4.571   1.971
 9973SOL     OW30817   5.747   0.616   4.365
 9973SOL    HW130818   5.745   0.715   4.379
 9973SOL    HW230819   5.769   0.597   4.270
 9974SOL     OW30820   1.627   0.967   4.260
 9974SOL    HW130821   1.710   0.978   4.205
 9974SOL    HW230822   1.560   1.037   4.235
 9975SOL     OW30823   0.602   3.221   0.272
 9975SOL    HW130824   0.516   3.176   0.249
 9975SOL    HW230825   0.591   3.320   0.264
 9976SOL     OW30826   2.154   0.340   5.014
 9976SOL    HW130827   2.147   0.425   5.067
 9976SOL    HW230828   2.116   0.355   4.923
 9977SOL     OW30829   6.747   4.637   4.740
 9977SOL    HW130830   6.766   4.722   4.789
 9977SOL    HW230831   6.823   4.616   4.679
 9978SOL     OW30832   6.733   1.848   4.462
 9978SOL    HW130833   6.793   1.770   4.442
 9978SOL    HW230834   6.660   1.818   4.524
 9979SOL     OW30835   6.819   3.876   5.101
 9979SOL    HW130836   6.856   3.872   5.008
 9979SOL    HW230837   6.783   3.787   5.127
 9980SOL     OW30838   3.553   0.020   5.840
 9980SOL    HW130839   3.480   0.066   5.790
 9980SOL    HW230840   3.563   6.954   5.806
 9981SOL     OW30841   3.448   2.106   4.113
 9981SOL    HW130842   3.374   2.162   4.153
 9981SOL    HW230843   3.408   2.032   4.059
 9982SOL     OW30844   6.341   6.256   3.792
 9982SOL    HW130845   6.376   6.315   3.864
 9982SOL    HW230846   6.406   6.182   3.775
 9983SOL     OW30847   0.223   1.122   1.813
 9983SOL    HW130848   0.187   1.047   1.868
 9983SOL    HW230849   0.320   1.105   1.793
 9984SOL     OW30850   2.980   1.397   6.790
 9984SOL    HW130851   3.075   1.409   6.818
 9984SOL    HW230852   2.961   1.451   6.708
 9985SOL     OW30853   1.075   0.881   1.890
 9985SOL    HW130854   1.095   0.878   1.792
 9985SOL    HW230855   1.052   0.790   1.923
 9986SOL     OW30856   5.242   4.302   4.615
 9986SOL    HW130857   5.287   4.240   4.680
 9986SOL    HW230858   5.172   4.251   4.565
 9987SOL     OW30859   6.830   4.126   6.015
 9987SOL    HW130860   6.857   4.168   6.102
 9987SOL    HW230861   6.784   4.039   6.033
 9988SOL     OW30862   6.634   6.961   4.846
 9988SOL    HW130863   6.725   6.920   4.851
 9988SOL    HW230864   6.643   0.033   4.835
 9989SOL     OW30865   0.562   3.684   5.350
 9989SOL    HW130866   0.659   3.661   5.346
 9989SOL    HW230867   0.508   3.600   5.355
 9990SOL     OW30868   1.431   5.295   2.308
 9990SOL    HW130869   1.377   5.249   2.238
 9990SOL    HW230870   1.528   5.276   2.293
 9991SOL     OW30871   3.788   2.091   3.417
 9991SOL    HW130872   3.884   2.117   3.414
 9991SOL    HW230873   3.760   2.075   3.512
 9992SOL     OW30874   6.267   5.265   6.136
 9992SOL    HW130875   6.275   5.186   6.075
 9992SOL    HW230876   6.315   5.343   6.096
 9993SOL     OW30877   0.763   1.037   1.752
 9993SOL    HW130878   0.765   1.115   1.690
 9993SOL    HW230879   0.810   1.061   1.837
 9994SOL     OW30880   5.948   4.946   2.927
 9994SOL    HW130881   5.934   4.869   2.989
 9994SOL    HW230882   5.881   4.942   2.854
 9995SOL     OW30883   4.721   1.014   4.973
 9995SOL    HW130884   4.743   0.957   4.894
 9995SOL    HW230885   4.622   1.029   4.976
 9996SOL     OW30886   2.515   3.757   0.020
 9996SOL    HW130887   2.528   3.764   0.119
 9996SOL    HW230888   2.418   3.768   7.025
 9997SOL     OW30889   2.690   0.160   5.175
 9997SOL    HW130890   2.779   0.182   5.215
 9997SOL    HW230891   2.656   0.238   5.123
 9998SOL     OW30892   6.079   5.933   5.462
 9998SOL    HW130893   5.983   5.960   5.452
 9998SOL    HW230894   6.084   5.838   5.494
 9999SOL     OW30895   0.436   2.538   4.825
 9999SOL    HW130896   0.478   2.576   4.907
 9999SOL    HW230897   0.367   2.470   4.852
10000SOL     OW30898   7.010   3.413   6.785
10000SOL    HW130899   0.048   3.486   6.806
10000SOL    HW230900   7.020   3.340   6.852
10001SOL     OW30901   4.595   6.895   2.437
10001SOL    HW130902   4.629   6.961   2.504
10001SOL    HW230903   4.549   6.821   2.484
10002SOL     OW30904   1.022   1.334   2.022
10002SOL    HW130905   0.960   1.381   2.085
10002SOL    HW230906   0.995   1.238   2.015
10003SOL     OW30907   4.283   1.722   3.410
10003SOL    HW130908   4.255   1.633   3.445
10003SOL    HW230909   4.362   1.711   3.351
10004SOL     OW30910   0.468   1.776   3.020
10004SOL    HW130911   0.411   1.795   2.940
10004SOL    HW230912   0.514   1.688   3.009
10005SOL     OW30913   4.965   6.281   4.068
10005SOL    HW130914   5.008   6.325   4.147
10005SOL    HW230915   4.981   6.183   4.071
10006SOL     OW30916   3.893   0.660   4.653
10006SOL    HW130917   3.936   0.710   4.729
10006SOL    HW230918   3.952   0.585   4.625
10007SOL     OW30919   6.456   3.337   3.907
10007SOL    HW130920   6.415   3.249   3.931
10007SOL    HW230921   6.412   3.409   3.960
10008SOL     OW30922   3.665   0.105   3.976
10008SOL    HW130923   3.702   0.192   3.942
10008SOL    HW230924   3.735   0.034   3.970
10009SOL     OW30925   1.057   4.156   2.091
10009SOL    HW130926   0.994   4.234   2.091
10009SOL    HW230927   1.059   4.115   2.000
10010SOL     OW30928   0.656   1.579   6.528
10010SOL    HW130929   0.749   1.607   6.552
10010SOL    HW230930   0.611   1.653   6.478
10011SOL     OW30931   6.865   6.808   4.914
10011SOL    HW130932   6.963   6.825   4.901
10011SOL    HW230933   6.852   6.751   4.995
10012SOL     OW30934   5.937   1.342   3.945
10012SOL    HW130935   5.856   1.379   3.990
10012SOL    HW230936   5.909   1.292   3.863
10013SOL     OW30937   1.034   0.805   2.765
10013SOL    HW130938   1.076   0.717   2.784
10013SOL    HW230939   0.935   0.798   2.774
10014SOL     OW30940   1.530   5.053   5.797
10014SOL    HW130941   1.456   5.046   5.865
10014SOL    HW230942   1.492   5.045   5.705
10015SOL     OW30943   2.214   4.509   0.033
10015SOL    HW130944   2.171   4.491   0.122
10015SOL    HW230945   2.307   4.542   0.047
10016SOL     OW30946   2.483   0.849   5.745
10016SOL    HW130947   2.509   0.753   5.733
10016SOL    HW230948   2.561   0.907   5.724
10017SOL     OW30949   1.483   1.714   4.087
10017SOL    HW130950   1.558   1.678   4.142
10017SOL    HW230951   1.431   1.780   4.141
10018SOL     OW30952   4.685   6.705   6.648
10018SOL    HW130953   4.586   6.697   6.653
10018SOL    HW230954   4.710   6.796   6.616
10019SOL     OW30955   1.719   1.370   2.499
10019SOL    HW130956   1.654   1.374   2.424
10019SOL    HW230957   1.679   1.411   2.581
10020SOL     OW30958   0.264   3.240   0.614
10020SOL    HW130959   0.286   3.143   0.624
10020SOL    HW230960   0.348   3.294   0.622
10021SOL     OW30961   6.364   3.509   0.646
10021SOL    HW130962   6.327   3.566   0.719
10021SOL    HW230963   6.295   3.442   0.619
10022SOL     OW30964   1.652   0.814   6.824
10022SOL    HW130965   1.632   0.905   6.789
10022SOL    HW230966   1.700   0.821   6.912
10023SOL     OW30967   0.132   3.403   1.177
10023SOL    HW130968   0.182   3.458   1.243
10023SOL    HW230969   0.069   3.342   1.224
10024SOL     OW30970   1.276   4.468   3.488
10024SOL    HW130971   1.352   4.431   3.542
10024SOL    HW230972   1.296   4.459   3.391
10025SOL     OW30973   1.199   1.982   0.265
10025SOL    HW130974   1.138   1.958   0.189
10025SOL    HW230975   1.152   1.965   0.352
10026SOL     OW30976   6.922   0.832   3.685
10026SOL    HW130977   6.994   0.763   3.676
10026SOL    HW230978   6.936   0.904   3.617
10027SOL     OW30979   4.633   2.377   5.818
10027SOL    HW130980   4.723   2.334   5.821
10027SOL    HW230981   4.594   2.365   5.727
10028SOL     OW30982   2.013   1.078   0.849
10028SOL    HW130983   2.066   1.058   0.767
10028SOL    HW230984   1.976   1.170   0.844
10029SOL     OW30985   5.433   2.212   3.586
10029SOL    HW130986   5.399   2.296   3.628
10029SOL    HW230987   5.409   2.212   3.489
10030SOL     OW30988   2.335   0.768   3.530
10030SOL    HW130989   2.368   0.687   3.577
10030SOL    HW230990   2.269   0.816   3.587
10031SOL     OW30991   6.496   4.627   4.661
10031SOL    HW130992   6.474   4.531   4.678
10031SOL    HW230993   6.593   4.642   4.676
10032SOL     OW30994   3.294   1.627   5.263
10032SOL    HW130995   3.278   1.631   5.362
10032SOL    HW230996   3.331   1.538   5.238
10033SOL     OW30997   5.723   2.553   4.572
10033SOL    HW130998   5.623   2.564   4.565
10033SOL    HW230999   5.744   2.477   4.633
10034SOL     OW31000   4.881   0.845   6.207
10034SOL    HW131001   4.847   0.765   6.158
10034SOL    HW231002   4.958   0.885   6.157
10035SOL     OW31003   0.434   6.517   2.957
10035SOL    HW131004   0.436   6.458   3.038
10035SOL    HW231005   0.450   6.612   2.984
10036SOL     OW31006   6.820   0.788   0.337
10036SOL    HW131007   6.896   0.756   0.280
10036SOL    HW231008   6.749   0.718   0.341
10037SOL     OW31009   0.324   6.736   1.055
10037SOL    HW131010   0.279   6.697   1.135
10037SOL    HW231011   0.352   6.830   1.075
10038SOL     OW31012   6.686   0.815   1.031
10038SOL    HW131013   6.760   0.814   0.963
10038SOL    HW231014   6.637   0.728   1.028
10039SOL     OW31015   3.434   0.450   3.126
10039SOL    HW131016   3.363   0.499   3.075
10039SOL    HW231017   3.484   0.514   3.184
10040SOL     OW31018   0.300   2.377   0.973
10040SOL    HW131019   0.234   2.375   1.047
10040SOL    HW231020   0.342   2.468   0.967
10041SOL     OW31021   1.835   6.117   0.559
10041SOL    HW131022   1.827   6.038   0.498
10041SOL    HW231023   1.927   6.156   0.550
10042SOL     OW31024   5.719   2.930   2.819
10042SOL    HW131025   5.720   2.979   2.906
10042SOL    HW231026   5.812   2.905   2.793
10043SOL     OW31027   0.774   2.462   4.860
10043SOL    HW131028   0.741   2.531   4.797
10043SOL    HW231029   0.872   2.445   4.843
10044SOL     OW31030   3.865   1.151   6.390
10044SOL    HW131031   3.880   1.182   6.296
10044SOL    HW231032   3.780   1.192   6.426
10045SOL     OW31033   2.487   1.132   0.415
10045SOL    HW131034   2.535   1.218   0.399
10045SOL    HW231035   2.389   1.151   0.428
10046SOL     OW31036   1.111   5.192   1.044
10046SOL    HW131037   1.140   5.096   1.039
10046SOL    HW231038   1.019   5.201   1.006
10047SOL     OW31039   0.963   4.096   0.959
10047SOL    HW131040   1.033   4.116   1.027
10047SOL    HW231041   0.873   4.095   1.003
10048SOL     OW31042   5.518   5.237   2.988
10048SOL    HW131043   5.494   5.253   2.893
10048SOL    HW231044   5.551   5.322   3.029
10049SOL     OW31045   6.096   0.939   5.138
10049SOL    HW131046   6.005   0.898   5.150
10049SOL    HW231047   6.118   0.943   5.041
10050SOL     OW31048   0.300   2.890   6.361
10050SOL    HW131049   0.380   2.868   6.306
10050SOL    HW231050   0.322   2.881   6.458
10051SOL     OW31051   2.636   2.022   4.063
10051SOL    HW131052   2.667   2.102   4.115
10051SOL    HW231053   2.651   1.940   4.118
10052SOL     OW31054   1.673   0.048   3.454
10052SOL    HW131055   1.732   0.048   3.374
10052SOL    HW231056   1.626   0.136   3.462
10053SOL     OW31057   5.839   5.423   3.412
10053SOL    HW131058   5.893   5.350   3.452
10053SOL    HW231059   5.789   5.471   3.485
10054SOL     OW31060   6.953   4.301   4.717
10054SOL    HW131061   6.898   4.334   4.640
10054SOL    HW231062   0.020   4.284   4.687
10055SOL     OW31063   1.355   2.927   6.677
10055SOL    HW131064   1.268   2.975   6.692
10055SOL    HW231065   1.422   2.958   6.743
10056SOL     OW31066   6.190   1.987   3.845
10056SOL    HW131067   6.277   2.006   3.891
10056SOL    HW231068   6.207   1.964   3.750
10057SOL     OW31069   5.269   4.940   5.624
10057SOL    HW131070   5.187   4.885   5.638
10057SOL    HW231071   5.341   4.884   5.582
10058SOL     OW31072   0.120   4.065   4.901
10058SOL    HW131073   0.106   3.966   4.912
10058SOL    HW231074   0.086   4.112   4.983
10059SOL     OW31075   5.445   6.987   6.895
10059SOL    HW131076   5.528   0.012   6.872
10059SOL    HW231077   5.391   6.973   6.812
10060SOL     OW31078   2.928   1.981   1.765
10060SOL    HW131079   3.027   1.968   1.763
10060SOL    HW231080   2.885   1.913   1.706
10061SOL     OW31081   3.359   0.137   2.008
10061SOL    HW131082   3.342   0.233   1.987
10061SOL    HW231083   3.449   0.127   2.051
10062SOL     OW31084   0.729   6.396   5.076
10062SOL    HW131085   0.686   6.311   5.045
10062SOL    HW231086   0.798   6.376   5.145
10063SOL     OW31087   2.586   2.422   5.075
10063SOL    HW131088   2.535   2.337   5.093
10063SOL    HW231089   2.673   2.419   5.124
10064SOL     OW31090   2.744   6.959   1.208
10064SOL    HW131091   2.827   7.008   1.180
10064SOL    HW231092   2.671   6.978   1.143
10065SOL     OW31093   0.366   1.672   1.746
10065SOL    HW131094   0.292   1.645   1.685
10065SOL    HW231095   0.388   1.768   1.731
10066SOL     OW31096   6.327   4.991   3.721
10066SOL    HW131097   6.248   4.935   3.695
10066SOL    HW231098   6.372   5.026   3.639
10067SOL     OW31099   0.006   2.769   5.082
10067SOL    HW131100   0.086   2.711   5.068
10067SOL    HW231101   0.030   2.864   5.062
10068SOL     OW31102   1.433   3.864   2.607
10068SOL    HW131103   1.532   3.877   2.601
10068SOL    HW231104   1.404   3.871   2.703
10069SOL     OW31105   3.372   4.588   0.741
10069SOL    HW131106   3.428   4.555   0.817
10069SOL    HW231107   3.328   4.674   0.766
10070SOL     OW31108   5.126   6.776   0.054
10070SOL    HW131109   5.161   6.724   7.003
10070SOL    HW231110   5.044   6.827   0.026
10071SOL     OW31111   5.821   0.819   5.205
10071SOL    HW131112   5.814   0.748   5.135
10071SOL    HW231113   5.819   0.778   5.295
10072SOL     OW31114   5.882   3.242   1.360
10072SOL    HW131115   5.906   3.338   1.373
10072SOL    HW231116   5.925   3.187   1.432
10073SOL     OW31117   5.830   4.943   4.793
10073SOL    HW131118   5.870   4.887   4.721
10073SOL    HW231119   5.870   5.035   4.789
10074SOL     OW31120   2.500   4.557   0.021
10074SOL    HW131121   2.509   4.458   0.011
10074SOL    HW231122   2.556   4.588   0.098
10075SOL     OW31123   0.988   3.172   1.690
10075SOL    HW131124   1.036   3.084   1.686
10075SOL    HW231125   0.890   3.156   1.700
10076SOL     OW31126   5.837   4.885   4.336
10076SOL    HW131127   5.936   4.873   4.330
10076SOL    HW231128   5.797   4.810   4.389
10077SOL     OW31129   4.594   3.662   6.711
10077SOL    HW131130   4.685   3.669   6.670
10077SOL    HW231131   4.558   3.753   6.728
10078SOL     OW31132   6.627   5.589   4.644
10078SOL    HW131133   6.695   5.520   4.618
10078SOL    HW231134   6.631   5.665   4.580
10079SOL     OW31135   4.835   4.606   3.985
10079SOL    HW131136   4.740   4.595   3.955
10079SOL    HW231137   4.892   4.628   3.907
10080SOL     OW31138   5.131   1.590   5.600
10080SOL    HW131139   5.037   1.605   5.569
10080SOL    HW231140   5.188   1.560   5.524
10081SOL     OW31141   0.786   4.812   0.888
10081SOL    HW131142   0.800   4.860   0.974
10081SOL    HW231143   0.813   4.716   0.898
10082SOL     OW31144   0.933   4.574   1.280
10082SOL    HW131145   0.858   4.574   1.346
10082SOL    HW231146   0.919   4.501   1.213
10083SOL     OW31147   2.903   6.405   2.552
10083SOL    HW131148   2.980   6.373   2.606
10083SOL    HW231149   2.936   6.441   2.464
10084SOL     OW31150   0.759   1.977   4.729
10084SOL    HW131151   0.843   1.926   4.745
10084SOL    HW231152   0.749   1.994   4.631
10085SOL     OW31153   5.384   6.944   1.186
10085SOL    HW131154   5.395   0.017   1.186
10085SOL    HW231155   5.379   6.911   1.092
10086SOL     OW31156   4.649   6.302   3.507
10086SOL    HW131157   4.581   6.244   3.463
10086SOL    HW231158   4.712   6.245   3.560
10087SOL     OW31159   2.016   5.940   5.544
10087SOL    HW131160   2.095   5.886   5.571
10087SOL    HW231161   1.980   5.988   5.624
10088SOL     OW31162   6.411   2.268   1.608
10088SOL    HW131163   6.314   2.266   1.582
10088SOL    HW231164   6.426   2.209   1.688
10089SOL     OW31165   3.749   0.859   1.348
10089SOL    HW131166   3.811   0.930   1.314
10089SOL    HW231167   3.765   0.774   1.297
10090SOL     OW31168   1.756   6.363   3.289
10090SOL    HW131169   1.747   6.439   3.354
10090SOL    HW231170   1.853   6.342   3.276
10091SOL     OW31171   5.597   4.921   4.612
10091SOL    HW131172   5.679   4.943   4.665
10091SOL    HW231173   5.519   4.970   4.652
10092SOL     OW31174   0.864   1.920   3.548
10092SOL    HW131175   0.882   1.834   3.499
10092SOL    HW231176   0.913   1.919   3.635
10093SOL     OW31177   4.289   4.042   6.196
10093SOL    HW131178   4.247   4.133   6.193
10093SOL    HW231179   4.230   3.979   6.247
10094SOL     OW31180   3.730   2.153   0.631
10094SOL    HW131181   3.670   2.074   0.624
10094SOL    HW231182   3.680   2.235   0.604
10095SOL     OW31183   4.195   3.571   5.247
10095SOL    HW131184   4.146   3.538   5.166
10095SOL    HW231185   4.130   3.585   5.322
10096SOL     OW31186   6.520   3.650   2.571
10096SOL    HW131187   6.446   3.634   2.636
10096SOL    HW231188   6.594   3.584   2.588
10097SOL     OW31189   0.588   1.409   1.031
10097SOL    HW131190   0.531   1.334   0.997
10097SOL    HW231191   0.536   1.494   1.027
10098SOL     OW31192   3.372   5.390   4.681
10098SOL    HW131193   3.429   5.462   4.641
10098SOL    HW231194   3.402   5.301   4.648
10099SOL     OW31195   0.047   4.665   3.495
10099SOL    HW131196   0.047   4.763   3.518
10099SOL    HW231197   0.060   4.654   3.397
10100SOL     OW31198   5.417   4.956   3.691
10100SOL    HW131199   5.410   4.881   3.757
10100SOL    HW231200   5.326   4.995   3.676
10101SOL     OW31201   6.357   3.459   0.256
10101SOL    HW131202   6.315   3.477   0.167
10101SOL    HW231203   6.420   3.533   0.279
10102SOL     OW31204   6.438   4.553   3.655
10102SOL    HW131205   6.417   4.634   3.600
10102SOL    HW231206   6.465   4.582   3.747
10103SOL     OW31207   0.459   6.525   6.980
10103SOL    HW131208   0.541   6.517   0.010
10103SOL    HW231209   0.426   6.619   6.983
10104SOL     OW31210   3.227   1.449   4.545
10104SOL    HW131211   3.312   1.462   4.496
10104SOL    HW231212   3.185   1.537   4.564
10105SOL     OW31213   2.991   1.055   3.863
10105SOL    HW131214   3.037   0.983   3.810
10105SOL    HW231215   2.905   1.020   3.900
10106SOL     OW31216   6.134   4.070   1.584
10106SOL    HW131217   6.090   4.044   1.669
10106SOL    HW231218   6.065   4.100   1.518
10107SOL     OW31219   5.242   5.329   6.906
10107SOL    HW131220   5.295   5.263   6.853
10107SOL    HW231221   5.302   5.376   6.971
10108SOL     OW31222   2.045   2.690   4.949
10108SOL    HW131223   2.123   2.746   4.921
10108SOL    HW231224   2.070   2.594   4.945
10109SOL     OW31225   1.068   2.285   0.678
10109SOL    HW131226   1.133   2.361   0.680
10109SOL    HW231227   1.114   2.200   0.701
10110SOL     OW31228   6.018   5.948   2.290
10110SOL    HW131229   6.086   5.895   2.239
10110SOL    HW231230   5.956   5.886   2.338
10111SOL     OW31231   6.815   2.255   2.057
10111SOL    HW131232   6.745   2.326   2.056
10111SOL    HW231233   6.897   2.289   2.103
10112SOL     OW31234   5.889   2.592   4.006
10112SOL    HW131235   5.956   2.577   3.933
10112SOL    HW231236   5.927   2.557   4.092
10113SOL     OW31237   6.498   6.766   5.701
10113SOL    HW131238   6.585   6.809   5.674
10113SOL    HW231239   6.424   6.832   5.689
10114SOL     OW31240   5.491   3.353   2.032
10114SOL    HW131241   5.442   3.267   2.043
10114SOL    HW231242   5.543   3.351   1.946
10115SOL     OW31243   2.997   2.848   6.100
10115SOL    HW131244   2.943   2.885   6.175
10115SOL    HW231245   2.957   2.877   6.013
10116SOL     OW31246   0.813   0.243   6.138
10116SOL    HW131247   0.842   0.149   6.155
10116SOL    HW231248   0.872   0.306   6.190
10117SOL     OW31249   6.614   4.422   2.486
10117SOL    HW131250   6.677   4.368   2.542
10117SOL    HW231251   6.666   4.482   2.425
10118SOL     OW31252   3.770   5.252   3.609
10118SOL    HW131253   3.726   5.224   3.523
10118SOL    HW231254   3.730   5.338   3.641
10119SOL     OW31255   5.798   6.134   6.654
10119SOL    HW131256   5.806   6.114   6.556
10119SOL    HW231257   5.783   6.232   6.666
10120SOL     OW31258   2.665   2.408   3.197
10120SOL    HW131259   2.702   2.397   3.289
10120SOL    HW231260   2.679   2.323   3.145
10121SOL     OW31261   6.740   5.055   1.615
10121SOL    HW131262   6.690   4.991   1.555
10121SOL    HW231263   6.689   5.070   1.699
10122SOL     OW31264   2.333   6.987   3.484
10122SOL    HW131265   2.299   6.996   3.578
10122SOL    HW231266   2.418   6.934   3.485
10123SOL     OW31267   6.506   5.680   6.352
10123SOL    HW131268   6.454   5.765   6.340
10123SOL    HW231269   6.447   5.602   6.333
10124SOL     OW31270   2.557   4.961   2.840
10124SOL    HW131271   2.471   4.913   2.822
10124SOL    HW231272   2.634   4.901   2.820
10125SOL     OW31273   1.161   0.563   5.146
10125SOL    HW131274   1.149   0.464   5.157
10125SOL    HW231275   1.072   0.607   5.148
10126SOL     OW31276   6.688   6.211   5.263
10126SOL    HW131277   6.589   6.225   5.256
10126SOL    HW231278   6.731   6.295   5.296
10127SOL     OW31279   2.002   6.950   5.400
10127SOL    HW131280   2.081   6.900   5.365
10127SOL    HW231281   1.928   6.947   5.333
10128SOL     OW31282   2.251   2.291   0.255
10128SOL    HW131283   2.217   2.251   0.170
10128SOL    HW231284   2.245   2.391   0.250
10129SOL     OW31285   6.269   2.254   4.932
10129SOL    HW131286   6.343   2.267   4.866
10129SOL    HW231287   6.208   2.334   4.931
10130SOL     OW31288   0.754   2.091   3.359
10130SOL    HW131289   0.716   2.020   3.299
10130SOL    HW231290   0.802   2.048   3.435
10131SOL     OW31291   1.752   6.727   5.248
10131SOL    HW131292   1.800   6.704   5.333
10131SOL    HW231293   1.816   6.766   5.183
10132SOL     OW31294   6.197   0.334   2.210
10132SOL    HW131295   6.243   0.422   2.200
10132SOL    HW231296   6.156   0.308   2.123
10133SOL     OW31297   5.011   6.824   1.139
10133SOL    HW131298   5.042   6.852   1.230
10133SOL    HW231299   4.943   6.890   1.106
10134SOL     OW31300   0.708   6.824   3.662
10134SOL    HW131301   0.615   6.856   3.645
10134SOL    HW231302   0.709   6.724   3.665
10135SOL     OW31303   6.440   6.792   3.249
10135SOL    HW131304   6.419   6.886   3.274
10135SOL    HW231305   6.414   6.731   3.324
10136SOL     OW31306   4.877   1.532   3.324
10136SOL    HW131307   4.912   1.461   3.262
10136SOL    HW231308   4.930   1.616   3.312
10137SOL     OW31309   0.209   5.812   4.285
10137SOL    HW131310   0.160   5.787   4.202
10137SOL    HW231311   0.179   5.753   4.360
10138SOL     OW31312   0.026   2.462   2.052
10138SOL    HW131313   0.052   2.435   1.960
10138SOL    HW231314   6.976   2.526   2.047
10139SOL     OW31315   3.627   2.809   6.368
10139SOL    HW131316   3.594   2.772   6.455
10139SOL    HW231317   3.638   2.908   6.376
10140SOL     OW31318   0.229   6.089   5.351
10140SOL    HW131319   0.190   6.181   5.362
10140SOL    HW231320   0.280   6.065   5.434
10141SOL     OW31321   1.596   2.282   4.299
10141SOL    HW131322   1.662   2.356   4.292
10141SOL    HW231323   1.633   2.200   4.255
10142SOL     OW31324   4.798   5.560   2.718
10142SOL    HW131325   4.803   5.653   2.681
10142SOL    HW231326   4.705   5.541   2.749
10143SOL     OW31327   5.581   2.790   5.688
10143SOL    HW131328   5.569   2.865   5.624
10143SOL    HW231329   5.504   2.787   5.751
10144SOL     OW31330   3.345   0.094   0.565
10144SOL    HW131331   3.296   0.138   0.640
10144SOL    HW231332   3.284   0.032   0.517
10145SOL     OW31333   6.593   6.606   5.900
10145SOL    HW131334   6.573   6.665   5.822
10145SOL    HW231335   6.518   6.613   5.967
10146SOL     OW31336   1.488   2.706   5.058
10146SOL    HW131337   1.577   2.748   5.042
10146SOL    HW231338   1.497   2.634   5.126
10147SOL     OW31339   3.783   5.623   6.705
10147SOL    HW131340   3.797   5.526   6.684
10147SOL    HW231341   3.854   5.654   6.769
10148SOL     OW31342   0.683   5.044   6.716
10148SOL    HW131343   0.594   5.035   6.671
10148SOL    HW231344   0.724   4.954   6.727
10149SOL     OW31345   3.773   3.429   1.736
10149SOL    HW131346   3.763   3.521   1.699
10149SOL    HW231347   3.869   3.411   1.755
10150SOL     OW31348   4.820   4.078   1.345
10150SOL    HW131349   4.799   4.170   1.312
10150SOL    HW231350   4.736   4.023   1.345
10151SOL     OW31351   7.005   0.872   6.158
10151SOL    HW131352   7.002   0.971   6.146
10151SOL    HW231353   7.005   0.850   6.255
10152SOL     OW31354   4.131   6.854   2.629
10152SOL    HW131355   4.163   6.817   2.541
10152SOL    HW231356   4.210   6.874   2.687
10153SOL     OW31357   4.844   3.981   1.834
10153SOL    HW131358   4.810   3.963   1.926
10153SOL    HW231359   4.917   4.049   1.838
10154SOL     OW31360   4.396   5.313   5.137
10154SOL    HW131361   4.420   5.398   5.090
10154SOL    HW231362   4.340   5.334   5.218
10155SOL     OW31363   4.649   1.724   4.057
10155SOL    HW131364   4.610   1.812   4.028
10155SOL    HW231365   4.748   1.727   4.045
10156SOL     OW31366   4.084   1.799   5.983
10156SOL    HW131367   4.178   1.820   5.956
10156SOL    HW231368   4.052   1.718   5.935
10157SOL     OW31369   0.597   4.557   1.074
10157SOL    HW131370   0.579   4.617   1.151
10157SOL    HW231371   0.670   4.494   1.097
10158SOL     OW31372   5.386   4.890   6.929
10158SOL    HW131373   5.377   4.975   6.877
10158SOL    HW231374   5.329   4.819   6.887
10159SOL     OW31375   3.647   3.003   1.942
10159SOL    HW131376   3.601   2.925   1.984
10159SOL    HW231377   3.746   2.990   1.947
10160SOL     OW31378   0.276   3.925   2.815
10160SOL    HW131379   0.315   4.017   2.826
10160SOL    HW231380   0.277   3.879   2.904
10161SOL     OW31381   5.545   3.466   5.937
10161SOL    HW131382   5.517   3.461   6.033
10161SOL    HW231383   5.618   3.400   5.920
10162SOL     OW31384   2.002   2.573   2.441
10162SOL    HW131385   2.027   2.476   2.442
10162SOL    HW231386   2.066   2.624   2.384
10163SOL     OW31387   3.618   4.987   5.035
10163SOL    HW131388   3.543   4.946   4.984
10163SOL    HW231389   3.632   4.937   5.120
10164SOL     OW31390   0.320   1.502   3.639
10164SOL    HW131391   0.354   1.520   3.546
10164SOL    HW231392   0.239   1.444   3.634
10165SOL     OW31393   1.450   3.042   4.210
10165SOL    HW131394   1.394   2.964   4.181
10165SOL    HW231395   1.516   3.065   4.138
10166SOL     OW31396   2.840   6.597   2.828
10166SOL    HW131397   2.848   6.508   2.783
10166SOL    HW231398   2.926   6.646   2.821
10167SOL     OW31399   2.927   2.534   6.367
10167SOL    HW131400   2.849   2.561   6.311
10167SOL    HW231401   2.971   2.454   6.325
10168SOL     OW31402   0.338   0.500   0.017
10168SOL    HW131403   0.245   0.485   0.050
10168SOL    HW231404   0.341   0.485   6.945
10169SOL     OW31405   4.650   5.335   3.341
10169SOL    HW131406   4.609   5.296   3.259
10169SOL    HW231407   4.706   5.414   3.316
10170SOL     OW31408   5.324   6.914   0.528
10170SOL    HW131409   5.382   6.882   0.453
10170SOL    HW231410   5.329   6.849   0.604
10171SOL     OW31411   2.284   4.227   4.343
10171SOL    HW131412   2.249   4.264   4.429
10171SOL    HW231413   2.295   4.128   4.351
10172SOL     OW31414   0.190   0.956   2.832
10172SOL    HW131415   0.197   0.867   2.878
10172SOL    HW231416   0.179   0.942   2.733
10173SOL     OW31417   3.838   3.612   4.821
10173SOL    HW131418   3.788   3.612   4.908
10173SOL    HW231419   3.802   3.540   4.762
10174SOL     OW31420   4.723   4.736   1.089
10174SOL    HW131421   4.813   4.778   1.099
10174SOL    HW231422   4.660   4.777   1.155
10175SOL     OW31423   6.706   6.936   4.468
10175SOL    HW131424   6.749   6.893   4.548
10175SOL    HW231425   6.732   6.888   4.385
10176SOL     OW31426   0.256   0.754   4.609
10176SOL    HW131427   0.290   0.826   4.668
10176SOL    HW231428   0.173   0.785   4.562
10177SOL     OW31429   2.375   1.233   3.663
10177SOL    HW131430   2.280   1.224   3.693
10177SOL    HW231431   2.436   1.191   3.730
10178SOL     OW31432   0.625   1.677   1.839
10178SOL    HW131433   0.533   1.641   1.820
10178SOL    HW231434   0.687   1.651   1.766
10179SOL     OW31435   7.015   6.104   0.901
10179SOL    HW131436   6.938   6.047   0.874
10179SOL    HW231437   0.068   6.080   0.847
10180SOL     OW31438   3.437   6.652   6.673
10180SOL    HW131439   3.482   6.735   6.706
10180SOL    HW231440   3.505   6.592   6.631
10181SOL     OW31441   0.129   3.907   3.365
10181SOL    HW131442   0.209   3.929   3.422
10181SOL    HW231443   0.151   3.922   3.269
10182SOL     OW31444   4.046   0.561   0.609
10182SOL    HW131445   4.031   0.521   0.518
10182SOL    HW231446   3.986   0.516   0.675
10183SOL     OW31447   4.516   6.265   5.788
10183SOL    HW131448   4.519   6.286   5.886
10183SOL    HW231449   4.422   6.275   5.754
10184SOL     OW31450   5.568   1.905   5.281
10184SOL    HW131451   5.493   1.965   5.305
10184SOL    HW231452   5.533   1.812   5.266
10185SOL     OW31453   3.261   5.020   2.140
10185SOL    HW131454   3.183   4.973   2.180
10185SOL    HW231455   3.286   4.976   2.053
10186SOL     OW31456   3.367   2.773   7.013
10186SOL    HW131457   3.292   2.706   7.012
10186SOL    HW231458   3.453   2.726   0.007
10187SOL     OW31459   2.174   4.197   5.761
10187SOL    HW131460   2.264   4.241   5.769
10187SOL    HW231461   2.183   4.114   5.706
10188SOL     OW31462   2.208   6.773   6.797
10188SOL    HW131463   2.219   6.868   6.767
10188SOL    HW231464   2.295   6.725   6.784
10189SOL     OW31465   2.146   1.572   4.598
10189SOL    HW131466   2.137   1.537   4.505
10189SOL    HW231467   2.056   1.588   4.637
10190SOL     OW31468   4.429   4.457   1.124
10190SOL    HW131469   4.338   4.489   1.152
10190SOL    HW231470   4.492   4.466   1.201
10191SOL     OW31471   5.367   0.265   0.172
10191SOL    HW131472   5.382   0.251   0.270
10191SOL    HW231473   5.326   0.183   0.133
10192SOL     OW31474   2.237   0.770   4.044
10192SOL    HW131475   2.309   0.830   4.079
10192SOL    HW231476   2.259   0.675   4.065
10193SOL     OW31477   3.380   4.150   3.884
10193SOL    HW131478   3.435   4.068   3.903
10193SOL    HW231479   3.320   4.167   3.962
10194SOL     OW31480   3.141   6.722   2.875
10194SOL    HW131481   3.188   6.729   2.788
10194SOL    HW231482   3.077   6.798   2.885
10195SOL     OW31483   5.844   0.158   2.874
10195SOL    HW131484   5.782   0.104   2.930
10195SOL    HW231485   5.792   0.207   2.804
10196SOL     OW31486   5.095   3.949   4.333
10196SOL    HW131487   5.175   3.893   4.312
10196SOL    HW231488   5.012   3.901   4.304
10197SOL     OW31489   5.337   1.535   3.330
10197SOL    HW131490   5.427   1.577   3.329
10197SOL    HW231491   5.271   1.599   3.370
10198SOL     OW31492   3.291   1.056   1.567
10198SOL    HW131493   3.254   0.994   1.498
10198SOL    HW231494   3.228   1.133   1.579
10199SOL     OW31495   1.372   2.124   0.013
10199SOL    HW131496   1.294   2.063   7.026
10199SOL    HW231497   1.361   2.206   6.983
10200SOL     OW31498   5.608   6.020   5.056
10200SOL    HW131499   5.602   5.942   4.993
10200SOL    HW231500   5.562   6.099   5.016
10201SOL     OW31501   1.909   4.541   2.891
10201SOL    HW131502   1.989   4.553   2.950
10201SOL    HW231503   1.833   4.506   2.945
10202SOL     OW31504   0.422   2.307   3.386
10202SOL    HW131505   0.390   2.257   3.306
10202SOL    HW231506   0.365   2.283   3.465
10203SOL     OW31507   0.691   2.736   1.580
10203SOL    HW131508   0.645   2.819   1.548
10203SOL    HW231509   0.739   2.755   1.665
10204SOL     OW31510   2.695   4.927   4.517
10204SOL    HW131511   2.685   4.973   4.429
10204SOL    HW231512   2.792   4.912   4.536
10205SOL     OW31513   4.550   0.786   0.900
10205SOL    HW131514   4.576   0.779   0.804
10205SOL    HW231515   4.606   0.724   0.955
10206SOL     OW31516   4.703   6.980   6.499
10206SOL    HW131517   4.724   6.972   6.401
10206SOL    HW231518   4.782   7.018   6.547
10207SOL     OW31519   4.065   1.397   3.056
10207SOL    HW131520   4.070   1.420   2.959
10207SOL    HW231521   4.131   1.325   3.077
10208SOL     OW31522   6.660   3.777   5.758
10208SOL    HW131523   6.706   3.706   5.706
10208SOL    HW231524   6.669   3.864   5.710
10209SOL     OW31525   4.522   6.278   6.924
10209SOL    HW131526   4.515   6.230   6.836
10209SOL    HW231527   4.475   6.225   6.995
10210SOL     OW31528   5.366   5.606   0.365
10210SOL    HW131529   5.311   5.545   0.422
10210SOL    HW231530   5.463   5.592   0.386
10211SOL     OW31531   3.661   5.565   5.168
10211SOL    HW131532   3.581   5.523   5.212
10211SOL    HW231533   3.693   5.505   5.094
10212SOL     OW31534   6.153   6.288   6.153
10212SOL    HW131535   6.181   6.245   6.067
10212SOL    HW231536   6.127   6.217   6.219
10213SOL     OW31537   4.498   0.807   4.592
10213SOL    HW131538   4.404   0.839   4.578
10213SOL    HW231539   4.522   0.741   4.521
10214SOL     OW31540   0.592   1.018   0.823
10214SOL    HW131541   0.547   1.103   0.852
10214SOL    HW231542   0.561   0.994   0.731
10215SOL     OW31543   3.768   2.305   0.088
10215SOL    HW131544   3.763   2.393   0.135
10215SOL    HW231545   3.730   2.234   0.146
10216SOL     OW31546   4.649   0.122   2.234
10216SOL    HW131547   4.739   0.132   2.192
10216SOL    HW231548   4.657   0.065   2.316
10217SOL     OW31549   3.309   2.318   5.749
10217SOL    HW131550   3.382   2.335   5.816
10217SOL    HW231551   3.340   2.248   5.684
10218SOL     OW31552   2.803   2.363   6.899
10218SOL    HW131553   2.728   2.429   6.893
10218SOL    HW231554   2.781   2.295   6.970
10219SOL     OW31555   0.535   4.583   6.666
10219SOL    HW131556   0.529   4.645   6.743
10219SOL    HW231557   0.618   4.528   6.674
10220SOL     OW31558   4.027   2.795   0.536
10220SOL    HW131559   4.009   2.893   0.538
10220SOL    HW231560   4.074   2.771   0.451
10221SOL     OW31561   3.157   1.065   4.737
10221SOL    HW131562   3.191   1.158   4.751
10221SOL    HW231563   3.147   1.047   4.639
10222SOL     OW31564   1.964   4.865   5.916
10222SOL    HW131565   2.052   4.867   5.870
10222SOL    HW231566   1.968   4.922   5.998
10223SOL     OW31567   6.864   4.338   0.553
10223SOL    HW131568   6.774   4.303   0.525
10223SOL    HW231569   6.914   4.369   0.472
10224SOL     OW31570   2.709   0.630   4.566
10224SOL    HW131571   2.750   0.584   4.645
10224SOL    HW231572   2.776   0.691   4.524
10225SOL     OW31573   4.916   5.605   4.260
10225SOL    HW131574   4.868   5.525   4.224
10225SOL    HW231575   4.900   5.612   4.358
10226SOL     OW31576   0.261   2.759   6.884
10226SOL    HW131577   0.241   2.703   6.964
10226SOL    HW231578   0.210   2.845   6.889
10227SOL     OW31579   5.625   5.065   5.562
10227SOL    HW131580   5.566   4.992   5.598
10227SOL    HW231581   5.605   5.150   5.611
10228SOL     OW31582   1.307   3.634   2.531
10228SOL    HW131583   1.238   3.599   2.595
10228SOL    HW231584   1.336   3.726   2.561
10229SOL     OW31585   1.893   1.331   1.146
10229SOL    HW131586   1.872   1.263   1.216
10229SOL    HW231587   1.843   1.309   1.062
10230SOL     OW31588   6.317   6.723   3.815
10230SOL    HW131589   6.248   6.768   3.872
10230SOL    HW231590   6.379   6.791   3.778
10231SOL     OW31591   4.781   0.031   4.244
10231SOL    HW131592   4.855   6.992   4.229
10231SOL    HW231593   4.815   0.123   4.223
10232SOL     OW31594   4.272   1.831   3.837
10232SOL    HW131595   4.215   1.813   3.917
10232SOL    HW231596   4.308   1.924   3.841
10233SOL     OW31597   4.993   0.537   5.714
10233SOL    HW131598   4.944   0.615   5.753
10233SOL    HW231599   4.946   0.452   5.739
10234SOL     OW31600   4.678   5.709   1.162
10234SOL    HW131601   4.581   5.731   1.175
10234SOL    HW231602   4.719   5.776   1.100
10235SOL     OW31603   4.421   1.022   0.018
10235SOL    HW131604   4.389   1.116   0.032
10235SOL    HW231605   4.494   1.022   6.976
10236SOL     OW31606   2.056   6.124   1.705
10236SOL    HW131607   1.966   6.085   1.683
10236SOL    HW231608   2.055   6.157   1.800
10237SOL     OW31609   5.636   2.603   3.536
10237SOL    HW131610   5.605   2.511   3.514
10237SOL    HW231611   5.581   2.670   3.486
10238SOL     OW31612   4.588   6.174   4.962
10238SOL    HW131613   4.520   6.112   5.000
10238SOL    HW231614   4.645   6.125   4.896
10239SOL     OW31615   6.407   3.541   4.347
10239SOL    HW131616   6.502   3.512   4.339
10239SOL    HW231617   6.372   3.515   4.437
10240SOL     OW31618   5.681   3.615   3.877
10240SOL    HW131619   5.661   3.683   3.807
10240SOL    HW231620   5.618   3.538   3.867
10241SOL     OW31621   1.960   1.591   3.049
10241SOL    HW131622   1.863   1.601   3.070
10241SOL    HW231623   1.971   1.526   2.974
10242SOL     OW31624   0.794   5.678   6.304
10242SOL    HW131625   0.728   5.662   6.231
10242SOL    HW231626   0.747   5.682   6.392
10243SOL     OW31627   1.141   6.115   2.710
10243SOL    HW131628   1.237   6.092   2.721
10243SOL    HW231629   1.099   6.054   2.642
10244SOL     OW31630   1.291   5.957   0.262
10244SOL    HW131631   1.195   5.940   0.286
10244SOL    HW231632   1.315   6.051   0.286
10245SOL     OW31633   2.118   2.378   7.014
10245SOL    HW131634   2.095   2.354   6.920
10245SOL    HW231635   2.034   2.390   0.040
10246SOL     OW31636   3.309   3.351   4.060
10246SOL    HW131637   3.337   3.266   4.104
10246SOL    HW231638   3.281   3.333   3.966
10247SOL     OW31639   0.775   6.295   5.453
10247SOL    HW131640   0.755   6.383   5.497
10247SOL    HW231641   0.837   6.242   5.510
10248SOL     OW31642   5.308   1.012   2.792
10248SOL    HW131643   5.372   1.087   2.775
10248SOL    HW231644   5.231   1.046   2.845
10249SOL     OW31645   4.568   1.116   6.680
10249SOL    HW131646   4.620   1.031   6.689
10249SOL    HW231647   4.610   1.187   6.737
10250SOL     OW31648   5.475   0.110   0.378
10250SOL    HW131649   5.475   0.033   0.442
10250SOL    HW231650   5.561   0.161   0.385
10251SOL     OW31651   4.215   4.566   0.487
10251SOL    HW131652   4.291   4.596   0.544
10251SOL    HW231653   4.141   4.633   0.491
10252SOL     OW31654   6.799   4.707   1.594
10252SOL    HW131655   6.799   4.776   1.666
10252SOL    HW231656   6.894   4.687   1.567
10253SOL     OW31657   4.008   4.726   0.466
10253SOL    HW131658   3.911   4.743   0.449
10253SOL    HW231659   4.058   4.812   0.460
10254SOL     OW31660   2.409   1.354   4.647
10254SOL    HW131661   2.314   1.335   4.670
10254SOL    HW231662   2.464   1.358   4.731
10255SOL     OW31663   3.157   5.338   2.832
10255SOL    HW131664   3.124   5.351   2.739
10255SOL    HW231665   3.156   5.425   2.880
10256SOL     OW31666   5.561   6.191   0.026
10256SOL    HW131667   5.578   6.259   6.981
10256SOL    HW231668   5.616   6.214   0.107
10257SOL     OW31669   1.866   6.354   5.633
10257SOL    HW131670   1.893   6.376   5.726
10257SOL    HW231671   1.809   6.427   5.596
10258SOL     OW31672   4.508   0.981   3.442
10258SOL    HW131673   4.580   0.940   3.497
10258SOL    HW231674   4.419   0.959   3.481
10259SOL     OW31675   0.941   3.509   3.881
10259SOL    HW131676   0.908   3.415   3.891
10259SOL    HW231677   1.025   3.509   3.826
10260SOL     OW31678   6.650   6.288   1.992
10260SOL    HW131679   6.640   6.296   2.091
10260SOL    HW231680   6.579   6.341   1.947
10261SOL     OW31681   2.078   0.151   1.823
10261SOL    HW131682   2.156   0.152   1.760
10261SOL    HW231683   2.089   0.078   1.890
10262SOL     OW31684   1.256   5.461   4.930
10262SOL    HW131685   1.299   5.551   4.930
10262SOL    HW231686   1.245   5.429   4.836
10263SOL     OW31687   6.498   2.807   5.649
10263SOL    HW131688   6.536   2.864   5.721
10263SOL    HW231689   6.571   2.777   5.587
10264SOL     OW31690   0.322   0.173   0.233
10264SOL    HW131691   0.398   0.230   0.202
10264SOL    HW231692   0.354   0.111   0.305
10265SOL     OW31693   4.401   2.207   2.346
10265SOL    HW131694   4.405   2.274   2.420
10265SOL    HW231695   4.381   2.254   2.260
10266SOL     OW31696   4.132   3.545   6.616
10266SOL    HW131697   4.119   3.557   6.714
10266SOL    HW231698   4.228   3.562   6.593
10267SOL     OW31699   0.195   1.395   6.179
10267SOL    HW131700   0.101   1.398   6.214
10267SOL    HW231701   0.257   1.371   6.253
10268SOL     OW31702   6.334   4.454   1.594
10268SOL    HW131703   6.236   4.461   1.574
10268SOL    HW231704   6.377   4.543   1.583
10269SOL     OW31705   2.777   1.972   6.080
10269SOL    HW131706   2.778   1.932   6.172
10269SOL    HW231707   2.868   1.965   6.040
10270SOL     OW31708   2.900   6.791   1.388
10270SOL    HW131709   2.864   6.850   1.315
10270SOL    HW231710   2.835   6.791   1.465
10271SOL     OW31711   2.841   5.578   1.314
10271SOL    HW131712   2.919   5.571   1.377
10271SOL    HW231713   2.835   5.495   1.259
10272SOL     OW31714   1.613   1.779   4.568
10272SOL    HW131715   1.612   1.852   4.636
10272SOL    HW231716   1.522   1.737   4.562
10273SOL     OW31717   3.943   0.108   4.263
10273SOL    HW131718   3.995   0.098   4.178
10273SOL    HW231719   3.944   0.022   4.313
10274SOL     OW31720   2.687   5.032   6.689
10274SOL    HW131721   2.632   5.114   6.709
10274SOL    HW231722   2.716   4.990   6.775
10275SOL     OW31723   1.045   6.456   2.089
10275SOL    HW131724   1.063   6.536   2.145
10275SOL    HW231725   1.042   6.482   1.993
10276SOL     OW31726   0.055   6.016   6.776
10276SOL    HW131727   0.103   5.947   6.722
10276SOL    HW231728   0.009   6.080   6.715
10277SOL     OW31729   1.202   5.847   2.363
10277SOL    HW131730   1.199   5.761   2.312
10277SOL    HW231731   1.168   5.921   2.306
10278SOL     OW31732   6.539   0.062   5.812
10278SOL    HW131733   6.524   0.097   5.720
10278SOL    HW231734   6.620   0.004   5.813
10279SOL     OW31735   3.901   6.229   4.573
10279SOL    HW131736   3.916   6.320   4.536
10279SOL    HW231737   3.813   6.226   4.621
10280SOL     OW31738   3.231   2.830   6.763
10280SOL    HW131739   3.304   2.831   6.831
10280SOL    HW231740   3.204   2.735   6.745
10281SOL     OW31741   4.261   0.619   4.045
10281SOL    HW131742   4.179   0.657   4.001
10281SOL    HW231743   4.238   0.530   4.085
10282SOL     OW31744   1.083   2.861   4.463
10282SOL    HW131745   1.110   2.926   4.392
10282SOL    HW231746   1.052   2.911   4.544
10283SOL     OW31747   1.710   3.781   6.051
10283SOL    HW131748   1.670   3.864   6.090
10283SOL    HW231749   1.775   3.806   5.980
10284SOL     OW31750   5.176   2.830   0.077
10284SOL    HW131751   5.103   2.835   0.145
10284SOL    HW231752   5.228   2.746   0.090
10285SOL     OW31753   5.693   0.844   0.609
10285SOL    HW131754   5.616   0.874   0.666
10285SOL    HW231755   5.671   0.860   0.513
10286SOL     OW31756   4.422   0.980   4.048
10286SOL    HW131757   4.417   0.973   3.949
10286SOL    HW231758   4.457   1.071   4.073
10287SOL     OW31759   1.312   4.865   1.800
10287SOL    HW131760   1.215   4.884   1.813
10287SOL    HW231761   1.329   4.768   1.814
10288SOL     OW31762   4.862   6.460   4.555
10288SOL    HW131763   4.861   6.559   4.567
10288SOL    HW231764   4.956   6.429   4.540
10289SOL     OW31765   2.579   1.329   1.361
10289SOL    HW131766   2.496   1.385   1.367
10289SOL    HW231767   2.646   1.362   1.427
10290SOL     OW31768   2.919   3.279   1.968
10290SOL    HW131769   2.920   3.363   1.914
10290SOL    HW231770   2.920   3.199   1.907
10291SOL     OW31771   4.269   0.177   5.746
10291SOL    HW131772   4.231   0.255   5.796
10291SOL    HW231773   4.194   0.122   5.709
10292SOL     OW31774   0.487   0.864   5.173
10292SOL    HW131775   0.389   0.841   5.169
10292SOL    HW231776   0.518   0.891   5.082
10293SOL     OW31777   3.262   5.530   3.356
10293SOL    HW131778   3.179   5.563   3.312
10293SOL    HW231779   3.238   5.472   3.434
10294SOL     OW31780   6.613   1.241   2.978
10294SOL    HW131781   6.643   1.230   2.883
10294SOL    HW231782   6.588   1.152   3.015
10295SOL     OW31783   2.142   4.305   4.129
10295SOL    HW131784   2.191   4.302   4.216
10295SOL    HW231785   2.138   4.400   4.097
10296SOL     OW31786   6.682   2.763   1.528
10296SOL    HW131787   6.642   2.672   1.532
10296SOL    HW231788   6.673   2.800   1.435
10297SOL     OW31789   2.803   5.149   4.883
10297SOL    HW131790   2.788   5.058   4.845
10297SOL    HW231791   2.880   5.147   4.947
10298SOL     OW31792   5.966   3.540   2.885
10298SOL    HW131793   5.931   3.560   2.976
10298SOL    HW231794   6.037   3.606   2.861
10299SOL     OW31795   4.814   3.942   2.108
10299SOL    HW131796   4.878   3.881   2.155
10299SOL    HW231797   4.726   3.939   2.153
10300SOL     OW31798   1.837   5.960   1.687
10300SOL    HW131799   1.787   5.997   1.609
10300SOL    HW231800   1.854   5.863   1.673
10301SOL     OW31801   4.991   1.255   1.779
10301SOL    HW131802   4.978   1.165   1.820
10301SOL    HW231803   4.923   1.318   1.815
10302SOL     OW31804   1.003   4.649   3.766
10302SOL    HW131805   1.088   4.681   3.807
10302SOL    HW231806   1.009   4.657   3.666
10303SOL     OW31807   3.805   3.096   1.576
10303SOL    HW131808   3.765   3.118   1.666
10303SOL    HW231809   3.904   3.107   1.580
10304SOL     OW31810   5.863   6.541   3.869
10304SOL    HW131811   5.831   6.594   3.947
10304SOL    HW231812   5.856   6.443   3.891
10305SOL     OW31813   1.866   5.484   0.925
10305SOL    HW131814   1.863   5.432   0.839
10305SOL    HW231815   1.845   5.422   1.001
10306SOL     OW31816   4.010   4.618   0.743
10306SOL    HW131817   3.984   4.552   0.672
10306SOL    HW231818   4.066   4.691   0.702
10307SOL     OW31819   2.273   1.180   5.470
10307SOL    HW131820   2.300   1.148   5.561
10307SOL    HW231821   2.175   1.201   5.470
10308SOL     OW31822   2.894   5.218   3.790
10308SOL    HW131823   2.913   5.194   3.885
10308SOL    HW231824   2.799   5.247   3.781
10309SOL     OW31825   0.173   6.403   3.518
10309SOL    HW131826   0.125   6.460   3.585
10309SOL    HW231827   0.215   6.461   3.448
10310SOL     OW31828   3.382   3.091   4.232
10310SOL    HW131829   3.457   3.037   4.196
10310SOL    HW231830   3.407   3.129   4.321
10311SOL     OW31831   0.561   6.734   0.765
10311SOL    HW131832   0.560   6.798   0.841
10311SOL    HW231833   0.637   6.756   0.704
10312SOL     OW31834   2.112   4.899   0.998
10312SOL    HW131835   2.045   4.958   0.954
10312SOL    HW231836   2.102   4.905   1.097
10313SOL     OW31837   6.508   5.984   3.957
10313SOL    HW131838   6.533   6.080   3.940
10313SOL    HW231839   6.552   5.953   4.041
10314SOL     OW31840   5.995   5.160   4.992
10314SOL    HW131841   5.982   5.183   4.895
10314SOL    HW231842   6.079   5.105   5.001
10315SOL     OW31843   4.664   6.537   5.739
10315SOL    HW131844   4.593   6.475   5.705
10315SOL    HW231845   4.736   6.546   5.670
10316SOL     OW31846   0.327   3.401   2.645
10316SOL    HW131847   0.360   3.363   2.731
10316SOL    HW231848   0.238   3.444   2.660
10317SOL     OW31849   4.594   4.968   0.855
10317SOL    HW131850   4.497   4.964   0.831
10317SOL    HW231851   4.622   5.063   0.866
10318SOL     OW31852   6.433   5.606   2.801
10318SOL    HW131853   6.389   5.566   2.881
10318SOL    HW231854   6.393   5.696   2.782
10319SOL     OW31855   5.446   6.652   4.817
10319SOL    HW131856   5.499   6.664   4.902
10319SOL    HW231857   5.380   6.726   4.809
10320SOL     OW31858   4.125   5.920   1.742
10320SOL    HW131859   4.223   5.940   1.735
10320SOL    HW231860   4.112   5.824   1.766
10321SOL     OW31861   3.765   0.388   4.121
10321SOL    HW131862   3.766   0.395   4.220
10321SOL    HW231863   3.711   0.463   4.083
10322SOL     OW31864   0.496   2.588   6.875
10322SOL    HW131865   0.438   2.666   6.897
10322SOL    HW231866   0.527   2.545   6.959
10323SOL     OW31867   0.285   2.296   5.603
10323SOL    HW131868   0.379   2.278   5.574
10323SOL    HW231869   0.223   2.234   5.555
10324SOL     OW31870   3.984   3.094   4.239
10324SOL    HW131871   4.009   3.181   4.197
10324SOL    HW231872   3.996   3.020   4.173
10325SOL     OW31873   0.178   4.304   3.004
10325SOL    HW131874   0.081   4.330   2.998
10325SOL    HW231875   0.185   4.206   3.026
10326SOL     OW31876   5.172   1.842   1.251
10326SOL    HW131877   5.169   1.821   1.349
10326SOL    HW231878   5.081   1.870   1.221
10327SOL     OW31879   6.715   0.601   2.990
10327SOL    HW131880   6.641   0.666   3.007
10327SOL    HW231881   6.795   0.649   2.955
10328SOL     OW31882   6.627   3.578   3.014
10328SOL    HW131883   6.682   3.500   3.042
10328SOL    HW231884   6.531   3.550   3.006
10329SOL     OW31885   3.524   6.460   3.038
10329SOL    HW131886   3.528   6.360   3.043
10329SOL    HW231887   3.430   6.490   3.053
10330SOL     OW31888   3.505   4.013   1.053
10330SOL    HW131889   3.536   3.919   1.066
10330SOL    HW231890   3.423   4.029   1.107
10331SOL     OW31891   4.838   0.707   4.581
10331SOL    HW131892   4.890   0.777   4.533
10331SOL    HW231893   4.759   0.679   4.526
10332SOL     OW31894   0.164   1.620   6.581
10332SOL    HW131895   0.129   1.532   6.613
10332SOL    HW231896   0.262   1.625   6.598
10333SOL     OW31897   5.777   4.434   5.267
10333SOL    HW131898   5.866   4.474   5.292
10333SOL    HW231899   5.715   4.507   5.240
10334SOL     OW31900   1.122   4.949   4.994
10334SOL    HW131901   1.181   4.991   4.925
10334SOL    HW231902   1.070   4.875   4.952
10335SOL     OW31903   3.232   5.279   2.064
10335SOL    HW131904   3.220   5.182   2.084
10335SOL    HW231905   3.183   5.334   2.132
10336SOL     OW31906   4.811   6.489   2.769
10336SOL    HW131907   4.904   6.515   2.794
10336SOL    HW231908   4.783   6.409   2.822
10337SOL     OW31909   0.260   5.029   5.470
10337SOL    HW131910   0.241   5.128   5.466
10337SOL    HW231911   0.314   5.002   5.390
10338SOL     OW31912   3.101   5.159   3.026
10338SOL    HW131913   3.003   5.139   3.028
10338SOL    HW231914   3.119   5.230   2.958
10339SOL     OW31915   2.912   6.055   0.773
10339SOL    HW131916   2.862   6.097   0.849
10339SOL    HW231917   2.876   5.964   0.755
10340SOL     OW31918   1.574   6.542   0.332
10340SOL    HW131919   1.509   6.612   0.304
10340SOL    HW231920   1.640   6.526   0.259
10341SOL     OW31921   0.876   2.520   2.159
10341SOL    HW131922   0.852   2.601   2.211
10341SOL    HW231923   0.795   2.464   2.142
10342SOL     OW31924   3.279   6.462   3.989
10342SOL    HW131925   3.228   6.458   3.903
10342SOL    HW231926   3.258   6.382   4.044
10343SOL     OW31927   2.383   2.658   3.924
10343SOL    HW131928   2.452   2.586   3.920
10343SOL    HW231929   2.354   2.681   3.831
10344SOL     OW31930   4.576   3.958   1.415
10344SOL    HW131931   4.582   3.987   1.511
10344SOL    HW231932   4.481   3.939   1.392
10345SOL     OW31933   2.411   2.448   5.453
10345SOL    HW131934   2.440   2.353   5.448
10345SOL    HW231935   2.477   2.506   5.404
10346SOL     OW31936   5.704   4.830   0.125
10346SOL    HW131937   5.738   4.857   0.215
10346SOL    HW231938   5.605   4.846   0.121
10347SOL     OW31939   4.919   0.440   1.612
10347SOL    HW131940   4.936   0.517   1.673
10347SOL    HW231941   4.839   0.458   1.556
10348SOL     OW31942   6.580   4.995   5.551
10348SOL    HW131943   6.664   4.943   5.565
10348SOL    HW231944   6.599   5.093   5.556
10349SOL     OW31945   6.761   2.295   0.792
10349SOL    HW131946   6.850   2.255   0.769
10349SOL    HW231947   6.700   2.223   0.824
10350SOL     OW31948   2.317   5.045   4.904
10350SOL    HW131949   2.226   5.048   4.946
10350SOL    HW231950   2.342   4.950   4.885
10351SOL     OW31951   4.211   4.881   4.706
10351SOL    HW131952   4.211   4.806   4.639
10351SOL    HW231953   4.269   4.856   4.784
10352SOL     OW31954   6.454   1.101   0.214
10352SOL    HW131955   6.458   1.182   0.154
10352SOL    HW231956   6.368   1.052   0.199
10353SOL     OW31957   6.406   2.208   3.826
10353SOL    HW131958   6.450   2.258   3.901
10353SOL    HW231959   6.329   2.262   3.791
10354SOL     OW31960   6.135   2.800   1.237
10354SOL    HW131961   6.225   2.828   1.268
10354SOL    HW231962   6.136   2.702   1.217
10355SOL     OW31963   0.583   2.084   0.611
10355SOL    HW131964   0.656   2.148   0.632
10355SOL    HW231965   0.611   1.992   0.635
10356SOL     OW31966   5.138   2.108   6.492
10356SOL    HW131967   5.062   2.053   6.527
10356SOL    HW231968   5.102   2.182   6.435
10357SOL     OW31969   1.578   0.246   6.164
10357SOL    HW131970   1.490   0.291   6.182
10357SOL    HW231971   1.643   0.313   6.128
10358SOL     OW31972   0.061   2.899   3.006
10358SOL    HW131973   6.989   2.894   3.019
10358SOL    HW231974   0.107   2.841   3.073
10359SOL     OW31975   0.297   1.811   2.353
10359SOL    HW131976   0.362   1.818   2.277
10359SOL    HW231977   0.216   1.865   2.332
10360SOL     OW31978   6.024   3.959   1.261
10360SOL    HW131979   6.003   4.001   1.173
10360SOL    HW231980   5.959   3.991   1.329
10361SOL     OW31981   6.019   1.898   2.211
10361SOL    HW131982   6.001   1.995   2.198
10361SOL    HW231983   5.941   1.844   2.177
10362SOL     OW31984   1.324   5.387   1.618
10362SOL    HW131985   1.324   5.310   1.682
10362SOL    HW231986   1.240   5.440   1.630
10363SOL     OW31987   5.502   4.884   6.422
10363SOL    HW131988   5.418   4.839   6.391
10363SOL    HW231989   5.519   4.861   6.518
10364SOL     OW31990   5.527   5.541   2.725
10364SOL    HW131991   5.447   5.508   2.675
10364SOL    HW231992   5.532   5.641   2.718
10365SOL     OW31993   6.019   5.336   0.650
10365SOL    HW131994   6.075   5.343   0.733
10365SOL    HW231995   6.023   5.423   0.601
10366SOL     OW31996   2.988   6.288   4.033
10366SOL    HW131997   3.065   6.224   4.030
10366SOL    HW231998   2.990   6.337   4.120
10367SOL     OW31999   5.427   6.611   1.405
10367SOL    HW132000   5.444   6.658   1.492
10367SOL    HW232001   5.452   6.515   1.415
10368SOL     OW32002   1.632   5.630   1.459
10368SOL    HW132003   1.605   5.702   1.396
10368SOL    HW232004   1.583   5.642   1.546
10369SOL     OW32005   2.332   0.387   6.329
10369SOL    HW132006   2.407   0.453   6.333
10369SOL    HW232007   2.257   0.419   6.387
10370SOL     OW32008   1.933   1.493   5.581
10370SOL    HW132009   1.930   1.565   5.511
10370SOL    HW232010   1.996   1.520   5.654
10371SOL     OW32011   4.123   5.781   3.116
10371SOL    HW132012   4.113   5.813   3.210
10371SOL    HW232013   4.149   5.858   3.057
10372SOL     OW32014   2.074   6.834   1.386
10372SOL    HW132015   2.017   6.899   1.336
10372SOL    HW232016   2.125   6.777   1.322
10373SOL     OW32017   5.812   1.036   6.512
10373SOL    HW132018   5.846   0.942   6.519
10373SOL    HW232019   5.788   1.056   6.417
10374SOL     OW32020   3.455   4.934   3.257
10374SOL    HW132021   3.474   4.939   3.355
10374SOL    HW232022   3.535   4.897   3.210
10375SOL     OW32023   2.598   5.394   0.865
10375SOL    HW132024   2.539   5.322   0.900
10375SOL    HW232025   2.572   5.417   0.771
10376SOL     OW32026   2.386   4.875   4.056
10376SOL    HW132027   2.452   4.949   4.058
10376SOL    HW232028   2.431   4.790   4.030
10377SOL     OW32029   1.836   0.534   1.969
10377SOL    HW132030   1.863   0.624   2.005
10377SOL    HW232031   1.857   0.463   2.036
10378SOL     OW32032   0.427   5.949   4.606
10378SOL    HW132033   0.355   5.980   4.544
10378SOL    HW232034   0.507   6.009   4.597
10379SOL     OW32035   2.331   0.108   3.751
10379SOL    HW132036   2.277   0.091   3.833
10379SOL    HW232037   2.270   0.122   3.673
10380SOL     OW32038   3.112   2.178   4.450
10380SOL    HW132039   3.143   2.202   4.542
10380SOL    HW232040   3.013   2.190   4.444
10381SOL     OW32041   4.148   6.359   2.818
10381SOL    HW132042   4.116   6.312   2.735
10381SOL    HW232043   4.075   6.416   2.855
10382SOL     OW32044   4.132   5.517   1.434
10382SOL    HW132045   4.100   5.607   1.465
10382SOL    HW232046   4.222   5.499   1.473
10383SOL     OW32047   0.826   4.784   6.761
10383SOL    HW132048   0.888   4.849   6.807
10383SOL    HW232049   0.747   4.766   6.820
10384SOL     OW32050   5.594   5.424   1.247
10384SOL    HW132051   5.547   5.459   1.328
10384SOL    HW232052   5.530   5.374   1.189
10385SOL     OW32053   4.612   4.533   0.193
10385SOL    HW132054   4.701   4.489   0.197
10385SOL    HW232055   4.576   4.543   0.286
10386SOL     OW32056   0.131   0.878   0.839
10386SOL    HW132057   0.155   0.941   0.766
10386SOL    HW232058   0.184   0.794   0.830
10387SOL     OW32059   4.959   3.155   2.092
10387SOL    HW132060   4.887   3.095   2.056
10387SOL    HW232061   5.025   3.175   2.019
10388SOL     OW32062   1.517   6.786   5.374
10388SOL    HW132063   1.437   6.736   5.340
10388SOL    HW232064   1.599   6.753   5.329
10389SOL     OW32065   0.564   4.189   6.879
10389SOL    HW132066   0.576   4.134   6.796
10389SOL    HW232067   0.510   4.137   6.945
10390SOL     OW32068   2.251   2.422   1.956
10390SOL    HW132069   2.313   2.411   2.034
10390SOL    HW232070   2.157   2.410   1.986
10391SOL     OW32071   5.770   6.600   4.199
10391SOL    HW132072   5.815   6.669   4.255
10391SOL    HW232073   5.816   6.512   4.210
10392SOL     OW32074   6.578   3.868   4.792
10392SOL    HW132075   6.550   3.777   4.762
10392SOL    HW232076   6.552   3.883   4.887
10393SOL     OW32077   1.618   3.230   3.053
10393SOL    HW132078   1.659   3.162   2.991
10393SOL    HW232079   1.613   3.192   3.145
10394SOL     OW32080   3.241   0.356   4.505
10394SOL    HW132081   3.246   0.290   4.580
10394SOL    HW232082   3.323   0.349   4.448
10395SOL     OW32083   0.907   6.929   1.120
10395SOL    HW132084   0.913   6.946   1.218
10395SOL    HW232085   0.891   7.016   1.072
10396SOL     OW32086   3.424   2.103   4.664
10396SOL    HW132087   3.515   2.134   4.693
10396SOL    HW232088   3.432   2.048   4.582
10397SOL     OW32089   4.532   1.841   3.616
10397SOL    HW132090   4.451   1.834   3.675
10397SOL    HW232091   4.532   1.765   3.551
10398SOL     OW32092   5.716   3.052   1.899
10398SOL    HW132093   5.630   3.074   1.945
10398SOL    HW232094   5.699   2.984   1.828
10399SOL     OW32095   1.071   3.740   1.501
10399SOL    HW132096   1.026   3.819   1.542
10399SOL    HW232097   1.160   3.767   1.463
10400SOL     OW32098   2.498   6.240   0.704
10400SOL    HW132099   2.441   6.185   0.765
10400SOL    HW232100   2.553   6.303   0.759
10401SOL     OW32101   0.655   1.148   5.904
10401SOL    HW132102   0.575   1.201   5.933
10401SOL    HW232103   0.652   1.057   5.947
10402SOL     OW32104   0.286   2.722   5.076
10402SOL    HW132105   0.337   2.640   5.103
10402SOL    HW232106   0.320   2.801   5.126
10403SOL     OW32107   3.078   0.798   0.660
10403SOL    HW132108   3.084   0.846   0.748
10403SOL    HW232109   3.035   0.709   0.674
10404SOL     OW32110   6.965   6.560   6.589
10404SOL    HW132111   6.906   6.641   6.591
10404SOL    HW232112   6.932   6.497   6.520
10405SOL     OW32113   0.360   2.577   6.218
10405SOL    HW132114   0.443   2.529   6.245
10405SOL    HW232115   0.384   2.669   6.186
10406SOL     OW32116   2.620   5.074   1.817
10406SOL    HW132117   2.625   5.132   1.898
10406SOL    HW232118   2.569   5.122   1.745
10407SOL     OW32119   2.457   6.368   6.649
10407SOL    HW132120   2.377   6.308   6.644
10407SOL    HW232121   2.507   6.349   6.734
10408SOL     OW32122   4.175   1.890   0.121
10408SOL    HW132123   4.196   1.941   0.037
10408SOL    HW232124   4.167   1.954   0.197
10409SOL     OW32125   6.140   4.773   1.351
10409SOL    HW132126   6.055   4.740   1.309
10409SOL    HW232127   6.149   4.871   1.334
10410SOL     OW32128   5.509   0.847   0.929
10410SOL    HW132129   5.552   0.935   0.906
10410SOL    HW232130   5.411   0.853   0.912
10411SOL     OW32131   2.583   5.245   3.879
10411SOL    HW132132   2.530   5.226   3.796
10411SOL    HW232133   2.585   5.164   3.937
10412SOL     OW32134   6.291   0.438   0.379
10412SOL    HW132135   6.241   0.352   0.378
10412SOL    HW232136   6.232   0.510   0.415
10413SOL     OW32137   0.090   2.842   1.972
10413SOL    HW132138   0.094   2.936   1.939
10413SOL    HW232139   0.016   2.834   2.039
10414SOL     OW32140   4.982   2.642   3.911
10414SOL    HW132141   4.883   2.652   3.904
10414SOL    HW232142   5.026   2.715   3.858
10415SOL     OW32143   0.236   6.941   6.408
10415SOL    HW132144   0.331   6.911   6.414
10415SOL    HW232145   0.177   6.863   6.389
10416SOL     OW32146   5.494   3.001   4.725
10416SOL    HW132147   5.549   3.020   4.807
10416SOL    HW232148   5.535   2.924   4.676
10417SOL     OW32149   2.394   4.550   3.638
10417SOL    HW132150   2.361   4.458   3.661
10417SOL    HW232151   2.316   4.608   3.613
10418SOL     OW32152   1.138   5.160   6.110
10418SOL    HW132153   1.086   5.079   6.140
10418SOL    HW232154   1.077   5.239   6.105
10419SOL     OW32155   0.893   1.432   0.666
10419SOL    HW132156   0.980   1.451   0.621
10419SOL    HW232157   0.882   1.333   0.676
10420SOL     OW32158   7.002   3.494   3.591
10420SOL    HW132159   6.999   3.592   3.571
10420SOL    HW232160   7.027   3.481   3.687
10421SOL     OW32161   0.403   1.283   3.425
10421SOL    HW132162   0.330   1.335   3.381
10421SOL    HW232163   0.491   1.328   3.408
10422SOL     OW32164   5.826   3.019   5.810
10422SOL    HW132165   5.776   2.965   5.743
10422SOL    HW232166   5.771   3.027   5.894
10423SOL     OW32167   5.168   4.454   3.016
10423SOL    HW132168   5.130   4.508   3.091
10423SOL    HW232169   5.093   4.410   2.966
10424SOL     OW32170   4.451   1.989   6.447
10424SOL    HW132171   4.462   2.060   6.516
10424SOL    HW232172   4.365   2.002   6.398
10425SOL     OW32173   2.115   6.229   1.976
10425SOL    HW132174   2.213   6.236   1.994
10425SOL    HW232175   2.071   6.177   2.050
10426SOL     OW32176   6.373   3.759   6.603
10426SOL    HW132177   6.377   3.816   6.522
10426SOL    HW232178   6.430   3.799   6.675
10427SOL     OW32179   4.836   1.610   0.792
10427SOL    HW132180   4.796   1.638   0.705
10427SOL    HW232181   4.765   1.566   0.848
10428SOL     OW32182   4.632   1.031   4.490
10428SOL    HW132183   4.670   1.018   4.399
10428SOL    HW232184   4.577   0.951   4.515
10429SOL     OW32185   6.522   6.353   2.406
10429SOL    HW132186   6.459   6.419   2.365
10429SOL    HW232187   6.473   6.270   2.430
10430SOL     OW32188   4.229   6.223   3.058
10430SOL    HW132189   4.187   6.269   2.979
10430SOL    HW232190   4.276   6.141   3.027
10431SOL     OW32191   2.708   1.278   5.152
10431SOL    HW132192   2.750   1.246   5.237
10431SOL    HW232193   2.780   1.297   5.085
10432SOL     OW32194   5.639   0.974   4.969
10432SOL    HW132195   5.736   0.963   4.947
10432SOL    HW232196   5.618   1.071   4.981
10433SOL     OW32197   2.303   6.569   0.749
10433SOL    HW132198   2.218   6.567   0.802
10433SOL    HW232199   2.373   6.516   0.797
10434SOL     OW32200   2.452   1.520   3.626
10434SOL    HW132201   2.432   1.518   3.723
10434SOL    HW232202   2.456   1.426   3.591
10435SOL     OW32203   5.272   6.190   0.336
10435SOL    HW132204   5.348   6.228   0.388
10435SOL    HW232205   5.216   6.132   0.396
10436SOL     OW32206   1.660   6.791   2.754
10436SOL    HW132207   1.575   6.766   2.799
10436SOL    HW232208   1.690   6.714   2.696
10437SOL     OW32209   6.238   5.108   5.875
10437SOL    HW132210   6.221   5.185   5.814
10437SOL    HW232211   6.158   5.048   5.876
10438SOL     OW32212   3.542   5.932   6.556
10438SOL    HW132213   3.642   5.941   6.561
10438SOL    HW232214   3.515   5.841   6.587
10439SOL     OW32215   4.174   6.894   5.880
10439SOL    HW132216   4.117   6.865   5.803
10439SOL    HW232217   4.134   6.976   5.923
10440SOL     OW32218   2.240   5.275   0.279
10440SOL    HW132219   2.173   5.219   0.328
10440SOL    HW232220   2.246   5.365   0.322
10441SOL     OW32221   3.937   1.096   6.878
10441SOL    HW132222   3.949   1.052   6.967
10441SOL    HW232223   3.957   1.030   6.805
10442SOL     OW32224   4.348   5.406   5.846
10442SOL    HW132225   4.419   5.473   5.823
10442SOL    HW232226   4.289   5.444   5.917
10443SOL     OW32227   6.194   2.725   5.076
10443SOL    HW132228   6.170   2.790   5.148
10443SOL    HW232229   6.216   2.636   5.118
10444SOL     OW32230   3.956   4.897   3.919
10444SOL    HW132231   3.955   4.993   3.889
10444SOL    HW232232   3.864   4.858   3.910
10445SOL     OW32233   6.003   6.135   4.412
10445SOL    HW132234   6.014   6.172   4.504
10445SOL    HW232235   5.955   6.047   4.416
10446SOL     OW32236   1.058   5.757   6.344
10446SOL    HW132237   1.110   5.681   6.383
10446SOL    HW232238   0.966   5.725   6.320
10447SOL     OW32239   5.995   2.362   1.523
10447SOL    HW132240   5.994   2.287   1.590
10447SOL    HW232241   5.923   2.428   1.546
10448SOL     OW32242   3.343   4.054   2.276
10448SOL    HW132243   3.251   4.014   2.271
10448SOL    HW232244   3.410   3.989   2.239
10449SOL     OW32245   1.760   4.947   4.243
10449SOL    HW132246   1.816   4.937   4.161
10449SOL    HW232247   1.669   4.980   4.217
10450SOL     OW32248   6.909   3.209   0.983
10450SOL    HW132249   7.007   3.228   0.987
10450SOL    HW232250   6.892   3.140   0.913
10451SOL     OW32251   2.191   4.003   2.487
10451SOL    HW132252   2.195   3.955   2.400
10451SOL    HW232253   2.267   4.068   2.493
10452SOL     OW32254   1.200   3.687   5.138
10452SOL    HW132255   1.247   3.740   5.209
10452SOL    HW232256   1.238   3.594   5.136
10453SOL     OW32257   5.523   0.154   1.714
10453SOL    HW132258   5.584   0.109   1.650
10453SOL    HW232259   5.457   0.210   1.664
10454SOL     OW32260   5.189   3.216   1.917
10454SOL    HW132261   5.223   3.310   1.911
10454SOL    HW232262   5.229   3.161   1.843
10455SOL     OW32263   6.783   4.207   3.141
10455SOL    HW132264   6.843   4.127   3.138
10455SOL    HW232265   6.736   4.210   3.229
10456SOL     OW32266   3.960   5.599   0.964
10456SOL    HW132267   3.904   5.666   1.013
10456SOL    HW232268   3.983   5.634   0.873
10457SOL     OW32269   3.679   3.727   4.019
10457SOL    HW132270   3.614   3.794   4.053
10457SOL    HW232271   3.764   3.773   3.992
10458SOL     OW32272   6.895   0.127   2.157
10458SOL    HW132273   6.848   0.088   2.078
10458SOL    HW232274   6.869   0.223   2.168
10459SOL     OW32275   6.896   5.065   2.487
10459SOL    HW132276   6.954   4.985   2.479
10459SOL    HW232277   6.873   5.099   2.395
10460SOL     OW32278   2.181   5.610   2.114
10460SOL    HW132279   2.198   5.578   2.021
10460SOL    HW232280   2.169   5.710   2.113
10461SOL     OW32281   2.209   1.612   6.020
10461SOL    HW132282   2.256   1.699   6.037
10461SOL    HW232283   2.113   1.621   6.049
10462SOL     OW32284   6.386   6.790   1.036
10462SOL    HW132285   6.463   6.831   0.987
10462SOL    HW232286   6.325   6.863   1.069
10463SOL     OW32287   2.864   4.028   1.409
10463SOL    HW132288   2.919   4.078   1.341
10463SOL    HW232289   2.913   3.945   1.436
10464SOL     OW32290   5.438   0.362   1.500
10464SOL    HW132291   5.517   0.424   1.502
10464SOL    HW232292   5.355   0.412   1.525
10465SOL     OW32293   6.414   5.266   5.239
10465SOL    HW132294   6.482   5.310   5.298
10465SOL    HW232295   6.434   5.168   5.233
10466SOL     OW32296   5.450   5.812   6.242
10466SOL    HW132297   5.412   5.863   6.164
10466SOL    HW232298   5.549   5.803   6.231
10467SOL     OW32299   4.098   1.169   4.177
10467SOL    HW132300   4.195   1.180   4.155
10467SOL    HW232301   4.088   1.153   4.275
10468SOL     OW32302   3.394   5.802   2.941
10468SOL    HW132303   3.300   5.813   2.972
10468SOL    HW232304   3.455   5.793   3.020
10469SOL     OW32305   1.630   4.709   0.655
10469SOL    HW132306   1.729   4.721   0.664
10469SOL    HW232307   1.584   4.795   0.673
10470SOL     OW32308   2.639   1.604   3.979
10470SOL    HW132309   2.710   1.659   4.022
10470SOL    HW232310   2.680   1.541   3.913
10471SOL     OW32311   4.216   3.681   0.658
10471SOL    HW132312   4.288   3.712   0.721
10471SOL    HW232313   4.129   3.677   0.707
10472SOL     OW32314   4.752   1.428   2.750
10472SOL    HW132315   4.760   1.461   2.656
10472SOL    HW232316   4.776   1.502   2.813
10473SOL     OW32317   5.100   5.601   0.932
10473SOL    HW132318   5.180   5.652   0.965
10473SOL    HW232319   5.037   5.585   1.008
10474SOL     OW32320   4.230   0.174   4.035
10474SOL    HW132321   4.205   0.077   4.030
10474SOL    HW232322   4.329   0.183   4.029
10475SOL     OW32323   4.218   5.815   1.484
10475SOL    HW132324   4.250   5.878   1.413
10475SOL    HW232325   4.125   5.840   1.511
10476SOL     OW32326   0.111   4.682   0.307
10476SOL    HW132327   0.147   4.738   0.232
10476SOL    HW232328   0.165   4.699   0.390
10477SOL     OW32329   4.806   5.007   5.212
10477SOL    HW132330   4.781   4.919   5.254
10477SOL    HW232331   4.725   5.066   5.209
10478SOL     OW32332   0.297   6.173   2.251
10478SOL    HW132333   0.317   6.266   2.281
10478SOL    HW232334   0.200   6.153   2.266
10479SOL     OW32335   1.649   4.471   2.987
10479SOL    HW132336   1.558   4.430   2.978
10479SOL    HW232337   1.675   4.474   3.083
10480SOL     OW32338   6.414   0.290   2.890
10480SOL    HW132339   6.481   0.279   2.817
10480SOL    HW232340   6.324   0.310   2.850
10481SOL     OW32341   2.377   0.737   4.924
10481SOL    HW132342   2.324   0.708   4.844
10481SOL    HW232343   2.405   0.833   4.913
10482SOL     OW32344   0.795   5.252   5.897
10482SOL    HW132345   0.775   5.267   5.994
10482SOL    HW232346   0.735   5.310   5.842
10483SOL     OW32347   6.929   5.359   0.774
10483SOL    HW132348   6.846   5.366   0.829
10483SOL    HW232349   6.986   5.440   0.790
10484SOL     OW32350   5.897   2.058   1.656
10484SOL    HW132351   5.941   1.968   1.646
10484SOL    HW232352   5.963   2.123   1.692
10485SOL     OW32353   3.101   3.930   3.533
10485SOL    HW132354   3.086   3.831   3.528
10485SOL    HW232355   3.115   3.957   3.628
10486SOL     OW32356   5.990   5.714   5.197
10486SOL    HW132357   6.078   5.738   5.155
10486SOL    HW232358   5.930   5.794   5.195
10487SOL     OW32359   5.047   2.179   2.594
10487SOL    HW132360   4.952   2.204   2.611
10487SOL    HW232361   5.060   2.160   2.497
10488SOL     OW32362   6.846   2.296   5.185
10488SOL    HW132363   6.906   2.332   5.115
10488SOL    HW232364   6.855   2.196   5.189
10489SOL     OW32365   6.290   3.984   4.777
10489SOL    HW132366   6.360   3.998   4.847
10489SOL    HW232367   6.224   4.059   4.781
10490SOL     OW32368   5.797   6.914   0.197
10490SOL    HW132369   5.706   6.948   0.170
10490SOL    HW232370   5.791   6.817   0.218
10491SOL     OW32371   1.969   2.856   5.402
10491SOL    HW132372   1.965   2.952   5.428
10491SOL    HW232373   2.026   2.846   5.320
10492SOL     OW32374   3.906   6.334   0.409
10492SOL    HW132375   3.851   6.314   0.490
10492SOL    HW232376   3.849   6.381   0.342
10493SOL     OW32377   3.792   5.370   1.984
10493SOL    HW132378   3.837   5.291   1.942
10493SOL    HW232379   3.794   5.360   2.083
10494SOL     OW32380   0.997   4.220   4.498
10494SOL    HW132381   1.061   4.143   4.491
10494SOL    HW232382   0.916   4.201   4.443
10495SOL     OW32383   6.855   6.312   0.899
10495SOL    HW132384   6.909   6.395   0.884
10495SOL    HW232385   6.916   6.236   0.919
10496SOL     OW32386   0.538   3.839   6.335
10496SOL    HW132387   0.480   3.778   6.389
10496SOL    HW232388   0.538   3.930   6.376
10497SOL     OW32389   2.877   0.611   1.799
10497SOL    HW132390   2.943   0.557   1.748
10497SOL    HW232391   2.924   0.665   1.869
10498SOL     OW32392   4.773   4.373   6.695
10498SOL    HW132393   4.859   4.422   6.679
10498SOL    HW232394   4.700   4.439   6.713
10499SOL     OW32395   5.739   3.971   3.013
10499SOL    HW132396   5.665   3.908   3.036
10499SOL    HW232397   5.825   3.920   3.006
10500SOL     OW32398   0.831   3.561   5.323
10500SOL    HW132399   0.903   3.529   5.261
10500SOL    HW232400   0.871   3.586   5.411
10501SOL     OW32401   3.840   5.043   3.132
10501SOL    HW132402   3.915   5.079   3.076
10501SOL    HW232403   3.775   4.995   3.073
10502SOL     OW32404   3.899   3.383   2.550
10502SOL    HW132405   3.814   3.369   2.500
10502SOL    HW232406   3.918   3.481   2.558
10503SOL     OW32407   0.328   1.622   6.114
10503SOL    HW132408   0.260   1.685   6.077
10503SOL    HW232409   0.286   1.532   6.127
10504SOL     OW32410   0.488   3.702   5.683
10504SOL    HW132411   0.434   3.778   5.719
10504SOL    HW232412   0.486   3.705   5.583
10505SOL     OW32413   6.019   0.315   0.952
10505SOL    HW132414   6.054   0.290   0.862
10505SOL    HW232415   6.086   0.375   0.998
10506SOL     OW32416   1.158   4.047   6.553
10506SOL    HW132417   1.180   3.957   6.514
10506SOL    HW232418   1.061   4.050   6.575
10507SOL     OW32419   1.013   5.407   5.872
10507SOL    HW132420   0.937   5.347   5.896
10507SOL    HW232421   1.039   5.462   5.951
10508SOL     OW32422   1.758   5.324   5.969
10508SOL    HW132423   1.665   5.342   6.001
10508SOL    HW232424   1.762   5.235   5.925
10509SOL     OW32425   4.770   2.242   2.631
10509SOL    HW132426   4.724   2.323   2.666
10509SOL    HW232427   4.703   2.180   2.591
10510SOL     OW32428   5.910   5.748   3.601
10510SOL    HW132429   5.830   5.690   3.590
10510SOL    HW232430   5.881   5.844   3.601
10511SOL     OW32431   4.131   1.544   0.914
10511SOL    HW132432   4.129   1.643   0.902
10511SOL    HW232433   4.220   1.517   0.951
10512SOL     OW32434   4.213   1.165   5.389
10512SOL    HW132435   4.263   1.251   5.386
10512SOL    HW232436   4.277   1.089   5.385
10513SOL     OW32437   3.749   2.966   0.555
10513SOL    HW132438   3.809   3.031   0.602
10513SOL    HW232439   3.717   2.898   0.621
10514SOL     OW32440   1.928   4.246   1.689
10514SOL    HW132441   1.922   4.173   1.620
10514SOL    HW232442   1.872   4.323   1.660
10515SOL     OW32443   2.292   2.829   4.892
10515SOL    HW132444   2.339   2.746   4.860
10515SOL    HW232445   2.351   2.879   4.955
10516SOL     OW32446   4.838   2.354   1.799
10516SOL    HW132447   4.745   2.324   1.781
10516SOL    HW232448   4.850   2.449   1.771
10517SOL     OW32449   1.129   2.812   1.971
10517SOL    HW132450   1.086   2.809   2.061
10517SOL    HW232451   1.146   2.719   1.939
10518SOL     OW32452   1.004   5.209   2.076
10518SOL    HW132453   0.977   5.304   2.056
10518SOL    HW232454   0.934   5.166   2.132
10519SOL     OW32455   3.797   0.057   1.091
10519SOL    HW132456   3.839   0.144   1.068
10519SOL    HW232457   3.820   0.033   1.185
10520SOL     OW32458   0.850   2.528   6.249
10520SOL    HW132459   0.823   2.486   6.163
10520SOL    HW232460   0.939   2.572   6.238
10521SOL     OW32461   6.363   2.589   3.499
10521SOL    HW132462   6.461   2.607   3.503
10521SOL    HW232463   6.335   2.579   3.404
10522SOL     OW32464   5.558   1.683   3.892
10522SOL    HW132465   5.552   1.752   3.964
10522SOL    HW232466   5.466   1.656   3.864
10523SOL     OW32467   1.322   4.545   2.542
10523SOL    HW132468   1.258   4.520   2.470
10523SOL    HW232469   1.319   4.644   2.557
10524SOL     OW32470   6.823   6.421   5.065
10524SOL    HW132471   6.738   6.417   5.012
10524SOL    HW232472   6.831   6.510   5.108
10525SOL     OW32473   5.087   1.963   3.663
10525SOL    HW132474   5.025   2.038   3.640
10525SOL    HW232475   5.045   1.876   3.637
10526SOL     OW32476   0.694   5.156   6.965
10526SOL    HW132477   0.610   5.160   7.019
10526SOL    HW232478   0.672   5.126   6.872
10527SOL     OW32479   0.480   6.806   5.526
10527SOL    HW132480   0.487   6.727   5.587
10527SOL    HW232481   0.399   6.860   5.549
10528SOL     OW32482   1.295   4.551   5.582
10528SOL    HW132483   1.259   4.631   5.533
10528SOL    HW232484   1.361   4.580   5.651
10529SOL     OW32485   6.952   5.688   1.082
10529SOL    HW132486   6.866   5.637   1.071
10529SOL    HW232487   6.931   5.786   1.091
10530SOL     OW32488   0.033   6.294   1.831
10530SOL    HW132489   6.962   6.286   1.814
10530SOL    HW232490   0.083   6.234   1.768
10531SOL     OW32491   3.031   3.072   5.310
10531SOL    HW132492   2.955   3.064   5.374
10531SOL    HW232493   3.074   2.982   5.298
10532SOL     OW32494   5.121   5.780   6.300
10532SOL    HW132495   5.037   5.814   6.341
10532SOL    HW232496   5.196   5.787   6.366
10533SOL     OW32497   3.949   0.272   3.129
10533SOL    HW132498   3.927   0.348   3.069
10533SOL    HW232499   3.882   0.199   3.117
10534SOL     OW32500   1.364   5.713   3.821
10534SOL    HW132501   1.367   5.766   3.905
10534SOL    HW232502   1.319   5.625   3.839
10535SOL     OW32503   3.314   2.102   2.828
10535SOL    HW132504   3.216   2.085   2.826
10535SOL    HW232505   3.355   2.070   2.743
10536SOL     OW32506   5.135   3.394   4.935
10536SOL    HW132507   5.113   3.296   4.941
10536SOL    HW232508   5.234   3.405   4.924
10537SOL     OW32509   3.930   0.685   4.246
10537SOL    HW132510   3.891   0.595   4.229
10537SOL    HW232511   3.873   0.734   4.313
10538SOL     OW32512   6.882   3.175   3.265
10538SOL    HW132513   6.933   3.237   3.325
10538SOL    HW232514   6.835   3.107   3.320
10539SOL     OW32515   0.146   0.027   3.319
10539SOL    HW132516   0.151   0.084   3.401
10539SOL    HW232517   0.090   0.073   3.250
10540SOL     OW32518   1.124   4.710   6.723
10540SOL    HW132519   1.073   4.743   6.803
10540SOL    HW232520   1.150   4.614   6.737
10541SOL     OW32521   2.790   3.327   5.226
10541SOL    HW132522   2.690   3.328   5.231
10541SOL    HW232523   2.820   3.269   5.151
10542SOL     OW32524   5.161   6.628   3.070
10542SOL    HW132525   5.249   6.609   3.114
10542SOL    HW232526   5.088   6.623   3.138
10543SOL     OW32527   1.630   3.631   3.594
10543SOL    HW132528   1.696   3.594   3.528
10543SOL    HW232529   1.539   3.597   3.571
10544SOL     OW32530   3.221   1.385   3.323
10544SOL    HW132531   3.308   1.434   3.314
10544SOL    HW232532   3.196   1.346   3.234
10545SOL     OW32533   2.323   2.645   2.666
10545SOL    HW132534   2.259   2.722   2.662
10545SOL    HW232535   2.369   2.636   2.578
10546SOL     OW32536   2.295   0.066   6.948
10546SOL    HW132537   2.296   0.164   6.925
10546SOL    HW232538   2.309   0.013   6.865
10547SOL     OW32539   4.274   6.238   5.667
10547SOL    HW132540   4.202   6.307   5.679
10547SOL    HW232541   4.234   6.154   5.632
10548SOL     OW32542   0.474   5.843   3.394
10548SOL    HW132543   0.560   5.845   3.342
10548SOL    HW232544   0.400   5.879   3.337
10549SOL     OW32545   6.231   0.517   1.653
10549SOL    HW132546   6.202   0.479   1.741
10549SOL    HW232547   6.222   0.616   1.654
10550SOL     OW32548   5.220   5.927   2.630
10550SOL    HW132549   5.241   6.023   2.646
10550SOL    HW232550   5.301   5.871   2.646
10551SOL     OW32551   3.272   0.499   5.472
10551SOL    HW132552   3.204   0.565   5.503
10551SOL    HW232553   3.308   0.526   5.383
10552SOL     OW32554   3.024   0.101   3.735
10552SOL    HW132555   2.933   0.064   3.751
10552SOL    HW232556   3.093   0.033   3.761
10553SOL     OW32557   6.300   5.505   1.371
10553SOL    HW132558   6.289   5.473   1.465
10553SOL    HW232559   6.220   5.559   1.344
10554SOL     OW32560   6.382   6.221   2.769
10554SOL    HW132561   6.284   6.214   2.754
10554SOL    HW232562   6.399   6.249   2.864
10555SOL     OW32563   3.497   3.707   0.924
10555SOL    HW132564   3.429   3.635   0.936
10555SOL    HW232565   3.494   3.740   0.830
10556SOL     OW32566   2.570   1.585   2.235
10556SOL    HW132567   2.560   1.666   2.292
10556SOL    HW232568   2.613   1.512   2.287
10557SOL     OW32569   2.153   4.553   3.024
10557SOL    HW132570   2.169   4.652   3.033
10557SOL    HW232571   2.233   4.510   2.983
10558SOL     OW32572   3.435   5.170   5.206
10558SOL    HW132573   3.475   5.079   5.205
10558SOL    HW232574   3.385   5.186   5.121
10559SOL     OW32575   4.322   6.374   0.886
10559SOL    HW132576   4.230   6.412   0.894
10559SOL    HW232577   4.354   6.385   0.792
10560SOL     OW32578   5.738   6.803   3.065
10560SOL    HW132579   5.695   6.780   3.152
10560SOL    HW232580   5.787   6.723   3.029
10561SOL     OW32581   6.943   5.259   6.657
10561SOL    HW132582   7.004   5.186   6.684
10561SOL    HW232583   6.869   5.269   6.724
10562SOL     OW32584   4.492   5.951   2.643
10562SOL    HW132585   4.476   6.018   2.570
10562SOL    HW232586   4.418   5.884   2.643
10563SOL     OW32587   0.314   7.022   2.459
10563SOL    HW132588   0.242   0.025   2.521
10563SOL    HW232589   0.276   7.006   2.368
10564SOL     OW32590   4.775   4.571   3.500
10564SOL    HW132591   4.775   4.554   3.401
10564SOL    HW232592   4.684   4.552   3.537
10565SOL     OW32593   0.576   0.862   5.943
10565SOL    HW132594   0.490   0.818   5.969
10565SOL    HW232595   0.642   0.792   5.916
10566SOL     OW32596   3.578   2.440   0.590
10566SOL    HW132597   3.638   2.513   0.625
10566SOL    HW232598   3.585   2.437   0.490
10567SOL     OW32599   1.579   2.571   6.039
10567SOL    HW132600   1.614   2.664   6.034
10567SOL    HW232601   1.604   2.521   5.956
10568SOL     OW32602   4.756   2.184   6.226
10568SOL    HW132603   4.692   2.165   6.152
10568SOL    HW232604   4.709   2.175   6.314
10569SOL     OW32605   5.713   0.267   0.426
10569SOL    HW132606   5.664   0.312   0.501
10569SOL    HW232607   5.812   0.273   0.442
10570SOL     OW32608   1.128   3.540   2.711
10570SOL    HW132609   1.106   3.452   2.753
10570SOL    HW232610   1.103   3.614   2.774
10571SOL     OW32611   6.518   4.331   5.244
10571SOL    HW132612   6.431   4.354   5.200
10571SOL    HW232613   6.568   4.266   5.187
10572SOL     OW32614   5.920   4.008   1.001
10572SOL    HW132615   5.890   3.936   0.938
10572SOL    HW232616   5.848   4.076   1.010
10573SOL     OW32617   6.786   2.583   2.727
10573SOL    HW132618   6.693   2.555   2.752
10573SOL    HW232619   6.808   2.548   2.636
10574SOL     OW32620   5.358   2.538   2.467
10574SOL    HW132621   5.294   2.493   2.530
10574SOL    HW232622   5.448   2.545   2.509
10575SOL     OW32623   5.883   6.854   2.613
10575SOL    HW132624   5.830   6.775   2.645
10575SOL    HW232625   5.823   6.915   2.561
10576SOL     OW32626   1.080   4.463   4.198
10576SOL    HW132627   1.121   4.538   4.249
10576SOL    HW232628   1.124   4.456   4.108
10577SOL     OW32629   4.057   4.537   0.258
10577SOL    HW132630   4.070   4.557   0.355
10577SOL    HW232631   4.062   4.438   0.243
10578SOL     OW32632   0.634   3.528   3.589
10578SOL    HW132633   0.594   3.535   3.680
10578SOL    HW232634   0.604   3.443   3.546
10579SOL     OW32635   0.723   3.793   0.154
10579SOL    HW132636   0.754   3.888   0.146
10579SOL    HW232637   0.761   3.739   0.079
10580SOL     OW32638   5.492   6.689   6.991
10580SOL    HW132639   5.536   6.771   6.955
10580SOL    HW232640   5.396   6.688   6.965
10581SOL     OW32641   4.367   0.245   3.221
10581SOL    HW132642   4.390   0.149   3.207
10581SOL    HW232643   4.380   0.270   3.317
10582SOL     OW32644   6.575   3.602   6.399
10582SOL    HW132645   6.633   3.581   6.478
10582SOL    HW232646   6.484   3.564   6.414
10583SOL     OW32647   3.527   1.895   5.388
10583SOL    HW132648   3.558   1.978   5.342
10583SOL    HW232649   3.436   1.870   5.356
10584SOL     OW32650   0.924   6.198   3.413
10584SOL    HW132651   0.951   6.103   3.394
10584SOL    HW232652   0.980   6.260   3.360
10585SOL     OW32653   1.685   1.187   5.605
10585SOL    HW132654   1.711   1.192   5.701
10585SOL    HW232655   1.656   1.277   5.573
10586SOL     OW32656   4.377   4.209   5.314
10586SOL    HW132657   4.325   4.126   5.336
10586SOL    HW232658   4.322   4.266   5.253
10587SOL     OW32659   2.329   4.957   5.325
10587SOL    HW132660   2.350   4.871   5.277
10587SOL    HW232661   2.372   4.955   5.415
10588SOL     OW32662   1.395   3.556   3.481
10588SOL    HW132663   1.315   3.497   3.472
10588SOL    HW232664   1.386   3.633   3.418
10589SOL     OW32665   5.972   6.485   3.629
10589SOL    HW132666   5.935   6.524   3.713
10589SOL    HW232667   6.071   6.473   3.638
10590SOL     OW32668   0.480   4.650   2.099
10590SOL    HW132669   0.457   4.586   2.173
10590SOL    HW232670   0.404   4.713   2.085
10591SOL     OW32671   0.124   4.065   2.225
10591SOL    HW132672   0.117   3.996   2.153
10591SOL    HW232673   0.033   4.094   2.253
10592SOL     OW32674   0.376   1.357   4.989
10592SOL    HW132675   0.333   1.267   5.000
10592SOL    HW232676   0.427   1.379   5.072
10593SOL     OW32677   2.943   4.909   3.493
10593SOL    HW132678   3.033   4.910   3.450
10593SOL    HW232679   2.906   5.002   3.496
10594SOL     OW32680   3.253   5.246   3.710
10594SOL    HW132681   3.209   5.167   3.753
10594SOL    HW232682   3.341   5.264   3.755
10595SOL     OW32683   5.130   0.144   0.612
10595SOL    HW132684   5.178   0.065   0.573
10595SOL    HW232685   5.155   0.154   0.709
10596SOL     OW32686   5.137   3.613   0.089
10596SOL    HW132687   5.197   3.553   0.035
10596SOL    HW232688   5.191   3.689   0.126
10597SOL     OW32689   2.189   6.619   4.603
10597SOL    HW132690   2.258   6.665   4.546
10597SOL    HW232691   2.228   6.535   4.641
10598SOL     OW32692   3.066   0.649   6.819
10598SOL    HW132693   3.164   0.656   6.837
10598SOL    HW232694   3.029   0.739   6.797
10599SOL     OW32695   0.758   2.177   0.296
10599SOL    HW132696   0.750   2.192   0.395
10599SOL    HW232697   0.667   2.182   0.254
10600SOL     OW32698   3.640   1.441   1.803
10600SOL    HW132699   3.569   1.400   1.745
10600SOL    HW232700   3.642   1.393   1.891
10601SOL     OW32701   2.180   1.017   4.966
10601SOL    HW132702   2.260   1.049   4.916
10601SOL    HW232703   2.199   1.018   5.064
10602SOL     OW32704   6.730   0.358   2.200
10602SOL    HW132705   6.776   0.443   2.226
10602SOL    HW232706   6.644   0.351   2.250
10603SOL     OW32707   5.840   0.575   2.843
10603SOL    HW132708   5.840   0.507   2.917
10603SOL    HW232709   5.746   0.600   2.822
10604SOL     OW32710   4.713   0.808   4.795
10604SOL    HW132711   4.787   0.786   4.732
10604SOL    HW232712   4.626   0.777   4.757
10605SOL     OW32713   2.945   2.356   1.203
10605SOL    HW132714   2.943   2.453   1.223
10605SOL    HW232715   3.039   2.322   1.211
10606SOL     OW32716   6.799   0.171   6.866
10606SOL    HW132717   6.743   0.249   6.893
10606SOL    HW232718   6.850   0.138   6.946
10607SOL     OW32719   2.987   4.333   6.974
10607SOL    HW132720   3.016   4.406   0.009
10607SOL    HW232721   3.060   4.315   6.908
10608SOL     OW32722   5.300   4.433   4.116
10608SOL    HW132723   5.219   4.415   4.060
10608SOL    HW232724   5.378   4.452   4.056
10609SOL     OW32725   5.951   0.773   6.536
10609SOL    HW132726   6.024   0.796   6.600
10609SOL    HW232727   5.981   0.791   6.443
10610SOL     OW32728   0.914   1.267   3.424
10610SOL    HW132729   0.902   1.186   3.482
10610SOL    HW232730   0.946   1.239   3.334
10611SOL     OW32731   3.928   5.309   5.010
10611SOL    HW132732   3.984   5.232   4.979
10611SOL    HW232733   3.847   5.275   5.057
10612SOL     OW32734   6.617   2.690   3.861
10612SOL    HW132735   6.581   2.781   3.838
10612SOL    HW232736   6.548   2.639   3.913
10613SOL     OW32737   4.291   6.317   4.439
10613SOL    HW132738   4.202   6.311   4.393
10613SOL    HW232739   4.296   6.248   4.511
10614SOL     OW32740   3.587   1.816   6.036
10614SOL    HW132741   3.686   1.812   6.024
10614SOL    HW232742   3.565   1.884   6.106
10615SOL     OW32743   2.170   2.136   4.889
10615SOL    HW132744   2.265   2.119   4.916
10615SOL    HW232745   2.119   2.050   4.890
10616SOL     OW32746   1.500   5.978   6.707
10616SOL    HW132747   1.492   5.890   6.753
10616SOL    HW232748   1.493   5.964   6.608
10617SOL     OW32749   1.976   2.620   1.417
10617SOL    HW132750   1.901   2.639   1.481
10617SOL    HW232751   1.978   2.523   1.395
10618SOL     OW32752   0.866   4.957   3.558
10618SOL    HW132753   0.797   4.904   3.607
10618SOL    HW232754   0.893   5.036   3.613
10619SOL     OW32755   1.304   2.718   2.318
10619SOL    HW132756   1.330   2.652   2.247
10619SOL    HW232757   1.211   2.750   2.301
10620SOL     OW32758   2.997   0.377   5.583
10620SOL    HW132759   2.898   0.380   5.594
10620SOL    HW232760   3.037   0.461   5.621
10621SOL     OW32761   0.433   3.430   2.981
10621SOL    HW132762   0.451   3.520   2.941
10621SOL    HW232763   0.468   3.359   2.920
10622SOL     OW32764   4.382   2.373   6.859
10622SOL    HW132765   4.290   2.371   6.821
10622SOL    HW232766   4.427   2.459   6.834
10623SOL     OW32767   5.208   6.053   5.368
10623SOL    HW132768   5.197   6.120   5.442
10623SOL    HW232769   5.304   6.026   5.361
10624SOL     OW32770   0.494   2.149   0.171
10624SOL    HW132771   0.461   2.125   0.080
10624SOL    HW232772   0.432   2.215   0.213
10625SOL     OW32773   6.387   5.543   0.686
10625SOL    HW132774   6.395   5.538   0.587
10625SOL    HW232775   6.477   5.530   0.728
10626SOL     OW32776   5.573   2.975   1.028
10626SOL    HW132777   5.616   3.020   1.106
10626SOL    HW232778   5.643   2.943   0.964
10627SOL     OW32779   5.972   5.190   4.727
10627SOL    HW132780   5.898   5.171   4.663
10627SOL    HW232781   6.019   5.274   4.701
10628SOL     OW32782   2.902   6.528   0.294
10628SOL    HW132783   2.893   6.624   0.321
10628SOL    HW232784   2.973   6.484   0.350
10629SOL     OW32785   4.353   5.271   4.856
10629SOL    HW132786   4.437   5.324   4.868
10629SOL    HW232787   4.358   5.188   4.911
10630SOL     OW32788   3.964   1.390   1.829
10630SOL    HW132789   3.995   1.469   1.776
10630SOL    HW232790   3.925   1.422   1.916
10631SOL     OW32791   3.581   5.879   1.520
10631SOL    HW132792   3.658   5.876   1.585
10631SOL    HW232793   3.616   5.895   1.428
10632SOL     OW32794   5.579   6.267   4.137
10632SOL    HW132795   5.568   6.171   4.161
10632SOL    HW232796   5.501   6.299   4.085
10633SOL     OW32797   2.053   3.713   0.682
10633SOL    HW132798   2.025   3.695   0.588
10633SOL    HW232799   2.013   3.645   0.743
10634SOL     OW32800   0.038   4.709   6.663
10634SOL    HW132801   0.044   4.652   6.581
10634SOL    HW232802   6.984   4.684   6.716
10635SOL     OW32803   2.906   5.960   6.802
10635SOL    HW132804   2.861   5.878   6.767
10635SOL    HW232805   2.860   6.041   6.767
10636SOL     OW32806   6.936   2.951   0.164
10636SOL    HW132807   6.852   2.975   0.214
10636SOL    HW232808   6.927   2.979   0.069
10637SOL     OW32809   2.281   1.082   6.753
10637SOL    HW132810   2.263   1.001   6.809
10637SOL    HW232811   2.240   1.069   6.663
10638SOL     OW32812   5.900   5.048   0.864
10638SOL    HW132813   5.974   5.075   0.924
10638SOL    HW232814   5.937   5.018   0.776
10639SOL     OW32815   0.441   5.331   1.631
10639SOL    HW132816   0.426   5.286   1.543
10639SOL    HW232817   0.377   5.294   1.699
10640SOL     OW32818   4.652   6.569   3.594
10640SOL    HW132819   4.643   6.470   3.585
10640SOL    HW232820   4.608   6.599   3.679
10641SOL     OW32821   1.022   1.631   3.121
10641SOL    HW132822   1.070   1.563   3.065
10641SOL    HW232823   1.058   1.722   3.101
10642SOL     OW32824   6.690   3.413   6.241
10642SOL    HW132825   6.676   3.496   6.295
10642SOL    HW232826   6.763   3.359   6.282
10643SOL     OW32827   2.297   5.096   5.769
10643SOL    HW132828   2.281   4.998   5.761
10643SOL    HW232829   2.209   5.144   5.762
10644SOL     OW32830   6.035   3.017   3.039
10644SOL    HW132831   6.103   2.952   3.005
10644SOL    HW232832   6.075   3.108   3.040
10645SOL     OW32833   1.908   2.211   3.107
10645SOL    HW132834   1.840   2.143   3.131
10645SOL    HW232835   1.870   2.303   3.118
10646SOL     OW32836   5.522   0.318   3.644
10646SOL    HW132837   5.505   0.408   3.605
10646SOL    HW232838   5.522   0.324   3.743
10647SOL     OW32839   3.828   5.441   5.497
10647SOL    HW132840   3.773   5.366   5.533
10647SOL    HW232841   3.887   5.476   5.569
10648SOL     OW32842   4.855   4.182   5.733
10648SOL    HW132843   4.821   4.138   5.650
10648SOL    HW232844   4.780   4.233   5.776
10649SOL     OW32845   6.355   3.771   2.985
10649SOL    HW132846   6.425   3.821   2.935
10649SOL    HW232847   6.353   3.800   3.080
10650SOL     OW32848   1.095   7.003   3.172
10650SOL    HW132849   1.083   0.037   3.250
10650SOL    HW232850   1.172   6.941   3.190
10651SOL     OW32851   2.924   5.810   5.882
10651SOL    HW132852   2.938   5.823   5.980
10651SOL    HW232853   2.968   5.725   5.853
10652SOL     OW32854   1.542   0.176   0.298
10652SOL    HW132855   1.547   0.176   0.398
10652SOL    HW232856   1.633   0.166   0.260
10653SOL     OW32857   4.712   6.049   4.508
10653SOL    HW132858   4.720   6.110   4.429
10653SOL    HW232859   4.616   6.043   4.536
10654SOL     OW32860   6.219   2.104   4.377
10654SOL    HW132861   6.272   2.095   4.461
10654SOL    HW232862   6.220   2.017   4.328
10655SOL     OW32863   0.046   3.987   1.540
10655SOL    HW132864   0.017   4.000   1.445
10655SOL    HW232865   7.010   3.925   1.586
10656SOL     OW32866   5.749   2.004   4.496
10656SOL    HW132867   5.658   2.043   4.502
10656SOL    HW232868   5.804   2.057   4.431
10657SOL     OW32869   4.918   6.736   4.572
10657SOL    HW132870   5.001   6.733   4.627
10657SOL    HW232871   4.879   6.827   4.576
10658SOL     OW32872   0.991   2.023   5.877
10658SOL    HW132873   0.956   2.006   5.970
10658SOL    HW232874   0.930   1.980   5.810
10659SOL     OW32875   0.618   5.593   0.775
10659SOL    HW132876   0.540   5.541   0.813
10659SOL    HW232877   0.644   5.665   0.839
10660SOL     OW32878   5.793   2.549   5.384
10660SOL    HW132879   5.803   2.569   5.482
10660SOL    HW232880   5.861   2.481   5.357
10661SOL     OW32881   2.993   5.100   5.479
10661SOL    HW132882   3.003   5.000   5.476
10661SOL    HW232883   3.056   5.141   5.414
10662SOL     OW32884   2.083   1.103   1.433
10662SOL    HW132885   2.021   1.169   1.473
10662SOL    HW232886   2.146   1.149   1.371
10663SOL     OW32887   1.041   1.522   3.567
10663SOL    HW132888   1.103   1.531   3.489
10663SOL    HW232889   0.994   1.434   3.562
10664SOL     OW32890   0.847   5.237   4.913
10664SOL    HW132891   0.869   5.219   5.009
10664SOL    HW232892   0.874   5.330   4.890
10665SOL     OW32893   3.108   3.556   0.245
10665SOL    HW132894   3.086   3.484   0.311
10665SOL    HW232895   3.024   3.604   0.220
10666SOL     OW32896   3.689   3.994   1.320
10666SOL    HW132897   3.669   3.919   1.258
10666SOL    HW232898   3.626   3.991   1.398
10667SOL     OW32899   5.413   2.853   3.205
10667SOL    HW132900   5.365   2.933   3.240
10667SOL    HW232901   5.495   2.837   3.259
10668SOL     OW32902   3.248   2.725   5.868
10668SOL    HW132903   3.171   2.682   5.916
10668SOL    HW232904   3.260   2.681   5.779
10669SOL     OW32905   5.701   1.768   1.452
10669SOL    HW132906   5.663   1.693   1.507
10669SOL    HW232907   5.697   1.743   1.355
10670SOL     OW32908   4.854   3.766   4.310
10670SOL    HW132909   4.890   3.682   4.268
10670SOL    HW232910   4.762   3.784   4.276
10671SOL     OW32911   1.439   3.770   5.433
10671SOL    HW132912   1.426   3.754   5.530
10671SOL    HW232913   1.358   3.815   5.395
10672SOL     OW32914   5.587   3.679   1.836
10672SOL    HW132915   5.587   3.721   1.745
10672SOL    HW232916   5.599   3.581   1.827
10673SOL     OW32917   2.025   1.827   0.825
10673SOL    HW132918   2.001   1.767   0.748
10673SOL    HW232919   1.950   1.891   0.841
10674SOL     OW32920   3.545   4.061   3.478
10674SOL    HW132921   3.460   4.080   3.429
10674SOL    HW232922   3.623   4.077   3.417
10675SOL     OW32923   4.170   6.774   5.430
10675SOL    HW132924   4.255   6.827   5.430
10675SOL    HW232925   4.138   6.762   5.523
10676SOL     OW32926   1.856   0.260   5.895
10676SOL    HW132927   1.855   0.264   5.995
10676SOL    HW232928   1.933   0.314   5.860
10677SOL     OW32929   0.188   1.379   0.519
10677SOL    HW132930   0.186   1.341   0.611
10677SOL    HW232931   0.126   1.328   0.459
10678SOL     OW32932   3.533   5.755   2.731
10678SOL    HW132933   3.613   5.789   2.781
10678SOL    HW232934   3.460   5.736   2.796
10679SOL     OW32935   4.139   3.282   6.539
10679SOL    HW132936   4.135   3.377   6.571
10679SOL    HW232937   4.200   3.276   6.461
10680SOL     OW32938   3.845   1.097   4.879
10680SOL    HW132939   3.822   1.038   4.957
10680SOL    HW232940   3.943   1.115   4.877
10681SOL     OW32941   1.836   3.488   5.194
10681SOL    HW132942   1.848   3.517   5.099
10681SOL    HW232943   1.748   3.520   5.228
10682SOL     OW32944   5.186   3.137   6.413
10682SOL    HW132945   5.105   3.079   6.416
10682SOL    HW232946   5.253   3.097   6.349
10683SOL     OW32947   3.087   0.361   3.742
10683SOL    HW132948   2.997   0.400   3.720
10683SOL    HW232949   3.075   0.270   3.781
10684SOL     OW32950   4.616   4.676   2.206
10684SOL    HW132951   4.710   4.692   2.234
10684SOL    HW232952   4.581   4.759   2.161
10685SOL     OW32953   0.772   6.653   1.709
10685SOL    HW132954   0.851   6.704   1.743
10685SOL    HW232955   0.780   6.643   1.610
10686SOL     OW32956   2.564   1.173   6.783
10686SOL    HW132957   2.467   1.183   6.803
10686SOL    HW232958   2.575   1.139   6.689
10687SOL     OW32959   0.669   3.982   3.492
10687SOL    HW132960   0.606   4.058   3.508
10687SOL    HW232961   0.619   3.903   3.458
10688SOL     OW32962   5.023   1.626   2.287
10688SOL    HW132963   5.013   1.725   2.282
10688SOL    HW232964   4.985   1.593   2.373
10689SOL     OW32965   0.391   0.471   2.764
10689SOL    HW132966   0.337   0.537   2.816
10689SOL    HW232967   0.485   0.469   2.800
10690SOL     OW32968   0.348   6.879   4.184
10690SOL    HW132969   0.395   6.884   4.096
10690SOL    HW232970   0.415   6.873   4.258
10691SOL     OW32971   3.728   0.408   2.375
10691SOL    HW132972   3.764   0.390   2.467
10691SOL    HW232973   3.697   0.502   2.369
10692SOL     OW32974   2.463   0.906   4.105
10692SOL    HW132975   2.462   0.910   4.006
10692SOL    HW232976   2.543   0.855   4.136
10693SOL     OW32977   1.523   5.446   6.889
10693SOL    HW132978   1.467   5.457   6.971
10693SOL    HW232979   1.608   5.497   6.899
10694SOL     OW32980   4.389   0.084   5.233
10694SOL    HW132981   4.410   0.035   5.318
10694SOL    HW232982   4.464   0.072   5.168
10695SOL     OW32983   5.592   4.209   2.264
10695SOL    HW132984   5.572   4.113   2.244
10695SOL    HW232985   5.671   4.215   2.324
10696SOL     OW32986   6.793   4.764   3.785
10696SOL    HW132987   6.718   4.703   3.810
10696SOL    HW232988   6.840   4.794   3.869
10697SOL     OW32989   1.898   5.246   5.323
10697SOL    HW132990   1.873   5.338   5.353
10697SOL    HW232991   1.985   5.220   5.365
10698SOL     OW32992   4.293   3.136   0.221
10698SOL    HW132993   4.382   3.163   0.184
10698SOL    HW232994   4.221   3.187   0.174
10699SOL     OW32995   3.212   2.933   0.715
10699SOL    HW132996   3.272   2.948   0.636
10699SOL    HW232997   3.184   2.837   0.717
10700SOL     OW32998   4.720   1.082   1.575
10700SOL    HW132999   4.802   1.140   1.573
10700SOL    HW233000   4.639   1.140   1.586
10701SOL     OW33001   3.021   0.107   6.599
10701SOL    HW133002   3.097   0.057   6.641
10701SOL    HW233003   2.944   0.111   6.662
10702SOL     OW33004   5.983   2.577   2.342
10702SOL    HW133005   5.999   2.510   2.415
10702SOL    HW233006   5.885   2.584   2.323
10703SOL     OW33007   0.843   3.198   6.113
10703SOL    HW133008   0.927   3.249   6.133
10703SOL    HW233009   0.778   3.258   6.067
10704SOL     OW33010   5.540   6.741   1.596
10704SOL    HW133011   5.547   6.812   1.666
10704SOL    HW233012   5.631   6.709   1.571
10705SOL     OW33013   5.897   4.153   1.405
10705SOL    HW133014   5.810   4.164   1.452
10705SOL    HW233015   5.908   4.227   1.338
10706SOL     OW33016   4.661   0.317   0.824
10706SOL    HW133017   4.710   0.243   0.778
10706SOL    HW233018   4.588   0.351   0.765
10707SOL     OW33019   5.773   0.523   4.093
10707SOL    HW133020   5.870   0.512   4.114
10707SOL    HW233021   5.754   0.619   4.071
10708SOL     OW33022   4.207   1.539   2.000
10708SOL    HW133023   4.208   1.629   2.044
10708SOL    HW233024   4.114   1.503   2.000
10709SOL     OW33025   5.927   4.918   3.771
10709SOL    HW133026   5.905   4.825   3.801
10709SOL    HW233027   5.844   4.972   3.764
10710SOL     OW33028   5.389   1.046   3.673
10710SOL    HW133029   5.316   0.978   3.663
10710SOL    HW233030   5.390   1.105   3.592
10711SOL     OW33031   4.204   6.892   1.424
10711SOL    HW133032   4.165   6.917   1.513
10711SOL    HW233033   4.270   6.961   1.396
10712SOL     OW33034   5.127   0.059   2.773
10712SOL    HW133035   5.115   6.990   2.798
10712SOL    HW233036   5.122   0.115   2.856
10713SOL     OW33037   1.434   4.298   1.398
10713SOL    HW133038   1.482   4.211   1.386
10713SOL    HW233039   1.408   4.309   1.494
10714SOL     OW33040   3.295   4.060   4.367
10714SOL    HW133041   3.288   3.988   4.297
10714SOL    HW233042   3.223   4.046   4.436
10715SOL     OW33043   6.370   0.964   1.757
10715SOL    HW133044   6.343   1.059   1.747
10715SOL    HW233045   6.469   0.956   1.747
10716SOL     OW33046   5.934   1.899   3.272
10716SOL    HW133047   5.905   1.903   3.176
10716SOL    HW233048   5.913   1.986   3.317
10717SOL     OW33049   1.468   2.547   0.098
10717SOL    HW133050   1.481   2.548   7.026
10717SOL    HW233051   1.447   2.454   0.128
10718SOL     OW33052   1.367   4.950   5.564
10718SOL    HW133053   1.362   5.038   5.518
10718SOL    HW233054   1.303   4.948   5.641
10719SOL     OW33055   6.108   5.841   4.652
10719SOL    HW133056   6.045   5.802   4.718
10719SOL    HW233057   6.153   5.921   4.692
10720SOL     OW33058   6.457   5.325   3.654
10720SOL    HW133059   6.422   5.398   3.595
10720SOL    HW233060   6.388   5.302   3.723
10721SOL     OW33061   5.029   3.879   5.058
10721SOL    HW133062   5.037   3.911   4.963
10721SOL    HW233063   5.121   3.866   5.096
10722SOL     OW33064   6.679   4.358   5.606
10722SOL    HW133065   6.717   4.310   5.527
10722SOL    HW233066   6.585   4.385   5.586
10723SOL     OW33067   5.935   0.014   0.413
10723SOL    HW133068   5.870   0.053   0.478
10723SOL    HW233069   5.892   0.008   0.323
10724SOL     OW33070   6.720   6.440   0.401
10724SOL    HW133071   6.659   6.442   0.480
10724SOL    HW233072   6.815   6.447   0.432
10725SOL     OW33073   2.883   5.309   5.269
10725SOL    HW133074   2.858   5.236   5.333
10725SOL    HW233075   2.815   5.312   5.196
10726SOL     OW33076   5.056   0.883   4.394
10726SOL    HW133077   5.048   0.908   4.490
10726SOL    HW233078   5.121   0.808   4.384
10727SOL     OW33079   1.544   5.945   5.770
10727SOL    HW133080   1.637   5.921   5.743
10727SOL    HW233081   1.489   5.861   5.779
10728SOL     OW33082   6.338   6.007   1.039
10728SOL    HW133083   6.355   5.999   0.940
10728SOL    HW233084   6.283   5.929   1.069
10729SOL     OW33085   6.649   2.748   1.243
10729SOL    HW133086   6.719   2.816   1.219
10729SOL    HW233087   6.654   2.672   1.179
10730SOL     OW33088   4.263   0.255   1.509
10730SOL    HW133089   4.325   0.205   1.569
10730SOL    HW233090   4.289   0.352   1.508
10731SOL     OW33091   4.232   1.183   0.633
10731SOL    HW133092   4.268   1.186   0.726
10731SOL    HW233093   4.307   1.171   0.569
10732SOL     OW33094   0.773   4.891   5.348
10732SOL    HW133095   0.741   4.872   5.255
10732SOL    HW233096   0.761   4.809   5.405
10733SOL     OW33097   5.697   2.878   6.959
10733SOL    HW133098   5.643   2.868   6.875
10733SOL    HW233099   5.791   2.849   6.943
10734SOL     OW33100   6.924   2.018   1.442
10734SOL    HW133101   6.857   2.081   1.479
10734SOL    HW233102   6.920   1.931   1.491
10735SOL     OW33103   0.485   3.666   2.816
10735SOL    HW133104   0.483   3.645   2.718
10735SOL    HW233105   0.428   3.747   2.833
10736SOL     OW33106   3.416   7.011   3.679
10736SOL    HW133107   3.318   7.022   3.692
10736SOL    HW233108   3.457   0.072   3.657
10737SOL     OW33109   0.294   2.274   1.620
10737SOL    HW133110   0.272   2.355   1.566
10737SOL    HW233111   0.386   2.284   1.658
10738SOL     OW33112   4.844   1.045   3.021
10738SOL    HW133113   4.811   1.121   2.966
10738SOL    HW233114   4.825   0.959   2.975
10739SOL     OW33115   2.133   2.083   2.074
10739SOL    HW133116   2.150   2.110   1.980
10739SOL    HW233117   2.039   2.103   2.098
10740SOL     OW33118   5.116   4.700   3.820
10740SOL    HW133119   5.126   4.696   3.720
10740SOL    HW233120   5.037   4.757   3.843
10741SOL     OW33121   4.001   0.528   2.493
10741SOL    HW133122   3.969   0.438   2.521
10741SOL    HW233123   3.941   0.599   2.532
10742SOL     OW33124   5.727   5.378   0.667
10742SOL    HW133125   5.692   5.391   0.759
10742SOL    HW233126   5.827   5.381   0.668
10743SOL     OW33127   2.006   2.106   4.176
10743SOL    HW133128   2.073   2.180   4.164
10743SOL    HW233129   2.051   2.018   4.167
10744SOL     OW33130   3.688   2.356   1.044
10744SOL    HW133131   3.720   2.263   1.061
10744SOL    HW233132   3.714   2.384   0.952
10745SOL     OW33133   0.166   5.751   5.799
10745SOL    HW133134   0.132   5.803   5.878
10745SOL    HW233135   0.174   5.813   5.721
10746SOL     OW33136   0.140   4.243   5.298
10746SOL    HW133137   0.083   4.249   5.379
10746SOL    HW233138   0.085   4.216   5.220
10747SOL     OW33139   2.884   1.154   4.941
10747SOL    HW133140   2.978   1.167   4.970
10747SOL    HW233141   2.870   1.196   4.852
10748SOL     OW33142   4.712   1.327   2.113
10748SOL    HW133143   4.778   1.256   2.138
10748SOL    HW233144   4.738   1.369   2.026
10749SOL     OW33145   1.997   6.830   5.114
10749SOL    HW133146   2.035   6.746   5.152
10749SOL    HW233147   2.071   6.892   5.089
10750SOL     OW33148   3.446   0.844   5.907
10750SOL    HW133149   3.442   0.744   5.901
10750SOL    HW233150   3.541   0.872   5.924
10751SOL     OW33151   2.165   4.586   4.280
10751SOL    HW133152   2.224   4.646   4.334
10751SOL    HW233153   2.084   4.562   4.334
10752SOL     OW33154   5.473   5.100   4.244
10752SOL    HW133155   5.400   5.146   4.194
10752SOL    HW233156   5.455   5.001   4.245
10753SOL     OW33157   0.272   3.157   4.133
10753SOL    HW133158   0.264   3.081   4.197
10753SOL    HW233159   0.287   3.242   4.184
10754SOL     OW33160   1.584   0.721   2.809
10754SOL    HW133161   1.505   0.780   2.819
10754SOL    HW233162   1.557   0.626   2.824
10755SOL     OW33163   6.530   5.980   1.597
10755SOL    HW133164   6.463   6.014   1.663
10755SOL    HW233165   6.622   6.001   1.629
10756SOL     OW33166   6.618   6.891   5.116
10756SOL    HW133167   6.531   6.844   5.134
10756SOL    HW233168   6.617   6.926   5.022
10757SOL     OW33169   2.149   3.273   0.838
10757SOL    HW133170   2.074   3.223   0.794
10757SOL    HW233171   2.113   3.354   0.884
10758SOL     OW33172   0.617   5.645   3.626
10758SOL    HW133173   0.548   5.638   3.554
10758SOL    HW233174   0.644   5.553   3.654
10759SOL     OW33175   0.328   3.061   0.214
10759SOL    HW133176   0.255   3.124   0.239
10759SOL    HW233177   0.331   3.051   0.115
10760SOL     OW33178   6.292   0.742   3.454
10760SOL    HW133179   6.385   0.777   3.467
10760SOL    HW233180   6.294   0.666   3.390
10761SOL     OW33181   2.830   4.784   5.546
10761SOL    HW133182   2.791   4.763   5.635
10761SOL    HW233183   2.782   4.733   5.475
10762SOL     OW33184   3.388   0.751   4.502
10762SOL    HW133185   3.424   0.838   4.470
10762SOL    HW233186   3.460   0.703   4.554
10763SOL     OW33187   3.955   0.336   3.393
10763SOL    HW133188   3.905   0.268   3.447
10763SOL    HW233189   3.967   0.301   3.299
10764SOL     OW33190   5.540   0.307   3.924
10764SOL    HW133191   5.543   0.229   3.986
10764SOL    HW233192   5.518   0.390   3.975
10765SOL     OW33193   5.220   3.062   1.141
10765SOL    HW133194   5.288   3.113   1.192
10765SOL    HW233195   5.244   3.062   1.044
10766SOL     OW33196   4.093   3.117   1.529
10766SOL    HW133197   4.128   3.155   1.443
10766SOL    HW233198   4.169   3.079   1.582
10767SOL     OW33199   2.434   1.362   1.986
10767SOL    HW133200   2.363   1.376   2.055
10767SOL    HW233201   2.482   1.448   1.969
10768SOL     OW33202   6.792   5.055   0.284
10768SOL    HW133203   6.772   5.091   0.193
10768SOL    HW233204   6.813   4.957   0.277
10769SOL     OW33205   1.608   3.499   6.325
10769SOL    HW133206   1.698   3.469   6.358
10769SOL    HW233207   1.614   3.520   6.228
10770SOL     OW33208   5.006   6.174   3.172
10770SOL    HW133209   5.035   6.223   3.254
10770SOL    HW233210   5.010   6.235   3.093
10771SOL     OW33211   3.077   0.674   3.587
10771SOL    HW133212   3.145   0.672   3.514
10771SOL    HW233213   3.024   0.590   3.586
10772SOL     OW33214   6.149   5.720   3.457
10772SOL    HW133215   6.083   5.748   3.527
10772SOL    HW233216   6.198   5.800   3.422
10773SOL     OW33217   5.224   5.150   4.137
10773SOL    HW133218   5.171   5.157   4.052
10773SOL    HW233219   5.213   5.058   4.175
10774SOL     OW33220   1.516   1.211   3.882
10774SOL    HW133221   1.429   1.162   3.881
10774SOL    HW233222   1.500   1.308   3.899
10775SOL     OW33223   0.597   4.102   1.923
10775SOL    HW133224   0.519   4.040   1.917
10775SOL    HW233225   0.569   4.195   1.900
10776SOL     OW33226   1.868   0.341   0.007
10776SOL    HW133227   1.869   0.302   6.942
10776SOL    HW233228   1.957   0.381   0.028
10777SOL     OW33229   3.454   6.467   1.797
10777SOL    HW133230   3.493   6.403   1.731
10777SOL    HW233231   3.484   6.560   1.776
10778SOL     OW33232   5.971   6.045   3.177
10778SOL    HW133233   5.994   6.124   3.233
10778SOL    HW233234   6.029   5.968   3.203
10779SOL     OW33235   5.707   2.354   3.479
10779SOL    HW133236   5.754   2.373   3.393
10779SOL    HW233237   5.769   2.307   3.541
10780SOL     OW33238   0.996   1.220   3.158
10780SOL    HW133239   1.057   1.256   3.088
10780SOL    HW233240   0.981   1.122   3.141
10781SOL     OW33241   3.307   0.291   4.220
10781SOL    HW133242   3.209   0.286   4.240
10781SOL    HW233243   3.338   0.385   4.229
10782SOL     OW33244   6.452   6.059   4.550
10782SOL    HW133245   6.546   6.037   4.577
10782SOL    HW233246   6.454   6.113   4.466
10783SOL     OW33247   6.821   2.212   2.723
10783SOL    HW133248   6.769   2.281   2.672
10783SOL    HW233249   6.904   2.189   2.672
10784SOL     OW33250   2.393   1.213   4.192
10784SOL    HW133251   2.350   1.122   4.190
10784SOL    HW233252   2.455   1.219   4.270
10785SOL     OW33253   0.374   4.058   0.021
10785SOL    HW133254   0.305   4.068   6.977
10785SOL    HW233255   0.332   4.070   0.111
10786SOL     OW33256   0.116   5.392   3.225
10786SOL    HW133257   0.043   5.455   3.200
10786SOL    HW233258   0.089   5.339   3.305
10787SOL     OW33259   1.848   2.378   5.479
10787SOL    HW133260   1.903   2.458   5.457
10787SOL    HW233261   1.909   2.302   5.503
10788SOL     OW33262   6.367   4.107   5.960
10788SOL    HW133263   6.316   4.094   5.875
10788SOL    HW233264   6.450   4.160   5.942
10789SOL     OW33265   6.558   1.876   0.209
10789SOL    HW133266   6.467   1.888   0.248
10789SOL    HW233267   6.614   1.822   0.271
10790SOL     OW33268   6.870   0.114   2.922
10790SOL    HW133269   6.902   0.049   2.853
10790SOL    HW233270   6.798   0.172   2.883
10791SOL     OW33271   6.687   5.994   2.482
10791SOL    HW133272   6.607   6.053   2.476
10791SOL    HW233273   6.740   6.001   2.398
10792SOL     OW33274   3.932   4.011   4.976
10792SOL    HW133275   3.942   3.992   5.074
10792SOL    HW233276   3.894   4.102   4.964
10793SOL     OW33277   5.643   3.079   4.992
10793SOL    HW133278   5.716   3.091   5.059
10793SOL    HW233279   5.637   3.159   4.933
10794SOL     OW33280   3.233   3.392   3.758
10794SOL    HW133281   3.309   3.397   3.694
10794SOL    HW233282   3.219   3.298   3.787
10795SOL     OW33283   1.107   4.231   3.182
10795SOL    HW133284   1.110   4.276   3.093
10795SOL    HW233285   1.134   4.136   3.172
10796SOL     OW33286   1.418   5.648   5.145
10796SOL    HW133287   1.471   5.571   5.111
10796SOL    HW233288   1.469   5.733   5.131
10797SOL     OW33289   3.802   2.623   0.595
10797SOL    HW133290   3.851   2.546   0.636
10797SOL    HW233291   3.860   2.704   0.595
10798SOL     OW33292   0.666   1.827   0.667
10798SOL    HW133293   0.762   1.808   0.645
10798SOL    HW233294   0.614   1.741   0.669
10799SOL     OW33295   4.163   1.494   2.397
10799SOL    HW133296   4.199   1.492   2.304
10799SOL    HW233297   4.069   1.459   2.398
10800SOL     OW33298   1.275   6.722   0.444
10800SOL    HW133299   1.185   6.767   0.444
10800SOL    HW233300   1.343   6.785   0.407
10801SOL     OW33301   1.317   1.045   0.786
10801SOL    HW133302   1.242   1.056   0.721
10801SOL    HW233303   1.397   1.095   0.754
10802SOL     OW33304   6.239   0.007   3.741
10802SOL    HW133305   6.254   0.071   3.816
10802SOL    HW233306   6.327   7.008   3.701
10803SOL     OW33307   2.327   5.001   6.604
10803SOL    HW133308   2.395   5.028   6.673
10803SOL    HW233309   2.372   4.996   6.515
10804SOL     OW33310   0.068   3.204   3.893
10804SOL    HW133311   0.106   3.177   3.981
10804SOL    HW233312   0.056   3.303   3.891
10805SOL     OW33313   6.200   0.761   5.334
10805SOL    HW133314   6.161   0.822   5.265
10805SOL    HW233315   6.294   0.738   5.310
10806SOL     OW33316   1.704   4.640   6.705
10806SOL    HW133317   1.690   4.731   6.745
10806SOL    HW233318   1.768   4.589   6.762
10807SOL     OW33319   2.912   6.554   4.436
10807SOL    HW133320   2.959   6.642   4.428
10807SOL    HW233321   2.976   6.484   4.467
10808SOL     OW33322   0.400   2.328   5.952
10808SOL    HW133323   0.500   2.323   5.955
10808SOL    HW233324   0.373   2.400   5.887
10809SOL     OW33325   2.213   5.739   4.725
10809SOL    HW133326   2.204   5.817   4.786
10809SOL    HW233327   2.127   5.726   4.675
10810SOL     OW33328   0.456   0.239   4.263
10810SOL    HW133329   0.360   0.265   4.274
10810SOL    HW233330   0.514   0.315   4.292
10811SOL     OW33331   5.077   4.951   5.205
10811SOL    HW133332   4.982   4.982   5.205
10811SOL    HW233333   5.105   4.931   5.111
10812SOL     OW33334   6.624   2.681   6.712
10812SOL    HW133335   6.680   2.642   6.785
10812SOL    HW233336   6.559   2.612   6.679
10813SOL     OW33337   0.436   4.071   6.475
10813SOL    HW133338   0.449   4.163   6.439
10813SOL    HW233339   0.343   4.040   6.454
10814SOL     OW33340   2.488   0.408   1.053
10814SOL    HW133341   2.442   0.493   1.078
10814SOL    HW233342   2.573   0.399   1.105
10815SOL     OW33343   5.234   1.365   4.535
10815SOL    HW133344   5.158   1.387   4.596
10815SOL    HW233345   5.225   1.271   4.503
10816SOL     OW33346   3.886   3.293   3.705
10816SOL    HW133347   3.922   3.357   3.637
10816SOL    HW233348   3.876   3.203   3.662
10817SOL     OW33349   2.796   6.726   3.282
10817SOL    HW133350   2.793   6.648   3.219
10817SOL    HW233351   2.805   6.692   3.376
10818SOL     OW33352   4.257   5.126   6.160
10818SOL    HW133353   4.158   5.117   6.148
10818SOL    HW233354   4.277   5.182   6.240
10819SOL     OW33355   6.734   5.626   6.187
10819SOL    HW133356   6.704   5.578   6.104
10819SOL    HW233357   6.654   5.653   6.240
10820SOL     OW33358   2.692   4.462   5.909
10820SOL    HW133359   2.751   4.510   5.974
10820SOL    HW233360   2.731   4.371   5.890
10821SOL     OW33361   4.929   5.379   3.150
10821SOL    HW133362   4.878   5.463   3.170
10821SOL    HW233363   5.005   5.371   3.214
10822SOL     OW33364   5.577   2.404   1.569
10822SOL    HW133365   5.531   2.458   1.639
10822SOL    HW233366   5.643   2.462   1.521
10823SOL     OW33367   6.909   6.413   2.574
10823SOL    HW133368   6.900   6.314   2.577
10823SOL    HW233369   6.829   6.453   2.528
10824SOL     OW33370   0.822   2.303   4.029
10824SOL    HW133371   0.783   2.376   4.084
10824SOL    HW233372   0.907   2.334   3.986
10825SOL     OW33373   0.877   1.930   0.265
10825SOL    HW133374   0.824   2.012   0.287
10825SOL    HW233375   0.913   1.890   0.350
10826SOL     OW33376   0.798   3.007   2.659
10826SOL    HW133377   0.774   2.992   2.755
10826SOL    HW233378   0.890   2.973   2.643
10827SOL     OW33379   0.265   3.366   4.682
10827SOL    HW133380   0.205   3.307   4.628
10827SOL    HW233381   0.356   3.368   4.641
10828SOL     OW33382   6.107   5.051   5.469
10828SOL    HW133383   6.030   5.006   5.514
10828SOL    HW233384   6.188   5.044   5.527
10829SOL     OW33385   4.062   3.642   5.563
10829SOL    HW133386   4.018   3.683   5.643
10829SOL    HW233387   4.047   3.543   5.564
10830SOL     OW33388   4.782   1.306   3.488
10830SOL    HW133389   4.685   1.309   3.465
10830SOL    HW233390   4.833   1.367   3.428
10831SOL     OW33391   3.823   1.076   3.224
10831SOL    HW133392   3.815   1.074   3.323
10831SOL    HW233393   3.849   0.986   3.190
10832SOL     OW33394   0.026   3.733   0.445
10832SOL    HW133395   0.019   3.697   0.538
10832SOL    HW233396   0.021   3.657   0.379
10833SOL     OW33397   0.516   1.293   0.191
10833SOL    HW133398   0.484   1.370   0.136
10833SOL    HW233399   0.584   1.325   0.257
10834SOL     OW33400   6.995   6.542   0.847
10834SOL    HW133401   0.029   6.613   0.810
10834SOL    HW233402   6.900   6.570   0.832
10835SOL     OW33403   6.590   2.628   6.041
10835SOL    HW133404   6.592   2.551   5.977
10835SOL    HW233405   6.676   2.634   6.091
10836SOL     OW33406   0.123   1.710   3.713
10836SOL    HW133407   0.116   1.610   3.720
10836SOL    HW233408   0.203   1.734   3.659
10837SOL     OW33409   0.469   4.072   3.207
10837SOL    HW133410   0.505   4.025   3.126
10837SOL    HW233411   0.527   4.051   3.286
10838SOL     OW33412   0.123   5.812   3.044
10838SOL    HW133413   0.179   5.877   3.095
10838SOL    HW233414   0.057   5.861   2.987
10839SOL     OW33415   4.835   2.571   0.999
10839SOL    HW133416   4.843   2.544   1.095
10839SOL    HW233417   4.761   2.638   0.990
10840SOL     OW33418   3.296   0.697   1.360
10840SOL    HW133419   3.228   0.766   1.334
10840SOL    HW233420   3.367   0.738   1.416
10841SOL     OW33421   1.418   5.163   5.351
10841SOL    HW133422   1.397   5.137   5.257
10841SOL    HW233423   1.471   5.247   5.352
10842SOL     OW33424   5.266   4.485   0.535
10842SOL    HW133425   5.166   4.485   0.527
10842SOL    HW233426   5.298   4.577   0.555
10843SOL     OW33427   2.304   2.188   1.803
10843SOL    HW133428   2.360   2.131   1.863
10843SOL    HW233429   2.308   2.283   1.834
10844SOL     OW33430   1.335   5.465   5.526
10844SOL    HW133431   1.270   5.410   5.578
10844SOL    HW233432   1.286   5.523   5.461
10845SOL     OW33433   4.422   6.494   5.210
10845SOL    HW133434   4.403   6.439   5.291
10845SOL    HW233435   4.509   6.464   5.169
10846SOL     OW33436   5.204   0.776   0.221
10846SOL    HW133437   5.134   0.801   0.288
10846SOL    HW233438   5.253   0.694   0.252
10847SOL     OW33439   1.814   1.023   0.197
10847SOL    HW133440   1.888   1.062   0.251
10847SOL    HW233441   1.849   0.993   0.108
10848SOL     OW33442   2.045   4.451   1.854
10848SOL    HW133443   1.997   4.384   1.797
10848SOL    HW233444   2.119   4.493   1.801
10849SOL     OW33445   2.436   6.452   3.990
10849SOL    HW133446   2.457   6.504   4.073
10849SOL    HW233447   2.337   6.443   3.981
10850SOL     OW33448   3.327   5.414   0.286
10850SOL    HW133449   3.316   5.476   0.365
10850SOL    HW233450   3.242   5.365   0.271
10851SOL     OW33451   2.182   5.150   0.768
10851SOL    HW133452   2.169   5.165   0.866
10851SOL    HW233453   2.149   5.230   0.717
10852SOL     OW33454   2.163   1.682   1.578
10852SOL    HW133455   2.152   1.780   1.590
10852SOL    HW233456   2.105   1.633   1.643
10853SOL     OW33457   2.710   2.203   5.957
10853SOL    HW133458   2.719   2.129   6.023
10853SOL    HW233459   2.800   2.230   5.923
10854SOL     OW33460   3.837   6.162   5.796
10854SOL    HW133461   3.742   6.165   5.765
10854SOL    HW233462   3.862   6.067   5.818
10855SOL     OW33463   3.447   1.572   6.886
10855SOL    HW133464   3.431   1.670   6.873
10855SOL    HW233465   3.545   1.554   6.892
10856SOL     OW33466   0.353   1.078   0.197
10856SOL    HW133467   0.338   1.052   0.292
10856SOL    HW233468   0.421   1.152   0.192
10857SOL     OW33469   6.653   2.285   2.441
10857SOL    HW133470   6.600   2.305   2.524
10857SOL    HW233471   6.597   2.231   2.378
10858SOL     OW33472   2.474   6.078   1.925
10858SOL    HW133473   2.529   6.161   1.922
10858SOL    HW233474   2.499   6.024   2.006
10859SOL     OW33475   1.737   5.428   3.767
10859SOL    HW133476   1.671   5.503   3.774
10859SOL    HW233477   1.688   5.342   3.753
10860SOL     OW33478   7.003   2.637   3.630
10860SOL    HW133479   7.012   2.581   3.713
10860SOL    HW233480   0.066   2.655   3.592
10861SOL     OW33481   3.947   3.139   4.541
10861SOL    HW133482   3.919   3.090   4.623
10861SOL    HW233483   3.958   3.074   4.465
10862SOL     OW33484   1.668   0.436   4.573
10862SOL    HW133485   1.586   0.394   4.611
10862SOL    HW233486   1.642   0.503   4.503
10863SOL     OW33487   3.094   5.855   4.705
10863SOL    HW133488   3.004   5.821   4.678
10863SOL    HW233489   3.096   5.871   4.804
10864SOL     OW33490   3.232   6.046   2.637
10864SOL    HW133491   3.133   6.050   2.624
10864SOL    HW233492   3.268   5.965   2.592
10865SOL     OW33493   6.044   2.281   6.218
10865SOL    HW133494   6.020   2.245   6.308
10865SOL    HW233495   5.961   2.314   6.172
10866SOL     OW33496   5.579   4.876   0.654
10866SOL    HW133497   5.610   4.865   0.749
10866SOL    HW233498   5.482   4.851   0.648
10867SOL     OW33499   3.477   2.379   0.331
10867SOL    HW133500   3.459   2.280   0.330
10867SOL    HW233501   3.543   2.401   0.260
10868SOL     OW33502   2.717   2.207   2.421
10868SOL    HW133503   2.814   2.230   2.413
10868SOL    HW233504   2.708   2.115   2.461
10869NA      NA33505   6.476   2.266   6.100
10870NA      NA33506   4.384   4.596   5.265
10871NA      NA33507   2.565   3.687   1.615
10872NA      NA33508   4.840   3.777   5.174
10873NA      NA33509   4.219   2.319   5.257
10874NA      NA33510   3.706   4.738   1.685
10875NA      NA33511   6.749   5.988   5.274
10876NA      NA33512   3.905   3.838   4.814
10877NA      NA33513   4.480   6.831   0.161
10878NA      NA33514   3.990   6.828   5.271
10879NA      NA33515   6.939   4.931   2.866
10880NA      NA33516   2.635   0.425   2.982
10881NA      NA33517   3.634   4.156   0.908
10882NA      NA33518   3.422   3.479   2.832
   7.02716   7.02716   7.02716
