Generated by trjconv : CNT in water t= 392.00000
33518
    1C        C    1   2.845   2.768   4.745
    1C        C    2   2.897   2.718   4.866
    1C        C    3   2.841   2.768   4.984
    1C        C    4   2.852   2.780   4.257
    1C        C    5   2.897   2.726   4.379
    1C        C    6   2.845   2.772   4.502
    1C        C    7   3.016   2.644   4.624
    1C        C    8   2.896   2.720   4.623
    1C        C    9   3.075   2.603   4.745
    1C        C   10   3.011   2.635   4.866
    1C        C   11   3.182   2.495   4.976
    1C        C   12   3.063   2.569   4.979
    1C        C   13   2.851   2.775   3.770
    1C        C   14   2.903   2.729   3.893
    1C        C   15   2.851   2.777   4.016
    1C        C   16   3.021   2.646   4.138
    1C        C   17   2.908   2.731   4.136
    1C        C   18   3.083   2.620   4.262
    1C        C   19   3.017   2.651   4.383
    1C        C   20   3.213   2.563   4.501
    1C        C   21   3.081   2.612   4.502
    1C        C   22   3.280   2.540   4.624
    1C        C   23   3.209   2.553   4.745
    1C        C   24   3.410   2.477   4.865
    1C        C   25   3.270   2.503   4.863
    1C        C   26   3.487   2.477   4.982
    1C        C   27   2.853   2.777   3.282
    1C        C   28   2.905   2.729   3.404
    1C        C   29   2.854   2.773   3.528
    1C        C   30   3.023   2.645   3.648
    1C        C   31   2.911   2.731   3.650
    1C        C   32   3.078   2.604   3.771
    1C        C   33   3.016   2.644   3.892
    1C        C   34   3.207   2.551   4.016
    1C        C   35   3.078   2.609   4.014
    1C        C   36   3.277   2.530   4.136
    1C        C   37   3.213   2.565   4.258
    1C        C   38   3.417   2.504   4.383
    1C        C   39   3.280   2.538   4.379
    1C        C   40   3.488   2.494   4.504
    1C        C   41   3.415   2.499   4.625
    1C        C   42   3.629   2.482   4.746
    1C        C   43   3.487   2.481   4.745
    1C        C   44   3.705   2.486   4.865
    1C        C   45   3.626   2.477   4.980
    1C        C   46   2.843   2.760   2.794
    1C        C   47   2.896   2.712   2.916
    1C        C   48   2.845   2.763   3.037
    1C        C   49   3.021   2.646   3.162
    1C        C   50   2.906   2.728   3.160
    1C        C   51   3.085   2.611   3.283
    1C        C   52   3.022   2.649   3.403
    1C        C   53   3.206   2.542   3.526
    1C        C   54   3.080   2.605   3.525
    1C        C   55   3.274   2.527   3.649
    1C        C   56   3.209   2.552   3.772
    1C        C   57   3.415   2.503   3.896
    1C        C   58   3.276   2.531   3.894
    1C        C   59   3.487   2.497   4.017
    1C        C   60   3.414   2.498   4.139
    1C        C   61   3.628   2.493   4.262
    1C        C   62   3.486   2.493   4.260
    1C        C   63   3.702   2.500   4.382
    1C        C   64   3.629   2.494   4.503
    1C        C   65   3.835   2.544   4.624
    1C        C   66   3.698   2.508   4.625
    1C        C   67   3.904   2.563   4.746
    1C        C   68   3.839   2.530   4.867
    1C        C   69   4.050   2.584   4.977
    1C        C   70   3.919   2.536   4.982
    1C        C   71   2.827   2.736   2.308
    1C        C   72   2.885   2.694   2.431
    1C        C   73   2.835   2.750   2.550
    1C        C   74   3.010   2.631   2.672
    1C        C   75   2.893   2.710   2.672
    1C        C   76   3.075   2.602   2.794
    1C        C   77   3.018   2.641   2.918
    1C        C   78   3.208   2.546   3.035
    1C        C   79   3.081   2.608   3.040
    1C        C   80   3.274   2.528   3.159
    1C        C   81   3.212   2.548   3.284
    1C        C   82   3.415   2.489   3.406
    1C        C   83   3.277   2.518   3.406
    1C        C   84   3.484   2.487   3.529
    1C        C   85   3.412   2.497   3.651
    1C        C   86   3.625   2.495   3.773
    1C        C   87   3.483   2.492   3.773
    1C        C   88   3.696   2.507   3.895
    1C        C   89   3.628   2.498   4.018
    1C        C   90   3.833   2.548   4.134
    1C        C   91   3.698   2.506   4.141
    1C        C   92   3.899   2.574   4.256
    1C        C   93   3.836   2.544   4.379
    1C        C   94   4.024   2.640   4.499
    1C        C   95   3.901   2.570   4.502
    1C        C   96   4.088   2.671   4.621
    1C        C   97   4.029   2.630   4.743
    1C        C   98   4.185   2.772   4.863
    1C        C   99   4.097   2.659   4.865
    1C        C  100   4.212   2.847   4.978
    1C        C  101   2.829   2.735   2.069
    1C        C  102   2.990   2.590   2.191
    1C        C  103   2.878   2.680   2.188
    1C        C  104   3.065   2.573   2.310
    1C        C  105   3.007   2.624   2.429
    1C        C  106   3.201   2.538   2.551
    1C        C  107   3.069   2.589   2.551
    1C        C  108   3.273   2.522   2.671
    1C        C  109   3.206   2.548   2.793
    1C        C  110   3.412   2.491   2.917
    1C        C  111   3.273   2.517   2.913
    1C        C  112   3.484   2.489   3.039
    1C        C  113   3.412   2.499   3.160
    1C        C  114   3.623   2.494   3.280
    1C        C  115   3.482   2.484   3.282
    1C        C  116   3.692   2.505   3.403
    1C        C  117   3.625   2.495   3.528
    1C        C  118   3.831   2.540   3.644
    1C        C  119   3.695   2.502   3.651
    1C        C  120   3.896   2.571   3.766
    1C        C  121   3.831   2.546   3.889
    1C        C  122   4.023   2.638   4.011
    1C        C  123   3.899   2.571   4.011
    1C        C  124   4.082   2.679   4.133
    1C        C  125   4.024   2.640   4.255
    1C        C  126   4.192   2.769   4.375
    1C        C  127   4.084   2.679   4.377
    1C        C  128   4.238   2.822   4.498
    1C        C  129   4.193   2.765   4.619
    1C        C  130   4.322   2.936   4.742
    1C        C  131   4.239   2.821   4.740
    1C        C  132   4.359   3.003   4.861
    1C        C  133   4.287   2.964   4.974
    1C        C  134   3.173   2.467   2.080
    1C        C  135   3.041   2.512   2.082
    1C        C  136   3.259   2.482   2.189
    1C        C  137   3.198   2.522   2.310
    1C        C  138   3.405   2.475   2.428
    1C        C  139   3.267   2.503   2.431
    1C        C  140   3.480   2.478   2.548
    1C        C  141   3.410   2.488   2.670
    1C        C  142   3.621   2.490   2.789
    1C        C  143   3.480   2.483   2.793
    1C        C  144   3.692   2.500   2.910
    1C        C  145   3.625   2.494   3.034
    1C        C  146   3.831   2.532   3.155
    1C        C  147   3.693   2.501   3.158
    1C        C  148   3.896   2.561   3.276
    1C        C  149   3.829   2.539   3.398
    1C        C  150   4.020   2.629   3.522
    1C        C  151   3.896   2.562   3.521
    1C        C  152   4.080   2.674   3.642
    1C        C  153   4.020   2.638   3.765
    1C        C  154   4.190   2.765   3.887
    1C        C  155   4.078   2.679   3.887
    1C        C  156   4.247   2.810   4.008
    1C        C  157   4.195   2.763   4.130
    1C        C  158   4.332   2.926   4.254
    1C        C  159   4.246   2.814   4.252
    1C        C  160   4.367   2.988   4.376
    1C        C  161   4.326   2.932   4.500
    1C        C  162   4.438   3.115   4.617
    1C        C  163   4.365   2.994   4.621
    1C        C  164   4.469   3.183   4.737
    1C        C  165   4.437   3.120   4.859
    1C        C  166   4.518   3.318   4.970
    1C        C  167   4.480   3.184   4.976
    1C        C  168   3.476   2.437   2.073
    1C        C  169   3.398   2.457   2.188
    1C        C  170   3.618   2.463   2.306
    1C        C  171   3.476   2.457   2.307
    1C        C  172   3.693   2.490   2.422
    1C        C  173   3.621   2.488   2.543
    1C        C  174   3.828   2.526   2.667
    1C        C  175   3.691   2.495   2.666
    1C        C  176   3.897   2.550   2.788
    1C        C  177   3.830   2.530   2.911
    1C        C  178   4.021   2.625   3.033
    1C        C  179   3.898   2.554   3.032
    1C        C  180   4.083   2.662   3.154
    1C        C  181   4.024   2.622   3.276
    1C        C  182   4.189   2.753   3.397
    1C        C  183   4.080   2.664   3.399
    1C        C  184   4.244   2.804   3.516
    1C        C  185   4.192   2.760   3.640
    1C        C  186   4.332   2.918   3.764
    1C        C  187   4.240   2.810   3.763
    1C        C  188   4.376   2.977   3.885
    1C        C  189   4.335   2.921   4.008
    1C        C  190   4.444   3.103   4.128
    1C        C  191   4.373   2.981   4.131
    1C        C  192   4.469   3.172   4.248
    1C        C  193   4.434   3.112   4.371
    1C        C  194   4.507   3.312   4.491
    1C        C  195   4.463   3.178   4.493
    1C        C  196   4.522   3.388   4.609
    1C        C  197   4.505   3.320   4.732
    1C        C  198   4.551   3.534   4.852
    1C        C  199   4.527   3.393   4.852
    1C        C  200   4.573   3.620   4.965
    1C        C  201   3.615   2.419   2.070
    1C        C  202   3.828   2.502   2.183
    1C        C  203   3.692   2.455   2.185
    1C        C  204   3.899   2.536   2.301
    1C        C  205   3.833   2.512   2.424
    1C        C  206   4.021   2.613   2.545
    1C        C  207   3.898   2.543   2.545
    1C        C  208   4.076   2.663   2.665
    1C        C  209   4.019   2.621   2.787
    1C        C  210   4.192   2.745   2.907
    1C        C  211   4.080   2.659   2.909
    1C        C  212   4.243   2.795   3.029
    1C        C  213   4.195   2.747   3.153
    1C        C  214   4.328   2.913   3.272
    1C        C  215   4.243   2.800   3.275
    1C        C  216   4.366   2.973   3.394
    1C        C  217   4.331   2.916   3.519
    1C        C  218   4.432   3.103   3.640
    1C        C  219   4.367   2.977   3.641
    1C        C  220   4.463   3.170   3.760
    1C        C  221   4.437   3.104   3.883
    1C        C  222   4.500   3.307   4.005
    1C        C  223   4.465   3.170   4.005
    1C        C  224   4.511   3.381   4.124
    1C        C  225   4.502   3.310   4.245
    1C        C  226   4.525   3.520   4.367
    1C        C  227   4.520   3.379   4.367
    1C        C  228   4.527   3.596   4.486
    1C        C  229   4.528   3.529   4.610
    1C        C  230   4.504   3.744   4.726
    1C        C  231   4.531   3.604   4.730
    1C        C  232   4.498   3.823   4.843
    1C        C  233   4.541   3.756   4.958
    1C        C  234   4.018   2.601   2.065
    1C        C  235   3.892   2.543   2.065
    1C        C  236   4.086   2.643   2.180
    1C        C  237   4.021   2.608   2.300
    1C        C  238   4.198   2.728   2.424
    1C        C  239   4.084   2.643   2.422
    1C        C  240   4.249   2.785   2.542
    1C        C  241   4.189   2.747   2.665
    1C        C  242   4.331   2.905   2.782
    1C        C  243   4.246   2.793   2.786
    1C        C  244   4.371   2.963   2.905
    1C        C  245   4.330   2.907   3.028
    1C        C  246   4.434   3.093   3.148
    1C        C  247   4.372   2.967   3.149
    1C        C  248   4.453   3.160   3.271
    1C        C  249   4.425   3.101   3.396
    1C        C  250   4.497   3.303   3.515
    1C        C  251   4.455   3.168   3.517
    1C        C  252   4.510   3.373   3.637
    1C        C  253   4.502   3.306   3.761
    1C        C  254   4.521   3.517   3.879
    1C        C  255   4.517   3.376   3.883
    1C        C  256   4.517   3.591   4.000
    1C        C  257   4.520   3.522   4.124
    1C        C  258   4.494   3.732   4.242
    1C        C  259   4.519   3.593   4.246
    1C        C  260   4.475   3.803   4.362
    1C        C  261   4.496   3.734   4.484
    1C        C  262   4.427   3.940   4.601
    1C        C  263   4.478   3.808   4.603
    1C        C  264   4.404   4.012   4.720
    1C        C  265   4.436   3.950   4.843
    1C        C  266   4.322   4.134   4.956
    1C        C  267   4.402   4.020   4.959
    1C        C  268   4.257   2.777   2.065
    1C        C  269   4.194   2.733   2.183
    1C        C  270   4.345   2.887   2.302
    1C        C  271   4.250   2.781   2.303
    1C        C  272   4.385   2.953   2.420
    1C        C  273   4.341   2.893   2.540
    1C        C  274   4.446   3.081   2.659
    1C        C  275   4.376   2.959   2.660
    1C        C  276   4.471   3.149   2.781
    1C        C  277   4.444   3.084   2.904
    1C        C  278   4.499   3.291   3.025
    1C        C  279   4.468   3.154   3.024
    1C        C  280   4.505   3.364   3.146
    1C        C  281   4.489   3.297   3.270
    1C        C  282   4.516   3.510   3.388
    1C        C  283   4.505   3.369   3.390
    1C        C  284   4.519   3.581   3.510
    1C        C  285   4.517   3.514   3.634
    1C        C  286   4.498   3.726   3.752
    1C        C  287   4.518   3.586   3.756
    1C        C  288   4.477   3.795   3.874
    1C        C  289   4.491   3.730   3.998
    1C        C  290   4.429   3.933   4.116
    1C        C  291   4.478   3.800   4.119
    1C        C  292   4.399   4.000   4.236
    1C        C  293   4.430   3.937   4.359
    1C        C  294   4.330   4.128   4.478
    1C        C  295   4.401   4.006   4.479
    1C        C  296   4.285   4.189   4.598
    1C        C  297   4.328   4.132   4.720
    1C        C  298   4.200   4.314   4.834
    1C        C  299   4.286   4.199   4.838
    1C        C  300   4.167   4.400   4.944
    1C        C  301   4.348   2.881   2.063
    1C        C  302   4.469   3.063   2.175
    1C        C  303   4.397   2.940   2.181
    1C        C  304   4.482   3.140   2.294
    1C        C  305   4.451   3.078   2.417
    1C        C  306   4.512   3.283   2.538
    1C        C  307   4.479   3.145   2.538
    1C        C  308   4.519   3.357   2.659
    1C        C  309   4.504   3.286   2.780
    1C        C  310   4.524   3.498   2.899
    1C        C  311   4.518   3.357   2.902
    1C        C  312   4.515   3.570   3.020
    1C        C  313   4.519   3.504   3.145
    1C        C  314   4.486   3.717   3.263
    1C        C  315   4.519   3.579   3.265
    1C        C  316   4.474   3.787   3.384
    1C        C  317   4.493   3.720   3.507
    1C        C  318   4.425   3.922   3.626
    1C        C  319   4.473   3.789   3.629
    1C        C  320   4.391   3.986   3.748
    1C        C  321   4.423   3.926   3.871
    1C        C  322   4.317   4.110   3.990
    1C        C  323   4.397   3.994   3.993
    1C        C  324   4.280   4.174   4.111
    1C        C  325   4.326   4.121   4.233
    1C        C  326   4.184   4.279   4.352
    1C        C  327   4.284   4.179   4.355
    1C        C  328   4.132   4.334   4.471
    1C        C  329   4.188   4.292   4.594
    1C        C  330   4.024   4.435   4.713
    1C        C  331   4.142   4.355   4.711
    1C        C  332   3.968   4.489   4.830
    1C        C  333   4.048   4.474   4.944
    1C        C  334   4.543   3.266   2.061
    1C        C  335   4.533   3.126   2.063
    1C        C  336   4.533   3.347   2.174
    1C        C  337   4.511   3.279   2.296
    1C        C  338   4.529   3.494   2.412
    1C        C  339   4.519   3.353   2.416
    1C        C  340   4.523   3.567   2.532
    1C        C  341   4.519   3.498   2.655
    1C        C  342   4.496   3.709   2.774
    1C        C  343   4.520   3.570   2.777
    1C        C  344   4.473   3.778   2.894
    1C        C  345   4.493   3.709   3.016
    1C        C  346   4.424   3.913   3.137
    1C        C  347   4.467   3.778   3.137
    1C        C  348   4.397   3.981   3.257
    1C        C  349   4.426   3.920   3.382
    1C        C  350   4.314   4.101   3.503
    1C        C  351   4.395   3.985   3.503
    1C        C  352   4.272   4.163   3.622
    1C        C  353   4.316   4.106   3.744
    1C        C  354   4.178   4.266   3.866
    1C        C  355   4.273   4.161   3.866
    1C        C  356   4.119   4.310   3.986
    1C        C  357   4.174   4.268   4.110
    1C        C  358   4.009   4.402   4.229
    1C        C  359   4.124   4.320   4.231
    1C        C  360   3.950   4.445   4.350
    1C        C  361   4.015   4.413   4.471
    1C        C  362   3.825   4.511   4.593
    1C        C  363   3.956   4.458   4.591
    1C        C  364   3.758   4.547   4.712
    1C        C  365   3.835   4.536   4.830
    1C        C  366   3.628   4.590   4.950
    1C        C  367   3.765   4.570   4.947
    1C        C  368   4.501   3.560   2.054
    1C        C  369   4.524   3.488   2.172
    1C        C  370   4.503   3.705   2.288
    1C        C  371   4.521   3.565   2.290
    1C        C  372   4.486   3.775   2.409
    1C        C  373   4.505   3.708   2.532
    1C        C  374   4.421   3.907   2.648
    1C        C  375   4.476   3.777   2.651
    1C        C  376   4.388   3.969   2.771
    1C        C  377   4.421   3.910   2.895
    1C        C  378   4.317   4.098   3.011
    1C        C  379   4.391   3.977   3.015
    1C        C  380   4.271   4.151   3.133
    1C        C  381   4.313   4.095   3.256
    1C        C  382   4.171   4.252   3.378
    1C        C  383   4.269   4.150   3.378
    1C        C  384   4.120   4.307   3.497
    1C        C  385   4.170   4.261   3.621
    1C        C  386   4.003   4.388   3.742
    1C        C  387   4.121   4.310   3.744
    1C        C  388   3.941   4.427   3.863
    1C        C  389   4.003   4.391   3.985
    1C        C  390   3.817   4.489   4.107
    1C        C  391   3.948   4.436   4.107
    1C        C  392   3.749   4.515   4.228
    1C        C  393   3.818   4.497   4.350
    1C        C  394   3.614   4.549   4.474
    1C        C  395   3.754   4.525   4.472
    1C        C  396   3.543   4.562   4.595
    1C        C  397   3.618   4.564   4.715
    1C        C  398   3.408   4.547   4.840
    1C        C  399   3.548   4.569   4.837
    1C        C  400   3.340   4.522   4.960
    1C        C  401   4.503   3.699   2.051
    1C        C  402   4.451   3.911   2.168
    1C        C  403   4.497   3.778   2.167
    1C        C  404   4.409   3.976   2.286
    1C        C  405   4.437   3.908   2.407
    1C        C  406   4.327   4.095   2.524
    1C        C  407   4.403   3.976   2.526
    1C        C  408   4.278   4.151   2.645
    1C        C  409   4.315   4.090   2.766
    1C        C  410   4.174   4.250   2.885
    1C        C  411   4.276   4.151   2.887
    1C        C  412   4.121   4.296   3.008
    1C        C  413   4.170   4.251   3.133
    1C        C  414   4.003   4.380   3.252
    1C        C  415   4.120   4.300   3.255
    1C        C  416   3.942   4.417   3.374
    1C        C  417   4.002   4.386   3.498
    1C        C  418   3.809   4.472   3.621
    1C        C  419   3.939   4.417   3.620
    1C        C  420   3.744   4.506   3.742
    1C        C  421   3.812   4.484   3.864
    1C        C  422   3.608   4.537   3.986
    1C        C  423   3.747   4.511   3.986
    1C        C  424   3.538   4.541   4.109
    1C        C  425   3.610   4.542   4.231
    1C        C  426   3.400   4.549   4.357
    1C        C  427   3.541   4.552   4.353
    1C        C  428   3.329   4.549   4.479
    1C        C  429   3.402   4.558   4.599
    1C        C  430   3.192   4.524   4.724
    1C        C  431   3.332   4.548   4.722
    1C        C  432   3.124   4.494   4.845
    1C        C  433   3.203   4.498   4.961
    1C        C  434   4.383   4.117   2.051
    1C        C  435   4.449   3.994   2.055
    1C        C  436   4.297   4.157   2.158
    1C        C  437   4.335   4.097   2.281
    1C        C  438   4.179   4.245   2.400
    1C        C  439   4.282   4.149   2.402
    1C        C  440   4.125   4.294   2.521
    1C        C  441   4.178   4.250   2.645
    1C        C  442   4.003   4.377   2.762
    1C        C  443   4.119   4.298   2.764
    1C        C  444   3.941   4.407   2.886
    1C        C  445   4.002   4.372   3.008
    1C        C  446   3.813   4.468   3.132
    1C        C  447   3.943   4.414   3.129
    1C        C  448   3.747   4.495   3.254
    1C        C  449   3.812   4.473   3.377
    1C        C  450   3.606   4.532   3.497
    1C        C  451   3.742   4.495   3.498
    1C        C  452   3.535   4.545   3.619
    1C        C  453   3.607   4.538   3.740
    1C        C  454   3.399   4.543   3.865
    1C        C  455   3.540   4.551   3.864
    1C        C  456   3.326   4.539   3.986
    1C        C  457   3.397   4.545   4.108
    1C        C  458   3.194   4.510   4.236
    1C        C  459   3.332   4.543   4.233
    1C        C  460   3.126   4.490   4.358
    1C        C  461   3.192   4.512   4.480
    1C        C  462   2.995   4.438   4.602
    1C        C  463   3.123   4.498   4.603
    1C        C  464   2.931   4.401   4.722
    1C        C  465   2.990   4.444   4.844
    1C        C  466   2.802   4.333   4.963
    1C        C  467   2.905   4.427   4.958
    1C        C  468   4.120   4.282   2.039
    1C        C  469   4.181   4.242   2.158
    1C        C  470   4.002   4.365   2.276
    1C        C  471   4.123   4.290   2.279
    1C        C  472   3.937   4.398   2.397
    1C        C  473   4.005   4.369   2.518
    1C        C  474   3.811   4.461   2.642
    1C        C  475   3.940   4.403   2.638
    1C        C  476   3.746   4.487   2.765
    1C        C  477   3.813   4.467   2.887
    1C        C  478   3.608   4.521   3.011
    1C        C  479   3.747   4.492   3.009
    1C        C  480   3.536   4.537   3.132
    1C        C  481   3.608   4.524   3.253
    1C        C  482   3.395   4.540   3.376
    1C        C  483   3.537   4.537   3.374
    1C        C  484   3.324   4.533   3.497
    1C        C  485   3.394   4.544   3.620
    1C        C  486   3.189   4.502   3.747
    1C        C  487   3.327   4.534   3.744
    1C        C  488   3.124   4.476   3.869
    1C        C  489   3.191   4.500   3.991
    1C        C  490   3.003   4.413   4.116
    1C        C  491   3.127   4.480   4.115
    1C        C  492   2.945   4.376   4.240
    1C        C  493   3.000   4.426   4.360
    1C        C  494   2.828   4.302   4.482
    1C        C  495   2.939   4.389   4.482
    1C        C  496   2.776   4.256   4.605
    1C        C  497   2.816   4.317   4.726
    1C        C  498   2.664   4.166   4.844
    1C        C  499   2.753   4.275   4.845
    1C        C  500   2.597   4.116   4.956
    1C        C  501   4.002   4.355   2.039
    1C        C  502   3.814   4.466   2.154
    1C        C  503   3.939   4.401   2.156
    1C        C  504   3.744   4.483   2.276
    1C        C  505   3.808   4.455   2.399
    1C        C  506   3.602   4.504   2.520
    1C        C  507   3.742   4.481   2.521
    1C        C  508   3.535   4.520   2.643
    1C        C  509   3.607   4.512   2.764
    1C        C  510   3.398   4.524   2.889
    1C        C  511   3.539   4.520   2.888
    1C        C  512   3.325   4.521   3.010
    1C        C  513   3.395   4.538   3.131
    1C        C  514   3.188   4.499   3.257
    1C        C  515   3.324   4.536   3.254
    1C        C  516   3.120   4.474   3.378
    1C        C  517   3.186   4.501   3.500
    1C        C  518   2.997   4.414   3.626
    1C        C  519   3.122   4.480   3.624
    1C        C  520   2.938   4.374   3.748
    1C        C  521   2.998   4.411   3.871
    1C        C  522   2.834   4.281   3.996
    1C        C  523   2.945   4.368   3.994
    1C        C  524   2.784   4.236   4.120
    1C        C  525   2.835   4.289   4.241
    1C        C  526   2.699   4.128   4.366
    1C        C  527   2.779   4.244   4.363
    1C        C  528   2.657   4.073   4.489
    1C        C  529   2.692   4.143   4.607
    1C        C  530   2.585   3.959   4.732
    1C        C  531   2.641   4.089   4.727
    1C        C  532   2.536   3.901   4.853
    1C        C  533   2.523   3.997   4.958
    1C        C  534   3.613   4.561   2.038
    1C        C  535   3.744   4.510   2.041
    1C        C  536   3.534   4.540   2.155
    1C        C  537   3.605   4.512   2.275
    1C        C  538   3.392   4.513   2.398
    1C        C  539   3.533   4.515   2.397
    1C        C  540   3.325   4.513   2.522
    1C        C  541   3.394   4.520   2.646
    1C        C  542   3.185   4.488   2.767
    1C        C  543   3.324   4.513   2.768
    1C        C  544   3.117   4.470   2.889
    1C        C  545   3.187   4.489   3.010
    1C        C  546   2.999   4.403   3.135
    1C        C  547   3.123   4.470   3.135
    1C        C  548   2.941   4.366   3.258
    1C        C  549   2.996   4.406   3.382
    1C        C  550   2.832   4.276   3.503
    1C        C  551   2.936   4.372   3.506
    1C        C  552   2.780   4.231   3.627
    1C        C  553   2.831   4.282   3.748
    1C        C  554   2.698   4.122   3.876
    1C        C  555   2.787   4.231   3.872
    1C        C  556   2.655   4.066   3.998
    1C        C  557   2.698   4.124   4.119
    1C        C  558   2.604   3.938   4.244
    1C        C  559   2.669   4.064   4.244
    1C        C  560   2.573   3.878   4.367
    1C        C  561   2.596   3.945   4.490
    1C        C  562   2.532   3.748   4.616
    1C        C  563   2.565   3.885   4.614
    1C        C  564   2.510   3.679   4.737
    1C        C  565   2.518   3.759   4.854
    1C        C  566   2.522   3.545   4.976
    1C        C  567   2.518   3.684   4.973
    1C        C  568   3.322   4.479   2.042
    1C        C  569   3.393   4.519   2.156
    1C        C  570   3.181   4.479   2.281
    1C        C  571   3.319   4.514   2.277
    1C        C  572   3.115   4.457   2.404
    1C        C  573   3.188   4.481   2.523
    1C        C  574   2.989   4.409   2.646
    1C        C  575   3.117   4.468   2.645
    1C        C  576   2.933   4.361   2.767
    1C        C  577   2.996   4.398   2.888
    1C        C  578   2.832   4.271   3.017
    1C        C  579   2.940   4.362   3.013
    1C        C  580   2.783   4.222   3.140
    1C        C  581   2.832   4.277   3.260
    1C        C  582   2.693   4.115   3.385
    1C        C  583   2.782   4.225   3.382
    1C        C  584   2.656   4.060   3.509
    1C        C  585   2.695   4.118   3.631
    1C        C  586   2.592   3.935   3.756
    1C        C  587   2.657   4.061   3.755
    1C        C  588   2.565   3.873   3.880
    1C        C  589   2.590   3.940   4.001
    1C        C  590   2.531   3.737   4.128
    1C        C  591   2.567   3.874   4.124
    1C        C  592   2.520   3.670   4.252
    1C        C  593   2.535   3.742   4.373
    1C        C  594   2.513   3.533   4.496
    1C        C  595   2.520   3.674   4.495
    1C        C  596   2.514   3.463   4.619
    1C        C  597   2.506   3.537   4.739
    1C        C  598   2.526   3.326   4.860
    1C        C  599   2.511   3.466   4.861
    1C        C  600   2.519   3.247   4.976
    1C        C  601   3.189   4.443   2.045
    1C        C  602   2.977   4.395   2.160
    1C        C  603   3.113   4.441   2.162
    1C        C  604   2.920   4.364   2.286
    1C        C  605   2.987   4.398   2.406
    1C        C  606   2.819   4.270   2.530
    1C        C  607   2.927   4.361   2.528
    1C        C  608   2.770   4.220   2.653
    1C        C  609   2.828   4.266   2.773
    1C        C  610   2.690   4.109   2.896
    1C        C  611   2.782   4.217   2.896
    1C        C  612   2.652   4.054   3.020
    1C        C  613   2.694   4.112   3.142
    1C        C  614   2.595   3.925   3.267
    1C        C  615   2.655   4.052   3.264
    1C        C  616   2.571   3.863   3.392
    1C        C  617   2.601   3.930   3.513
    1C        C  618   2.529   3.731   3.637
    1C        C  619   2.569   3.866   3.635
    1C        C  620   2.521   3.665   3.762
    1C        C  621   2.530   3.736   3.883
    1C        C  622   2.509   3.526   4.009
    1C        C  623   2.520   3.667   4.006
    1C        C  624   2.511   3.455   4.131
    1C        C  625   2.509   3.529   4.251
    1C        C  626   2.538   3.322   4.379
    1C        C  627   2.516   3.461   4.375
    1C        C  628   2.554   3.252   4.501
    1C        C  629   2.536   3.323   4.622
    1C        C  630   2.596   3.117   4.744
    1C        C  631   2.549   3.251   4.742
    1C        C  632   2.619   3.049   4.866
    1C        C  633   2.557   3.112   4.978
    1C        C  634   2.777   4.306   2.056
    1C        C  635   2.891   4.388   2.046
    1C        C  636   2.744   4.231   2.170
    1C        C  637   2.812   4.272   2.286
    1C        C  638   2.674   4.113   2.410
    1C        C  639   2.765   4.221   2.409
    1C        C  640   2.641   4.049   2.531
    1C        C  641   2.685   4.107   2.653
    1C        C  642   2.582   3.923   2.778
    1C        C  643   2.646   4.049   2.776
    1C        C  644   2.556   3.861   2.902
    1C        C  645   2.589   3.927   3.022
    1C        C  646   2.530   3.724   3.149
    1C        C  647   2.564   3.861   3.145
    1C        C  648   2.516   3.655   3.272
    1C        C  649   2.527   3.729   3.391
    1C        C  650   2.505   3.520   3.519
    1C        C  651   2.517   3.661   3.515
    1C        C  652   2.514   3.451   3.642
    1C        C  653   2.514   3.524   3.763
    1C        C  654   2.533   3.316   3.888
    1C        C  655   2.509   3.455   3.887
    1C        C  656   2.547   3.248   4.011
    1C        C  657   2.526   3.314   4.134
    1C        C  658   2.601   3.119   4.256
    1C        C  659   2.547   3.249   4.258
    1C        C  660   2.639   3.060   4.379
    1C        C  661   2.605   3.121   4.502
    1C        C  662   2.710   2.935   4.625
    1C        C  663   2.631   3.053   4.623
    1C        C  664   2.753   2.877   4.746
    1C        C  665   2.699   2.930   4.866
    1C        C  666   2.744   2.868   4.984
    1C        C  667   2.684   4.022   2.054
    1C        C  668   2.681   4.105   2.167
    1C        C  669   2.583   3.917   2.289
    1C        C  670   2.641   4.047   2.289
    1C        C  671   2.557   3.852   2.412
    1C        C  672   2.583   3.920   2.533
    1C        C  673   2.519   3.721   2.661
    1C        C  674   2.556   3.857   2.656
    1C        C  675   2.507   3.652   2.784
    1C        C  676   2.519   3.724   2.905
    1C        C  677   2.502   3.513   3.029
    1C        C  678   2.516   3.654   3.027
    1C        C  679   2.504   3.443   3.152
    1C        C  680   2.506   3.514   3.274
    1C        C  681   2.527   3.307   3.399
    1C        C  682   2.502   3.446   3.398
    1C        C  683   2.548   3.242   3.523
    1C        C  684   2.533   3.311   3.645
    1C        C  685   2.599   3.112   3.768
    1C        C  686   2.548   3.243   3.768
    1C        C  687   2.633   3.052   3.892
    1C        C  688   2.596   3.116   4.012
    1C        C  689   2.708   2.935   4.137
    1C        C  690   2.633   3.055   4.134
    1C        C  691   2.754   2.881   4.259
    1C        C  692   2.712   2.939   4.381
    1C        C  693   2.754   2.880   4.503
    1C        C  694   2.630   3.893   2.061
    1C        C  695   2.519   3.704   2.177
    1C        C  696   2.574   3.834   2.175
    1C        C  697   2.495   3.640   2.300
    1C        C  698   2.515   3.718   2.417
    1C        C  699   2.492   3.509   2.542
    1C        C  700   2.503   3.650   2.540
    1C        C  701   2.498   3.437   2.664
    1C        C  702   2.499   3.511   2.784
    1C        C  703   2.520   3.302   2.911
    1C        C  704   2.502   3.442   2.907
    1C        C  705   2.537   3.232   3.033
    1C        C  706   2.528   3.304   3.154
    1C        C  707   2.595   3.105   3.276
    1C        C  708   2.543   3.237   3.278
    1C        C  709   2.631   3.047   3.399
    1C        C  710   2.601   3.110   3.522
    1C        C  711   2.707   2.929   3.647
    1C        C  712   2.631   3.049   3.646
    1C        C  713   2.755   2.878   3.770
    1C        C  714   2.716   2.938   3.892
    1C        C  715   2.755   2.881   4.015
    1C        C  716   2.446   3.503   2.063
    1C        C  717   2.494   3.634   2.058
    1C        C  718   2.461   3.423   2.181
    1C        C  719   2.479   3.499   2.300
    1C        C  720   2.511   3.293   2.425
    1C        C  721   2.488   3.432   2.424
    1C        C  722   2.530   3.222   2.546
    1C        C  723   2.520   3.297   2.665
    1C        C  724   2.586   3.099   2.790
    1C        C  725   2.536   3.231   2.789
    1C        C  726   2.617   3.035   2.912
    1C        C  727   2.587   3.100   3.034
    1C        C  728   2.704   2.921   3.156
    1C        C  729   2.623   3.037   3.155
    1C        C  730   2.757   2.880   3.281
    1C        C  731   2.710   2.930   3.404
    1C        C  732   2.755   2.874   3.526
    1C        C  733   2.484   3.198   2.073
    1C        C  734   2.486   3.282   2.185
    1C        C  735   2.580   3.087   2.305
    1C        C  736   2.525   3.218   2.306
    1C        C  737   2.614   3.024   2.426
    1C        C  738   2.584   3.091   2.547
    1C        C  739   2.698   2.916   2.670
    1C        C  740   2.620   3.033   2.670
    1C        C  741   2.745   2.863   2.793
    1C        C  742   2.699   2.920   2.913
    1C        C  743   2.749   2.866   3.034
    1C        C  744   2.544   3.073   2.075
    1C        C  745   2.689   2.901   2.186
    1C        C  746   2.611   3.018   2.186
    1C        C  747   2.735   2.844   2.307
    1C        C  748   2.694   2.907   2.427
    1C        C  749   2.739   2.855   2.550
    1C        C  750   2.735   2.838   2.070
    1C        C  751   3.671   2.346   1.954
    1C        O  752   3.691   2.222   1.964
    1C        O  753   3.651   2.391   1.823
    1C        C  754   4.636   3.058   1.981
    1C        O  755   4.608   3.060   1.859
    1C        O  756   4.775   3.056   2.002
    1C        C  757   4.435   4.219   1.957
    1C        O  758   4.545   4.275   1.983
    1C        O  759   4.425   4.198   1.818
    1C        C  760   3.601   4.678   1.949
    1C        O  761   3.609   4.799   1.985
    1C        O  762   3.510   4.678   1.843
    1C        C  763   2.886   4.501   1.950
    1C        O  764   2.884   4.473   1.827
    1C        O  765   2.795   4.605   1.972
    1C        C  766   2.350   3.484   1.952
    1C        O  767   2.370   3.422   1.844
    1C        O  768   2.218   3.529   1.966
    1C        C  769   4.669   3.596   5.075
    1C        O  770   4.631   3.625   5.192
    1C        O  771   4.800   3.640   5.057
    1C        C  772   4.266   4.472   5.027
    1C        O  773   4.286   4.454   5.150
    1C        O  774   4.356   4.566   4.976
    1C        C  775   4.142   2.546   5.087
    1C        O  776   4.248   2.480   5.070
    1C        O  777   4.095   2.504   5.212
    1C        C  778   2.902   4.527   5.068
    1C        O  779   2.846   4.638   5.045
    1C        O  780   2.926   4.488   5.200
    1C        C  781   2.486   3.037   5.084
    1C        O  782   2.385   2.965   5.063
    1C        O  783   2.497   3.068   5.219
    1C        C  784   2.399   4.005   5.037
    1C        O  785   2.299   4.069   4.994
    1C        O  786   2.404   3.984   5.176
    1C        C  787   2.950   2.451   1.982
    1C        O  788   2.973   2.459   1.859
    1C        O  789   2.905   2.323   2.014
    1C        C  790   3.188   2.380   5.070
    1C        O  791   3.191   2.264   5.022
    1C        O  792   3.191   2.387   5.210
    1C        H  793   4.280   3.029   5.059
    1C        H  794   4.146   2.839   5.062
    1C        H  795   4.535   3.128   5.049
    1C        H  796   4.568   3.359   5.055
    1C        H  797   4.613   3.821   5.004
    1C        H  798   4.434   3.981   5.054
    1C        H  799   4.306   4.183   5.050
    1C        H  800   4.043   4.554   5.015
    1C        H  801   3.820   4.626   5.019
    1C        H  802   3.600   4.661   5.026
    1C        H  803   3.391   4.521   5.054
    1C        H  804   3.151   4.548   5.040
    1C        H  805   3.884   2.492   5.073
    1C        H  806   3.679   2.445   5.068
    1C        H  807   3.008   2.570   5.070
    1C        H  808   3.448   2.541   5.059
    1C        H  809   2.840   2.700   5.067
    1C        H  810   2.676   2.863   5.067
    1C        H  811   2.475   3.289   5.064
    1C        H  812   2.471   3.510   5.063
    1C        H  813   2.466   3.732   5.053
    1C        H  814   2.572   4.189   5.030
    1C        H  815   2.746   4.323   5.054
    1C        H  816   2.687   2.860   1.977
    1C        H  817   2.826   2.677   1.979
    1C        H  818   3.188   2.379   2.019
    1C        H  819   3.433   2.477   1.984
    1C        H  820   3.829   2.559   1.981
    1C        H  821   4.086   2.576   1.986
    1C        H  822   4.248   2.715   1.978
    1C        H  823   4.356   2.940   1.973
    1C        H  824   4.554   3.314   1.966
    1C        H  825   4.437   3.513   1.983
    1C        H  826   4.490   3.744   1.955
    1C        H  827   3.806   4.545   1.961
    1C        H  828   3.947   4.354   1.947
    1C        H  829   4.156   4.243   1.946
    1C        H  830   4.524   3.980   1.979
    1C        H  831   2.652   3.828   1.979
    1C        H  832   2.676   4.071   1.959
    1C        H  833   2.704   4.320   1.979
    1C        H  834   3.382   4.449   1.958
    1C        H  835   3.155   4.379   1.966
    1C        H  836   2.525   3.010   1.990
    1C        H  837   2.494   3.250   1.980
    1C        H  838   2.485   3.684   1.963
    2V3OU   H29  839   2.805   3.545   4.682
    2V3OU   C27  840   2.794   3.504   4.786
    2V3OU   H27  841   2.735   3.575   4.849
    2V3OU   H28  842   2.742   3.406   4.775
    2V3OU   O11  843   2.909   3.471   4.863
    2V3OU   C15  844   2.918   3.398   4.980
    2V3OU   C13  845   3.051   3.379   5.024
    2V3OU   C14  846   3.075   3.268   5.105
    2V3OU   C16  847   2.975   3.188   5.160
    2V3OU    H6  848   2.996   3.099   5.221
    2V3OU   C12  849   3.216   3.232   5.131
    2V3OU    O2  850   3.236   3.127   5.195
    2V3OU   C10  851   3.328   3.314   5.082
    2V3OU    C8  852   3.459   3.272   5.104
    2V3OU   O10  853   3.489   3.158   5.171
    2V3OU   H26  854   3.403   3.120   5.194
    2V3OU    C6  855   3.563   3.353   5.048
    2V3OU    C5  856   3.536   3.462   4.967
    2V3OU    C4  857   3.701   3.296   5.046
    2V3OU    H4  858   3.725   3.234   5.137
    2V3OU    H5  859   3.709   3.229   4.955
    2V3OU    C2  860   3.816   3.397   5.040
    2V3OU    O6  861   3.803   3.470   5.162
    2V3OU   H21  862   3.766   3.549   5.120
    2V3OU    C3  863   3.783   3.496   4.927
    2V3OU    H2  864   3.865   3.571   4.916
    2V3OU    H3  865   3.784   3.436   4.832
    2V3OU   C25  866   3.950   3.330   5.010
    2V3OU    O7  867   3.996   3.298   4.900
    2V3OU   C26  868   4.026   3.287   5.134
    2V3OU   H22  869   4.067   3.380   5.181
    2V3OU   H23  870   4.109   3.218   5.105
    2V3OU    O8  871   3.961   3.209   5.232
    2V3OU   H24  872   3.922   3.257   5.307
    2V3OU    C1  873   3.647   3.561   4.947
    2V3OU    H1  874   3.628   3.619   4.851
    2V3OU    O3  875   3.667   3.654   5.053
    2V3OU   C19  876   3.619   3.787   5.029
    2V3OU    H9  877   3.522   3.794   4.971
    2V3OU    O4  878   3.712   3.844   4.941
    2V3OU   C20  879   3.844   3.874   4.989
    2V3OU   H10  880   3.891   3.772   4.999
    2V3OU   C24  881   3.609   3.859   5.164
    2V3OU   H16  882   3.541   3.794   5.224
    2V3OU   H17  883   3.564   3.960   5.148
    2V3OU   C23  884   3.750   3.874   5.222
    2V3OU   H15  885   3.791   3.768   5.232
    2V3OU    N1  886   3.739   3.954   5.343
    2V3OU   H19  887   3.809   3.917   5.403
    2V3OU   H20  888   3.652   3.938   5.390
    2V3OU   C21  889   3.846   3.947   5.123
    2V3OU   H11  890   3.950   3.931   5.165
    2V3OU    O5  891   3.824   4.087   5.129
    2V3OU   H18  892   3.774   4.104   5.210
    2V3OU   C22  893   3.912   3.949   4.875
    2V3OU   H12  894   3.860   4.047   4.859
    2V3OU   H13  895   3.909   3.887   4.782
    2V3OU   H14  896   4.021   3.963   4.899
    2V3OU   C11  897   3.158   3.470   4.982
    2V3OU    O1  898   3.133   3.584   4.938
    2V3OU    C9  899   3.299   3.432   5.009
    2V3OU    C7  900   3.400   3.503   4.946
    2V3OU    O9  901   3.389   3.615   4.866
    2V3OU   H25  902   3.293   3.633   4.868
    2V3OU   C17  903   2.821   3.318   5.044
    2V3OU    H7  904   2.718   3.351   5.057
    2V3OU   C18  905   2.842   3.206   5.125
    2V3OU    H8  906   2.760   3.142   5.161
    3SOL     OW  907   3.064   4.108   5.120
    3SOL    HW1  908   3.093   4.151   5.206
    3SOL    HW2  909   3.020   4.177   5.062
    4SOL     OW  910   6.827   0.268   0.104
    4SOL    HW1  911   6.816   0.222   0.015
    4SOL    HW2  912   6.866   0.203   0.169
    5SOL     OW  913   4.253   0.710   1.559
    5SOL    HW1  914   4.317   0.716   1.636
    5SOL    HW2  915   4.294   0.755   1.479
    6SOL     OW  916   5.659   1.195   3.412
    6SOL    HW1  917   5.699   1.120   3.465
    6SOL    HW2  918   5.624   1.159   3.325
    7SOL     OW  919   0.847   4.469   5.457
    7SOL    HW1  920   0.810   4.527   5.384
    7SOL    HW2  921   0.900   4.395   5.416
    8SOL     OW  922   2.438   2.456   5.538
    8SOL    HW1  923   2.346   2.436   5.503
    8SOL    HW2  924   2.434   2.465   5.638
    9SOL     OW  925   6.444   1.569   6.584
    9SOL    HW1  926   6.510   1.563   6.509
    9SOL    HW2  927   6.478   1.517   6.662
   10SOL     OW  928   4.918   4.692   2.438
   10SOL    HW1  929   4.833   4.640   2.445
   10SOL    HW2  930   4.971   4.680   2.523
   11SOL     OW  931   2.103   1.067   6.786
   11SOL    HW1  932   2.061   1.104   6.703
   11SOL    HW2  933   2.202   1.077   6.781
   12SOL     OW  934   2.466   5.087   3.335
   12SOL    HW1  935   2.455   5.187   3.343
   12SOL    HW2  936   2.377   5.045   3.318
   13SOL     OW  937   4.390   6.197   2.577
   13SOL    HW1  938   4.300   6.239   2.564
   13SOL    HW2  939   4.423   6.159   2.491
   14SOL     OW  940   5.026   4.648   5.238
   14SOL    HW1  941   5.013   4.676   5.333
   14SOL    HW2  942   4.963   4.574   5.216
   15SOL     OW  943   0.812   5.937   5.883
   15SOL    HW1  944   0.879   5.999   5.843
   15SOL    HW2  945   0.737   5.989   5.924
   16SOL     OW  946   6.104   2.658   5.920
   16SOL    HW1  947   6.050   2.658   6.004
   16SOL    HW2  948   6.201   2.645   5.943
   17SOL     OW  949   6.164   0.554   5.911
   17SOL    HW1  950   6.254   0.597   5.916
   17SOL    HW2  951   6.102   0.599   5.976
   18SOL     OW  952   3.102   0.660   4.922
   18SOL    HW1  953   3.124   0.566   4.898
   18SOL    HW2  954   3.179   0.700   4.974
   19SOL     OW  955   0.868   1.672   2.870
   19SOL    HW1  956   0.860   1.695   2.967
   19SOL    HW2  957   0.964   1.662   2.846
   20SOL     OW  958   5.521   2.648   5.508
   20SOL    HW1  959   5.464   2.719   5.468
   20SOL    HW2  960   5.480   2.558   5.490
   21SOL     OW  961   3.722   6.275   3.023
   21SOL    HW1  962   3.807   6.245   3.067
   21SOL    HW2  963   3.668   6.195   2.997
   22SOL     OW  964   1.871   6.677   5.151
   22SOL    HW1  965   1.881   6.588   5.196
   22SOL    HW2  966   1.907   6.748   5.211
   23SOL     OW  967   5.350   4.537   2.051
   23SOL    HW1  968   5.440   4.516   2.012
   23SOL    HW2  969   5.311   4.454   2.090
   24SOL     OW  970   4.036   0.087   1.778
   24SOL    HW1  971   4.122   0.127   1.748
   24SOL    HW2  972   4.043   7.010   1.778
   25SOL     OW  973   2.543   6.728   3.287
   25SOL    HW1  974   2.476   6.676   3.233
   25SOL    HW2  975   2.500   6.810   3.324
   26SOL     OW  976   1.634   1.898   6.646
   26SOL    HW1  977   1.575   1.913   6.567
   26SOL    HW2  978   1.578   1.888   6.728
   27SOL     OW  979   6.302   1.046   2.219
   27SOL    HW1  980   6.282   1.108   2.144
   27SOL    HW2  981   6.263   1.081   2.304
   28SOL     OW  982   1.962   1.058   4.867
   28SOL    HW1  983   2.003   1.135   4.917
   28SOL    HW2  984   1.864   1.054   4.887
   29SOL     OW  985   0.103   0.959   0.142
   29SOL    HW1  986   0.047   1.040   0.127
   29SOL    HW2  987   0.105   0.937   0.240
   30SOL     OW  988   3.833   0.559   4.929
   30SOL    HW1  989   3.770   0.561   4.851
   30SOL    HW2  990   3.878   0.648   4.938
   31SOL     OW  991   0.146   2.733   4.878
   31SOL    HW1  992   0.183   2.802   4.815
   31SOL    HW2  993   0.160   2.642   4.840
   32SOL     OW  994   1.586   1.082   0.718
   32SOL    HW1  995   1.652   1.015   0.685
   32SOL    HW2  996   1.634   1.159   0.761
   33SOL     OW  997   0.496   3.816   6.524
   33SOL    HW1  998   0.447   3.789   6.608
   33SOL    HW2  999   0.438   3.876   6.470
   34SOL     OW 1000   1.988   5.522   5.305
   34SOL    HW1 1001   2.027   5.613   5.322
   34SOL    HW2 1002   1.964   5.479   5.392
   35SOL     OW 1003   3.647   3.193   6.797
   35SOL    HW1 1004   3.703   3.112   6.779
   35SOL    HW2 1005   3.555   3.178   6.761
   36SOL     OW 1006   4.985   0.772   4.140
   36SOL    HW1 1007   5.031   0.748   4.055
   36SOL    HW2 1008   4.959   0.869   4.137
   37SOL     OW 1009   1.947   1.655   3.724
   37SOL    HW1 1010   1.874   1.679   3.788
   37SOL    HW2 1011   2.028   1.710   3.743
   38SOL     OW 1012   1.845   5.650   1.926
   38SOL    HW1 1013   1.751   5.662   1.895
   38SOL    HW2 1014   1.862   5.553   1.946
   39SOL     OW 1015   5.714   4.863   6.581
   39SOL    HW1 1016   5.734   4.920   6.661
   39SOL    HW2 1017   5.797   4.819   6.549
   40SOL     OW 1018   3.318   0.257   6.464
   40SOL    HW1 1019   3.364   0.178   6.505
   40SOL    HW2 1020   3.288   0.235   6.372
   41SOL     OW 1021   5.670   4.175   2.207
   41SOL    HW1 1022   5.587   4.119   2.207
   41SOL    HW2 1023   5.687   4.210   2.299
   42SOL     OW 1024   3.174   5.497   4.999
   42SOL    HW1 1025   3.113   5.529   5.072
   42SOL    HW2 1026   3.179   5.566   4.927
   43SOL     OW 1027   4.504   0.077   5.290
   43SOL    HW1 1028   4.546   0.037   5.208
   43SOL    HW2 1029   4.440   0.011   5.331
   44SOL     OW 1030   5.863   3.430   4.817
   44SOL    HW1 1031   5.942   3.492   4.825
   44SOL    HW2 1032   5.895   3.340   4.789
   45SOL     OW 1033   4.030   5.902   0.564
   45SOL    HW1 1034   4.001   5.905   0.469
   45SOL    HW2 1035   3.963   5.851   0.618
   46SOL     OW 1036   0.560   3.137   4.214
   46SOL    HW1 1037   0.465   3.151   4.188
   46SOL    HW2 1038   0.619   3.155   4.135
   47SOL     OW 1039   5.228   3.487   2.015
   47SOL    HW1 1040   5.216   3.394   1.980
   47SOL    HW2 1041   5.317   3.522   1.985
   48SOL     OW 1042   7.020   3.443   6.991
   48SOL    HW1 1043   7.005   3.344   6.990
   48SOL    HW2 1044   6.932   3.490   6.990
   49SOL     OW 1045   4.786   3.208   0.218
   49SOL    HW1 1046   4.841   3.290   0.203
   49SOL    HW2 1047   4.771   3.196   0.316
   50SOL     OW 1048   6.224   1.828   6.140
   50SOL    HW1 1049   6.242   1.766   6.063
   50SOL    HW2 1050   6.189   1.914   6.106
   51SOL     OW 1051   1.977   4.619   3.210
   51SOL    HW1 1052   1.932   4.684   3.148
   51SOL    HW2 1053   2.073   4.643   3.221
   52SOL     OW 1054   5.375   3.099   1.658
   52SOL    HW1 1055   5.401   3.073   1.565
   52SOL    HW2 1056   5.342   3.018   1.707
   53SOL     OW 1057   4.833   0.258   3.020
   53SOL    HW1 1058   4.809   0.355   3.018
   53SOL    HW2 1059   4.758   0.203   2.985
   54SOL     OW 1060   5.712   5.916   0.304
   54SOL    HW1 1061   5.655   5.839   0.333
   54SOL    HW2 1062   5.745   5.965   0.385
   55SOL     OW 1063   2.406   2.470   6.577
   55SOL    HW1 1064   2.316   2.511   6.563
   55SOL    HW2 1065   2.452   2.516   6.653
   56SOL     OW 1066   1.526   1.946   6.906
   56SOL    HW1 1067   1.599   1.941   6.974
   56SOL    HW2 1068   1.474   2.030   6.919
   57SOL     OW 1069   4.032   0.869   6.954
   57SOL    HW1 1070   4.121   0.846   6.993
   57SOL    HW2 1071   3.970   0.791   6.963
   58SOL     OW 1072   0.730   0.440   6.285
   58SOL    HW1 1073   0.784   0.503   6.341
   58SOL    HW2 1074   0.716   0.355   6.336
   59SOL     OW 1075   6.502   3.649   6.411
   59SOL    HW1 1076   6.526   3.552   6.404
   59SOL    HW2 1077   6.558   3.701   6.346
   60SOL     OW 1078   5.526   0.659   3.369
   60SOL    HW1 1079   5.621   0.636   3.389
   60SOL    HW2 1080   5.482   0.696   3.451
   61SOL     OW 1081   0.589   1.388   4.395
   61SOL    HW1 1082   0.500   1.393   4.439
   61SOL    HW2 1083   0.621   1.481   4.374
   62SOL     OW 1084   0.431   1.321   2.285
   62SOL    HW1 1085   0.403   1.417   2.277
   62SOL    HW2 1086   0.447   1.284   2.194
   63SOL     OW 1087   3.721   6.060   4.141
   63SOL    HW1 1088   3.758   6.000   4.212
   63SOL    HW2 1089   3.794   6.120   4.107
   64SOL     OW 1090   1.370   3.842   6.662
   64SOL    HW1 1091   1.382   3.743   6.667
   64SOL    HW2 1092   1.457   3.888   6.678
   65SOL     OW 1093   0.600   0.471   5.083
   65SOL    HW1 1094   0.598   0.419   5.169
   65SOL    HW2 1095   0.669   0.432   5.023
   66SOL     OW 1096   3.516   6.900   2.386
   66SOL    HW1 1097   3.595   6.839   2.381
   66SOL    HW2 1098   3.455   6.869   2.458
   67SOL     OW 1099   0.520   2.012   0.832
   67SOL    HW1 1100   0.468   1.988   0.914
   67SOL    HW2 1101   0.470   1.980   0.751
   68SOL     OW 1102   6.747   2.635   5.693
   68SOL    HW1 1103   6.649   2.615   5.699
   68SOL    HW2 1104   6.766   2.721   5.741
   69SOL     OW 1105   1.269   5.323   5.975
   69SOL    HW1 1106   1.368   5.338   5.972
   69SOL    HW2 1107   1.221   5.401   5.935
   70SOL     OW 1108   5.424   3.144   4.605
   70SOL    HW1 1109   5.518   3.114   4.620
   70SOL    HW2 1110   5.421   3.213   4.534
   71SOL     OW 1111   4.483   1.938   4.597
   71SOL    HW1 1112   4.512   1.904   4.687
   71SOL    HW2 1113   4.474   2.038   4.601
   72SOL     OW 1114   0.115   0.444   4.008
   72SOL    HW1 1115   0.194   0.419   3.952
   72SOL    HW2 1116   0.136   0.429   4.104
   73SOL     OW 1117   2.782   0.399   0.570
   73SOL    HW1 1118   2.879   0.416   0.589
   73SOL    HW2 1119   2.765   0.301   0.568
   74SOL     OW 1120   2.473   1.331   6.314
   74SOL    HW1 1121   2.441   1.403   6.376
   74SOL    HW2 1122   2.560   1.360   6.273
   75SOL     OW 1123   4.232   1.372   1.127
   75SOL    HW1 1124   4.155   1.313   1.153
   75SOL    HW2 1125   4.216   1.464   1.162
   76SOL     OW 1126   3.045   4.295   5.345
   76SOL    HW1 1127   3.074   4.363   5.411
   76SOL    HW2 1128   2.985   4.337   5.277
   77SOL     OW 1129   2.211   5.317   4.515
   77SOL    HW1 1130   2.310   5.310   4.499
   77SOL    HW2 1131   2.165   5.333   4.428
   78SOL     OW 1132   4.340   1.578   1.392
   78SOL    HW1 1133   4.249   1.596   1.354
   78SOL    HW2 1134   4.341   1.488   1.437
   79SOL     OW 1135   2.226   4.970   1.689
   79SOL    HW1 1136   2.315   5.013   1.699
   79SOL    HW2 1137   2.195   4.934   1.777
   80SOL     OW 1138   4.750   2.185   4.848
   80SOL    HW1 1139   4.815   2.261   4.837
   80SOL    HW2 1140   4.800   2.098   4.845
   81SOL     OW 1141   2.130   6.423   1.019
   81SOL    HW1 1142   2.133   6.333   0.975
   81SOL    HW2 1143   2.185   6.422   1.102
   82SOL     OW 1144   0.888   5.646   1.730
   82SOL    HW1 1145   0.981   5.634   1.765
   82SOL    HW2 1146   0.855   5.738   1.754
   83SOL     OW 1147   5.900   1.921   5.795
   83SOL    HW1 1148   5.916   1.826   5.769
   83SOL    HW2 1149   5.938   1.938   5.886
   84SOL     OW 1150   6.547   3.216   3.787
   84SOL    HW1 1151   6.624   3.162   3.754
   84SOL    HW2 1152   6.549   3.306   3.743
   85SOL     OW 1153   1.753   6.816   3.861
   85SOL    HW1 1154   1.762   6.841   3.958
   85SOL    HW2 1155   1.679   6.869   3.820
   86SOL     OW 1156   5.633   1.433   6.337
   86SOL    HW1 1157   5.617   1.360   6.270
   86SOL    HW2 1158   5.714   1.410   6.391
   87SOL     OW 1159   4.359   4.669   6.611
   87SOL    HW1 1160   4.391   4.702   6.523
   87SOL    HW2 1161   4.394   4.729   6.684
   88SOL     OW 1162   2.872   2.995   5.948
   88SOL    HW1 1163   2.927   2.919   5.916
   88SOL    HW2 1164   2.781   2.962   5.975
   89SOL     OW 1165   3.384   3.008   2.740
   89SOL    HW1 1166   3.309   3.070   2.719
   89SOL    HW2 1167   3.418   2.967   2.655
   90SOL     OW 1168   4.879   3.432   2.936
   90SOL    HW1 1169   4.883   3.505   3.003
   90SOL    HW2 1170   4.786   3.395   2.932
   91SOL     OW 1171   5.785   5.375   5.842
   91SOL    HW1 1172   5.746   5.287   5.871
   91SOL    HW2 1173   5.847   5.360   5.766
   92SOL     OW 1174   5.160   4.684   0.174
   92SOL    HW1 1175   5.223   4.622   0.220
   92SOL    HW2 1176   5.085   4.632   0.134
   93SOL     OW 1177   2.722   2.871   0.961
   93SOL    HW1 1178   2.747   2.933   0.887
   93SOL    HW2 1179   2.805   2.834   1.003
   94SOL     OW 1180   2.849   0.101   6.113
   94SOL    HW1 1181   2.774   0.165   6.097
   94SOL    HW2 1182   2.820   0.032   6.180
   95SOL     OW 1183   0.094   0.859   4.474
   95SOL    HW1 1184   0.022   0.798   4.507
   95SOL    HW2 1185   0.183   0.826   4.505
   96SOL     OW 1186   5.006   5.009   6.610
   96SOL    HW1 1187   5.078   5.040   6.672
   96SOL    HW2 1188   4.987   4.912   6.627
   97SOL     OW 1189   1.809   4.977   5.574
   97SOL    HW1 1190   1.736   4.924   5.530
   97SOL    HW2 1191   1.876   4.914   5.613
   98SOL     OW 1192   0.847   2.509   2.346
   98SOL    HW1 1193   0.941   2.544   2.348
   98SOL    HW2 1194   0.825   2.468   2.435
   99SOL     OW 1195   3.667   3.225   3.624
   99SOL    HW1 1196   3.728   3.193   3.551
   99SOL    HW2 1197   3.574   3.234   3.588
  100SOL     OW 1198   6.957   6.968   4.216
  100SOL    HW1 1199   7.000   6.896   4.272
  100SOL    HW2 1200   6.908   6.925   4.140
  101SOL     OW 1201   0.850   4.422   2.614
  101SOL    HW1 1202   0.927   4.367   2.645
  101SOL    HW2 1203   0.768   4.366   2.609
  102SOL     OW 1204   2.910   6.270   1.703
  102SOL    HW1 1205   2.988   6.207   1.717
  102SOL    HW2 1206   2.854   6.236   1.628
  103SOL     OW 1207   1.952   1.415   2.192
  103SOL    HW1 1208   1.984   1.455   2.278
  103SOL    HW2 1209   2.021   1.429   2.121
  104SOL     OW 1210   1.149   4.031   1.805
  104SOL    HW1 1211   1.249   4.029   1.798
  104SOL    HW2 1212   1.112   4.088   1.732
  105SOL     OW 1213   5.603   2.013   6.656
  105SOL    HW1 1214   5.656   2.053   6.731
  105SOL    HW2 1215   5.511   1.992   6.688
  106SOL     OW 1216   5.186   5.197   1.684
  106SOL    HW1 1217   5.112   5.130   1.682
  106SOL    HW2 1218   5.262   5.165   1.627
  107SOL     OW 1219   6.650   1.462   0.344
  107SOL    HW1 1220   6.610   1.488   0.256
  107SOL    HW2 1221   6.576   1.449   0.410
  108SOL     OW 1222   1.709   0.651   4.943
  108SOL    HW1 1223   1.711   0.610   5.034
  108SOL    HW2 1224   1.774   0.604   4.883
  109SOL     OW 1225   3.565   1.030   3.455
  109SOL    HW1 1226   3.651   1.075   3.479
  109SOL    HW2 1227   3.569   0.997   3.361
  110SOL     OW 1228   2.723   4.399   5.783
  110SOL    HW1 1229   2.694   4.355   5.868
  110SOL    HW2 1230   2.647   4.400   5.718
  111SOL     OW 1231   5.669   1.576   2.410
  111SOL    HW1 1232   5.577   1.616   2.414
  111SOL    HW2 1233   5.662   1.480   2.385
  112SOL     OW 1234   4.369   0.081   6.886
  112SOL    HW1 1235   4.409   0.133   6.810
  112SOL    HW2 1236   4.270   0.073   6.873
  113SOL     OW 1237   6.292   6.132   2.553
  113SOL    HW1 1238   6.382   6.088   2.549
  113SOL    HW2 1239   6.296   6.211   2.614
  114SOL     OW 1240   1.350   4.174   3.948
  114SOL    HW1 1241   1.339   4.224   3.862
  114SOL    HW2 1242   1.398   4.231   4.015
  115SOL     OW 1243   5.852   0.885   3.335
  115SOL    HW1 1244   5.814   0.956   3.275
  115SOL    HW2 1245   5.950   0.899   3.344
  116SOL     OW 1246   0.890   5.822   0.914
  116SOL    HW1 1247   0.927   5.824   1.007
  116SOL    HW2 1248   0.876   5.728   0.884
  117SOL     OW 1249   2.762   1.599   0.057
  117SOL    HW1 1250   2.687   1.535   0.041
  117SOL    HW2 1251   2.849   1.551   0.045
  118SOL     OW 1252   0.983   1.439   3.371
  118SOL    HW1 1253   1.031   1.515   3.327
  118SOL    HW2 1254   1.040   1.402   3.444
  119SOL     OW 1255   6.763   6.801   6.699
  119SOL    HW1 1256   6.768   6.728   6.631
  119SOL    HW2 1257   6.681   6.856   6.684
  120SOL     OW 1258   4.688   0.859   5.229
  120SOL    HW1 1259   4.643   0.779   5.271
  120SOL    HW2 1260   4.773   0.830   5.186
  121SOL     OW 1261   1.234   3.437   6.649
  121SOL    HW1 1262   1.236   3.347   6.693
  121SOL    HW2 1263   1.139   3.465   6.637
  122SOL     OW 1264   1.295   4.219   6.977
  122SOL    HW1 1265   1.283   4.128   6.938
  122SOL    HW2 1266   1.301   4.287   6.904
  123SOL     OW 1267   1.312   1.365   1.321
  123SOL    HW1 1268   1.223   1.319   1.324
  123SOL    HW2 1269   1.322   1.412   1.234
  124SOL     OW 1270   2.921   1.911   1.157
  124SOL    HW1 1271   2.893   1.992   1.209
  124SOL    HW2 1272   2.840   1.869   1.117
  125SOL     OW 1273   3.189   2.673   6.693
  125SOL    HW1 1274   3.193   2.718   6.604
  125SOL    HW2 1275   3.239   2.727   6.760
  126SOL     OW 1276   3.650   2.958   3.713
  126SOL    HW1 1277   3.689   2.871   3.683
  126SOL    HW2 1278   3.675   3.030   3.649
  127SOL     OW 1279   0.104   6.006   6.114
  127SOL    HW1 1280   0.171   5.997   6.041
  127SOL    HW2 1281   0.146   6.052   6.193
  128SOL     OW 1282   4.717   3.869   1.610
  128SOL    HW1 1283   4.636   3.924   1.632
  128SOL    HW2 1284   4.709   3.779   1.654
  129SOL     OW 1285   2.034   6.181   0.904
  129SOL    HW1 1286   2.059   6.140   0.816
  129SOL    HW2 1287   2.029   6.110   0.974
  130SOL     OW 1288   5.437   1.960   4.769
  130SOL    HW1 1289   5.452   1.889   4.700
  130SOL    HW2 1290   5.493   2.040   4.747
  131SOL     OW 1291   0.579   2.177   3.792
  131SOL    HW1 1292   0.505   2.113   3.810
  131SOL    HW2 1293   0.650   2.168   3.862
  132SOL     OW 1294   3.308   4.156   1.863
  132SOL    HW1 1295   3.294   4.085   1.794
  132SOL    HW2 1296   3.333   4.114   1.950
  133SOL     OW 1297   5.313   6.845   4.863
  133SOL    HW1 1298   5.255   6.823   4.784
  133SOL    HW2 1299   5.316   6.944   4.876
  134SOL     OW 1300   5.983   0.982   2.046
  134SOL    HW1 1301   5.959   1.057   2.108
  134SOL    HW2 1302   5.901   0.951   1.998
  135SOL     OW 1303   4.891   3.673   4.313
  135SOL    HW1 1304   4.876   3.731   4.393
  135SOL    HW2 1305   4.961   3.715   4.255
  136SOL     OW 1306   2.468   6.710   4.514
  136SOL    HW1 1307   2.445   6.806   4.527
  136SOL    HW2 1308   2.558   6.702   4.473
  137SOL     OW 1309   3.296   2.107   4.850
  137SOL    HW1 1310   3.271   2.180   4.913
  137SOL    HW2 1311   3.239   2.026   4.867
  138SOL     OW 1312   0.810   5.558   4.813
  138SOL    HW1 1313   0.857   5.472   4.832
  138SOL    HW2 1314   0.858   5.606   4.740
  139SOL     OW 1315   2.285   6.155   6.466
  139SOL    HW1 1316   2.200   6.185   6.421
  139SOL    HW2 1317   2.272   6.063   6.502
  140SOL     OW 1318   2.609   0.972   3.102
  140SOL    HW1 1319   2.596   0.873   3.097
  140SOL    HW2 1320   2.592   1.003   3.195
  141SOL     OW 1321   6.682   4.207   0.436
  141SOL    HW1 1322   6.582   4.208   0.433
  141SOL    HW2 1323   6.718   4.216   0.343
  142SOL     OW 1324   0.978   4.155   1.609
  142SOL    HW1 1325   0.972   4.087   1.536
  142SOL    HW2 1326   0.954   4.245   1.572
  143SOL     OW 1327   5.603   6.982   1.685
  143SOL    HW1 1328   5.686   0.012   1.664
  143SOL    HW2 1329   5.612   6.940   1.775
  144SOL     OW 1330   2.702   4.694   3.715
  144SOL    HW1 1331   2.727   4.597   3.716
  144SOL    HW2 1332   2.761   4.744   3.778
  145SOL     OW 1333   6.803   4.857   2.600
  145SOL    HW1 1334   6.855   4.771   2.602
  145SOL    HW2 1335   6.712   4.839   2.562
  146SOL     OW 1336   6.314   1.899   5.802
  146SOL    HW1 1337   6.397   1.864   5.845
  146SOL    HW2 1338   6.234   1.850   5.838
  147SOL     OW 1339   4.986   1.319   5.308
  147SOL    HW1 1340   4.893   1.284   5.300
  147SOL    HW2 1341   4.986   1.417   5.286
  148SOL     OW 1342   1.645   4.592   1.266
  148SOL    HW1 1343   1.644   4.493   1.258
  148SOL    HW2 1344   1.556   4.623   1.300
  149SOL     OW 1345   2.593   2.308   5.368
  149SOL    HW1 1346   2.507   2.349   5.399
  149SOL    HW2 1347   2.663   2.379   5.360
  150SOL     OW 1348   4.589   1.231   5.602
  150SOL    HW1 1349   4.494   1.202   5.589
  150SOL    HW2 1350   4.645   1.195   5.527
  151SOL     OW 1351   4.308   2.175   0.983
  151SOL    HW1 1352   4.383   2.217   1.034
  151SOL    HW2 1353   4.305   2.077   1.003
  152SOL     OW 1354   1.079   1.108   0.072
  152SOL    HW1 1355   1.091   1.132   6.998
  152SOL    HW2 1356   1.169   1.093   0.114
  153SOL     OW 1357   2.512   1.316   3.832
  153SOL    HW1 1358   2.429   1.323   3.887
  153SOL    HW2 1359   2.540   1.407   3.802
  154SOL     OW 1360   6.228   2.119   1.347
  154SOL    HW1 1361   6.250   2.128   1.444
  154SOL    HW2 1362   6.145   2.171   1.327
  155SOL     OW 1363   0.453   0.093   2.218
  155SOL    HW1 1364   0.477   0.108   2.123
  155SOL    HW2 1365   0.401   0.171   2.252
  156SOL     OW 1366   4.517   0.871   0.135
  156SOL    HW1 1367   4.507   0.956   0.187
  156SOL    HW2 1368   4.551   0.893   0.043
  157SOL     OW 1369   5.020   4.043   0.500
  157SOL    HW1 1370   5.068   3.987   0.434
  157SOL    HW2 1371   5.031   4.004   0.591
  158SOL     OW 1372   1.314   3.033   2.569
  158SOL    HW1 1373   1.247   3.067   2.635
  158SOL    HW2 1374   1.342   3.108   2.508
  159SOL     OW 1375   4.971   5.605   0.556
  159SOL    HW1 1376   4.942   5.529   0.499
  159SOL    HW2 1377   4.940   5.591   0.650
  160SOL     OW 1378   5.998   0.358   0.647
  160SOL    HW1 1379   5.930   0.375   0.718
  160SOL    HW2 1380   5.971   0.405   0.563
  161SOL     OW 1381   0.975   6.925   0.180
  161SOL    HW1 1382   0.946   6.831   0.198
  161SOL    HW2 1383   1.000   6.969   0.266
  162SOL     OW 1384   2.450   6.469   0.052
  162SOL    HW1 1385   2.536   6.466   0.103
  162SOL    HW2 1386   2.444   6.556   0.002
  163SOL     OW 1387   6.379   4.114   3.636
  163SOL    HW1 1388   6.337   4.067   3.558
  163SOL    HW2 1389   6.327   4.196   3.657
  164SOL     OW 1390   1.617   1.718   2.792
  164SOL    HW1 1391   1.599   1.648   2.861
  164SOL    HW2 1392   1.576   1.689   2.705
  165SOL     OW 1393   0.923   5.558   2.546
  165SOL    HW1 1394   1.011   5.553   2.593
  165SOL    HW2 1395   0.939   5.567   2.447
  166SOL     OW 1396   6.346   4.127   2.319
  166SOL    HW1 1397   6.427   4.169   2.360
  166SOL    HW2 1398   6.331   4.166   2.228
  167SOL     OW 1399   5.139   1.652   0.605
  167SOL    HW1 1400   5.234   1.641   0.579
  167SOL    HW2 1401   5.084   1.675   0.525
  168SOL     OW 1402   4.904   3.736   2.170
  168SOL    HW1 1403   4.870   3.649   2.205
  168SOL    HW2 1404   4.952   3.720   2.084
  169SOL     OW 1405   5.949   2.972   1.162
  169SOL    HW1 1406   5.903   2.966   1.251
  169SOL    HW2 1407   5.983   2.882   1.135
  170SOL     OW 1408   1.276   5.330   2.943
  170SOL    HW1 1409   1.305   5.324   3.038
  170SOL    HW2 1410   1.207   5.402   2.933
  171SOL     OW 1411   2.570   3.536   0.659
  171SOL    HW1 1412   2.591   3.456   0.716
  171SOL    HW2 1413   2.574   3.510   0.563
  172SOL     OW 1414   5.860   2.201   1.898
  172SOL    HW1 1415   5.764   2.194   1.869
  172SOL    HW2 1416   5.869   2.170   1.992
  173SOL     OW 1417   6.517   1.635   5.098
  173SOL    HW1 1418   6.569   1.717   5.121
  173SOL    HW2 1419   6.569   1.554   5.124
  174SOL     OW 1420   5.536   5.650   5.041
  174SOL    HW1 1421   5.620   5.690   5.078
  174SOL    HW2 1422   5.552   5.554   5.020
  175SOL     OW 1423   1.626   0.632   0.585
  175SOL    HW1 1424   1.720   0.628   0.551
  175SOL    HW2 1425   1.576   0.705   0.537
  176SOL     OW 1426   5.075   4.853   2.262
  176SOL    HW1 1427   5.006   4.800   2.313
  176SOL    HW2 1428   5.040   4.945   2.245
  177SOL     OW 1429   5.768   1.864   4.654
  177SOL    HW1 1430   5.708   1.898   4.581
  177SOL    HW2 1431   5.742   1.770   4.677
  178SOL     OW 1432   2.263   6.405   4.791
  178SOL    HW1 1433   2.335   6.464   4.827
  178SOL    HW2 1434   2.249   6.426   4.694
  179SOL     OW 1435   4.278   5.323   0.399
  179SOL    HW1 1436   4.376   5.344   0.407
  179SOL    HW2 1437   4.235   5.389   0.339
  180SOL     OW 1438   3.943   0.193   1.110
  180SOL    HW1 1439   3.971   0.270   1.053
  180SOL    HW2 1440   3.999   0.113   1.088
  181SOL     OW 1441   3.366   2.299   5.387
  181SOL    HW1 1442   3.456   2.339   5.396
  181SOL    HW2 1443   3.310   2.355   5.325
  182SOL     OW 1444   5.587   2.571   0.202
  182SOL    HW1 1445   5.667   2.631   0.197
  182SOL    HW2 1446   5.547   2.560   0.110
  183SOL     OW 1447   3.634   1.533   4.525
  183SOL    HW1 1448   3.648   1.513   4.428
  183SOL    HW2 1449   3.597   1.626   4.534
  184SOL     OW 1450   0.263   6.426   3.583
  184SOL    HW1 1451   0.243   6.329   3.576
  184SOL    HW2 1452   0.362   6.440   3.592
  185SOL     OW 1453   0.625   1.916   3.939
  185SOL    HW1 1454   0.538   1.866   3.932
  185SOL    HW2 1455   0.646   1.931   4.036
  186SOL     OW 1456   5.439   5.306   4.505
  186SOL    HW1 1457   5.387   5.322   4.421
  186SOL    HW2 1458   5.380   5.324   4.584
  187SOL     OW 1459   4.089   5.674   2.728
  187SOL    HW1 1460   4.024   5.750   2.732
  187SOL    HW2 1461   4.168   5.695   2.785
  188SOL     OW 1462   2.356   2.114   2.507
  188SOL    HW1 1463   2.387   2.206   2.483
  188SOL    HW2 1464   2.374   2.097   2.604
  189SOL     OW 1465   6.460   5.502   6.808
  189SOL    HW1 1466   6.545   5.457   6.833
  189SOL    HW2 1467   6.385   5.465   6.864
  190SOL     OW 1468   6.187   5.916   0.449
  190SOL    HW1 1469   6.197   5.853   0.372
  190SOL    HW2 1470   6.098   5.901   0.493
  191SOL     OW 1471   6.407   0.623   6.181
  191SOL    HW1 1472   6.416   0.629   6.281
  191SOL    HW2 1473   6.325   0.672   6.152
  192SOL     OW 1474   0.048   5.034   1.224
  192SOL    HW1 1475   0.019   5.126   1.250
  192SOL    HW2 1476   0.031   4.971   1.299
  193SOL     OW 1477   3.321   5.001   6.596
  193SOL    HW1 1478   3.397   4.952   6.554
  193SOL    HW2 1479   3.353   5.052   6.676
  194SOL     OW 1480   3.871   6.547   1.935
  194SOL    HW1 1481   3.844   6.637   1.900
  194SOL    HW2 1482   3.794   6.484   1.929
  195SOL     OW 1483   3.256   0.860   1.523
  195SOL    HW1 1484   3.281   0.793   1.453
  195SOL    HW2 1485   3.335   0.919   1.542
  196SOL     OW 1486   2.357   1.074   6.311
  196SOL    HW1 1487   2.389   1.167   6.325
  196SOL    HW2 1488   2.360   1.053   6.213
  197SOL     OW 1489   2.123   6.190   0.095
  197SOL    HW1 1490   2.131   6.282   0.135
  197SOL    HW2 1491   2.123   6.198   7.018
  198SOL     OW 1492   4.280   5.836   0.600
  198SOL    HW1 1493   4.271   5.757   0.540
  198SOL    HW2 1494   4.191   5.881   0.609
  199SOL     OW 1495   5.434   0.223   2.471
  199SOL    HW1 1496   5.381   0.286   2.416
  199SOL    HW2 1497   5.406   0.230   2.567
  200SOL     OW 1498   1.062   3.930   2.336
  200SOL    HW1 1499   1.069   3.846   2.283
  200SOL    HW2 1500   1.153   3.955   2.371
  201SOL     OW 1501   2.761   0.932   6.824
  201SOL    HW1 1502   2.799   1.015   6.865
  201SOL    HW2 1503   2.804   0.851   6.865
  202SOL     OW 1504   4.535   6.755   3.942
  202SOL    HW1 1505   4.438   6.739   3.925
  202SOL    HW2 1506   4.547   6.839   3.995
  203SOL     OW 1507   5.084   3.370   6.169
  203SOL    HW1 1508   5.035   3.417   6.096
  203SOL    HW2 1509   5.181   3.390   6.163
  204SOL     OW 1510   1.682   0.070   0.433
  204SOL    HW1 1511   1.664   0.143   0.367
  204SOL    HW2 1512   1.739   0.106   0.507
  205SOL     OW 1513   6.585   1.533   1.050
  205SOL    HW1 1514   6.594   1.586   0.966
  205SOL    HW2 1515   6.506   1.565   1.102
  206SOL     OW 1516   0.565   4.668   1.078
  206SOL    HW1 1517   0.624   4.666   1.158
  206SOL    HW2 1518   0.620   4.652   0.996
  207SOL     OW 1519   4.142   0.370   5.939
  207SOL    HW1 1520   4.193   0.451   5.968
  207SOL    HW2 1521   4.049   0.397   5.912
  208SOL     OW 1522   5.134   4.923   5.582
  208SOL    HW1 1523   5.210   4.934   5.647
  208SOL    HW2 1524   5.149   4.840   5.528
  209SOL     OW 1525   0.316   6.272   5.718
  209SOL    HW1 1526   0.217   6.273   5.728
  209SOL    HW2 1527   0.352   6.184   5.751
  210SOL     OW 1528   3.939   2.145   2.038
  210SOL    HW1 1529   3.845   2.170   2.014
  210SOL    HW2 1530   3.987   2.226   2.072
  211SOL     OW 1531   0.777   1.284   1.600
  211SOL    HW1 1532   0.715   1.361   1.617
  211SOL    HW2 1533   0.749   1.205   1.655
  212SOL     OW 1534   0.725   4.614   3.363
  212SOL    HW1 1535   0.750   4.638   3.457
  212SOL    HW2 1536   0.714   4.698   3.310
  213SOL     OW 1537   4.991   1.088   0.383
  213SOL    HW1 1538   4.991   1.183   0.414
  213SOL    HW2 1539   5.034   1.031   0.452
  214SOL     OW 1540   0.609   6.650   3.235
  214SOL    HW1 1541   0.597   6.702   3.319
  214SOL    HW2 1542   0.652   6.562   3.256
  215SOL     OW 1543   3.935   3.397   1.702
  215SOL    HW1 1544   3.839   3.405   1.729
  215SOL    HW2 1545   3.940   3.362   1.608
  216SOL     OW 1546   1.403   0.026   4.738
  216SOL    HW1 1547   1.419   7.022   4.833
  216SOL    HW2 1548   1.314   7.014   4.709
  217SOL     OW 1549   1.836   2.855   4.245
  217SOL    HW1 1550   1.922   2.841   4.294
  217SOL    HW2 1551   1.775   2.911   4.301
  218SOL     OW 1552   1.247   2.442   4.393
  218SOL    HW1 1553   1.341   2.454   4.360
  218SOL    HW2 1554   1.211   2.356   4.358
  219SOL     OW 1555   3.614   4.258   0.661
  219SOL    HW1 1556   3.714   4.246   0.664
  219SOL    HW2 1557   3.570   4.168   0.655
  220SOL     OW 1558   2.602   5.552   6.677
  220SOL    HW1 1559   2.655   5.637   6.676
  220SOL    HW2 1560   2.514   5.568   6.723
  221SOL     OW 1561   5.154   3.276   3.955
  221SOL    HW1 1562   5.072   3.252   3.902
  221SOL    HW2 1563   5.163   3.375   3.958
  222SOL     OW 1564   1.542   5.444   5.072
  222SOL    HW1 1565   1.511   5.419   5.164
  222SOL    HW2 1566   1.612   5.380   5.042
  223SOL     OW 1567   6.896   3.579   2.130
  223SOL    HW1 1568   6.856   3.667   2.102
  223SOL    HW2 1569   6.962   3.595   2.204
  224SOL     OW 1570   2.687   2.254   2.191
  224SOL    HW1 1571   2.764   2.272   2.130
  224SOL    HW2 1572   2.700   2.164   2.235
  225SOL     OW 1573   5.501   1.064   0.323
  225SOL    HW1 1574   5.456   1.127   0.261
  225SOL    HW2 1575   5.599   1.087   0.329
  226SOL     OW 1576   1.170   6.688   0.779
  226SOL    HW1 1577   1.236   6.635   0.727
  226SOL    HW2 1578   1.132   6.631   0.852
  227SOL     OW 1579   1.874   3.721   3.236
  227SOL    HW1 1580   1.957   3.740   3.288
  227SOL    HW2 1581   1.807   3.678   3.296
  228SOL     OW 1582   3.932   6.789   4.064
  228SOL    HW1 1583   4.023   6.829   4.050
  228SOL    HW2 1584   3.897   6.814   4.154
  229SOL     OW 1585   6.322   5.516   1.289
  229SOL    HW1 1586   6.392   5.504   1.219
  229SOL    HW2 1587   6.334   5.604   1.335
  230SOL     OW 1588   2.228   4.107   4.725
  230SOL    HW1 1589   2.144   4.054   4.715
  230SOL    HW2 1590   2.275   4.081   4.809
  231SOL     OW 1591   6.736   2.900   6.248
  231SOL    HW1 1592   6.730   2.806   6.282
  231SOL    HW2 1593   6.648   2.927   6.208
  232SOL     OW 1594   1.656   3.658   6.463
  232SOL    HW1 1595   1.636   3.632   6.557
  232SOL    HW2 1596   1.613   3.594   6.400
  233SOL     OW 1597   2.585   1.081   5.642
  233SOL    HW1 1598   2.623   1.144   5.709
  233SOL    HW2 1599   2.535   1.008   5.689
  234SOL     OW 1600   2.778   5.249   6.954
  234SOL    HW1 1601   2.770   5.164   7.005
  234SOL    HW2 1602   2.827   5.317   7.009
  235SOL     OW 1603   3.373   2.904   3.966
  235SOL    HW1 1604   3.373   2.841   4.043
  235SOL    HW2 1605   3.290   2.960   3.969
  236SOL     OW 1606   6.131   2.935   5.921
  236SOL    HW1 1607   6.125   2.835   5.924
  236SOL    HW2 1608   6.065   2.974   5.985
  237SOL     OW 1609   6.929   6.778   1.506
  237SOL    HW1 1610   6.856   6.712   1.488
  237SOL    HW2 1611   7.011   6.750   1.456
  238SOL     OW 1612   5.649   3.340   2.060
  238SOL    HW1 1613   5.574   3.340   2.126
  238SOL    HW2 1614   5.630   3.407   1.988
  239SOL     OW 1615   6.696   5.936   6.946
  239SOL    HW1 1616   6.646   5.861   6.902
  239SOL    HW2 1617   6.793   5.915   6.947
  240SOL     OW 1618   0.737   3.909   6.473
  240SOL    HW1 1619   0.655   3.855   6.494
  240SOL    HW2 1620   0.810   3.849   6.441
  241SOL     OW 1621   0.253   1.220   3.775
  241SOL    HW1 1622   0.340   1.183   3.809
  241SOL    HW2 1623   0.263   1.248   3.680
  242SOL     OW 1624   1.458   3.637   4.907
  242SOL    HW1 1625   1.482   3.541   4.920
  242SOL    HW2 1626   1.542   3.691   4.899
  243SOL     OW 1627   5.219   0.397   6.276
  243SOL    HW1 1628   5.172   0.357   6.355
  243SOL    HW2 1629   5.159   0.393   6.196
  244SOL     OW 1630   5.024   1.581   5.261
  244SOL    HW1 1631   5.069   1.647   5.321
  244SOL    HW2 1632   4.982   1.630   5.184
  245SOL     OW 1633   6.210   2.432   4.924
  245SOL    HW1 1634   6.214   2.447   5.023
  245SOL    HW2 1635   6.142   2.361   4.904
  246SOL     OW 1636   4.958   3.921   3.492
  246SOL    HW1 1637   4.896   3.848   3.519
  246SOL    HW2 1638   5.049   3.903   3.530
  247SOL     OW 1639   2.472   1.241   3.483
  247SOL    HW1 1640   2.539   1.168   3.502
  247SOL    HW2 1641   2.396   1.234   3.547
  248SOL     OW 1642   4.601   1.754   4.378
  248SOL    HW1 1643   4.673   1.787   4.316
  248SOL    HW2 1644   4.580   1.825   4.445
  249SOL     OW 1645   3.396   6.556   4.485
  249SOL    HW1 1646   3.383   6.457   4.482
  249SOL    HW2 1647   3.344   6.599   4.411
  250SOL     OW 1648   5.207   2.969   5.221
  250SOL    HW1 1649   5.110   2.972   5.247
  250SOL    HW2 1650   5.258   2.915   5.288
  251SOL     OW 1651   4.955   2.968   6.509
  251SOL    HW1 1652   4.875   2.945   6.453
  251SOL    HW2 1653   5.026   2.899   6.497
  252SOL     OW 1654   6.228   1.091   6.012
  252SOL    HW1 1655   6.275   1.168   5.969
  252SOL    HW2 1656   6.151   1.063   5.954
  253SOL     OW 1657   2.489   3.130   0.536
  253SOL    HW1 1658   2.390   3.120   0.524
  253SOL    HW2 1659   2.509   3.158   0.630
  254SOL     OW 1660   6.632   3.801   4.519
  254SOL    HW1 1661   6.582   3.718   4.497
  254SOL    HW2 1662   6.720   3.778   4.559
  255SOL     OW 1663   3.146   2.148   3.520
  255SOL    HW1 1664   3.198   2.137   3.435
  255SOL    HW2 1665   3.064   2.202   3.503
  256SOL     OW 1666   6.152   5.308   6.439
  256SOL    HW1 1667   6.054   5.325   6.442
  256SOL    HW2 1668   6.175   5.265   6.351
  257SOL     OW 1669   2.704   5.607   6.005
  257SOL    HW1 1670   2.769   5.569   6.070
  257SOL    HW2 1671   2.726   5.576   5.913
  258SOL     OW 1672   5.016   4.350   4.371
  258SOL    HW1 1673   4.949   4.279   4.394
  258SOL    HW2 1674   4.995   4.388   4.281
  259SOL     OW 1675   1.581   3.290   2.628
  259SOL    HW1 1676   1.512   3.357   2.657
  259SOL    HW2 1677   1.616   3.242   2.708
  260SOL     OW 1678   5.454   0.231   6.712
  260SOL    HW1 1679   5.396   0.180   6.649
  260SOL    HW2 1680   5.400   0.302   6.758
  261SOL     OW 1681   0.444   4.438   1.935
  261SOL    HW1 1682   0.475   4.525   1.898
  261SOL    HW2 1683   0.523   4.379   1.952
  262SOL     OW 1684   1.257   2.891   2.273
  262SOL    HW1 1685   1.266   2.844   2.361
  262SOL    HW2 1686   1.244   2.988   2.289
  263SOL     OW 1687   0.799   2.523   4.636
  263SOL    HW1 1688   0.779   2.569   4.549
  263SOL    HW2 1689   0.879   2.464   4.626
  264SOL     OW 1690   0.863   3.784   6.042
  264SOL    HW1 1691   0.904   3.860   6.092
  264SOL    HW2 1692   0.935   3.723   6.008
  265SOL     OW 1693   5.081   4.730   3.980
  265SOL    HW1 1694   5.117   4.735   4.073
  265SOL    HW2 1695   5.155   4.709   3.916
  266SOL     OW 1696   4.270   1.751   0.892
  266SOL    HW1 1697   4.208   1.676   0.914
  266SOL    HW2 1698   4.270   1.767   0.794
  267SOL     OW 1699   2.005   2.370   5.741
  267SOL    HW1 1700   1.977   2.384   5.646
  267SOL    HW2 1701   2.095   2.411   5.756
  268SOL     OW 1702   4.468   4.524   4.592
  268SOL    HW1 1703   4.558   4.548   4.629
  268SOL    HW2 1704   4.417   4.608   4.573
  269SOL     OW 1705   1.460   1.989   6.458
  269SOL    HW1 1706   1.494   2.076   6.421
  269SOL    HW2 1707   1.396   2.007   6.533
  270SOL     OW 1708   5.440   0.771   2.919
  270SOL    HW1 1709   5.509   0.840   2.897
  270SOL    HW2 1710   5.435   0.758   3.018
  271SOL     OW 1711   1.603   0.452   0.793
  271SOL    HW1 1712   1.677   0.479   0.855
  271SOL    HW2 1713   1.602   0.512   0.714
  272SOL     OW 1714   3.717   5.452   3.574
  272SOL    HW1 1715   3.694   5.356   3.562
  272SOL    HW2 1716   3.657   5.508   3.517
  273SOL     OW 1717   1.864   6.046   4.821
  273SOL    HW1 1718   1.837   6.111   4.893
  273SOL    HW2 1719   1.808   5.964   4.829
  274SOL     OW 1720   6.125   2.554   2.808
  274SOL    HW1 1721   6.207   2.542   2.752
  274SOL    HW2 1722   6.044   2.528   2.754
  275SOL     OW 1723   6.865   6.672   5.923
  275SOL    HW1 1724   6.938   6.680   5.991
  275SOL    HW2 1725   6.779   6.651   5.969
  276SOL     OW 1726   6.522   6.087   3.822
  276SOL    HW1 1727   6.572   6.089   3.736
  276SOL    HW2 1728   6.586   6.069   3.897
  277SOL     OW 1729   3.428   1.972   5.422
  277SOL    HW1 1730   3.395   2.011   5.507
  277SOL    HW2 1731   3.356   1.914   5.381
  278SOL     OW 1732   5.461   3.880   2.575
  278SOL    HW1 1733   5.440   3.928   2.490
  278SOL    HW2 1734   5.559   3.881   2.591
  279SOL     OW 1735   0.140   3.071   2.983
  279SOL    HW1 1736   0.075   3.061   2.908
  279SOL    HW2 1737   0.123   3.001   3.052
  280SOL     OW 1738   5.013   0.002   3.855
  280SOL    HW1 1739   5.080   6.987   3.919
  280SOL    HW2 1740   4.944   6.955   3.835
  281SOL     OW 1741   4.690   5.836   3.984
  281SOL    HW1 1742   4.650   5.772   3.919
  281SOL    HW2 1743   4.752   5.898   3.935
  282SOL     OW 1744   4.232   2.145   6.390
  282SOL    HW1 1745   4.197   2.051   6.392
  282SOL    HW2 1746   4.323   2.145   6.348
  283SOL     OW 1747   6.253   0.873   4.869
  283SOL    HW1 1748   6.199   0.795   4.837
  283SOL    HW2 1749   6.339   0.877   4.817
  284SOL     OW 1750   6.908   5.346   5.292
  284SOL    HW1 1751   6.869   5.431   5.328
  284SOL    HW2 1752   6.926   5.282   5.367
  285SOL     OW 1753   4.648   0.414   6.948
  285SOL    HW1 1754   4.699   0.460   7.021
  285SOL    HW2 1755   4.642   0.316   6.969
  286SOL     OW 1756   3.611   5.202   4.684
  286SOL    HW1 1757   3.680   5.137   4.717
  286SOL    HW2 1758   3.540   5.213   4.753
  287SOL     OW 1759   2.652   6.337   5.647
  287SOL    HW1 1760   2.721   6.280   5.692
  287SOL    HW2 1761   2.606   6.394   5.715
  288SOL     OW 1762   3.643   0.544   0.529
  288SOL    HW1 1763   3.648   0.489   0.445
  288SOL    HW2 1764   3.716   0.612   0.529
  289SOL     OW 1765   0.517   6.406   4.574
  289SOL    HW1 1766   0.459   6.408   4.656
  289SOL    HW2 1767   0.485   6.335   4.512
  290SOL     OW 1768   4.530   0.974   3.849
  290SOL    HW1 1769   4.481   1.002   3.766
  290SOL    HW2 1770   4.559   1.056   3.899
  291SOL     OW 1771   4.821   0.565   4.215
  291SOL    HW1 1772   4.855   0.653   4.182
  291SOL    HW2 1773   4.772   0.518   4.141
  292SOL     OW 1774   3.623   0.210   3.617
  292SOL    HW1 1775   3.686   0.175   3.687
  292SOL    HW2 1776   3.675   0.259   3.547
  293SOL     OW 1777   5.762   6.227   2.513
  293SOL    HW1 1778   5.832   6.290   2.547
  293SOL    HW2 1779   5.800   6.172   2.439
  294SOL     OW 1780   5.870   0.635   5.313
  294SOL    HW1 1781   5.930   0.705   5.351
  294SOL    HW2 1782   5.924   0.567   5.264
  295SOL     OW 1783   1.565   2.323   5.059
  295SOL    HW1 1784   1.633   2.362   5.121
  295SOL    HW2 1785   1.546   2.229   5.085
  296SOL     OW 1786   6.766   0.784   1.773
  296SOL    HW1 1787   6.752   0.800   1.675
  296SOL    HW2 1788   6.684   0.812   1.823
  297SOL     OW 1789   5.307   4.408   3.382
  297SOL    HW1 1790   5.337   4.419   3.477
  297SOL    HW2 1791   5.211   4.379   3.381
  298SOL     OW 1792   4.095   0.742   0.328
  298SOL    HW1 1793   4.155   0.753   0.249
  298SOL    HW2 1794   4.057   0.649   0.328
  299SOL     OW 1795   3.314   1.952   0.408
  299SOL    HW1 1796   3.376   1.967   0.485
  299SOL    HW2 1797   3.366   1.956   0.323
  300SOL     OW 1798   3.656   1.217   2.597
  300SOL    HW1 1799   3.696   1.256   2.514
  300SOL    HW2 1800   3.638   1.290   2.663
  301SOL     OW 1801   5.571   5.809   1.962
  301SOL    HW1 1802   5.537   5.779   2.052
  301SOL    HW2 1803   5.563   5.734   1.897
  302SOL     OW 1804   6.727   6.135   1.636
  302SOL    HW1 1805   6.693   6.109   1.545
  302SOL    HW2 1806   6.729   6.235   1.643
  303SOL     OW 1807   6.409   5.356   2.466
  303SOL    HW1 1808   6.314   5.345   2.438
  303SOL    HW2 1809   6.463   5.390   2.390
  304SOL     OW 1810   1.346   0.054   5.141
  304SOL    HW1 1811   1.390   7.014   5.076
  304SOL    HW2 1812   1.348   0.012   5.233
  305SOL     OW 1813   1.206   2.955   1.535
  305SOL    HW1 1814   1.236   2.881   1.474
  305SOL    HW2 1815   1.106   2.953   1.543
  306SOL     OW 1816   6.934   0.677   3.187
  306SOL    HW1 1817   6.925   0.728   3.272
  306SOL    HW2 1818   6.864   0.706   3.122
  307SOL     OW 1819   3.189   3.482   1.250
  307SOL    HW1 1820   3.219   3.392   1.220
  307SOL    HW2 1821   3.263   3.527   1.301
  308SOL     OW 1822   5.547   0.667   4.225
  308SOL    HW1 1823   5.479   0.594   4.237
  308SOL    HW2 1824   5.520   0.746   4.281
  309SOL     OW 1825   0.609   0.200   6.916
  309SOL    HW1 1826   0.532   0.261   6.897
  309SOL    HW2 1827   0.612   0.128   6.847
  310SOL     OW 1828   5.093   6.067   4.979
  310SOL    HW1 1829   5.164   6.090   5.045
  310SOL    HW2 1830   5.134   6.061   4.888
  311SOL     OW 1831   2.449   5.376   3.000
  311SOL    HW1 1832   2.370   5.420   2.959
  311SOL    HW2 1833   2.462   5.286   2.959
  312SOL     OW 1834   4.679   2.324   3.719
  312SOL    HW1 1835   4.773   2.354   3.737
  312SOL    HW2 1836   4.668   2.229   3.748
  313SOL     OW 1837   3.614   3.602   2.961
  313SOL    HW1 1838   3.651   3.616   3.052
  313SOL    HW2 1839   3.688   3.580   2.897
  314SOL     OW 1840   1.889   6.480   5.358
  314SOL    HW1 1841   1.890   6.387   5.321
  314SOL    HW2 1842   1.976   6.500   5.402
  315SOL     OW 1843   6.114   1.058   3.118
  315SOL    HW1 1844   6.068   1.143   3.141
  315SOL    HW2 1845   6.089   1.030   3.025
  316SOL     OW 1846   4.466   1.521   5.607
  316SOL    HW1 1847   4.507   1.544   5.695
  316SOL    HW2 1848   4.538   1.509   5.538
  317SOL     OW 1849   1.489   1.723   1.361
  317SOL    HW1 1850   1.445   1.675   1.285
  317SOL    HW2 1851   1.569   1.772   1.327
  318SOL     OW 1852   6.819   0.853   5.752
  318SOL    HW1 1853   6.856   0.763   5.777
  318SOL    HW2 1854   6.804   0.856   5.653
  319SOL     OW 1855   0.658   1.984   2.717
  319SOL    HW1 1856   0.629   1.916   2.651
  319SOL    HW2 1857   0.718   1.942   2.785
  320SOL     OW 1858   5.806   1.771   6.936
  320SOL    HW1 1859   5.721   1.777   6.989
  320SOL    HW2 1860   5.824   1.859   6.893
  321SOL     OW 1861   4.031   3.010   0.622
  321SOL    HW1 1862   4.012   3.073   0.546
  321SOL    HW2 1863   4.096   3.052   0.684
  322SOL     OW 1864   4.263   3.622   6.373
  322SOL    HW1 1865   4.180   3.632   6.427
  322SOL    HW2 1866   4.249   3.663   6.283
  323SOL     OW 1867   0.465   2.655   3.027
  323SOL    HW1 1868   0.554   2.669   3.070
  323SOL    HW2 1869   0.406   2.734   3.044
  324SOL     OW 1870   1.937   6.969   3.173
  324SOL    HW1 1871   1.874   6.936   3.243
  324SOL    HW2 1872   1.963   0.041   3.193
  325SOL     OW 1873   1.284   3.532   2.406
  325SOL    HW1 1874   1.315   3.586   2.485
  325SOL    HW2 1875   1.325   3.569   2.323
  326SOL     OW 1876   2.099   5.201   5.964
  326SOL    HW1 1877   2.156   5.283   5.959
  326SOL    HW2 1878   2.057   5.194   6.054
  327SOL     OW 1879   3.542   5.289   2.825
  327SOL    HW1 1880   3.583   5.380   2.816
  327SOL    HW2 1881   3.453   5.288   2.780
  328SOL     OW 1882   1.411   3.950   1.706
  328SOL    HW1 1883   1.443   3.984   1.617
  328SOL    HW2 1884   1.331   3.892   1.692
  329SOL     OW 1885   3.330   3.746   1.579
  329SOL    HW1 1886   3.261   3.805   1.620
  329SOL    HW2 1887   3.350   3.777   1.486
  330SOL     OW 1888   3.981   5.577   0.354
  330SOL    HW1 1889   4.053   5.585   0.286
  330SOL    HW2 1890   3.897   5.617   0.320
  331SOL     OW 1891   4.974   5.065   0.505
  331SOL    HW1 1892   5.052   5.047   0.444
  331SOL    HW2 1893   4.981   5.159   0.540
  332SOL     OW 1894   5.298   1.783   3.988
  332SOL    HW1 1895   5.219   1.734   3.950
  332SOL    HW2 1896   5.361   1.717   4.030
  333SOL     OW 1897   3.962   0.806   4.939
  333SOL    HW1 1898   3.956   0.805   5.039
  333SOL    HW2 1899   3.976   0.900   4.908
  334SOL     OW 1900   4.052   3.341   2.739
  334SOL    HW1 1901   4.061   3.390   2.652
  334SOL    HW2 1902   4.057   3.407   2.814
  335SOL     OW 1903   3.804   6.948   6.910
  335SOL    HW1 1904   3.816   6.850   6.925
  335SOL    HW2 1905   3.727   6.981   6.966
  336SOL     OW 1906   2.762   1.166   3.813
  336SOL    HW1 1907   2.674   1.211   3.828
  336SOL    HW2 1908   2.748   1.070   3.790
  337SOL     OW 1909   1.532   1.736   5.590
  337SOL    HW1 1910   1.567   1.651   5.629
  337SOL    HW2 1911   1.532   1.808   5.659
  338SOL     OW 1912   4.232   3.205   1.439
  338SOL    HW1 1913   4.277   3.259   1.367
  338SOL    HW2 1914   4.266   3.111   1.436
  339SOL     OW 1915   3.971   4.949   4.602
  339SOL    HW1 1916   4.027   4.877   4.645
  339SOL    HW2 1917   4.012   5.038   4.620
  340SOL     OW 1918   5.018   2.740   4.724
  340SOL    HW1 1919   4.972   2.829   4.718
  340SOL    HW2 1920   5.097   2.740   4.662
  341SOL     OW 1921   5.721   5.736   4.396
  341SOL    HW1 1922   5.750   5.773   4.307
  341SOL    HW2 1923   5.692   5.641   4.384
  342SOL     OW 1924   4.707   3.890   0.759
  342SOL    HW1 1925   4.772   3.926   0.826
  342SOL    HW2 1926   4.747   3.812   0.712
  343SOL     OW 1927   0.696   5.962   2.817
  343SOL    HW1 1928   0.640   5.986   2.738
  343SOL    HW2 1929   0.687   6.033   2.887
  344SOL     OW 1930   0.884   1.477   1.382
  344SOL    HW1 1931   0.920   1.390   1.418
  344SOL    HW2 1932   0.922   1.492   1.291
  345SOL     OW 1933   6.928   2.220   4.315
  345SOL    HW1 1934   6.994   2.294   4.326
  345SOL    HW2 1935   6.840   2.246   4.355
  346SOL     OW 1936   2.152   0.185   2.716
  346SOL    HW1 1937   2.250   0.165   2.718
  346SOL    HW2 1938   2.130   0.251   2.788
  347SOL     OW 1939   2.021   5.920   0.241
  347SOL    HW1 1940   1.961   5.977   0.296
  347SOL    HW2 1941   2.088   5.977   0.193
  348SOL     OW 1942   4.901   4.958   2.543
  348SOL    HW1 1943   4.855   4.872   2.521
  348SOL    HW2 1944   4.926   5.005   2.459
  349SOL     OW 1945   6.862   4.393   1.514
  349SOL    HW1 1946   6.880   4.321   1.581
  349SOL    HW2 1947   6.913   4.373   1.430
  350SOL     OW 1948   2.999   3.101   0.236
  350SOL    HW1 1949   3.039   3.056   0.157
  350SOL    HW2 1950   2.974   3.031   0.304
  351SOL     OW 1951   3.282   3.873   0.517
  351SOL    HW1 1952   3.195   3.829   0.496
  351SOL    HW2 1953   3.285   3.964   0.477
  352SOL     OW 1954   4.263   5.917   3.808
  352SOL    HW1 1955   4.212   5.832   3.794
  352SOL    HW2 1956   4.214   5.974   3.875
  353SOL     OW 1957   3.175   0.097   6.223
  353SOL    HW1 1958   3.191   0.192   6.196
  353SOL    HW2 1959   3.086   0.089   6.266
  354SOL     OW 1960   5.711   2.859   0.983
  354SOL    HW1 1961   5.772   2.781   1.000
  354SOL    HW2 1962   5.743   2.938   1.035
  355SOL     OW 1963   2.268   2.758   2.652
  355SOL    HW1 1964   2.263   2.747   2.752
  355SOL    HW2 1965   2.242   2.851   2.628
  356SOL     OW 1966   1.700   0.935   4.943
  356SOL    HW1 1967   1.698   0.835   4.948
  356SOL    HW2 1968   1.669   0.965   4.853
  357SOL     OW 1969   6.848   6.246   4.080
  357SOL    HW1 1970   6.774   6.305   4.114
  357SOL    HW2 1971   6.873   6.274   3.987
  358SOL     OW 1972   4.983   5.879   1.203
  358SOL    HW1 1973   4.887   5.852   1.207
  358SOL    HW2 1974   4.990   5.978   1.211
  359SOL     OW 1975   3.400   0.859   1.925
  359SOL    HW1 1976   3.308   0.895   1.940
  359SOL    HW2 1977   3.465   0.935   1.916
  360SOL     OW 1978   1.364   4.594   4.951
  360SOL    HW1 1979   1.329   4.662   5.015
  360SOL    HW2 1980   1.451   4.559   4.984
  361SOL     OW 1981   5.961   6.399   2.643
  361SOL    HW1 1982   5.891   6.471   2.648
  361SOL    HW2 1983   6.008   6.393   2.731
  362SOL     OW 1984   3.944   4.210   0.951
  362SOL    HW1 1985   3.930   4.279   1.023
  362SOL    HW2 1986   3.876   4.139   0.960
  363SOL     OW 1987   6.391   4.937   2.478
  363SOL    HW1 1988   6.398   4.980   2.388
  363SOL    HW2 1989   6.297   4.946   2.512
  364SOL     OW 1990   0.722   4.836   6.902
  364SOL    HW1 1991   0.760   4.922   6.869
  364SOL    HW2 1992   0.675   4.790   6.827
  365SOL     OW 1993   3.502   0.436   1.659
  365SOL    HW1 1994   3.411   0.467   1.684
  365SOL    HW2 1995   3.558   0.514   1.631
  366SOL     OW 1996   6.046   3.366   6.601
  366SOL    HW1 1997   5.986   3.310   6.543
  366SOL    HW2 1998   5.999   3.386   6.687
  367SOL     OW 1999   5.781   2.316   5.919
  367SOL    HW1 2000   5.694   2.339   5.962
  367SOL    HW2 2001   5.846   2.285   5.989
  368SOL     OW 2002   0.118   2.079   5.959
  368SOL    HW1 2003   0.029   2.102   5.997
  368SOL    HW2 2004   0.168   2.163   5.936
  369SOL     OW 2005   5.731   4.087   3.221
  369SOL    HW1 2006   5.639   4.103   3.256
  369SOL    HW2 2007   5.727   4.070   3.122
  370SOL     OW 2008   1.716   1.997   4.209
  370SOL    HW1 2009   1.683   1.997   4.304
  370SOL    HW2 2010   1.769   2.079   4.192
  371SOL     OW 2011   2.055   4.419   0.058
  371SOL    HW1 2012   1.990   4.491   0.082
  371SOL    HW2 2013   2.146   4.444   0.091
  372SOL     OW 2014   1.724   0.210   5.118
  372SOL    HW1 2015   1.684   0.222   5.027
  372SOL    HW2 2016   1.667   0.148   5.172
  373SOL     OW 2017   5.832   6.701   5.289
  373SOL    HW1 2018   5.920   6.714   5.242
  373SOL    HW2 2019   5.795   6.790   5.314
  374SOL     OW 2020   2.138   1.450   2.791
  374SOL    HW1 2021   2.104   1.384   2.724
  374SOL    HW2 2022   2.125   1.414   2.883
  375SOL     OW 2023   0.729   5.183   5.504
  375SOL    HW1 2024   0.645   5.139   5.537
  375SOL    HW2 2025   0.756   5.142   5.417
  376SOL     OW 2026   2.118   1.143   5.083
  376SOL    HW1 2027   2.081   1.071   5.142
  376SOL    HW2 2028   2.112   1.231   5.130
  377SOL     OW 2029   1.985   2.129   0.276
  377SOL    HW1 2030   2.017   2.070   0.202
  377SOL    HW2 2031   2.003   2.086   0.364
  378SOL     OW 2032   3.376   1.269   6.811
  378SOL    HW1 2033   3.310   1.236   6.744
  378SOL    HW2 2034   3.327   1.317   6.884
  379SOL     OW 2035   5.764   2.398   0.003
  379SOL    HW1 2036   5.741   2.491   6.996
  379SOL    HW2 2037   5.691   2.362   0.061
  380SOL     OW 2038   3.165   1.494   1.513
  380SOL    HW1 2039   3.198   1.588   1.525
  380SOL    HW2 2040   3.065   1.493   1.520
  381SOL     OW 2041   1.991   3.530   4.804
  381SOL    HW1 2042   2.024   3.498   4.715
  381SOL    HW2 2043   1.897   3.500   4.817
  382SOL     OW 2044   6.267   0.275   7.020
  382SOL    HW1 2045   6.188   0.216   7.004
  382SOL    HW2 2046   6.273   0.297   0.095
  383SOL     OW 2047   4.464   3.329   0.356
  383SOL    HW1 2048   4.499   3.416   0.392
  383SOL    HW2 2049   4.492   3.319   0.260
  384SOL     OW 2050   0.163   4.049   4.025
  384SOL    HW1 2051   0.176   3.984   3.950
  384SOL    HW2 2052   0.101   4.010   4.093
  385SOL     OW 2053   3.439   5.775   5.848
  385SOL    HW1 2054   3.479   5.694   5.891
  385SOL    HW2 2055   3.392   5.830   5.917
  386SOL     OW 2056   4.268   0.319   3.953
  386SOL    HW1 2057   4.279   0.417   3.969
  386SOL    HW2 2058   4.188   0.303   3.895
  387SOL     OW 2059   1.354   5.617   2.400
  387SOL    HW1 2060   1.321   5.566   2.320
  387SOL    HW2 2061   1.398   5.554   2.464
  388SOL     OW 2062   2.033   2.030   6.740
  388SOL    HW1 2063   2.126   2.055   6.713
  388SOL    HW2 2064   1.968   2.066   6.673
  389SOL     OW 2065   4.106   3.557   2.569
  389SOL    HW1 2066   4.106   3.648   2.527
  389SOL    HW2 2067   4.014   3.520   2.568
  390SOL     OW 2068   2.814   0.639   3.852
  390SOL    HW1 2069   2.782   0.644   3.946
  390SOL    HW2 2070   2.912   0.654   3.848
  391SOL     OW 2071   2.384   2.758   6.514
  391SOL    HW1 2072   2.337   2.834   6.559
  391SOL    HW2 2073   2.466   2.734   6.565
  392SOL     OW 2074   1.978   5.376   0.966
  392SOL    HW1 2075   2.074   5.355   0.981
  392SOL    HW2 2076   1.970   5.468   0.926
  393SOL     OW 2077   6.804   4.416   5.982
  393SOL    HW1 2078   6.777   4.320   5.975
  393SOL    HW2 2079   6.752   4.461   6.055
  394SOL     OW 2080   0.191   6.947   0.206
  394SOL    HW1 2081   0.154   6.913   0.292
  394SOL    HW2 2082   0.253   0.001   0.224
  395SOL     OW 2083   4.905   3.781   2.814
  395SOL    HW1 2084   4.913   3.748   2.909
  395SOL    HW2 2085   4.914   3.703   2.751
  396SOL     OW 2086   3.792   3.883   2.203
  396SOL    HW1 2087   3.883   3.841   2.192
  396SOL    HW2 2088   3.789   3.969   2.152
  397SOL     OW 2089   4.286   2.982   5.756
  397SOL    HW1 2090   4.234   3.035   5.689
  397SOL    HW2 2091   4.225   2.917   5.802
  398SOL     OW 2092   0.462   6.218   1.715
  398SOL    HW1 2093   0.467   6.240   1.618
  398SOL    HW2 2094   0.540   6.259   1.762
  399SOL     OW 2095   5.362   5.965   2.722
  399SOL    HW1 2096   5.309   6.004   2.647
  399SOL    HW2 2097   5.456   5.998   2.717
  400SOL     OW 2098   0.129   0.705   5.988
  400SOL    HW1 2099   0.179   0.633   6.035
  400SOL    HW2 2100   0.069   0.753   6.053
  401SOL     OW 2101   4.808   0.688   6.266
  401SOL    HW1 2102   4.904   0.682   6.239
  401SOL    HW2 2103   4.795   0.767   6.327
  402SOL     OW 2104   5.827   6.660   2.557
  402SOL    HW1 2105   5.806   6.589   2.490
  402SOL    HW2 2106   5.745   6.684   2.608
  403SOL     OW 2107   4.080   2.256   6.163
  403SOL    HW1 2108   4.130   2.223   6.244
  403SOL    HW2 2109   4.115   2.346   6.137
  404SOL     OW 2110   1.376   6.498   3.649
  404SOL    HW1 2111   1.459   6.489   3.704
  404SOL    HW2 2112   1.395   6.468   3.555
  405SOL     OW 2113   1.672   2.984   1.634
  405SOL    HW1 2114   1.640   2.996   1.728
  405SOL    HW2 2115   1.771   2.972   1.633
  406SOL     OW 2116   1.049   2.673   3.586
  406SOL    HW1 2117   0.993   2.721   3.519
  406SOL    HW2 2118   1.144   2.668   3.553
  407SOL     OW 2119   2.166   0.729   4.085
  407SOL    HW1 2120   2.142   0.699   4.178
  407SOL    HW2 2121   2.091   0.707   4.023
  408SOL     OW 2122   1.202   0.716   3.303
  408SOL    HW1 2123   1.172   0.808   3.277
  408SOL    HW2 2124   1.298   0.719   3.328
  409SOL     OW 2125   6.019   2.915   1.818
  409SOL    HW1 2126   6.018   3.011   1.790
  409SOL    HW2 2127   5.934   2.893   1.866
  410SOL     OW 2128   2.148   0.421   6.444
  410SOL    HW1 2129   2.203   0.504   6.432
  410SOL    HW2 2130   2.051   0.445   6.439
  411SOL     OW 2131   6.097   6.869   6.557
  411SOL    HW1 2132   6.176   6.922   6.588
  411SOL    HW2 2133   6.014   6.902   6.602
  412SOL     OW 2134   4.810   0.256   3.517
  412SOL    HW1 2135   4.806   0.193   3.595
  412SOL    HW2 2136   4.852   0.209   3.439
  413SOL     OW 2137   4.671   4.597   1.493
  413SOL    HW1 2138   4.665   4.504   1.457
  413SOL    HW2 2139   4.605   4.608   1.567
  414SOL     OW 2140   3.681   5.259   3.070
  414SOL    HW1 2141   3.637   5.291   3.154
  414SOL    HW2 2142   3.629   5.292   2.991
  415SOL     OW 2143   1.194   5.958   0.343
  415SOL    HW1 2144   1.293   5.957   0.352
  415SOL    HW2 2145   1.169   5.982   0.249
  416SOL     OW 2146   4.767   5.248   5.151
  416SOL    HW1 2147   4.799   5.170   5.205
  416SOL    HW2 2148   4.767   5.330   5.208
  417SOL     OW 2149   2.485   6.402   0.811
  417SOL    HW1 2150   2.466   6.320   0.758
  417SOL    HW2 2151   2.491   6.378   0.908
  418SOL     OW 2152   4.340   6.207   1.313
  418SOL    HW1 2153   4.243   6.224   1.299
  418SOL    HW2 2154   4.356   6.109   1.324
  419SOL     OW 2155   1.175   0.669   1.542
  419SOL    HW1 2156   1.257   0.622   1.575
  419SOL    HW2 2157   1.199   0.728   1.465
  420SOL     OW 2158   6.334   3.512   1.278
  420SOL    HW1 2159   6.248   3.534   1.323
  420SOL    HW2 2160   6.388   3.595   1.266
  421SOL     OW 2161   0.491   5.291   6.475
  421SOL    HW1 2162   0.493   5.224   6.401
  421SOL    HW2 2163   0.459   5.379   6.439
  422SOL     OW 2164   5.827   4.876   0.560
  422SOL    HW1 2165   5.752   4.836   0.613
  422SOL    HW2 2166   5.914   4.843   0.596
  423SOL     OW 2167   0.177   2.410   6.961
  423SOL    HW1 2168   0.116   2.342   6.919
  423SOL    HW2 2169   0.149   2.501   6.932
  424SOL     OW 2170   2.783   3.706   0.830
  424SOL    HW1 2171   2.721   3.642   0.876
  424SOL    HW2 2172   2.781   3.689   0.731
  425SOL     OW 2173   5.556   1.338   2.285
  425SOL    HW1 2174   5.607   1.323   2.200
  425SOL    HW2 2175   5.530   1.249   2.324
  426SOL     OW 2176   5.178   2.256   4.662
  426SOL    HW1 2177   5.269   2.253   4.704
  426SOL    HW2 2178   5.114   2.204   4.718
  427SOL     OW 2179   5.466   4.985   2.340
  427SOL    HW1 2180   5.388   4.935   2.377
  427SOL    HW2 2181   5.545   4.975   2.400
  428SOL     OW 2182   4.525   6.810   4.814
  428SOL    HW1 2183   4.590   6.884   4.829
  428SOL    HW2 2184   4.500   6.806   4.718
  429SOL     OW 2185   2.320   4.511   1.861
  429SOL    HW1 2186   2.256   4.584   1.885
  429SOL    HW2 2187   2.412   4.535   1.894
  430SOL     OW 2188   0.912   0.123   4.554
  430SOL    HW1 2189   0.926   0.104   4.457
  430SOL    HW2 2190   0.814   0.127   4.573
  431SOL     OW 2191   3.721   0.332   0.360
  431SOL    HW1 2192   3.768   0.291   0.438
  431SOL    HW2 2193   3.708   0.263   0.289
  432SOL     OW 2194   6.467   2.766   2.112
  432SOL    HW1 2195   6.528   2.727   2.043
  432SOL    HW2 2196   6.391   2.812   2.067
  433SOL     OW 2197   3.166   6.125   4.274
  433SOL    HW1 2198   3.075   6.151   4.308
  433SOL    HW2 2199   3.197   6.043   4.323
  434SOL     OW 2200   4.623   5.311   1.637
  434SOL    HW1 2201   4.530   5.342   1.654
  434SOL    HW2 2202   4.634   5.290   1.539
  435SOL     OW 2203   3.851   2.177   5.209
  435SOL    HW1 2204   3.872   2.269   5.241
  435SOL    HW2 2205   3.882   2.110   5.276
  436SOL     OW 2206   3.154   6.268   1.165
  436SOL    HW1 2207   3.096   6.340   1.203
  436SOL    HW2 2208   3.228   6.310   1.112
  437SOL     OW 2209   0.820   0.036   6.745
  437SOL    HW1 2210   0.850   0.129   6.722
  437SOL    HW2 2211   0.887   6.992   6.713
  438SOL     OW 2212   1.870   2.912   2.231
  438SOL    HW1 2213   1.954   2.963   2.209
  438SOL    HW2 2214   1.810   2.970   2.287
  439SOL     OW 2215   6.268   4.373   3.703
  439SOL    HW1 2216   6.186   4.376   3.761
  439SOL    HW2 2217   6.339   4.432   3.742
  440SOL     OW 2218   1.361   2.346   4.805
  440SOL    HW1 2219   1.457   2.374   4.811
  440SOL    HW2 2220   1.307   2.421   4.766
  441SOL     OW 2221   0.615   1.610   3.159
  441SOL    HW1 2222   0.682   1.542   3.190
  441SOL    HW2 2223   0.564   1.645   3.237
  442SOL     OW 2224   1.876   4.943   0.096
  442SOL    HW1 2225   1.873   5.014   0.025
  442SOL    HW2 2226   1.970   4.933   0.128
  443SOL     OW 2227   0.991   4.177   4.979
  443SOL    HW1 2228   1.079   4.225   4.974
  443SOL    HW2 2229   0.953   4.166   4.888
  444SOL     OW 2230   5.200   2.193   5.821
  444SOL    HW1 2231   5.228   2.172   5.915
  444SOL    HW2 2232   5.127   2.131   5.794
  445SOL     OW 2233   1.385   5.711   3.535
  445SOL    HW1 2234   1.416   5.618   3.519
  445SOL    HW2 2235   1.294   5.709   3.576
  446SOL     OW 2236   3.998   4.801   3.563
  446SOL    HW1 2237   3.915   4.785   3.616
  446SOL    HW2 2238   4.079   4.784   3.620
  447SOL     OW 2239   0.690   3.083   0.256
  447SOL    HW1 2240   0.601   3.124   0.234
  447SOL    HW2 2241   0.694   2.990   0.220
  448SOL     OW 2242   2.843   0.566   4.809
  448SOL    HW1 2243   2.831   0.650   4.862
  448SOL    HW2 2244   2.827   0.487   4.869
  449SOL     OW 2245   3.806   0.740   5.304
  449SOL    HW1 2246   3.712   0.753   5.273
  449SOL    HW2 2247   3.805   0.713   5.401
  450SOL     OW 2248   1.174   5.855   3.867
  450SOL    HW1 2249   1.197   5.952   3.857
  450SOL    HW2 2250   1.225   5.816   3.944
  451SOL     OW 2251   2.088   2.141   3.288
  451SOL    HW1 2252   1.998   2.156   3.248
  451SOL    HW2 2253   2.079   2.087   3.371
  452SOL     OW 2254   6.559   5.993   1.460
  452SOL    HW1 2255   6.533   5.904   1.498
  452SOL    HW2 2256   6.578   5.984   1.363
  453SOL     OW 2257   2.840   0.348   4.619
  453SOL    HW1 2258   2.896   0.430   4.618
  453SOL    HW2 2259   2.812   0.325   4.526
  454SOL     OW 2260   0.417   5.536   6.355
  454SOL    HW1 2261   0.336   5.561   6.302
  454SOL    HW2 2262   0.440   5.609   6.419
  455SOL     OW 2263   0.299   1.736   3.837
  455SOL    HW1 2264   0.214   1.710   3.793
  455SOL    HW2 2265   0.371   1.744   3.768
  456SOL     OW 2266   5.195   5.036   4.423
  456SOL    HW1 2267   5.263   5.094   4.378
  456SOL    HW2 2268   5.130   5.093   4.473
  457SOL     OW 2269   1.871   3.304   3.259
  457SOL    HW1 2270   1.884   3.205   3.272
  457SOL    HW2 2271   1.960   3.347   3.242
  458SOL     OW 2272   5.034   6.016   4.081
  458SOL    HW1 2273   4.976   6.094   4.058
  458SOL    HW2 2274   5.125   6.049   4.106
  459SOL     OW 2275   1.776   6.832   4.117
  459SOL    HW1 2276   1.848   6.853   4.184
  459SOL    HW2 2277   1.753   6.735   4.122
  460SOL     OW 2278   1.691   0.162   2.854
  460SOL    HW1 2279   1.620   0.233   2.854
  460SOL    HW2 2280   1.675   0.100   2.931
  461SOL     OW 2281   5.947   0.018   4.904
  461SOL    HW1 2282   5.943   0.045   5.001
  461SOL    HW2 2283   5.881   6.968   4.887
  462SOL     OW 2284   4.002   2.657   6.299
  462SOL    HW1 2285   4.040   2.643   6.390
  462SOL    HW2 2286   3.902   2.660   6.305
  463SOL     OW 2287   6.473   5.917   3.522
  463SOL    HW1 2288   6.384   5.874   3.511
  463SOL    HW2 2289   6.487   5.984   3.448
  464SOL     OW 2290   2.780   2.173   6.843
  464SOL    HW1 2291   2.777   2.210   6.751
  464SOL    HW2 2292   2.688   2.170   6.882
  465SOL     OW 2293   1.206   2.751   3.912
  465SOL    HW1 2294   1.142   2.674   3.912
  465SOL    HW2 2295   1.266   2.744   3.993
  466SOL     OW 2296   1.188   4.663   3.087
  466SOL    HW1 2297   1.105   4.606   3.089
  466SOL    HW2 2298   1.192   4.718   3.170
  467SOL     OW 2299   1.234   0.939   6.685
  467SOL    HW1 2300   1.187   0.929   6.598
  467SOL    HW2 2301   1.319   0.991   6.672
  468SOL     OW 2302   3.507   6.374   6.675
  468SOL    HW1 2303   3.501   6.460   6.725
  468SOL    HW2 2304   3.519   6.299   6.741
  469SOL     OW 2305   2.742   4.902   0.772
  469SOL    HW1 2306   2.661   4.866   0.820
  469SOL    HW2 2307   2.731   4.889   0.674
  470SOL     OW 2308   4.042   0.734   2.584
  470SOL    HW1 2309   4.015   0.728   2.488
  470SOL    HW2 2310   4.006   0.819   2.624
  471SOL     OW 2311   1.686   2.472   4.097
  471SOL    HW1 2312   1.714   2.543   4.032
  471SOL    HW2 2313   1.684   2.384   4.051
  472SOL     OW 2314   4.999   4.111   6.541
  472SOL    HW1 2315   4.973   4.176   6.613
  472SOL    HW2 2316   5.080   4.060   6.570
  473SOL     OW 2317   0.559   3.419   2.121
  473SOL    HW1 2318   0.633   3.389   2.181
  473SOL    HW2 2319   0.494   3.345   2.108
  474SOL     OW 2320   5.347   4.678   3.899
  474SOL    HW1 2321   5.397   4.657   3.816
  474SOL    HW2 2322   5.363   4.774   3.925
  475SOL     OW 2323   5.328   0.810   5.764
  475SOL    HW1 2324   5.349   0.828   5.860
  475SOL    HW2 2325   5.254   0.744   5.757
  476SOL     OW 2326   6.973   4.226   2.411
  476SOL    HW1 2327   6.975   4.281   2.327
  476SOL    HW2 2328   6.999   4.282   2.489
  477SOL     OW 2329   1.442   4.343   5.367
  477SOL    HW1 2330   1.383   4.346   5.286
  477SOL    HW2 2331   1.514   4.276   5.353
  478SOL     OW 2332   3.474   0.234   2.746
  478SOL    HW1 2333   3.552   0.172   2.749
  478SOL    HW2 2334   3.470   0.278   2.656
  479SOL     OW 2335   4.493   2.171   6.994
  479SOL    HW1 2336   4.515   2.219   6.909
  479SOL    HW2 2337   4.471   2.238   0.042
  480SOL     OW 2338   2.290   1.376   6.912
  480SOL    HW1 2339   2.198   1.383   6.950
  480SOL    HW2 2340   2.284   1.365   6.813
  481SOL     OW 2341   1.615   0.657   0.110
  481SOL    HW1 2342   1.624   0.659   0.011
  481SOL    HW2 2343   1.549   0.727   0.139
  482SOL     OW 2344   4.593   4.425   2.958
  482SOL    HW1 2345   4.527   4.450   2.887
  482SOL    HW2 2346   4.653   4.353   2.924
  483SOL     OW 2347   6.794   1.639   2.100
  483SOL    HW1 2348   6.798   1.614   2.197
  483SOL    HW2 2349   6.887   1.643   2.064
  484SOL     OW 2350   1.142   2.962   5.215
  484SOL    HW1 2351   1.044   2.968   5.236
  484SOL    HW2 2352   1.190   3.039   5.257
  485SOL     OW 2353   4.260   5.456   2.589
  485SOL    HW1 2354   4.329   5.430   2.657
  485SOL    HW2 2355   4.294   5.434   2.497
  486SOL     OW 2356   6.729   1.993   1.085
  486SOL    HW1 2357   6.708   2.057   1.010
  486SOL    HW2 2358   6.821   1.956   1.073
  487SOL     OW 2359   0.991   1.905   0.711
  487SOL    HW1 2360   1.003   1.980   0.646
  487SOL    HW2 2361   0.919   1.928   0.776
  488SOL     OW 2362   0.606   1.575   1.159
  488SOL    HW1 2363   0.627   1.607   1.251
  488SOL    HW2 2364   0.587   1.477   1.160
  489SOL     OW 2365   3.583   6.495   6.064
  489SOL    HW1 2366   3.510   6.493   5.996
  489SOL    HW2 2367   3.560   6.562   6.135
  490SOL     OW 2368   6.669   5.683   3.268
  490SOL    HW1 2369   6.677   5.601   3.211
  490SOL    HW2 2370   6.745   5.686   3.333
  491SOL     OW 2371   0.038   3.089   2.384
  491SOL    HW1 2372   0.077   3.014   2.331
  491SOL    HW2 2373   6.996   3.052   2.451
  492SOL     OW 2374   2.337   6.783   4.757
  492SOL    HW1 2375   2.326   6.879   4.732
  492SOL    HW2 2376   2.429   6.753   4.735
  493SOL     OW 2377   5.515   6.430   5.815
  493SOL    HW1 2378   5.540   6.500   5.748
  493SOL    HW2 2379   5.577   6.434   5.893
  494SOL     OW 2380   6.945   0.456   6.482
  494SOL    HW1 2381   6.985   0.538   6.523
  494SOL    HW2 2382   6.994   0.433   6.398
  495SOL     OW 2383   4.650   5.728   3.066
  495SOL    HW1 2384   4.706   5.710   3.147
  495SOL    HW2 2385   4.560   5.686   3.078
  496SOL     OW 2386   5.223   3.409   2.563
  496SOL    HW1 2387   5.140   3.449   2.525
  496SOL    HW2 2388   5.236   3.317   2.524
  497SOL     OW 2389   3.597   0.891   5.205
  497SOL    HW1 2390   3.577   0.821   5.136
  497SOL    HW2 2391   3.624   0.976   5.159
  498SOL     OW 2392   1.736   4.198   1.606
  498SOL    HW1 2393   1.662   4.235   1.551
  498SOL    HW2 2394   1.791   4.135   1.550
  499SOL     OW 2395   2.455   0.414   4.085
  499SOL    HW1 2396   2.391   0.351   4.130
  499SOL    HW2 2397   2.546   0.372   4.083
  500SOL     OW 2398   1.145   3.069   2.789
  500SOL    HW1 2399   1.213   3.138   2.813
  500SOL    HW2 2400   1.060   3.114   2.760
  501SOL     OW 2401   3.164   6.444   0.205
  501SOL    HW1 2402   3.158   6.540   0.177
  501SOL    HW2 2403   3.080   6.397   0.178
  502SOL     OW 2404   6.781   4.606   6.791
  502SOL    HW1 2405   6.734   4.623   6.878
  502SOL    HW2 2406   6.714   4.587   6.720
  503SOL     OW 2407   5.676   5.968   6.215
  503SOL    HW1 2408   5.689   5.870   6.198
  503SOL    HW2 2409   5.590   5.982   6.264
  504SOL     OW 2410   1.725   5.214   3.292
  504SOL    HW1 2411   1.676   5.301   3.298
  504SOL    HW2 2412   1.658   5.139   3.289
  505SOL     OW 2413   3.602   6.079   4.755
  505SOL    HW1 2414   3.550   6.155   4.715
  505SOL    HW2 2415   3.565   6.057   4.845
  506SOL     OW 2416   2.080   5.535   4.636
  506SOL    HW1 2417   2.123   5.460   4.587
  506SOL    HW2 2418   2.019   5.498   4.707
  507SOL     OW 2419   3.372   0.814   3.560
  507SOL    HW1 2420   3.409   0.767   3.641
  507SOL    HW2 2421   3.448   0.851   3.506
  508SOL     OW 2422   6.405   3.562   2.327
  508SOL    HW1 2423   6.480   3.584   2.264
  508SOL    HW2 2424   6.318   3.581   2.282
  509SOL     OW 2425   3.458   1.080   1.543
  509SOL    HW1 2426   3.458   1.176   1.572
  509SOL    HW2 2427   3.474   1.075   1.444
  510SOL     OW 2428   6.499   5.077   6.168
  510SOL    HW1 2429   6.547   5.101   6.084
  510SOL    HW2 2430   6.555   5.101   6.247
  511SOL     OW 2431   0.058   0.906   6.403
  511SOL    HW1 2432   0.153   0.937   6.401
  511SOL    HW2 2433   0.055   0.811   6.433
  512SOL     OW 2434   6.972   2.819   0.124
  512SOL    HW1 2435   0.009   2.749   0.165
  512SOL    HW2 2436   6.932   2.875   0.196
  513SOL     OW 2437   5.669   5.831   3.258
  513SOL    HW1 2438   5.630   5.918   3.290
  513SOL    HW2 2439   5.724   5.790   3.330
  514SOL     OW 2440   6.663   2.793   4.032
  514SOL    HW1 2441   6.706   2.835   3.952
  514SOL    HW2 2442   6.688   2.696   4.036
  515SOL     OW 2443   1.924   0.605   6.472
  515SOL    HW1 2444   1.832   0.579   6.501
  515SOL    HW2 2445   1.949   0.692   6.515
  516SOL     OW 2446   2.635   4.521   1.738
  516SOL    HW1 2447   2.713   4.510   1.800
  516SOL    HW2 2448   2.583   4.436   1.734
  517SOL     OW 2449   4.954   5.419   2.121
  517SOL    HW1 2450   4.962   5.493   2.054
  517SOL    HW2 2451   4.888   5.444   2.191
  518SOL     OW 2452   2.415   2.362   2.431
  518SOL    HW1 2453   2.434   2.387   2.336
  518SOL    HW2 2454   2.387   2.444   2.482
  519SOL     OW 2455   0.943   0.814   4.489
  519SOL    HW1 2456   0.858   0.867   4.488
  519SOL    HW2 2457   0.998   0.841   4.568
  520SOL     OW 2458   6.309   4.473   0.125
  520SOL    HW1 2459   6.357   4.387   0.143
  520SOL    HW2 2460   6.310   4.529   0.208
  521SOL     OW 2461   6.997   3.323   6.691
  521SOL    HW1 2462   0.045   3.386   6.724
  521SOL    HW2 2463   6.913   3.374   6.671
  522SOL     OW 2464   3.434   3.807   5.565
  522SOL    HW1 2465   3.381   3.788   5.482
  522SOL    HW2 2466   3.396   3.889   5.610
  523SOL     OW 2467   0.674   4.942   1.653
  523SOL    HW1 2468   0.739   4.980   1.587
  523SOL    HW2 2469   0.668   5.004   1.732
  524SOL     OW 2470   1.390   1.120   0.108
  524SOL    HW1 2471   1.434   1.196   0.060
  524SOL    HW2 2472   1.354   1.152   0.195
  525SOL     OW 2473   2.803   3.848   6.769
  525SOL    HW1 2474   2.778   3.927   6.712
  525SOL    HW2 2475   2.734   3.777   6.759
  526SOL     OW 2476   3.871   0.171   3.757
  526SOL    HW1 2477   3.874   0.177   3.857
  526SOL    HW2 2478   3.917   0.250   3.717
  527SOL     OW 2479   6.472   3.236   6.246
  527SOL    HW1 2480   6.396   3.235   6.310
  527SOL    HW2 2481   6.478   3.148   6.198
  528SOL     OW 2482   0.853   1.110   3.639
  528SOL    HW1 2483   0.942   1.093   3.682
  528SOL    HW2 2484   0.866   1.162   3.555
  529SOL     OW 2485   0.805   6.498   4.582
  529SOL    HW1 2486   0.871   6.423   4.587
  529SOL    HW2 2487   0.715   6.461   4.561
  530SOL     OW 2488   2.689   2.976   5.443
  530SOL    HW1 2489   2.646   2.998   5.356
  530SOL    HW2 2490   2.721   3.060   5.487
  531SOL     OW 2491   0.287   0.486   2.208
  531SOL    HW1 2492   0.311   0.408   2.265
  531SOL    HW2 2493   0.370   0.529   2.174
  532SOL     OW 2494   1.356   2.137   0.044
  532SOL    HW1 2495   1.383   2.144   0.140
  532SOL    HW2 2496   1.389   2.217   7.016
  533SOL     OW 2497   4.239   6.161   3.694
  533SOL    HW1 2498   4.267   6.067   3.714
  533SOL    HW2 2499   4.148   6.161   3.653
  534SOL     OW 2500   5.196   5.411   3.886
  534SOL    HW1 2501   5.148   5.430   3.972
  534SOL    HW2 2502   5.291   5.444   3.894
  535SOL     OW 2503   0.437   3.761   4.693
  535SOL    HW1 2504   0.442   3.760   4.593
  535SOL    HW2 2505   0.511   3.818   4.730
  536SOL     OW 2506   0.325   4.756   2.023
  536SOL    HW1 2507   0.353   4.671   2.067
  536SOL    HW2 2508   0.348   4.833   2.084
  537SOL     OW 2509   2.030   6.394   3.537
  537SOL    HW1 2510   2.073   6.481   3.511
  537SOL    HW2 2511   2.009   6.395   3.635
  538SOL     OW 2512   1.939   4.061   3.299
  538SOL    HW1 2513   2.031   4.031   3.324
  538SOL    HW2 2514   1.928   4.158   3.320
  539SOL     OW 2515   0.784   6.123   0.145
  539SOL    HW1 2516   0.687   6.131   0.120
  539SOL    HW2 2517   0.830   6.209   0.123
  540SOL     OW 2518   6.839   1.135   1.823
  540SOL    HW1 2519   6.817   1.055   1.879
  540SOL    HW2 2520   6.831   1.110   1.726
  541SOL     OW 2521   2.942   6.298   3.671
  541SOL    HW1 2522   2.863   6.342   3.715
  541SOL    HW2 2523   2.999   6.255   3.741
  542SOL     OW 2524   6.414   0.327   6.786
  542SOL    HW1 2525   6.508   0.307   6.812
  542SOL    HW2 2526   6.357   0.332   6.868
  543SOL     OW 2527   1.477   5.323   5.334
  543SOL    HW1 2528   1.566   5.280   5.353
  543SOL    HW2 2529   1.463   5.398   5.398
  544SOL     OW 2530   2.114   4.280   1.277
  544SOL    HW1 2531   2.040   4.263   1.212
  544SOL    HW2 2532   2.202   4.258   1.235
  545SOL     OW 2533   3.118   0.518   3.540
  545SOL    HW1 2534   3.059   0.437   3.539
  545SOL    HW2 2535   3.206   0.496   3.582
  546SOL     OW 2536   1.799   3.183   0.057
  546SOL    HW1 2537   1.738   3.260   0.078
  546SOL    HW2 2538   1.748   3.098   0.065
  547SOL     OW 2539   2.713   1.494   6.508
  547SOL    HW1 2540   2.647   1.451   6.570
  547SOL    HW2 2541   2.696   1.462   6.414
  548SOL     OW 2542   3.983   3.078   2.723
  548SOL    HW1 2543   4.040   3.040   2.651
  548SOL    HW2 2544   4.005   3.175   2.735
  549SOL     OW 2545   4.614   3.409   1.211
  549SOL    HW1 2546   4.692   3.347   1.203
  549SOL    HW2 2547   4.577   3.404   1.304
  550SOL     OW 2548   6.680   4.190   3.594
  550SOL    HW1 2549   6.677   4.239   3.681
  550SOL    HW2 2550   6.603   4.125   3.591
  551SOL     OW 2551   0.471   0.865   1.245
  551SOL    HW1 2552   0.462   0.932   1.318
  551SOL    HW2 2553   0.524   0.787   1.277
  552SOL     OW 2554   4.460   5.574   0.634
  552SOL    HW1 2555   4.458   5.671   0.656
  552SOL    HW2 2556   4.471   5.562   0.535
  553SOL     OW 2557   2.179   0.058   1.562
  553SOL    HW1 2558   2.162   0.049   1.661
  553SOL    HW2 2559   2.247   7.013   1.534
  554SOL     OW 2560   5.467   6.181   6.115
  554SOL    HW1 2561   5.544   6.160   6.056
  554SOL    HW2 2562   5.415   6.098   6.135
  555SOL     OW 2563   2.180   5.138   4.239
  555SOL    HW1 2564   2.214   5.057   4.288
  555SOL    HW2 2565   2.202   5.220   4.291
  556SOL     OW 2566   5.848   2.150   3.804
  556SOL    HW1 2567   5.771   2.108   3.756
  556SOL    HW2 2568   5.852   2.247   3.782
  557SOL     OW 2569   0.864   5.419   0.014
  557SOL    HW1 2570   0.898   5.466   0.096
  557SOL    HW2 2571   0.921   5.339   7.019
  558SOL     OW 2572   3.230   3.952   4.642
  558SOL    HW1 2573   3.155   3.910   4.692
  558SOL    HW2 2574   3.291   4.000   4.706
  559SOL     OW 2575   6.174   6.521   6.655
  559SOL    HW1 2576   6.159   6.613   6.691
  559SOL    HW2 2577   6.127   6.510   6.568
  560SOL     OW 2578   3.959   5.921   0.294
  560SOL    HW1 2579   3.896   5.847   0.272
  560SOL    HW2 2580   3.924   6.007   0.258
  561SOL     OW 2581   6.437   0.656   0.012
  561SOL    HW1 2582   6.388   0.614   0.088
  561SOL    HW2 2583   6.520   0.603   7.015
  562SOL     OW 2584   4.490   0.373   6.211
  562SOL    HW1 2585   4.583   0.395   6.179
  562SOL    HW2 2586   4.437   0.457   6.218
  563SOL     OW 2587   2.409   0.380   3.359
  563SOL    HW1 2588   2.478   0.308   3.362
  563SOL    HW2 2589   2.439   0.457   3.415
  564SOL     OW 2590   2.871   1.756   6.417
  564SOL    HW1 2591   2.824   1.764   6.329
  564SOL    HW2 2592   2.822   1.692   6.476
  565SOL     OW 2593   4.239   3.326   5.581
  565SOL    HW1 2594   4.178   3.249   5.564
  565SOL    HW2 2595   4.244   3.343   5.680
  566SOL     OW 2596   5.926   3.736   3.688
  566SOL    HW1 2597   5.831   3.732   3.721
  566SOL    HW2 2598   5.958   3.831   3.689
  567SOL     OW 2599   2.925   3.290   3.066
  567SOL    HW1 2600   2.886   3.364   3.121
  567SOL    HW2 2601   2.996   3.327   3.006
  568SOL     OW 2602   3.136   2.452   1.104
  568SOL    HW1 2603   3.149   2.492   1.195
  568SOL    HW2 2604   3.056   2.393   1.104
  569SOL     OW 2605   1.967   3.237   0.555
  569SOL    HW1 2606   1.988   3.326   0.596
  569SOL    HW2 2607   1.869   3.221   0.559
  570SOL     OW 2608   2.156   6.447   5.443
  570SOL    HW1 2609   2.183   6.359   5.406
  570SOL    HW2 2610   2.193   6.458   5.536
  571SOL     OW 2611   3.714   0.073   2.780
  571SOL    HW1 2612   3.670   0.095   2.868
  571SOL    HW2 2613   3.738   6.999   2.778
  572SOL     OW 2614   2.830   4.637   5.870
  572SOL    HW1 2615   2.837   4.717   5.810
  572SOL    HW2 2616   2.808   4.557   5.815
  573SOL     OW 2617   4.350   1.735   5.463
  573SOL    HW1 2618   4.365   1.670   5.538
  573SOL    HW2 2619   4.376   1.827   5.494
  574SOL     OW 2620   1.824   2.356   3.458
  574SOL    HW1 2621   1.901   2.320   3.511
  574SOL    HW2 2622   1.803   2.293   3.383
  575SOL     OW 2623   6.610   4.026   5.770
  575SOL    HW1 2624   6.527   3.975   5.791
  575SOL    HW2 2625   6.654   4.055   5.855
  576SOL     OW 2626   1.765   1.807   2.070
  576SOL    HW1 2627   1.723   1.897   2.078
  576SOL    HW2 2628   1.853   1.815   2.022
  577SOL     OW 2629   2.370   0.727   3.219
  577SOL    HW1 2630   2.447   0.744   3.280
  577SOL    HW2 2631   2.404   0.690   3.132
  578SOL     OW 2632   6.768   3.444   3.527
  578SOL    HW1 2633   6.672   3.445   3.555
  578SOL    HW2 2634   6.774   3.424   3.429
  579SOL     OW 2635   3.374   2.018   1.199
  579SOL    HW1 2636   3.376   2.116   1.181
  579SOL    HW2 2637   3.467   1.981   1.191
  580SOL     OW 2638   0.635   4.330   6.758
  580SOL    HW1 2639   0.714   4.335   6.819
  580SOL    HW2 2640   0.624   4.417   6.710
  581SOL     OW 2641   3.172   3.410   3.000
  581SOL    HW1 2642   3.198   3.330   3.053
  581SOL    HW2 2643   3.245   3.433   2.935
  582SOL     OW 2644   5.285   4.849   2.961
  582SOL    HW1 2645   5.309   4.889   3.050
  582SOL    HW2 2646   5.274   4.751   2.970
  583SOL     OW 2647   2.787   5.366   6.714
  583SOL    HW1 2648   2.705   5.423   6.701
  583SOL    HW2 2649   2.787   5.328   6.806
  584SOL     OW 2650   1.390   5.560   5.456
  584SOL    HW1 2651   1.305   5.548   5.507
  584SOL    HW2 2652   1.378   5.631   5.387
  585SOL     OW 2653   6.409   2.898   5.920
  585SOL    HW1 2654   6.448   2.978   5.875
  585SOL    HW2 2655   6.314   2.918   5.945
  586SOL     OW 2656   2.991   0.442   0.191
  586SOL    HW1 2657   2.990   0.504   0.269
  586SOL    HW2 2658   3.056   0.476   0.123
  587SOL     OW 2659   2.037   2.072   5.514
  587SOL    HW1 2660   1.937   2.082   5.520
  587SOL    HW2 2661   2.079   2.163   5.518
  588SOL     OW 2662   3.309   5.549   0.832
  588SOL    HW1 2663   3.250   5.607   0.888
  588SOL    HW2 2664   3.377   5.504   0.890
  589SOL     OW 2665   3.650   5.581   1.892
  589SOL    HW1 2666   3.581   5.596   1.822
  589SOL    HW2 2667   3.741   5.600   1.854
  590SOL     OW 2668   6.030   2.711   1.589
  590SOL    HW1 2669   6.087   2.756   1.658
  590SOL    HW2 2670   5.951   2.770   1.569
  591SOL     OW 2671   3.874   6.253   3.990
  591SOL    HW1 2672   3.921   6.338   4.010
  591SOL    HW2 2673   3.941   6.185   3.957
  592SOL     OW 2674   4.349   6.988   0.759
  592SOL    HW1 2675   4.337   0.050   0.812
  592SOL    HW2 2676   4.381   6.915   0.820
  593SOL     OW 2677   4.228   1.952   3.711
  593SOL    HW1 2678   4.218   1.999   3.623
  593SOL    HW2 2679   4.317   1.908   3.716
  594SOL     OW 2680   4.588   2.655   6.465
  594SOL    HW1 2681   4.493   2.680   6.481
  594SOL    HW2 2682   4.598   2.615   6.374
  595SOL     OW 2683   4.528   6.368   3.674
  595SOL    HW1 2684   4.436   6.391   3.706
  595SOL    HW2 2685   4.569   6.300   3.735
  596SOL     OW 2686   1.093   3.603   1.317
  596SOL    HW1 2687   1.106   3.505   1.308
  596SOL    HW2 2688   1.145   3.650   1.245
  597SOL     OW 2689   4.588   0.172   5.976
  597SOL    HW1 2690   4.653   0.120   6.030
  597SOL    HW2 2691   4.541   0.238   6.035
  598SOL     OW 2692   3.754   3.940   0.261
  598SOL    HW1 2693   3.815   4.006   0.217
  598SOL    HW2 2694   3.663   3.979   0.269
  599SOL     OW 2695   0.904   0.211   3.040
  599SOL    HW1 2696   0.844   0.139   3.006
  599SOL    HW2 2697   0.907   0.286   2.973
  600SOL     OW 2698   0.839   0.256   1.021
  600SOL    HW1 2699   0.754   0.203   1.029
  600SOL    HW2 2700   0.902   0.208   0.960
  601SOL     OW 2701   3.163   5.954   3.986
  601SOL    HW1 2702   3.210   5.973   4.073
  601SOL    HW2 2703   3.065   5.968   3.998
  602SOL     OW 2704   0.840   1.897   0.302
  602SOL    HW1 2705   0.879   1.980   0.264
  602SOL    HW2 2706   0.879   1.880   0.393
  603SOL     OW 2707   4.071   1.858   4.162
  603SOL    HW1 2708   4.046   1.954   4.175
  603SOL    HW2 2709   4.171   1.848   4.171
  604SOL     OW 2710   0.377   3.315   1.435
  604SOL    HW1 2711   0.418   3.235   1.478
  604SOL    HW2 2712   0.444   3.389   1.432
  605SOL     OW 2713   6.605   5.668   2.844
  605SOL    HW1 2714   6.624   5.607   2.921
  605SOL    HW2 2715   6.544   5.622   2.780
  606SOL     OW 2716   5.099   0.716   5.519
  606SOL    HW1 2717   5.126   0.699   5.424
  606SOL    HW2 2718   5.147   0.652   5.579
  607SOL     OW 2719   5.509   0.469   4.985
  607SOL    HW1 2720   5.508   0.568   4.993
  607SOL    HW2 2721   5.501   0.443   4.889
  608SOL     OW 2722   3.492   6.957   0.376
  608SOL    HW1 2723   3.542   6.911   0.450
  608SOL    HW2 2724   3.450   0.018   0.411
  609SOL     OW 2725   3.514   3.427   4.298
  609SOL    HW1 2726   3.578   3.455   4.227
  609SOL    HW2 2727   3.420   3.436   4.263
  610SOL     OW 2728   5.733   2.089   3.497
  610SOL    HW1 2729   5.692   1.999   3.509
  610SOL    HW2 2730   5.728   2.115   3.400
  611SOL     OW 2731   0.658   0.585   6.942
  611SOL    HW1 2732   0.646   0.634   6.855
  611SOL    HW2 2733   0.692   0.493   6.924
  612SOL     OW 2734   3.282   5.931   6.015
  612SOL    HW1 2735   3.210   5.866   6.039
  612SOL    HW2 2736   3.257   6.023   6.045
  613SOL     OW 2737   4.707   0.596   5.694
  613SOL    HW1 2738   4.692   0.678   5.749
  613SOL    HW2 2739   4.772   0.536   5.741
  614SOL     OW 2740   5.788   4.430   1.241
  614SOL    HW1 2741   5.859   4.471   1.298
  614SOL    HW2 2742   5.701   4.476   1.258
  615SOL     OW 2743   0.950   0.943   0.239
  615SOL    HW1 2744   0.948   0.974   0.334
  615SOL    HW2 2745   0.974   1.020   0.179
  616SOL     OW 2746   6.018   1.940   3.739
  616SOL    HW1 2747   5.945   2.004   3.764
  616SOL    HW2 2748   6.082   1.932   3.816
  617SOL     OW 2749   0.508   4.059   6.911
  617SOL    HW1 2750   0.503   4.157   6.930
  617SOL    HW2 2751   0.568   4.043   6.833
  618SOL     OW 2752   5.840   3.665   0.700
  618SOL    HW1 2753   5.894   3.624   0.774
  618SOL    HW2 2754   5.785   3.595   0.656
  619SOL     OW 2755   4.196   7.014   6.678
  619SOL    HW1 2756   4.107   0.035   6.689
  619SOL    HW2 2757   4.188   6.916   6.696
  620SOL     OW 2758   5.372   2.982   1.415
  620SOL    HW1 2759   5.362   3.005   1.318
  620SOL    HW2 2760   5.387   2.884   1.425
  621SOL     OW 2761   2.476   0.223   5.164
  621SOL    HW1 2762   2.550   0.158   5.181
  621SOL    HW2 2763   2.514   0.314   5.149
  622SOL     OW 2764   0.651   2.094   5.119
  622SOL    HW1 2765   0.596   2.045   5.186
  622SOL    HW2 2766   0.730   2.136   5.164
  623SOL     OW 2767   6.436   7.014   5.072
  623SOL    HW1 2768   6.439   6.914   5.069
  623SOL    HW2 2769   6.505   0.029   5.011
  624SOL     OW 2770   6.383   0.953   0.043
  624SOL    HW1 2771   6.439   0.872   0.062
  624SOL    HW2 2772   6.420   1.001   6.986
  625SOL     OW 2773   1.273   1.109   0.368
  625SOL    HW1 2774   1.253   1.020   0.409
  625SOL    HW2 2775   1.350   1.151   0.415
  626SOL     OW 2776   0.668   5.444   2.646
  626SOL    HW1 2777   0.733   5.515   2.618
  626SOL    HW2 2778   0.600   5.431   2.575
  627SOL     OW 2779   6.470   6.181   0.335
  627SOL    HW1 2780   6.568   6.158   0.330
  627SOL    HW2 2781   6.460   6.274   0.369
  628SOL     OW 2782   5.726   3.846   4.585
  628SOL    HW1 2783   5.661   3.814   4.517
  628SOL    HW2 2784   5.817   3.810   4.563
  629SOL     OW 2785   0.048   1.288   0.257
  629SOL    HW1 2786   6.992   1.228   0.243
  629SOL    HW2 2787   0.099   1.258   0.337
  630SOL     OW 2788   6.682   1.674   0.584
  630SOL    HW1 2789   6.648   1.767   0.592
  630SOL    HW2 2790   6.731   1.663   0.498
  631SOL     OW 2791   3.380   1.688   4.332
  631SOL    HW1 2792   3.412   1.644   4.249
  631SOL    HW2 2793   3.458   1.717   4.387
  632SOL     OW 2794   4.232   3.330   0.523
  632SOL    HW1 2795   4.228   3.244   0.574
  632SOL    HW2 2796   4.321   3.339   0.480
  633SOL     OW 2797   2.607   4.520   0.775
  633SOL    HW1 2798   2.514   4.482   0.773
  633SOL    HW2 2799   2.603   4.618   0.795
  634SOL     OW 2800   3.891   3.765   3.819
  634SOL    HW1 2801   3.977   3.714   3.815
  634SOL    HW2 2802   3.865   3.794   3.727
  635SOL     OW 2803   4.766   6.986   6.827
  635SOL    HW1 2804   4.853   6.938   6.842
  635SOL    HW2 2805   4.784   0.056   6.795
  636SOL     OW 2806   3.287   0.354   5.198
  636SOL    HW1 2807   3.218   0.422   5.225
  636SOL    HW2 2808   3.343   0.330   5.278
  637SOL     OW 2809   6.002   1.853   2.486
  637SOL    HW1 2810   5.940   1.906   2.543
  637SOL    HW2 2811   6.035   1.773   2.536
  638SOL     OW 2812   5.796   3.398   3.665
  638SOL    HW1 2813   5.723   3.466   3.655
  638SOL    HW2 2814   5.820   3.389   3.761
  639SOL     OW 2815   5.356   4.419   3.672
  639SOL    HW1 2816   5.416   4.492   3.703
  639SOL    HW2 2817   5.379   4.334   3.720
  640SOL     OW 2818   0.239   4.138   3.578
  640SOL    HW1 2819   0.311   4.069   3.584
  640SOL    HW2 2820   0.264   4.206   3.509
  641SOL     OW 2821   1.563   4.898   5.474
  641SOL    HW1 2822   1.593   4.931   5.385
  641SOL    HW2 2823   1.503   4.966   5.516
  642SOL     OW 2824   1.535   3.134   4.625
  642SOL    HW1 2825   1.603   3.122   4.696
  642SOL    HW2 2826   1.562   3.082   4.543
  643SOL     OW 2827   5.996   0.109   6.742
  643SOL    HW1 2828   5.940   0.185   6.709
  643SOL    HW2 2829   5.950   0.023   6.722
  644SOL     OW 2830   1.480   0.639   4.659
  644SOL    HW1 2831   1.404   0.702   4.675
  644SOL    HW2 2832   1.536   0.674   4.583
  645SOL     OW 2833   3.311   5.289   3.489
  645SOL    HW1 2834   3.326   5.330   3.579
  645SOL    HW2 2835   3.262   5.203   3.499
  646SOL     OW 2836   3.398   0.655   4.563
  646SOL    HW1 2837   3.334   0.719   4.607
  646SOL    HW2 2838   3.390   0.664   4.464
  647SOL     OW 2839   5.334   1.529   4.805
  647SOL    HW1 2840   5.352   1.512   4.902
  647SOL    HW2 2841   5.403   1.482   4.750
  648SOL     OW 2842   6.882   3.038   3.373
  648SOL    HW1 2843   6.796   3.047   3.322
  648SOL    HW2 2844   6.888   2.945   3.411
  649SOL     OW 2845   1.916   4.520   0.573
  649SOL    HW1 2846   1.996   4.564   0.533
  649SOL    HW2 2847   1.846   4.588   0.595
  650SOL     OW 2848   6.997   5.452   0.778
  650SOL    HW1 2849   6.918   5.506   0.750
  650SOL    HW2 2850   6.993   5.362   0.736
  651SOL     OW 2851   1.995   0.571   5.597
  651SOL    HW1 2852   1.997   0.513   5.678
  651SOL    HW2 2853   1.939   0.527   5.527
  652SOL     OW 2854   4.415   6.615   1.848
  652SOL    HW1 2855   4.325   6.598   1.890
  652SOL    HW2 2856   4.404   6.628   1.750
  653SOL     OW 2857   0.563   6.647   0.578
  653SOL    HW1 2858   0.511   6.605   0.503
  653SOL    HW2 2859   0.556   6.589   0.660
  654SOL     OW 2860   6.344   6.650   6.058
  654SOL    HW1 2861   6.280   6.652   6.136
  654SOL    HW2 2862   6.389   6.739   6.051
  655SOL     OW 2863   0.175   5.375   1.708
  655SOL    HW1 2864   0.133   5.285   1.697
  655SOL    HW2 2865   0.172   5.402   1.804
  656SOL     OW 2866   2.234   6.357   0.482
  656SOL    HW1 2867   2.323   6.400   0.462
  656SOL    HW2 2868   2.187   6.411   0.552
  657SOL     OW 2869   3.229   3.574   0.713
  657SOL    HW1 2870   3.238   3.478   0.685
  657SOL    HW2 2871   3.289   3.631   0.657
  658SOL     OW 2872   1.555   4.281   5.720
  658SOL    HW1 2873   1.588   4.354   5.660
  658SOL    HW2 2874   1.500   4.320   5.794
  659SOL     OW 2875   2.917   5.494   4.781
  659SOL    HW1 2876   2.895   5.467   4.875
  659SOL    HW2 2877   2.832   5.503   4.728
  660SOL     OW 2878   4.465   4.842   2.557
  660SOL    HW1 2879   4.477   4.773   2.486
  660SOL    HW2 2880   4.377   4.828   2.603
  661SOL     OW 2881   4.870   4.104   4.362
  661SOL    HW1 2882   4.920   4.026   4.399
  661SOL    HW2 2883   4.863   4.095   4.263
  662SOL     OW 2884   4.356   1.869   6.578
  662SOL    HW1 2885   4.292   1.897   6.649
  662SOL    HW2 2886   4.305   1.839   6.497
  663SOL     OW 2887   0.756   4.517   0.111
  663SOL    HW1 2888   0.798   4.496   0.022
  663SOL    HW2 2889   0.777   4.611   0.137
  664SOL     OW 2890   1.907   5.415   6.978
  664SOL    HW1 2891   1.983   5.435   0.017
  664SOL    HW2 2892   1.908   5.318   6.955
  665SOL     OW 2893   4.077   5.224   1.173
  665SOL    HW1 2894   4.053   5.143   1.227
  665SOL    HW2 2895   3.996   5.258   1.125
  666SOL     OW 2896   3.644   1.999   1.205
  666SOL    HW1 2897   3.632   1.975   1.302
  666SOL    HW2 2898   3.705   2.078   1.199
  667SOL     OW 2899   0.690   2.861   4.221
  667SOL    HW1 2900   0.640   2.817   4.146
  667SOL    HW2 2901   0.652   2.951   4.237
  668SOL     OW 2902   4.704   5.940   6.969
  668SOL    HW1 2903   4.740   5.884   6.894
  668SOL    HW2 2904   4.752   6.028   6.970
  669SOL     OW 2905   2.019   6.509   2.834
  669SOL    HW1 2906   2.037   6.482   2.739
  669SOL    HW2 2907   1.923   6.492   2.855
  670SOL     OW 2908   3.132   3.635   2.429
  670SOL    HW1 2909   3.139   3.654   2.332
  670SOL    HW2 2910   3.192   3.558   2.453
  671SOL     OW 2911   2.664   6.243   5.975
  671SOL    HW1 2912   2.739   6.257   6.039
  671SOL    HW2 2913   2.637   6.146   5.976
  672SOL     OW 2914   1.237   3.338   3.132
  672SOL    HW1 2915   1.140   3.355   3.118
  672SOL    HW2 2916   1.269   3.386   3.213
  673SOL     OW 2917   4.539   6.893   0.580
  673SOL    HW1 2918   4.599   6.828   0.626
  673SOL    HW2 2919   4.472   6.929   0.646
  674SOL     OW 2920   0.238   3.142   4.153
  674SOL    HW1 2921   0.181   3.210   4.200
  674SOL    HW2 2922   0.205   3.129   4.060
  675SOL     OW 2923   0.776   1.585   5.110
  675SOL    HW1 2924   0.715   1.545   5.178
  675SOL    HW2 2925   0.750   1.680   5.093
  676SOL     OW 2926   2.536   5.010   3.968
  676SOL    HW1 2927   2.547   4.972   3.876
  676SOL    HW2 2928   2.442   4.996   3.999
  677SOL     OW 2929   5.733   1.318   6.863
  677SOL    HW1 2930   5.779   1.406   6.852
  677SOL    HW2 2931   5.737   1.268   6.776
  678SOL     OW 2932   2.644   1.687   5.263
  678SOL    HW1 2933   2.600   1.598   5.249
  678SOL    HW2 2934   2.584   1.746   5.317
  679SOL     OW 2935   4.210   1.219   4.768
  679SOL    HW1 2936   4.288   1.266   4.811
  679SOL    HW2 2937   4.216   1.229   4.669
  680SOL     OW 2938   5.826   4.419   5.778
  680SOL    HW1 2939   5.896   4.489   5.759
  680SOL    HW2 2940   5.810   4.366   5.695
  681SOL     OW 2941   6.551   0.113   0.896
  681SOL    HW1 2942   6.608   0.154   0.967
  681SOL    HW2 2943   6.596   0.030   0.862
  682SOL     OW 2944   2.508   6.676   6.043
  682SOL    HW1 2945   2.598   6.643   6.015
  682SOL    HW2 2946   2.499   6.666   6.142
  683SOL     OW 2947   3.248   0.349   6.180
  683SOL    HW1 2948   3.264   0.434   6.230
  683SOL    HW2 2949   3.297   0.353   6.092
  684SOL     OW 2950   6.207   1.500   6.170
  684SOL    HW1 2951   6.143   1.436   6.127
  684SOL    HW2 2952   6.155   1.570   6.220
  685SOL     OW 2953   4.837   0.405   5.855
  685SOL    HW1 2954   4.869   0.311   5.839
  685SOL    HW2 2955   4.805   0.413   5.950
  686SOL     OW 2956   6.115   2.816   3.105
  686SOL    HW1 2957   6.026   2.810   3.149
  686SOL    HW2 2958   6.125   2.743   3.038
  687SOL     OW 2959   6.821   2.919   5.845
  687SOL    HW1 2960   6.768   2.860   5.906
  687SOL    HW2 2961   6.879   2.979   5.900
  688SOL     OW 2962   1.961   3.621   6.794
  688SOL    HW1 2963   1.930   3.573   6.876
  688SOL    HW2 2964   2.054   3.593   6.771
  689SOL     OW 2965   0.695   4.727   5.580
  689SOL    HW1 2966   0.598   4.714   5.600
  689SOL    HW2 2967   0.718   4.681   5.494
  690SOL     OW 2968   0.820   3.261   3.127
  690SOL    HW1 2969   0.877   3.178   3.125
  690SOL    HW2 2970   0.808   3.290   3.222
  691SOL     OW 2971   2.348   1.524   6.439
  691SOL    HW1 2972   2.254   1.490   6.449
  691SOL    HW2 2973   2.346   1.623   6.423
  692SOL     OW 2974   3.298   6.823   3.674
  692SOL    HW1 2975   3.368   6.888   3.642
  692SOL    HW2 2976   3.340   6.757   3.736
  693SOL     OW 2977   6.387   1.663   3.437
  693SOL    HW1 2978   6.353   1.569   3.433
  693SOL    HW2 2979   6.423   1.682   3.528
  694SOL     OW 2980   3.501   5.494   2.440
  694SOL    HW1 2981   3.478   5.557   2.514
  694SOL    HW2 2982   3.465   5.403   2.461
  695SOL     OW 2983   5.361   5.010   5.105
  695SOL    HW1 2984   5.288   5.054   5.157
  695SOL    HW2 2985   5.363   4.912   5.126
  696SOL     OW 2986   3.547   5.018   2.348
  696SOL    HW1 2987   3.605   5.087   2.305
  696SOL    HW2 2988   3.597   4.974   2.422
  697SOL     OW 2989   0.949   3.452   6.249
  697SOL    HW1 2990   0.860   3.460   6.204
  697SOL    HW2 2991   1.015   3.409   6.187
  698SOL     OW 2992   5.976   0.181   4.693
  698SOL    HW1 2993   5.957   0.120   4.770
  698SOL    HW2 2994   5.909   0.167   4.621
  699SOL     OW 2995   1.292   4.277   0.277
  699SOL    HW1 2996   1.386   4.309   0.265
  699SOL    HW2 2997   1.250   4.324   0.355
  700SOL     OW 2998   3.123   1.987   3.744
  700SOL    HW1 2999   3.030   1.963   3.770
  700SOL    HW2 3000   3.127   2.004   3.645
  701SOL     OW 3001   1.065   4.773   6.709
  701SOL    HW1 3002   1.127   4.799   6.783
  701SOL    HW2 3003   1.027   4.855   6.667
  702SOL     OW 3004   6.027   6.501   6.391
  702SOL    HW1 3005   6.078   6.573   6.344
  702SOL    HW2 3006   5.991   6.436   6.324
  703SOL     OW 3007   4.295   3.369   6.817
  703SOL    HW1 3008   4.376   3.373   6.759
  703SOL    HW2 3009   4.250   3.458   6.818
  704SOL     OW 3010   2.136   1.176   6.134
  704SOL    HW1 3011   2.123   1.261   6.083
  704SOL    HW2 3012   2.088   1.183   6.222
  705SOL     OW 3013   4.918   6.697   3.880
  705SOL    HW1 3014   4.982   6.626   3.852
  705SOL    HW2 3015   4.825   6.670   3.852
  706SOL     OW 3016   3.969   1.620   3.496
  706SOL    HW1 3017   4.049   1.562   3.511
  706SOL    HW2 3018   3.970   1.653   3.402
  707SOL     OW 3019   4.523   6.815   2.249
  707SOL    HW1 3020   4.551   6.910   2.244
  707SOL    HW2 3021   4.430   6.809   2.286
  708SOL     OW 3022   4.323   0.215   0.881
  708SOL    HW1 3023   4.396   0.191   0.944
  708SOL    HW2 3024   4.279   0.300   0.911
  709SOL     OW 3025   1.164   5.484   0.931
  709SOL    HW1 3026   1.155   5.505   0.834
  709SOL    HW2 3027   1.230   5.409   0.943
  710SOL     OW 3028   3.554   4.001   2.994
  710SOL    HW1 3029   3.515   3.911   3.010
  710SOL    HW2 3030   3.529   4.062   3.069
  711SOL     OW 3031   0.517   2.208   5.741
  711SOL    HW1 3032   0.490   2.113   5.757
  711SOL    HW2 3033   0.435   2.266   5.736
  712SOL     OW 3034   2.209   4.520   0.869
  712SOL    HW1 3035   2.116   4.484   0.859
  712SOL    HW2 3036   2.223   4.550   0.964
  713SOL     OW 3037   3.230   4.131   0.400
  713SOL    HW1 3038   3.187   4.167   0.317
  713SOL    HW2 3039   3.221   4.198   0.474
  714SOL     OW 3040   5.974   4.617   5.198
  714SOL    HW1 3041   6.047   4.600   5.264
  714SOL    HW2 3042   5.993   4.568   5.113
  715SOL     OW 3043   4.816   5.997   0.240
  715SOL    HW1 3044   4.761   5.952   0.169
  715SOL    HW2 3045   4.874   5.929   0.285
  716SOL     OW 3046   1.008   5.524   1.169
  716SOL    HW1 3047   1.055   5.511   1.082
  716SOL    HW2 3048   1.067   5.494   1.244
  717SOL     OW 3049   6.258   4.732   6.426
  717SOL    HW1 3050   6.260   4.646   6.377
  717SOL    HW2 3051   6.213   4.802   6.370
  718SOL     OW 3052   3.675   1.700   6.070
  718SOL    HW1 3053   3.707   1.644   5.993
  718SOL    HW2 3054   3.587   1.666   6.102
  719SOL     OW 3055   5.919   2.458   1.860
  719SOL    HW1 3056   6.014   2.467   1.830
  719SOL    HW2 3057   5.893   2.362   1.861
  720SOL     OW 3058   3.150   1.329   6.336
  720SOL    HW1 3059   3.120   1.247   6.287
  720SOL    HW2 3060   3.092   1.406   6.311
  721SOL     OW 3061   1.237   0.328   4.812
  721SOL    HW1 3062   1.307   0.333   4.883
  721SOL    HW2 3063   1.171   0.257   4.836
  722SOL     OW 3064   3.797   6.641   5.087
  722SOL    HW1 3065   3.862   6.565   5.087
  722SOL    HW2 3066   3.845   6.726   5.107
  723SOL     OW 3067   2.342   2.864   1.778
  723SOL    HW1 3068   2.401   2.795   1.821
  723SOL    HW2 3069   2.263   2.882   1.837
  724SOL     OW 3070   1.105   1.330   4.509
  724SOL    HW1 3071   1.048   1.277   4.446
  724SOL    HW2 3072   1.069   1.322   4.602
  725SOL     OW 3073   2.985   5.078   1.616
  725SOL    HW1 3074   3.019   5.048   1.706
  725SOL    HW2 3075   3.022   5.018   1.545
  726SOL     OW 3076   3.939   4.311   0.644
  726SOL    HW1 3077   3.949   4.267   0.733
  726SOL    HW2 3078   3.952   4.410   0.655
  727SOL     OW 3079   4.384   5.925   4.241
  727SOL    HW1 3080   4.409   5.892   4.150
  727SOL    HW2 3081   4.365   5.847   4.301
  728SOL     OW 3082   0.526   4.598   4.885
  728SOL    HW1 3083   0.563   4.532   4.950
  728SOL    HW2 3084   0.510   4.553   4.797
  729SOL     OW 3085   2.504   0.474   0.571
  729SOL    HW1 3086   2.601   0.457   0.588
  729SOL    HW2 3087   2.493   0.562   0.525
  730SOL     OW 3088   5.636   0.006   3.538
  730SOL    HW1 3089   5.592   7.002   3.452
  730SOL    HW2 3090   5.727   0.043   3.519
  731SOL     OW 3091   5.600   3.394   6.178
  731SOL    HW1 3092   5.687   3.431   6.212
  731SOL    HW2 3093   5.552   3.348   6.252
  732SOL     OW 3094   0.407   3.643   0.750
  732SOL    HW1 3095   0.447   3.580   0.816
  732SOL    HW2 3096   0.381   3.593   0.668
  733SOL     OW 3097   5.425   4.214   4.640
  733SOL    HW1 3098   5.388   4.306   4.634
  733SOL    HW2 3099   5.506   4.207   4.581
  734SOL     OW 3100   6.855   4.310   2.725
  734SOL    HW1 3101   6.756   4.298   2.711
  734SOL    HW2 3102   6.877   4.289   2.820
  735SOL     OW 3103   3.374   2.281   1.126
  735SOL    HW1 3104   3.447   2.329   1.175
  735SOL    HW2 3105   3.297   2.344   1.112
  736SOL     OW 3106   0.030   6.846   2.511
  736SOL    HW1 3107   7.010   6.855   2.601
  736SOL    HW2 3108   7.015   6.765   2.465
  737SOL     OW 3109   4.851   3.247   0.725
  737SOL    HW1 3110   4.876   3.180   0.795
  737SOL    HW2 3111   4.929   3.309   0.710
  738SOL     OW 3112   1.835   5.145   3.846
  738SOL    HW1 3113   1.833   5.073   3.777
  738SOL    HW2 3114   1.822   5.104   3.937
  739SOL     OW 3115   4.580   6.086   5.436
  739SOL    HW1 3116   4.514   6.035   5.491
  739SOL    HW2 3117   4.559   6.073   5.339
  740SOL     OW 3118   5.581   0.336   0.539
  740SOL    HW1 3119   5.499   0.339   0.481
  740SOL    HW2 3120   5.579   0.412   0.604
  741SOL     OW 3121   2.138   6.212   3.337
  741SOL    HW1 3122   2.071   6.269   3.384
  741SOL    HW2 3123   2.148   6.125   3.386
  742SOL     OW 3124   2.161   6.864   2.020
  742SOL    HW1 3125   2.225   6.787   2.009
  742SOL    HW2 3126   2.180   6.911   2.106
  743SOL     OW 3127   1.413   4.204   4.747
  743SOL    HW1 3128   1.409   4.108   4.719
  743SOL    HW2 3129   1.494   4.247   4.708
  744SOL     OW 3130   6.489   0.172   6.292
  744SOL    HW1 3131   6.445   0.163   6.203
  744SOL    HW2 3132   6.547   0.253   6.292
  745SOL     OW 3133   0.922   5.905   4.391
  745SOL    HW1 3134   0.985   5.970   4.432
  745SOL    HW2 3135   0.932   5.907   4.291
  746SOL     OW 3136   0.557   6.675   5.071
  746SOL    HW1 3137   0.654   6.697   5.065
  746SOL    HW2 3138   0.503   6.758   5.064
  747SOL     OW 3139   4.607   4.931   4.511
  747SOL    HW1 3140   4.540   4.858   4.527
  747SOL    HW2 3141   4.633   4.933   4.415
  748SOL     OW 3142   4.101   5.342   2.868
  748SOL    HW1 3143   4.194   5.325   2.900
  748SOL    HW2 3144   4.036   5.315   2.939
  749SOL     OW 3145   6.891   3.740   4.912
  749SOL    HW1 3146   6.861   3.776   4.824
  749SOL    HW2 3147   6.855   3.648   4.925
  750SOL     OW 3148   1.704   3.092   0.585
  750SOL    HW1 3149   1.614   3.133   0.604
  750SOL    HW2 3150   1.711   3.005   0.632
  751SOL     OW 3151   3.860   1.581   5.860
  751SOL    HW1 3152   3.902   1.616   5.943
  751SOL    HW2 3153   3.928   1.580   5.786
  752SOL     OW 3154   4.083   2.031   1.851
  752SOL    HW1 3155   4.043   2.085   1.926
  752SOL    HW2 3156   4.176   2.005   1.875
  753SOL     OW 3157   1.870   3.012   4.000
  753SOL    HW1 3158   1.873   2.954   4.081
  753SOL    HW2 3159   1.810   3.090   4.016
  754SOL     OW 3160   6.125   3.774   6.039
  754SOL    HW1 3161   6.223   3.790   6.052
  754SOL    HW2 3162   6.074   3.831   6.104
  755SOL     OW 3163   1.012   6.268   6.961
  755SOL    HW1 3164   0.990   6.364   6.976
  755SOL    HW2 3165   0.983   6.242   6.868
  756SOL     OW 3166   5.082   6.547   1.174
  756SOL    HW1 3167   5.126   6.461   1.150
  756SOL    HW2 3168   5.051   6.593   1.091
  757SOL     OW 3169   0.534   6.121   3.060
  757SOL    HW1 3170   0.550   6.064   3.140
  757SOL    HW2 3171   0.484   6.070   2.990
  758SOL     OW 3172   3.864   0.452   1.414
  758SOL    HW1 3173   3.800   0.417   1.346
  758SOL    HW2 3174   3.847   0.407   1.502
  759SOL     OW 3175   7.006   0.887   0.841
  759SOL    HW1 3176   0.039   0.834   0.777
  759SOL    HW2 3177   0.025   0.977   0.854
  760SOL     OW 3178   4.064   1.266   6.468
  760SOL    HW1 3179   3.977   1.220   6.486
  760SOL    HW2 3180   4.130   1.243   6.540
  761SOL     OW 3181   5.424   3.929   6.027
  761SOL    HW1 3182   5.492   3.884   6.086
  761SOL    HW2 3183   5.458   3.933   5.933
  762SOL     OW 3184   2.439   6.476   3.598
  762SOL    HW1 3185   2.382   6.470   3.681
  762SOL    HW2 3186   2.393   6.428   3.524
  763SOL     OW 3187   4.329   5.581   6.280
  763SOL    HW1 3188   4.304   5.624   6.194
  763SOL    HW2 3189   4.426   5.557   6.278
  764SOL     OW 3190   4.665   0.201   4.570
  764SOL    HW1 3191   4.693   0.268   4.639
  764SOL    HW2 3192   4.602   0.245   4.506
  765SOL     OW 3193   1.104   6.177   1.297
  765SOL    HW1 3194   1.165   6.223   1.362
  765SOL    HW2 3195   1.103   6.079   1.317
  766SOL     OW 3196   0.389   1.895   0.594
  766SOL    HW1 3197   0.291   1.874   0.589
  766SOL    HW2 3198   0.440   1.810   0.610
  767SOL     OW 3199   0.529   6.082   2.607
  767SOL    HW1 3200   0.530   6.182   2.603
  767SOL    HW2 3201   0.452   6.047   2.553
  768SOL     OW 3202   2.342   0.173   2.299
  768SOL    HW1 3203   2.391   0.153   2.215
  768SOL    HW2 3204   2.306   0.266   2.295
  769SOL     OW 3205   2.714   6.732   3.774
  769SOL    HW1 3206   2.777   6.798   3.734
  769SOL    HW2 3207   2.725   6.644   3.729
  770SOL     OW 3208   1.977   4.192   2.918
  770SOL    HW1 3209   1.933   4.235   2.839
  770SOL    HW2 3210   2.072   4.170   2.895
  771SOL     OW 3211   1.880   5.187   2.823
  771SOL    HW1 3212   1.941   5.108   2.810
  771SOL    HW2 3213   1.880   5.213   2.920
  772SOL     OW 3214   6.690   4.807   0.822
  772SOL    HW1 3215   6.723   4.901   0.816
  772SOL    HW2 3216   6.592   4.807   0.840
  773SOL     OW 3217   0.478   3.803   3.611
  773SOL    HW1 3218   0.472   3.846   3.521
  773SOL    HW2 3219   0.518   3.712   3.601
  774SOL     OW 3220   1.196   1.492   2.349
  774SOL    HW1 3221   1.131   1.448   2.287
  774SOL    HW2 3222   1.154   1.504   2.439
  775SOL     OW 3223   0.725   1.841   3.432
  775SOL    HW1 3224   0.652   1.891   3.383
  775SOL    HW2 3225   0.717   1.858   3.530
  776SOL     OW 3226   6.971   1.433   5.824
  776SOL    HW1 3227   0.048   1.436   5.813
  776SOL    HW2 3228   6.947   1.472   5.913
  777SOL     OW 3229   3.033   6.485   0.925
  777SOL    HW1 3230   3.039   6.478   1.024
  777SOL    HW2 3231   3.114   6.532   0.890
  778SOL     OW 3232   3.467   1.586   4.089
  778SOL    HW1 3233   3.485   1.682   4.070
  778SOL    HW2 3234   3.541   1.530   4.051
  779SOL     OW 3235   0.671   1.690   2.659
  779SOL    HW1 3236   0.728   1.695   2.577
  779SOL    HW2 3237   0.728   1.664   2.737
  780SOL     OW 3238   6.321   3.834   4.530
  780SOL    HW1 3239   6.378   3.888   4.592
  780SOL    HW2 3240   6.379   3.789   4.462
  781SOL     OW 3241   5.478   0.870   6.199
  781SOL    HW1 3242   5.452   0.783   6.157
  781SOL    HW2 3243   5.538   0.853   6.277
  782SOL     OW 3244   1.394   4.012   0.456
  782SOL    HW1 3245   1.327   4.052   0.394
  782SOL    HW2 3246   1.367   4.029   0.551
  783SOL     OW 3247   3.772   4.496   0.817
  783SOL    HW1 3248   3.694   4.558   0.825
  783SOL    HW2 3249   3.746   4.416   0.763
  784SOL     OW 3250   5.119   6.601   5.792
  784SOL    HW1 3251   5.184   6.673   5.768
  784SOL    HW2 3252   5.077   6.623   5.881
  785SOL     OW 3253   0.193   2.107   3.045
  785SOL    HW1 3254   0.293   2.117   3.038
  785SOL    HW2 3255   0.170   2.066   3.134
  786SOL     OW 3256   1.438   0.730   0.831
  786SOL    HW1 3257   1.485   0.743   0.743
  786SOL    HW2 3258   1.341   0.713   0.814
  787SOL     OW 3259   3.268   1.567   6.663
  787SOL    HW1 3260   3.339   1.621   6.708
  787SOL    HW2 3261   3.217   1.625   6.600
  788SOL     OW 3262   2.381   2.720   4.772
  788SOL    HW1 3263   2.396   2.808   4.815
  788SOL    HW2 3264   2.401   2.646   4.837
  789SOL     OW 3265   5.469   4.256   1.411
  789SOL    HW1 3266   5.486   4.298   1.322
  789SOL    HW2 3267   5.446   4.160   1.399
  790SOL     OW 3268   2.435   1.665   4.192
  790SOL    HW1 3269   2.439   1.613   4.277
  790SOL    HW2 3270   2.351   1.644   4.143
  791SOL     OW 3271   3.738   0.355   3.393
  791SOL    HW1 3272   3.788   0.439   3.376
  791SOL    HW2 3273   3.782   0.279   3.345
  792SOL     OW 3274   0.289   0.518   1.617
  792SOL    HW1 3275   0.366   0.454   1.620
  792SOL    HW2 3276   0.264   0.536   1.522
  793SOL     OW 3277   4.246   6.038   2.144
  793SOL    HW1 3278   4.157   6.027   2.099
  793SOL    HW2 3279   4.232   6.072   2.237
  794SOL     OW 3280   2.763   3.251   5.412
  794SOL    HW1 3281   2.690   3.318   5.397
  794SOL    HW2 3282   2.837   3.292   5.464
  795SOL     OW 3283   2.821   5.393   5.005
  795SOL    HW1 3284   2.831   5.311   5.060
  795SOL    HW2 3285   2.746   5.449   5.041
  796SOL     OW 3286   0.940   2.312   6.262
  796SOL    HW1 3287   0.950   2.319   6.361
  796SOL    HW2 3288   1.006   2.373   6.217
  797SOL     OW 3289   5.531   2.389   2.460
  797SOL    HW1 3290   5.463   2.451   2.498
  797SOL    HW2 3291   5.485   2.317   2.408
  798SOL     OW 3292   5.108   0.234   1.149
  798SOL    HW1 3293   5.074   0.281   1.230
  798SOL    HW2 3294   5.061   0.146   1.139
  799SOL     OW 3295   6.653   1.183   3.907
  799SOL    HW1 3296   6.732   1.200   3.847
  799SOL    HW2 3297   6.574   1.161   3.851
  800SOL     OW 3298   5.767   1.198   2.529
  800SOL    HW1 3299   5.784   1.292   2.559
  800SOL    HW2 3300   5.831   1.136   2.575
  801SOL     OW 3301   1.305   3.853   2.892
  801SOL    HW1 3302   1.252   3.907   2.957
  801SOL    HW2 3303   1.356   3.782   2.941
  802SOL     OW 3304   4.382   0.432   0.416
  802SOL    HW1 3305   4.305   0.396   0.364
  802SOL    HW2 3306   4.407   0.367   0.488
  803SOL     OW 3307   6.944   5.562   4.965
  803SOL    HW1 3308   6.943   5.468   5.000
  803SOL    HW2 3309   6.943   5.560   4.865
  804SOL     OW 3310   6.093   6.486   6.970
  804SOL    HW1 3311   6.135   6.395   6.977
  804SOL    HW2 3312   6.017   6.493   0.012
  805SOL     OW 3313   3.829   2.389   5.953
  805SOL    HW1 3314   3.851   2.299   5.989
  805SOL    HW2 3315   3.785   2.380   5.864
  806SOL     OW 3316   4.436   1.311   4.859
  806SOL    HW1 3317   4.535   1.325   4.863
  806SOL    HW2 3318   4.395   1.338   4.946
  807SOL     OW 3319   0.709   1.450   3.404
  807SOL    HW1 3320   0.801   1.416   3.381
  807SOL    HW2 3321   0.717   1.527   3.468
  808SOL     OW 3322   4.823   3.676   6.227
  808SOL    HW1 3323   4.881   3.679   6.145
  808SOL    HW2 3324   4.737   3.629   6.206
  809SOL     OW 3325   0.908   4.605   1.057
  809SOL    HW1 3326   0.898   4.508   1.038
  809SOL    HW2 3327   0.983   4.643   1.003
  810SOL     OW 3328   3.988   2.451   1.309
  810SOL    HW1 3329   3.923   2.388   1.267
  810SOL    HW2 3330   3.957   2.475   1.401
  811SOL     OW 3331   4.469   5.183   3.710
  811SOL    HW1 3332   4.527   5.141   3.641
  811SOL    HW2 3333   4.404   5.245   3.667
  812SOL     OW 3334   0.089   1.389   2.021
  812SOL    HW1 3335   0.012   1.330   2.048
  812SOL    HW2 3336   0.059   1.453   1.951
  813SOL     OW 3337   3.587   4.940   4.263
  813SOL    HW1 3338   3.640   4.862   4.228
  813SOL    HW2 3339   3.639   5.024   4.248
  814SOL     OW 3340   5.078   6.310   3.530
  814SOL    HW1 3341   5.169   6.332   3.495
  814SOL    HW2 3342   5.026   6.394   3.544
  815SOL     OW 3343   6.981   3.050   2.790
  815SOL    HW1 3344   6.932   3.000   2.720
  815SOL    HW2 3345   6.952   3.146   2.790
  816SOL     OW 3346   6.787   0.084   6.924
  816SOL    HW1 3347   6.697   0.089   6.967
  816SOL    HW2 3348   6.814   7.010   6.914
  817SOL     OW 3349   1.779   3.717   1.978
  817SOL    HW1 3350   1.851   3.658   2.014
  817SOL    HW2 3351   1.781   3.713   1.878
  818SOL     OW 3352   6.659   3.415   0.876
  818SOL    HW1 3353   6.730   3.415   0.805
  818SOL    HW2 3354   6.682   3.348   0.946
  819SOL     OW 3355   6.128   2.935   3.738
  819SOL    HW1 3356   6.203   2.986   3.696
  819SOL    HW2 3357   6.164   2.877   3.811
  820SOL     OW 3358   1.698   2.513   6.085
  820SOL    HW1 3359   1.705   2.519   6.185
  820SOL    HW2 3360   1.785   2.480   6.048
  821SOL     OW 3361   2.484   5.157   0.350
  821SOL    HW1 3362   2.578   5.140   0.379
  821SOL    HW2 3363   2.442   5.071   0.322
  822SOL     OW 3364   1.062   5.118   4.744
  822SOL    HW1 3365   1.043   5.123   4.646
  822SOL    HW2 3366   1.146   5.168   4.764
  823SOL     OW 3367   4.924   4.267   6.734
  823SOL    HW1 3368   4.914   4.204   6.811
  823SOL    HW2 3369   4.856   4.341   6.742
  824SOL     OW 3370   5.658   0.948   5.316
  824SOL    HW1 3371   5.561   0.961   5.338
  824SOL    HW2 3372   5.712   0.952   5.400
  825SOL     OW 3373   1.704   4.026   1.173
  825SOL    HW1 3374   1.624   4.070   1.132
  825SOL    HW2 3375   1.691   3.927   1.174
  826SOL     OW 3376   5.475   3.920   0.148
  826SOL    HW1 3377   5.448   4.015   0.162
  826SOL    HW2 3378   5.483   3.902   0.050
  827SOL     OW 3379   2.783   5.508   5.769
  827SOL    HW1 3380   2.882   5.507   5.755
  827SOL    HW2 3381   2.737   5.476   5.687
  828SOL     OW 3382   6.199   0.466   5.491
  828SOL    HW1 3383   6.176   0.517   5.408
  828SOL    HW2 3384   6.250   0.526   5.553
  829SOL     OW 3385   3.028   3.529   4.512
  829SOL    HW1 3386   2.980   3.459   4.566
  829SOL    HW2 3387   2.985   3.618   4.528
  830SOL     OW 3388   4.965   4.910   5.992
  830SOL    HW1 3389   4.910   4.986   5.960
  830SOL    HW2 3390   5.062   4.930   5.976
  831SOL     OW 3391   0.066   0.421   4.809
  831SOL    HW1 3392   7.004   0.385   4.770
  831SOL    HW2 3393   0.057   0.520   4.822
  832SOL     OW 3394   1.567   0.919   0.179
  832SOL    HW1 3395   1.647   0.936   0.121
  832SOL    HW2 3396   1.514   1.004   0.189
  833SOL     OW 3397   0.458   5.696   6.005
  833SOL    HW1 3398   0.450   5.633   5.928
  833SOL    HW2 3399   0.495   5.783   5.973
  834SOL     OW 3400   3.654   4.025   1.660
  834SOL    HW1 3401   3.661   4.120   1.687
  834SOL    HW2 3402   3.590   4.017   1.583
  835SOL     OW 3403   3.589   6.941   4.134
  835SOL    HW1 3404   3.569   6.934   4.232
  835SOL    HW2 3405   3.593   0.015   4.107
  836SOL     OW 3406   3.280   6.503   6.925
  836SOL    HW1 3407   3.200   6.480   6.870
  836SOL    HW2 3408   3.316   6.421   6.968
  837SOL     OW 3409   5.119   6.481   6.312
  837SOL    HW1 3410   5.027   6.488   6.351
  837SOL    HW2 3411   5.165   6.570   6.319
  838SOL     OW 3412   0.649   0.576   4.688
  838SOL    HW1 3413   0.588   0.654   4.687
  838SOL    HW2 3414   0.665   0.544   4.594
  839SOL     OW 3415   2.804   1.719   1.988
  839SOL    HW1 3416   2.876   1.658   1.955
  839SOL    HW2 3417   2.833   1.762   2.073
  840SOL     OW 3418   6.007   0.281   5.630
  840SOL    HW1 3419   6.092   0.312   5.586
  840SOL    HW2 3420   5.957   0.223   5.566
  841SOL     OW 3421   5.810   4.440   0.566
  841SOL    HW1 3422   5.806   4.503   0.643
  841SOL    HW2 3423   5.786   4.488   0.482
  842SOL     OW 3424   4.257   5.015   4.337
  842SOL    HW1 3425   4.184   4.948   4.344
  842SOL    HW2 3426   4.331   4.979   4.279
  843SOL     OW 3427   4.767   2.128   0.089
  843SOL    HW1 3428   4.769   2.061   0.016
  843SOL    HW2 3429   4.673   2.160   0.104
  844SOL     OW 3430   4.469   6.291   1.085
  844SOL    HW1 3431   4.481   6.373   1.140
  844SOL    HW2 3432   4.410   6.227   1.133
  845SOL     OW 3433   6.461   3.413   4.194
  845SOL    HW1 3434   6.561   3.405   4.189
  845SOL    HW2 3435   6.419   3.347   4.131
  846SOL     OW 3436   5.204   1.694   6.730
  846SOL    HW1 3437   5.242   1.618   6.783
  846SOL    HW2 3438   5.150   1.658   6.654
  847SOL     OW 3439   6.267   3.474   0.628
  847SOL    HW1 3440   6.218   3.538   0.569
  847SOL    HW2 3441   6.315   3.524   0.700
  848SOL     OW 3442   6.298   1.241   6.567
  848SOL    HW1 3443   6.339   1.150   6.572
  848SOL    HW2 3444   6.362   1.303   6.520
  849SOL     OW 3445   0.745   5.677   5.492
  849SOL    HW1 3446   0.771   5.590   5.533
  849SOL    HW2 3447   0.695   5.733   5.558
  850SOL     OW 3448   5.013   0.778   3.456
  850SOL    HW1 3449   5.101   0.777   3.407
  850SOL    HW2 3450   4.971   0.687   3.450
  851SOL     OW 3451   6.890   1.534   1.052
  851SOL    HW1 3452   6.863   1.498   0.963
  851SOL    HW2 3453   6.884   1.461   1.121
  852SOL     OW 3454   2.611   2.458   6.886
  852SOL    HW1 3455   2.572   2.377   6.843
  852SOL    HW2 3456   2.557   2.483   6.966
  853SOL     OW 3457   1.313   3.832   3.400
  853SOL    HW1 3458   1.247   3.810   3.471
  853SOL    HW2 3459   1.317   3.931   3.387
  854SOL     OW 3460   5.043   6.123   2.308
  854SOL    HW1 3461   4.950   6.147   2.339
  854SOL    HW2 3462   5.098   6.206   2.303
  855SOL     OW 3463   5.749   6.528   1.196
  855SOL    HW1 3464   5.811   6.579   1.255
  855SOL    HW2 3465   5.775   6.540   1.100
  856SOL     OW 3466   2.196   1.648   5.131
  856SOL    HW1 3467   2.115   1.645   5.072
  856SOL    HW2 3468   2.185   1.719   5.200
  857SOL     OW 3469   5.824   5.359   1.041
  857SOL    HW1 3470   5.904   5.400   0.998
  857SOL    HW2 3471   5.753   5.429   1.053
  858SOL     OW 3472   2.558   4.559   2.061
  858SOL    HW1 3473   2.558   4.612   2.145
  858SOL    HW2 3474   2.647   4.569   2.015
  859SOL     OW 3475   5.944   5.357   6.909
  859SOL    HW1 3476   5.939   5.288   6.836
  859SOL    HW2 3477   5.866   5.347   6.970
  860SOL     OW 3478   4.803   4.316   0.695
  860SOL    HW1 3479   4.818   4.307   0.793
  860SOL    HW2 3480   4.890   4.309   0.646
  861SOL     OW 3481   1.868   6.994   4.779
  861SOL    HW1 3482   1.882   0.044   4.712
  861SOL    HW2 3483   1.869   0.010   4.871
  862SOL     OW 3484   6.394   3.741   5.128
  862SOL    HW1 3485   6.338   3.822   5.110
  862SOL    HW2 3486   6.337   3.669   5.167
  863SOL     OW 3487   1.466   0.405   0.467
  863SOL    HW1 3488   1.472   0.342   0.545
  863SOL    HW2 3489   1.492   0.496   0.497
  864SOL     OW 3490   5.680   4.452   3.910
  864SOL    HW1 3491   5.683   4.514   3.831
  864SOL    HW2 3492   5.752   4.384   3.901
  865SOL     OW 3493   0.950   6.601   4.823
  865SOL    HW1 3494   1.023   6.573   4.760
  865SOL    HW2 3495   0.861   6.591   4.778
  866SOL     OW 3496   1.914   1.862   1.469
  866SOL    HW1 3497   1.852   1.819   1.404
  866SOL    HW2 3498   1.902   1.961   1.466
  867SOL     OW 3499   3.215   2.510   1.355
  867SOL    HW1 3500   3.158   2.570   1.412
  867SOL    HW2 3501   3.308   2.509   1.392
  868SOL     OW 3502   6.104   6.367   0.921
  868SOL    HW1 3503   6.090   6.455   0.966
  868SOL    HW2 3504   6.184   6.322   0.961
  869SOL     OW 3505   6.424   5.541   2.679
  869SOL    HW1 3506   6.435   5.472   2.607
  869SOL    HW2 3507   6.416   5.495   2.768
  870SOL     OW 3508   5.964   4.015   0.891
  870SOL    HW1 3509   5.888   3.994   0.828
  870SOL    HW2 3510   5.929   4.067   0.968
  871SOL     OW 3511   7.007   3.031   2.027
  871SOL    HW1 3512   6.972   3.016   1.935
  871SOL    HW2 3513   0.032   2.949   2.059
  872SOL     OW 3514   6.624   3.857   4.233
  872SOL    HW1 3515   6.683   3.920   4.182
  872SOL    HW2 3516   6.673   3.822   4.312
  873SOL     OW 3517   4.239   0.777   2.835
  873SOL    HW1 3518   4.193   0.844   2.893
  873SOL    HW2 3519   4.172   0.736   2.772
  874SOL     OW 3520   1.436   3.790   5.639
  874SOL    HW1 3521   1.498   3.798   5.717
  874SOL    HW2 3522   1.342   3.811   5.669
  875SOL     OW 3523   5.044   4.178   0.778
  875SOL    HW1 3524   4.968   4.159   0.840
  875SOL    HW2 3525   5.040   4.273   0.748
  876SOL     OW 3526   6.584   4.689   3.245
  876SOL    HW1 3527   6.487   4.673   3.224
  876SOL    HW2 3528   6.628   4.601   3.261
  877SOL     OW 3529   4.864   4.709   6.868
  877SOL    HW1 3530   4.959   4.680   6.879
  877SOL    HW2 3531   4.808   4.631   6.842
  878SOL     OW 3532   4.022   5.741   6.614
  878SOL    HW1 3533   4.037   5.686   6.696
  878SOL    HW2 3534   4.103   5.736   6.556
  879SOL     OW 3535   4.158   2.266   2.567
  879SOL    HW1 3536   4.079   2.264   2.628
  879SOL    HW2 3537   4.127   2.253   2.473
  880SOL     OW 3538   3.279   4.682   0.198
  880SOL    HW1 3539   3.230   4.633   0.126
  880SOL    HW2 3540   3.354   4.626   0.232
  881SOL     OW 3541   4.266   4.804   4.997
  881SOL    HW1 3542   4.311   4.718   4.971
  881SOL    HW2 3543   4.204   4.787   5.074
  882SOL     OW 3544   2.033   1.414   3.808
  882SOL    HW1 3545   2.028   1.512   3.785
  882SOL    HW2 3546   1.959   1.392   3.872
  883SOL     OW 3547   4.622   5.120   5.422
  883SOL    HW1 3548   4.539   5.129   5.368
  883SOL    HW2 3549   4.612   5.169   5.509
  884SOL     OW 3550   6.772   3.604   2.461
  884SOL    HW1 3551   6.714   3.683   2.481
  884SOL    HW2 3552   6.723   3.541   2.402
  885SOL     OW 3553   5.680   6.593   0.098
  885SOL    HW1 3554   5.635   6.682   0.095
  885SOL    HW2 3555   5.625   6.526   0.047
  886SOL     OW 3556   4.443   0.808   0.567
  886SOL    HW1 3557   4.452   0.756   0.482
  886SOL    HW2 3558   4.347   0.824   0.587
  887SOL     OW 3559   4.154   6.326   5.536
  887SOL    HW1 3560   4.219   6.399   5.515
  887SOL    HW2 3561   4.189   6.272   5.612
  888SOL     OW 3562   6.735   6.420   3.421
  888SOL    HW1 3563   6.652   6.387   3.468
  888SOL    HW2 3564   6.745   6.518   3.437
  889SOL     OW 3565   0.191   0.404   5.754
  889SOL    HW1 3566   0.151   0.316   5.781
  889SOL    HW2 3567   0.193   0.466   5.832
  890SOL     OW 3568   2.864   4.778   2.168
  890SOL    HW1 3569   2.899   4.862   2.127
  890SOL    HW2 3570   2.865   4.705   2.100
  891SOL     OW 3571   5.714   3.675   1.491
  891SOL    HW1 3572   5.697   3.584   1.528
  891SOL    HW2 3573   5.793   3.716   1.538
  892SOL     OW 3574   4.174   3.778   0.417
  892SOL    HW1 3575   4.257   3.777   0.360
  892SOL    HW2 3576   4.122   3.694   0.400
  893SOL     OW 3577   2.035   0.793   0.824
  893SOL    HW1 3578   2.125   0.770   0.861
  893SOL    HW2 3579   2.018   0.890   0.836
  894SOL     OW 3580   2.176   3.893   4.111
  894SOL    HW1 3581   2.192   3.794   4.117
  894SOL    HW2 3582   2.112   3.912   4.036
  895SOL     OW 3583   1.728   0.102   4.106
  895SOL    HW1 3584   1.672   0.123   4.186
  895SOL    HW2 3585   1.733   0.003   4.093
  896SOL     OW 3586   5.859   5.765   3.990
  896SOL    HW1 3587   5.849   5.825   4.070
  896SOL    HW2 3588   5.948   5.780   3.948
  897SOL     OW 3589   4.731   1.193   0.649
  897SOL    HW1 3590   4.670   1.114   0.661
  897SOL    HW2 3591   4.712   1.262   0.718
  898SOL     OW 3592   5.059   5.738   4.068
  898SOL    HW1 3593   5.047   5.835   4.049
  898SOL    HW2 3594   5.042   5.686   3.984
  899SOL     OW 3595   0.352   4.855   0.164
  899SOL    HW1 3596   0.450   4.868   0.145
  899SOL    HW2 3597   0.317   4.934   0.215
  900SOL     OW 3598   6.118   5.532   2.045
  900SOL    HW1 3599   6.198   5.473   2.044
  900SOL    HW2 3600   6.073   5.527   2.134
  901SOL     OW 3601   0.407   1.870   4.710
  901SOL    HW1 3602   0.358   1.957   4.712
  901SOL    HW2 3603   0.420   1.837   4.804
  902SOL     OW 3604   0.375   1.035   6.509
  902SOL    HW1 3605   0.355   1.107   6.575
  902SOL    HW2 3606   0.451   1.064   6.451
  903SOL     OW 3607   6.530   4.310   7.018
  903SOL    HW1 3608   6.522   4.405   0.025
  903SOL    HW2 3609   6.621   4.276   0.017
  904SOL     OW 3610   1.538   1.877   4.022
  904SOL    HW1 3611   1.618   1.899   4.077
  904SOL    HW2 3612   1.523   1.949   3.955
  905SOL     OW 3613   5.420   2.567   6.995
  905SOL    HW1 3614   5.337   2.518   6.969
  905SOL    HW2 3615   5.476   2.584   6.914
  906SOL     OW 3616   0.441   4.318   0.012
  906SOL    HW1 3617   0.472   4.321   0.107
  906SOL    HW2 3618   0.466   4.403   6.989
  907SOL     OW 3619   6.022   2.237   2.987
  907SOL    HW1 3620   6.082   2.163   3.018
  907SOL    HW2 3621   6.076   2.319   2.970
  908SOL     OW 3622   1.201   6.869   4.039
  908SOL    HW1 3623   1.237   6.918   3.960
  908SOL    HW2 3624   1.239   6.907   4.122
  909SOL     OW 3625   2.698   1.028   0.344
  909SOL    HW1 3626   2.724   1.043   0.439
  909SOL    HW2 3627   2.633   0.953   0.338
  910SOL     OW 3628   2.073   0.465   0.882
  910SOL    HW1 3629   2.117   0.487   0.795
  910SOL    HW2 3630   1.986   0.514   0.889
  911SOL     OW 3631   0.385   4.897   1.401
  911SOL    HW1 3632   0.320   4.832   1.360
  911SOL    HW2 3633   0.425   4.857   1.483
  912SOL     OW 3634   0.762   1.382   5.599
  912SOL    HW1 3635   0.854   1.414   5.577
  912SOL    HW2 3636   0.698   1.459   5.592
  913SOL     OW 3637   1.828   0.597   3.283
  913SOL    HW1 3638   1.822   0.592   3.383
  913SOL    HW2 3639   1.920   0.627   3.257
  914SOL     OW 3640   2.463   5.612   4.937
  914SOL    HW1 3641   2.400   5.547   4.980
  914SOL    HW2 3642   2.442   5.618   4.839
  915SOL     OW 3643   0.635   3.235   0.710
  915SOL    HW1 3644   0.670   3.238   0.616
  915SOL    HW2 3645   0.630   3.139   0.740
  916SOL     OW 3646   2.118   2.164   1.642
  916SOL    HW1 3647   2.131   2.065   1.636
  916SOL    HW2 3648   2.026   2.188   1.610
  917SOL     OW 3649   3.978   0.687   1.336
  917SOL    HW1 3650   4.058   0.672   1.279
  917SOL    HW2 3651   3.942   0.599   1.368
  918SOL     OW 3652   3.198   6.325   6.622
  918SOL    HW1 3653   3.171   6.266   6.546
  918SOL    HW2 3654   3.296   6.341   6.620
  919SOL     OW 3655   1.551   6.546   1.792
  919SOL    HW1 3656   1.463   6.594   1.793
  919SOL    HW2 3657   1.572   6.518   1.698
  920SOL     OW 3658   2.490   0.640   2.983
  920SOL    HW1 3659   2.417   0.644   2.914
  920SOL    HW2 3660   2.570   0.595   2.944
  921SOL     OW 3661   5.970   4.406   4.041
  921SOL    HW1 3662   6.064   4.423   4.071
  921SOL    HW2 3663   5.908   4.470   4.087
  922SOL     OW 3664   3.429   3.710   6.604
  922SOL    HW1 3665   3.451   3.723   6.507
  922SOL    HW2 3666   3.514   3.701   6.656
  923SOL     OW 3667   2.675   6.109   0.121
  923SOL    HW1 3668   2.684   6.208   0.135
  923SOL    HW2 3669   2.608   6.092   0.049
  924SOL     OW 3670   5.435   3.016   2.280
  924SOL    HW1 3671   5.502   3.089   2.291
  924SOL    HW2 3672   5.483   2.928   2.275
  925SOL     OW 3673   6.750   1.892   5.801
  925SOL    HW1 3674   6.760   1.912   5.704
  925SOL    HW2 3675   6.841   1.879   5.842
  926SOL     OW 3676   5.801   0.180   0.341
  926SOL    HW1 3677   5.763   0.235   0.416
  926SOL    HW2 3678   5.880   0.129   0.375
  927SOL     OW 3679   4.751   4.187   3.694
  927SOL    HW1 3680   4.676   4.148   3.641
  927SOL    HW2 3681   4.719   4.267   3.744
  928SOL     OW 3682   1.430   6.964   0.801
  928SOL    HW1 3683   1.450   6.909   0.719
  928SOL    HW2 3684   1.471   0.032   0.791
  929SOL     OW 3685   0.042   2.824   2.227
  929SOL    HW1 3686   6.978   2.801   2.272
  929SOL    HW2 3687   0.088   2.739   2.198
  930SOL     OW 3688   6.483   5.092   4.168
  930SOL    HW1 3689   6.468   5.111   4.071
  930SOL    HW2 3690   6.399   5.053   4.208
  931SOL     OW 3691   0.202   3.488   3.216
  931SOL    HW1 3692   0.272   3.518   3.152
  931SOL    HW2 3693   0.194   3.389   3.212
  932SOL     OW 3694   3.634   6.146   2.169
  932SOL    HW1 3695   3.629   6.050   2.196
  932SOL    HW2 3696   3.730   6.175   2.169
  933SOL     OW 3697   1.289   4.380   3.467
  933SOL    HW1 3698   1.199   4.423   3.463
  933SOL    HW2 3699   1.352   4.429   3.406
  934SOL     OW 3700   2.866   1.380   4.656
  934SOL    HW1 3701   2.799   1.353   4.724
  934SOL    HW2 3702   2.884   1.478   4.663
  935SOL     OW 3703   4.530   3.921   5.969
  935SOL    HW1 3704   4.517   3.966   5.881
  935SOL    HW2 3705   4.611   3.958   6.014
  936SOL     OW 3706   0.174   6.948   0.684
  936SOL    HW1 3707   0.154   6.924   0.780
  936SOL    HW2 3708   0.273   6.946   0.669
  937SOL     OW 3709   4.866   1.946   4.501
  937SOL    HW1 3710   4.933   2.021   4.502
  937SOL    HW2 3711   4.816   1.948   4.414
  938SOL     OW 3712   0.159   4.169   6.616
  938SOL    HW1 3713   0.153   4.081   6.663
  938SOL    HW2 3714   0.178   4.241   6.682
  939SOL     OW 3715   5.201   1.272   6.004
  939SOL    HW1 3716   5.294   1.285   5.971
  939SOL    HW2 3717   5.167   1.184   5.971
  940SOL     OW 3718   6.820   1.714   2.830
  940SOL    HW1 3719   6.886   1.788   2.839
  940SOL    HW2 3720   6.790   1.683   2.920
  941SOL     OW 3721   6.004   1.224   3.629
  941SOL    HW1 3722   6.002   1.124   3.634
  941SOL    HW2 3723   6.048   1.261   3.710
  942SOL     OW 3724   4.968   6.860   5.062
  942SOL    HW1 3725   5.001   6.890   4.973
  942SOL    HW2 3726   5.008   6.771   5.084
  943SOL     OW 3727   0.118   3.392   2.183
  943SOL    HW1 3728   0.028   3.376   2.143
  943SOL    HW2 3729   0.113   3.470   2.246
  944SOL     OW 3730   6.444   3.654   4.878
  944SOL    HW1 3731   6.468   3.748   4.852
  944SOL    HW2 3732   6.416   3.652   4.974
  945SOL     OW 3733   5.051   4.632   4.452
  945SOL    HW1 3734   5.068   4.535   4.437
  945SOL    HW2 3735   5.137   4.677   4.477
  946SOL     OW 3736   5.973   3.054   6.109
  946SOL    HW1 3737   5.881   3.044   6.148
  946SOL    HW2 3738   6.021   3.128   6.155
  947SOL     OW 3739   3.120   3.610   6.177
  947SOL    HW1 3740   3.134   3.664   6.260
  947SOL    HW2 3741   3.207   3.571   6.147
  948SOL     OW 3742   4.187   0.883   0.540
  948SOL    HW1 3743   4.156   0.827   0.463
  948SOL    HW2 3744   4.159   0.978   0.525
  949SOL     OW 3745   6.792   6.206   5.823
  949SOL    HW1 3746   6.756   6.279   5.764
  949SOL    HW2 3747   6.740   6.123   5.808
  950SOL     OW 3748   4.065   5.282   2.494
  950SOL    HW1 3749   4.081   5.324   2.404
  950SOL    HW2 3750   3.986   5.221   2.489
  951SOL     OW 3751   0.708   0.456   1.867
  951SOL    HW1 3752   0.776   0.499   1.927
  951SOL    HW2 3753   0.688   0.364   1.898
  952SOL     OW 3754   5.393   1.988   2.500
  952SOL    HW1 3755   5.348   2.061   2.448
  952SOL    HW2 3756   5.482   1.970   2.459
  953SOL     OW 3757   4.386   5.935   5.558
  953SOL    HW1 3758   4.304   5.891   5.521
  953SOL    HW2 3759   4.438   5.868   5.612
  954SOL     OW 3760   6.095   0.133   0.956
  954SOL    HW1 3761   6.020   0.192   0.925
  954SOL    HW2 3762   6.180   0.185   0.958
  955SOL     OW 3763   0.896   4.873   3.811
  955SOL    HW1 3764   0.844   4.954   3.840
  955SOL    HW2 3765   0.991   4.899   3.793
  956SOL     OW 3766   1.218   1.466   1.044
  956SOL    HW1 3767   1.136   1.523   1.042
  956SOL    HW2 3768   1.200   1.379   0.997
  957SOL     OW 3769   1.645   4.994   5.214
  957SOL    HW1 3770   1.571   4.986   5.147
  957SOL    HW2 3771   1.651   5.089   5.246
  958SOL     OW 3772   5.217   1.984   0.656
  958SOL    HW1 3773   5.200   1.930   0.574
  958SOL    HW2 3774   5.280   1.935   0.716
  959SOL     OW 3775   2.868   4.761   3.186
  959SOL    HW1 3776   2.852   4.663   3.175
  959SOL    HW2 3777   2.806   4.798   3.255
  960SOL     OW 3778   1.225   5.798   4.113
  960SOL    HW1 3779   1.208   5.727   4.181
  960SOL    HW2 3780   1.324   5.807   4.098
  961SOL     OW 3781   4.079   6.675   2.211
  961SOL    HW1 3782   4.167   6.711   2.244
  961SOL    HW2 3783   4.006   6.739   2.238
  962SOL     OW 3784   1.457   1.205   3.553
  962SOL    HW1 3785   1.432   1.281   3.492
  962SOL    HW2 3786   1.464   1.239   3.647
  963SOL     OW 3787   6.278   0.415   0.596
  963SOL    HW1 3788   6.281   0.499   0.541
  963SOL    HW2 3789   6.187   0.405   0.636
  964SOL     OW 3790   5.413   3.313   1.099
  964SOL    HW1 3791   5.504   3.272   1.106
  964SOL    HW2 3792   5.403   3.355   1.009
  965SOL     OW 3793   5.900   1.980   0.766
  965SOL    HW1 3794   5.806   1.950   0.783
  965SOL    HW2 3795   5.925   2.050   0.833
  966SOL     OW 3796   5.780   1.420   2.954
  966SOL    HW1 3797   5.739   1.509   2.976
  966SOL    HW2 3798   5.871   1.414   2.996
  967SOL     OW 3799   1.578   5.450   0.949
  967SOL    HW1 3800   1.650   5.396   0.906
  967SOL    HW2 3801   1.599   5.547   0.941
  968SOL     OW 3802   4.594   2.621   2.409
  968SOL    HW1 3803   4.685   2.659   2.424
  968SOL    HW2 3804   4.551   2.665   2.331
  969SOL     OW 3805   3.380   5.927   5.180
  969SOL    HW1 3806   3.306   5.940   5.114
  969SOL    HW2 3807   3.453   5.875   5.138
  970SOL     OW 3808   4.659   1.542   5.204
  970SOL    HW1 3809   4.703   1.632   5.199
  970SOL    HW2 3810   4.665   1.507   5.298
  971SOL     OW 3811   0.025   1.260   2.846
  971SOL    HW1 3812   0.044   1.358   2.841
  971SOL    HW2 3813   0.107   1.212   2.876
  972SOL     OW 3814   5.779   4.603   0.763
  972SOL    HW1 3815   5.819   4.634   0.849
  972SOL    HW2 3816   5.715   4.671   0.729
  973SOL     OW 3817   0.404   5.007   6.582
  973SOL    HW1 3818   0.428   4.954   6.663
  973SOL    HW2 3819   0.408   5.104   6.603
  974SOL     OW 3820   3.753   0.735   2.127
  974SOL    HW1 3821   3.699   0.773   2.202
  974SOL    HW2 3822   3.847   0.719   2.158
  975SOL     OW 3823   2.827   6.251   6.308
  975SOL    HW1 3824   2.742   6.303   6.298
  975SOL    HW2 3825   2.888   6.299   6.371
  976SOL     OW 3826   6.821   2.728   2.364
  976SOL    HW1 3827   6.798   2.637   2.329
  976SOL    HW2 3828   6.761   2.796   2.322
  977SOL     OW 3829   2.009   1.454   4.263
  977SOL    HW1 3830   2.022   1.450   4.362
  977SOL    HW2 3831   1.914   1.475   4.242
  978SOL     OW 3832   5.204   4.107   4.751
  978SOL    HW1 3833   5.293   4.152   4.739
  978SOL    HW2 3834   5.143   4.134   4.677
  979SOL     OW 3835   6.372   1.402   3.184
  979SOL    HW1 3836   6.305   1.473   3.207
  979SOL    HW2 3837   6.445   1.402   3.252
  980SOL     OW 3838   5.104   2.431   3.704
  980SOL    HW1 3839   5.104   2.337   3.671
  980SOL    HW2 3840   5.197   2.468   3.699
  981SOL     OW 3841   1.783   1.957   4.961
  981SOL    HW1 3842   1.747   1.865   4.978
  981SOL    HW2 3843   1.830   1.990   5.043
  982SOL     OW 3844   1.846   2.391   2.788
  982SOL    HW1 3845   1.837   2.383   2.887
  982SOL    HW2 3846   1.795   2.471   2.756
  983SOL     OW 3847   5.994   2.690   3.535
  983SOL    HW1 3848   6.023   2.778   3.498
  983SOL    HW2 3849   5.898   2.696   3.563
  984SOL     OW 3850   3.808   0.228   4.795
  984SOL    HW1 3851   3.717   0.254   4.763
  984SOL    HW2 3852   3.876   0.250   4.725
  985SOL     OW 3853   4.725   4.482   6.765
  985SOL    HW1 3854   4.673   4.436   6.836
  985SOL    HW2 3855   4.669   4.489   6.682
  986SOL     OW 3856   5.475   5.519   0.099
  986SOL    HW1 3857   5.567   5.558   0.108
  986SOL    HW2 3858   5.427   5.565   0.025
  987SOL     OW 3859   3.802   6.731   0.927
  987SOL    HW1 3860   3.834   6.652   0.874
  987SOL    HW2 3861   3.773   6.700   1.017
  988SOL     OW 3862   4.206   2.603   1.245
  988SOL    HW1 3863   4.114   2.568   1.263
  988SOL    HW2 3864   4.271   2.557   1.306
  989SOL     OW 3865   0.438   1.025   5.931
  989SOL    HW1 3866   0.421   0.927   5.922
  989SOL    HW2 3867   0.463   1.063   5.841
  990SOL     OW 3868   5.105   6.501   3.803
  990SOL    HW1 3869   5.078   6.408   3.830
  990SOL    HW2 3870   5.197   6.520   3.835
  991SOL     OW 3871   1.742   1.683   4.975
  991SOL    HW1 3872   1.810   1.616   4.945
  991SOL    HW2 3873   1.708   1.657   5.065
  992SOL     OW 3874   0.803   3.234   0.493
  992SOL    HW1 3875   0.779   3.221   0.397
  992SOL    HW2 3876   0.873   3.168   0.520
  993SOL     OW 3877   2.391   5.287   2.664
  993SOL    HW1 3878   2.417   5.379   2.633
  993SOL    HW2 3879   2.339   5.242   2.591
  994SOL     OW 3880   3.398   3.801   3.091
  994SOL    HW1 3881   3.353   3.810   3.180
  994SOL    HW2 3882   3.429   3.707   3.079
  995SOL     OW 3883   2.559   2.323   6.426
  995SOL    HW1 3884   2.502   2.379   6.486
  995SOL    HW2 3885   2.650   2.313   6.467
  996SOL     OW 3886   1.910   3.694   3.952
  996SOL    HW1 3887   1.924   3.671   4.049
  996SOL    HW2 3888   1.819   3.664   3.924
  997SOL     OW 3889   6.821   6.995   1.370
  997SOL    HW1 3890   6.780   0.025   1.445
  997SOL    HW2 3891   6.849   6.905   1.404
  998SOL     OW 3892   4.752   6.868   3.320
  998SOL    HW1 3893   4.785   6.953   3.278
  998SOL    HW2 3894   4.818   6.795   3.305
  999SOL     OW 3895   5.435   5.667   1.522
  999SOL    HW1 3896   5.492   5.742   1.555
  999SOL    HW2 3897   5.345   5.673   1.564
 1000SOL     OW 3898   0.683   1.033   2.491
 1000SOL    HW1 3899   0.726   1.074   2.411
 1000SOL    HW2 3900   0.742   1.046   2.571
 1001SOL     OW 3901   4.395   6.733   6.539
 1001SOL    HW1 3902   4.434   6.787   6.614
 1001SOL    HW2 3903   4.467   6.706   6.476
 1002SOL     OW 3904   5.321   1.946   6.638
 1002SOL    HW1 3905   5.287   2.038   6.655
 1002SOL    HW2 3906   5.265   1.880   6.687
 1003SOL     OW 3907   2.763   6.836   1.636
 1003SOL    HW1 3908   2.823   6.899   1.587
 1003SOL    HW2 3909   2.802   6.816   1.726
 1004SOL     OW 3910   7.011   0.468   0.180
 1004SOL    HW1 3911   6.981   0.379   0.145
 1004SOL    HW2 3912   6.972   0.483   0.270
 1005SOL     OW 3913   6.757   0.763   2.992
 1005SOL    HW1 3914   6.695   0.751   2.914
 1005SOL    HW2 3915   6.835   0.818   2.964
 1006SOL     OW 3916   2.219   6.077   1.156
 1006SOL    HW1 3917   2.136   6.022   1.145
 1006SOL    HW2 3918   2.230   6.103   1.252
 1007SOL     OW 3919   6.089   6.922   3.524
 1007SOL    HW1 3920   6.105   6.834   3.480
 1007SOL    HW2 3921   6.176   6.965   3.547
 1008SOL     OW 3922   1.129   2.896   4.327
 1008SOL    HW1 3923   1.214   2.912   4.276
 1008SOL    HW2 3924   1.083   2.983   4.343
 1009SOL     OW 3925   6.917   5.539   3.687
 1009SOL    HW1 3926   6.896   5.635   3.706
 1009SOL    HW2 3927   6.838   5.482   3.711
 1010SOL     OW 3928   4.130   2.792   0.288
 1010SOL    HW1 3929   4.179   2.865   0.241
 1010SOL    HW2 3930   4.196   2.733   0.335
 1011SOL     OW 3931   2.956   5.632   2.905
 1011SOL    HW1 3932   2.908   5.718   2.886
 1011SOL    HW2 3933   2.968   5.622   3.004
 1012SOL     OW 3934   6.476   5.392   0.310
 1012SOL    HW1 3935   6.466   5.328   0.387
 1012SOL    HW2 3936   6.452   5.484   0.341
 1013SOL     OW 3937   0.489   1.701   6.528
 1013SOL    HW1 3938   0.572   1.655   6.557
 1013SOL    HW2 3939   0.509   1.798   6.513
 1014SOL     OW 3940   5.359   5.658   6.905
 1014SOL    HW1 3941   5.327   5.622   6.818
 1014SOL    HW2 3942   5.283   5.698   6.956
 1015SOL     OW 3943   3.240   6.808   5.170
 1015SOL    HW1 3944   3.151   6.808   5.124
 1015SOL    HW2 3945   3.269   6.902   5.188
 1016SOL     OW 3946   2.320   3.152   0.951
 1016SOL    HW1 3947   2.238   3.202   0.925
 1016SOL    HW2 3948   2.399   3.190   0.902
 1017SOL     OW 3949   4.520   2.897   0.589
 1017SOL    HW1 3950   4.473   2.964   0.532
 1017SOL    HW2 3951   4.491   2.907   0.684
 1018SOL     OW 3952   1.657   3.383   4.182
 1018SOL    HW1 3953   1.614   3.472   4.191
 1018SOL    HW2 3954   1.720   3.368   4.257
 1019SOL     OW 3955   0.462   1.061   0.051
 1019SOL    HW1 3956   0.528   1.093   7.006
 1019SOL    HW2 3957   0.414   0.980   0.016
 1020SOL     OW 3958   1.335   6.649   1.100
 1020SOL    HW1 3959   1.401   6.706   1.051
 1020SOL    HW2 3960   1.268   6.613   1.035
 1021SOL     OW 3961   6.150   1.104   0.926
 1021SOL    HW1 3962   6.097   1.107   1.010
 1021SOL    HW2 3963   6.227   1.168   0.933
 1022SOL     OW 3964   4.270   4.902   5.983
 1022SOL    HW1 3965   4.210   4.868   6.056
 1022SOL    HW2 3966   4.314   4.825   5.936
 1023SOL     OW 3967   6.893   6.852   2.788
 1023SOL    HW1 3968   6.803   6.893   2.802
 1023SOL    HW2 3969   6.963   6.912   2.825
 1024SOL     OW 3970   6.638   2.775   4.548
 1024SOL    HW1 3971   6.622   2.795   4.645
 1024SOL    HW2 3972   6.655   2.860   4.499
 1025SOL     OW 3973   3.645   4.298   0.142
 1025SOL    HW1 3974   3.604   4.229   0.202
 1025SOL    HW2 3975   3.738   4.317   0.173
 1026SOL     OW 3976   1.150   1.253   0.686
 1026SOL    HW1 3977   1.211   1.177   0.708
 1026SOL    HW2 3978   1.118   1.243   0.592
 1027SOL     OW 3979   3.063   5.840   1.631
 1027SOL    HW1 3980   3.068   5.934   1.665
 1027SOL    HW2 3981   3.152   5.796   1.641
 1028SOL     OW 3982   3.093   6.099   0.044
 1028SOL    HW1 3983   3.053   6.157   0.114
 1028SOL    HW2 3984   3.034   6.096   6.986
 1029SOL     OW 3985   1.927   0.935   0.166
 1029SOL    HW1 3986   1.900   1.007   0.230
 1029SOL    HW2 3987   2.027   0.936   0.155
 1030SOL     OW 3988   4.029   3.245   3.270
 1030SOL    HW1 3989   3.972   3.323   3.246
 1030SOL    HW2 3990   4.037   3.184   3.191
 1031SOL     OW 3991   4.276   5.073   1.083
 1031SOL    HW1 3992   4.306   5.039   1.172
 1031SOL    HW2 3993   4.205   5.142   1.095
 1032SOL     OW 3994   1.361   1.806   5.048
 1032SOL    HW1 3995   1.426   1.879   5.072
 1032SOL    HW2 3996   1.401   1.749   4.976
 1033SOL     OW 3997   1.576   6.846   1.494
 1033SOL    HW1 3998   1.587   6.750   1.522
 1033SOL    HW2 3999   1.655   6.899   1.524
 1034SOL     OW 4000   1.809   6.458   4.836
 1034SOL    HW1 4001   1.841   6.552   4.846
 1034SOL    HW2 4002   1.791   6.439   4.740
 1035SOL     OW 4003   2.572   2.004   3.503
 1035SOL    HW1 4004   2.591   2.099   3.481
 1035SOL    HW2 4005   2.603   1.946   3.427
 1036SOL     OW 4006   3.428   0.142   0.944
 1036SOL    HW1 4007   3.528   0.146   0.945
 1036SOL    HW2 4008   3.398   0.072   0.880
 1037SOL     OW 4009   1.355   1.116   1.072
 1037SOL    HW1 4010   1.268   1.112   1.122
 1037SOL    HW2 4011   1.372   1.210   1.043
 1038SOL     OW 4012   0.780   1.196   5.250
 1038SOL    HW1 4013   0.876   1.181   5.224
 1038SOL    HW2 4014   0.724   1.197   5.167
 1039SOL     OW 4015   4.387   2.008   5.441
 1039SOL    HW1 4016   4.475   2.050   5.416
 1039SOL    HW2 4017   4.365   2.032   5.536
 1040SOL     OW 4018   5.538   3.013   3.199
 1040SOL    HW1 4019   5.629   3.014   3.241
 1040SOL    HW2 4020   5.516   3.104   3.164
 1041SOL     OW 4021   6.650   0.067   4.481
 1041SOL    HW1 4022   6.649   0.020   4.393
 1041SOL    HW2 4023   6.665   0.165   4.467
 1042SOL     OW 4024   3.647   5.037   2.757
 1042SOL    HW1 4025   3.611   5.128   2.779
 1042SOL    HW2 4026   3.660   4.985   2.842
 1043SOL     OW 4027   3.955   1.183   6.140
 1043SOL    HW1 4028   4.014   1.120   6.191
 1043SOL    HW2 4029   3.860   1.156   6.153
 1044SOL     OW 4030   4.386   2.534   1.751
 1044SOL    HW1 4031   4.485   2.543   1.761
 1044SOL    HW2 4032   4.347   2.624   1.732
 1045SOL     OW 4033   2.850   0.191   1.327
 1045SOL    HW1 4034   2.751   0.204   1.329
 1045SOL    HW2 4035   2.875   0.112   1.383
 1046SOL     OW 4036   2.492   6.693   6.332
 1046SOL    HW1 4037   2.536   6.725   6.416
 1046SOL    HW2 4038   2.393   6.700   6.341
 1047SOL     OW 4039   1.654   5.426   3.024
 1047SOL    HW1 4040   1.666   5.440   2.926
 1047SOL    HW2 4041   1.581   5.360   3.040
 1048SOL     OW 4042   4.745   5.774   5.224
 1048SOL    HW1 4043   4.813   5.843   5.252
 1048SOL    HW2 4044   4.738   5.775   5.124
 1049SOL     OW 4045   0.357   4.095   4.879
 1049SOL    HW1 4046   0.304   4.175   4.909
 1049SOL    HW2 4047   0.297   4.016   4.872
 1050SOL     OW 4048   2.671   5.455   0.845
 1050SOL    HW1 4049   2.594   5.454   0.781
 1050SOL    HW2 4050   2.709   5.363   0.852
 1051SOL     OW 4051   4.032   4.597   0.632
 1051SOL    HW1 4052   4.000   4.620   0.724
 1051SOL    HW2 4053   4.131   4.580   0.635
 1052SOL     OW 4054   4.662   0.685   4.015
 1052SOL    HW1 4055   4.665   0.627   3.934
 1052SOL    HW2 4056   4.601   0.763   3.997
 1053SOL     OW 4057   5.764   5.695   3.491
 1053SOL    HW1 4058   5.680   5.643   3.478
 1053SOL    HW2 4059   5.748   5.768   3.557
 1054SOL     OW 4060   2.456   5.008   5.547
 1054SOL    HW1 4061   2.447   5.036   5.642
 1054SOL    HW2 4062   2.475   4.910   5.543
 1055SOL     OW 4063   5.339   6.287   4.781
 1055SOL    HW1 4064   5.378   6.309   4.870
 1055SOL    HW2 4065   5.351   6.190   4.762
 1056SOL     OW 4066   1.580   6.382   5.309
 1056SOL    HW1 4067   1.675   6.383   5.338
 1056SOL    HW2 4068   1.552   6.474   5.281
 1057SOL     OW 4069   3.015   3.835   3.211
 1057SOL    HW1 4070   2.987   3.924   3.173
 1057SOL    HW2 4071   3.043   3.775   3.137
 1058SOL     OW 4072   4.824   1.538   2.816
 1058SOL    HW1 4073   4.727   1.557   2.800
 1058SOL    HW2 4074   4.873   1.624   2.831
 1059SOL     OW 4075   3.238   0.603   1.662
 1059SOL    HW1 4076   3.266   0.576   1.570
 1059SOL    HW2 4077   3.216   0.701   1.663
 1060SOL     OW 4078   0.422   3.814   5.697
 1060SOL    HW1 4079   0.484   3.828   5.620
 1060SOL    HW2 4080   0.373   3.728   5.686
 1061SOL     OW 4081   4.220   4.479   1.055
 1061SOL    HW1 4082   4.314   4.513   1.059
 1061SOL    HW2 4083   4.209   4.403   1.120
 1062SOL     OW 4084   6.995   6.008   5.713
 1062SOL    HW1 4085   6.944   6.064   5.778
 1062SOL    HW2 4086   7.016   6.062   5.632
 1063SOL     OW 4087   1.214   4.207   1.022
 1063SOL    HW1 4088   1.161   4.278   0.975
 1063SOL    HW2 4089   1.162   4.122   1.022
 1064SOL     OW 4090   1.020   3.606   2.515
 1064SOL    HW1 4091   1.054   3.629   2.607
 1064SOL    HW2 4092   1.097   3.594   2.453
 1065SOL     OW 4093   4.305   0.722   5.142
 1065SOL    HW1 4094   4.343   0.808   5.107
 1065SOL    HW2 4095   4.330   0.647   5.081
 1066SOL     OW 4096   5.063   0.417   4.275
 1066SOL    HW1 4097   5.039   0.378   4.365
 1066SOL    HW2 4098   4.980   0.452   4.231
 1067SOL     OW 4099   1.150   2.893   0.814
 1067SOL    HW1 4100   1.069   2.952   0.806
 1067SOL    HW2 4101   1.145   2.842   0.900
 1068SOL     OW 4102   5.886   3.401   1.418
 1068SOL    HW1 4103   5.795   3.419   1.456
 1068SOL    HW2 4104   5.931   3.330   1.472
 1069SOL     OW 4105   4.442   4.633   1.044
 1069SOL    HW1 4106   4.453   4.724   1.004
 1069SOL    HW2 4107   4.504   4.623   1.122
 1070SOL     OW 4108   1.118   0.891   6.387
 1070SOL    HW1 4109   1.152   0.851   6.302
 1070SOL    HW2 4110   1.083   0.983   6.370
 1071SOL     OW 4111   3.900   0.581   3.374
 1071SOL    HW1 4112   3.994   0.611   3.392
 1071SOL    HW2 4113   3.838   0.658   3.387
 1072SOL     OW 4114   2.088   6.054   2.299
 1072SOL    HW1 4115   2.041   5.965   2.297
 1072SOL    HW2 4116   2.165   6.052   2.236
 1073SOL     OW 4117   3.337   5.847   2.455
 1073SOL    HW1 4118   3.314   5.904   2.534
 1073SOL    HW2 4119   3.272   5.864   2.381
 1074SOL     OW 4120   2.151   5.848   1.802
 1074SOL    HW1 4121   2.131   5.750   1.800
 1074SOL    HW2 4122   2.084   5.895   1.860
 1075SOL     OW 4123   4.524   5.140   3.409
 1075SOL    HW1 4124   4.473   5.226   3.406
 1075SOL    HW2 4125   4.547   5.112   3.316
 1076SOL     OW 4126   0.694   4.626   5.304
 1076SOL    HW1 4127   0.670   4.564   5.230
 1076SOL    HW2 4128   0.657   4.717   5.285
 1077SOL     OW 4129   5.918   6.905   0.108
 1077SOL    HW1 4130   5.967   6.942   0.187
 1077SOL    HW2 4131   5.909   6.806   0.117
 1078SOL     OW 4132   1.495   0.962   2.283
 1078SOL    HW1 4133   1.506   1.041   2.343
 1078SOL    HW2 4134   1.546   0.977   2.198
 1079SOL     OW 4135   1.935   5.037   3.375
 1079SOL    HW1 4136   1.878   5.118   3.361
 1079SOL    HW2 4137   1.882   4.955   3.354
 1080SOL     OW 4138   1.963   4.612   3.516
 1080SOL    HW1 4139   1.933   4.585   3.425
 1080SOL    HW2 4140   2.049   4.662   3.509
 1081SOL     OW 4141   0.067   1.719   5.429
 1081SOL    HW1 4142   0.104   1.634   5.467
 1081SOL    HW2 4143   7.015   1.698   5.365
 1082SOL     OW 4144   1.670   0.373   5.645
 1082SOL    HW1 4145   1.629   0.462   5.625
 1082SOL    HW2 4146   1.628   0.335   5.727
 1083SOL     OW 4147   3.759   4.087   2.021
 1083SOL    HW1 4148   3.838   4.067   1.963
 1083SOL    HW2 4149   3.721   4.176   1.996
 1084SOL     OW 4150   6.624   5.339   0.724
 1084SOL    HW1 4151   6.548   5.311   0.665
 1084SOL    HW2 4152   6.675   5.413   0.680
 1085SOL     OW 4153   2.057   3.897   3.858
 1085SOL    HW1 4154   2.015   3.811   3.887
 1085SOL    HW2 4155   1.987   3.958   3.820
 1086SOL     OW 4156   5.980   5.515   3.081
 1086SOL    HW1 4157   5.889   5.555   3.074
 1086SOL    HW2 4158   5.992   5.445   3.011
 1087SOL     OW 4159   5.127   2.883   5.897
 1087SOL    HW1 4160   5.123   2.983   5.893
 1087SOL    HW2 4161   5.201   2.855   5.958
 1088SOL     OW 4162   6.170   4.350   3.150
 1088SOL    HW1 4163   6.151   4.325   3.245
 1088SOL    HW2 4164   6.084   4.365   3.101
 1089SOL     OW 4165   0.484   0.670   4.340
 1089SOL    HW1 4166   0.449   0.648   4.249
 1089SOL    HW2 4167   0.552   0.602   4.367
 1090SOL     OW 4168   2.932   1.409   4.370
 1090SOL    HW1 4169   2.836   1.399   4.344
 1090SOL    HW2 4170   2.941   1.398   4.469
 1091SOL     OW 4171   1.791   2.076   3.690
 1091SOL    HW1 4172   1.813   2.050   3.784
 1091SOL    HW2 4173   1.704   2.124   3.688
 1092SOL     OW 4174   2.130   3.883   1.684
 1092SOL    HW1 4175   2.114   3.903   1.587
 1092SOL    HW2 4176   2.182   3.798   1.693
 1093SOL     OW 4177   1.865   1.694   2.668
 1093SOL    HW1 4178   1.784   1.691   2.728
 1093SOL    HW2 4179   1.896   1.789   2.658
 1094SOL     OW 4180   0.242   6.510   2.714
 1094SOL    HW1 4181   0.240   6.598   2.668
 1094SOL    HW2 4182   0.149   6.472   2.719
 1095SOL     OW 4183   6.093   2.065   6.005
 1095SOL    HW1 4184   6.036   2.145   6.024
 1095SOL    HW2 4185   6.180   2.095   5.964
 1096SOL     OW 4186   3.404   4.917   1.611
 1096SOL    HW1 4187   3.417   4.957   1.521
 1096SOL    HW2 4188   3.312   4.880   1.619
 1097SOL     OW 4189   1.195   4.779   4.790
 1097SOL    HW1 4190   1.259   4.722   4.842
 1097SOL    HW2 4191   1.113   4.796   4.844
 1098SOL     OW 4192   5.138   2.405   0.834
 1098SOL    HW1 4193   5.171   2.349   0.759
 1098SOL    HW2 4194   5.085   2.482   0.798
 1099SOL     OW 4195   4.281   1.748   4.799
 1099SOL    HW1 4196   4.235   1.836   4.787
 1099SOL    HW2 4197   4.217   1.674   4.780
 1100SOL     OW 4198   1.371   1.782   6.281
 1100SOL    HW1 4199   1.280   1.741   6.277
 1100SOL    HW2 4200   1.363   1.878   6.310
 1101SOL     OW 4201   5.433   3.321   1.399
 1101SOL    HW1 4202   5.401   3.244   1.454
 1101SOL    HW2 4203   5.409   3.305   1.303
 1102SOL     OW 4204   1.166   4.817   4.111
 1102SOL    HW1 4205   1.251   4.789   4.066
 1102SOL    HW2 4206   1.121   4.737   4.150
 1103SOL     OW 4207   2.167   0.778   1.686
 1103SOL    HW1 4208   2.209   0.835   1.614
 1103SOL    HW2 4209   2.175   0.824   1.774
 1104SOL     OW 4210   2.085   4.295   6.402
 1104SOL    HW1 4211   2.056   4.310   6.307
 1104SOL    HW2 4212   2.171   4.244   6.403
 1105SOL     OW 4213   4.688   4.254   6.425
 1105SOL    HW1 4214   4.761   4.320   6.443
 1105SOL    HW2 4215   4.705   4.170   6.477
 1106SOL     OW 4216   1.165   2.031   6.640
 1106SOL    HW1 4217   1.187   1.935   6.656
 1106SOL    HW2 4218   1.172   2.081   6.726
 1107SOL     OW 4219   0.540   0.428   6.564
 1107SOL    HW1 4220   0.541   0.361   6.489
 1107SOL    HW2 4221   0.445   0.444   6.592
 1108SOL     OW 4222   2.788   0.528   5.401
 1108SOL    HW1 4223   2.835   0.498   5.318
 1108SOL    HW2 4224   2.706   0.580   5.376
 1109SOL     OW 4225   4.053   5.463   4.528
 1109SOL    HW1 4226   4.115   5.522   4.580
 1109SOL    HW2 4227   3.959   5.484   4.551
 1110SOL     OW 4228   3.334   1.970   1.624
 1110SOL    HW1 4229   3.353   2.048   1.684
 1110SOL    HW2 4230   3.236   1.962   1.611
 1111SOL     OW 4231   5.263   6.284   6.845
 1111SOL    HW1 4232   5.306   6.294   6.934
 1111SOL    HW2 4233   5.283   6.364   6.789
 1112SOL     OW 4234   5.948   1.026   2.666
 1112SOL    HW1 4235   5.957   0.939   2.617
 1112SOL    HW2 4236   6.025   1.085   2.643
 1113SOL     OW 4237   6.215   3.092   2.355
 1113SOL    HW1 4238   6.292   3.142   2.315
 1113SOL    HW2 4239   6.152   3.156   2.397
 1114SOL     OW 4240   4.746   1.477   6.600
 1114SOL    HW1 4241   4.666   1.529   6.631
 1114SOL    HW2 4242   4.716   1.389   6.564
 1115SOL     OW 4243   4.379   3.057   0.418
 1115SOL    HW1 4244   4.422   3.145   0.435
 1115SOL    HW2 4245   4.314   3.065   0.342
 1116SOL     OW 4246   5.468   5.090   4.255
 1116SOL    HW1 4247   5.436   5.182   4.277
 1116SOL    HW2 4248   5.557   5.075   4.297
 1117SOL     OW 4249   2.951   2.926   1.393
 1117SOL    HW1 4250   2.929   3.004   1.334
 1117SOL    HW2 4251   2.883   2.854   1.378
 1118SOL     OW 4252   1.030   4.767   2.678
 1118SOL    HW1 4253   1.111   4.740   2.731
 1118SOL    HW2 4254   1.023   4.866   2.676
 1119SOL     OW 4255   3.595   3.764   1.386
 1119SOL    HW1 4256   3.537   3.846   1.382
 1119SOL    HW2 4257   3.561   3.695   1.324
 1120SOL     OW 4258   5.562   6.998   5.921
 1120SOL    HW1 4259   5.610   6.912   5.904
 1120SOL    HW2 4260   5.478   7.001   5.865
 1121SOL     OW 4261   5.166   2.930   2.239
 1121SOL    HW1 4262   5.260   2.942   2.269
 1121SOL    HW2 4263   5.145   2.996   2.167
 1122SOL     OW 4264   5.255   2.656   6.407
 1122SOL    HW1 4265   5.215   2.645   6.498
 1122SOL    HW2 4266   5.280   2.751   6.393
 1123SOL     OW 4267   4.406   1.645   2.226
 1123SOL    HW1 4268   4.314   1.637   2.188
 1123SOL    HW2 4269   4.440   1.738   2.214
 1124SOL     OW 4270   7.019   4.022   4.885
 1124SOL    HW1 4271   0.075   3.971   4.850
 1124SOL    HW2 4272   7.012   4.010   4.984
 1125SOL     OW 4273   2.821   2.071   5.090
 1125SOL    HW1 4274   2.906   2.098   5.044
 1125SOL    HW2 4275   2.746   2.074   5.025
 1126SOL     OW 4276   4.665   6.632   6.351
 1126SOL    HW1 4277   4.708   6.604   6.265
 1126SOL    HW2 4278   4.732   6.683   6.406
 1127SOL     OW 4279   3.255   4.465   5.895
 1127SOL    HW1 4280   3.188   4.403   5.853
 1127SOL    HW2 4281   3.345   4.449   5.854
 1128SOL     OW 4282   4.354   2.109   4.226
 1128SOL    HW1 4283   4.440   2.105   4.175
 1128SOL    HW2 4284   4.358   2.044   4.302
 1129SOL     OW 4285   3.760   0.215   0.046
 1129SOL    HW1 4286   3.716   0.249   6.986
 1129SOL    HW2 4287   3.703   0.145   0.088
 1130SOL     OW 4288   1.769   4.488   0.935
 1130SOL    HW1 4289   1.855   4.453   0.898
 1130SOL    HW2 4290   1.779   4.585   0.957
 1131SOL     OW 4291   0.607   6.814   5.683
 1131SOL    HW1 4292   0.589   6.723   5.645
 1131SOL    HW2 4293   0.705   6.832   5.680
 1132SOL     OW 4294   5.078   0.350   6.938
 1132SOL    HW1 4295   5.107   0.403   7.017
 1132SOL    HW2 4296   4.996   0.392   6.898
 1133SOL     OW 4297   6.991   1.890   1.595
 1133SOL    HW1 4298   6.898   1.873   1.563
 1133SOL    HW2 4299   0.016   1.948   1.529
 1134SOL     OW 4300   5.775   2.097   6.836
 1134SOL    HW1 4301   5.848   2.159   6.807
 1134SOL    HW2 4302   5.757   2.109   6.933
 1135SOL     OW 4303   3.081   1.925   2.871
 1135SOL    HW1 4304   3.069   1.981   2.952
 1135SOL    HW2 4305   3.011   1.948   2.803
 1136SOL     OW 4306   2.832   4.731   4.133
 1136SOL    HW1 4307   2.809   4.762   4.226
 1136SOL    HW2 4308   2.915   4.777   4.103
 1137SOL     OW 4309   1.199   2.520   6.950
 1137SOL    HW1 4310   1.291   2.546   6.979
 1137SOL    HW2 4311   1.181   2.559   6.859
 1138SOL     OW 4312   2.196   2.625   5.874
 1138SOL    HW1 4313   2.234   2.689   5.807
 1138SOL    HW2 4314   2.098   2.615   5.858
 1139SOL     OW 4315   2.060   6.119   2.608
 1139SOL    HW1 4316   2.144   6.064   2.607
 1139SOL    HW2 4317   1.983   6.062   2.636
 1140SOL     OW 4318   4.037   2.228   2.877
 1140SOL    HW1 4319   4.036   2.324   2.850
 1140SOL    HW2 4320   4.052   2.221   2.975
 1141SOL     OW 4321   5.763   5.434   6.132
 1141SOL    HW1 4322   5.830   5.420   6.059
 1141SOL    HW2 4323   5.671   5.429   6.093
 1142SOL     OW 4324   5.183   0.349   4.792
 1142SOL    HW1 4325   5.275   0.384   4.774
 1142SOL    HW2 4326   5.126   0.363   4.711
 1143SOL     OW 4327   3.658   2.062   2.464
 1143SOL    HW1 4328   3.657   2.063   2.364
 1143SOL    HW2 4329   3.566   2.080   2.499
 1144SOL     OW 4330   0.206   4.312   4.541
 1144SOL    HW1 4331   0.298   4.338   4.571
 1144SOL    HW2 4332   0.145   4.311   4.619
 1145SOL     OW 4333   0.158   5.224   3.337
 1145SOL    HW1 4334   0.231   5.218   3.269
 1145SOL    HW2 4335   0.198   5.236   3.428
 1146SOL     OW 4336   5.374   1.281   1.140
 1146SOL    HW1 4337   5.363   1.195   1.089
 1146SOL    HW2 4338   5.323   1.353   1.094
 1147SOL     OW 4339   1.542   3.760   0.810
 1147SOL    HW1 4340   1.610   3.823   0.847
 1147SOL    HW2 4341   1.532   3.682   0.871
 1148SOL     OW 4342   3.061   5.907   6.471
 1148SOL    HW1 4343   3.069   5.896   6.570
 1148SOL    HW2 4344   3.150   5.891   6.429
 1149SOL     OW 4345   5.887   3.229   3.061
 1149SOL    HW1 4346   5.955   3.156   3.062
 1149SOL    HW2 4347   5.933   3.317   3.053
 1150SOL     OW 4348   2.353   4.255   1.114
 1150SOL    HW1 4349   2.347   4.355   1.106
 1150SOL    HW2 4350   2.362   4.215   1.023
 1151SOL     OW 4351   5.550   5.789   6.526
 1151SOL    HW1 4352   5.647   5.765   6.520
 1151SOL    HW2 4353   5.528   5.815   6.620
 1152SOL     OW 4354   1.100   6.830   4.845
 1152SOL    HW1 4355   1.105   6.883   4.760
 1152SOL    HW2 4356   1.006   6.802   4.862
 1153SOL     OW 4357   2.437   6.460   2.586
 1153SOL    HW1 4358   2.459   6.518   2.508
 1153SOL    HW2 4359   2.465   6.366   2.566
 1154SOL     OW 4360   0.240   3.381   1.671
 1154SOL    HW1 4361   0.268   3.367   1.576
 1154SOL    HW2 4362   0.208   3.475   1.683
 1155SOL     OW 4363   3.514   5.746   7.018
 1155SOL    HW1 4364   3.509   5.827   0.054
 1155SOL    HW2 4365   3.599   5.748   6.965
 1156SOL     OW 4366   2.157   0.488   3.472
 1156SOL    HW1 4367   2.122   0.570   3.426
 1156SOL    HW2 4368   2.242   0.459   3.428
 1157SOL     OW 4369   6.960   2.723   4.479
 1157SOL    HW1 4370   6.973   2.660   4.402
 1157SOL    HW2 4371   6.866   2.716   4.511
 1158SOL     OW 4372   5.657   5.325   5.510
 1158SOL    HW1 4373   5.601   5.383   5.451
 1158SOL    HW2 4374   5.641   5.229   5.489
 1159SOL     OW 4375   4.314   0.581   2.487
 1159SOL    HW1 4376   4.235   0.533   2.450
 1159SOL    HW2 4377   4.287   0.674   2.513
 1160SOL     OW 4378   4.080   3.650   1.519
 1160SOL    HW1 4379   4.063   3.630   1.423
 1160SOL    HW2 4380   3.993   3.673   1.564
 1161SOL     OW 4381   5.103   6.893   5.400
 1161SOL    HW1 4382   5.147   6.852   5.320
 1161SOL    HW2 4383   5.005   6.904   5.382
 1162SOL     OW 4384   3.819   2.694   0.943
 1162SOL    HW1 4385   3.855   2.727   1.030
 1162SOL    HW2 4386   3.824   2.594   0.940
 1163SOL     OW 4387   5.305   2.209   2.335
 1163SOL    HW1 4388   5.273   2.172   2.248
 1163SOL    HW2 4389   5.239   2.277   2.368
 1164SOL     OW 4390   5.288   2.847   3.741
 1164SOL    HW1 4391   5.277   2.795   3.825
 1164SOL    HW2 4392   5.375   2.896   3.743
 1165SOL     OW 4393   1.415   3.391   3.706
 1165SOL    HW1 4394   1.409   3.483   3.668
 1165SOL    HW2 4395   1.324   3.359   3.732
 1166SOL     OW 4396   3.740   1.479   6.859
 1166SOL    HW1 4397   3.715   1.410   6.927
 1166SOL    HW2 4398   3.837   1.499   6.867
 1167SOL     OW 4399   3.188   0.069   5.325
 1167SOL    HW1 4400   3.169   0.129   5.247
 1167SOL    HW2 4401   3.107   0.015   5.346
 1168SOL     OW 4402   5.823   0.021   2.517
 1168SOL    HW1 4403   5.903   6.990   2.488
 1168SOL    HW2 4404   5.745   7.020   2.460
 1169SOL     OW 4405   0.004   2.856   0.466
 1169SOL    HW1 4406   7.002   2.780   0.526
 1169SOL    HW2 4407   0.102   2.875   0.475
 1170SOL     OW 4408   4.010   0.187   2.025
 1170SOL    HW1 4409   4.084   0.253   2.040
 1170SOL    HW2 4410   4.014   0.152   1.932
 1171SOL     OW 4411   2.934   6.056   0.857
 1171SOL    HW1 4412   2.943   5.972   0.912
 1171SOL    HW2 4413   3.024   6.098   0.845
 1172SOL     OW 4414   3.059   3.792   3.795
 1172SOL    HW1 4415   3.023   3.792   3.702
 1172SOL    HW2 4416   3.108   3.877   3.812
 1173SOL     OW 4417   3.538   0.438   5.545
 1173SOL    HW1 4418   3.464   0.499   5.516
 1173SOL    HW2 4419   3.592   0.482   5.617
 1174SOL     OW 4420   2.199   5.761   0.785
 1174SOL    HW1 4421   2.251   5.700   0.726
 1174SOL    HW2 4422   2.261   5.809   0.847
 1175SOL     OW 4423   5.220   4.338   6.817
 1175SOL    HW1 4424   5.156   4.262   6.825
 1175SOL    HW2 4425   5.304   4.307   6.772
 1176SOL     OW 4426   6.050   5.062   0.849
 1176SOL    HW1 4427   6.141   5.103   0.855
 1176SOL    HW2 4428   5.981   5.135   0.845
 1177SOL     OW 4429   0.072   2.151   5.325
 1177SOL    HW1 4430   0.037   2.159   5.419
 1177SOL    HW2 4431   0.112   2.238   5.297
 1178SOL     OW 4432   4.786   4.111   1.966
 1178SOL    HW1 4433   4.715   4.180   1.979
 1178SOL    HW2 4434   4.833   4.129   1.880
 1179SOL     OW 4435   2.353   4.470   0.626
 1179SOL    HW1 4436   2.303   4.483   0.711
 1179SOL    HW2 4437   2.299   4.506   0.550
 1180SOL     OW 4438   2.637   1.020   3.538
 1180SOL    HW1 4439   2.682   0.973   3.614
 1180SOL    HW2 4440   2.699   1.087   3.499
 1181SOL     OW 4441   1.173   3.990   4.858
 1181SOL    HW1 4442   1.212   4.053   4.925
 1181SOL    HW2 4443   1.113   4.040   4.796
 1182SOL     OW 4444   1.853   4.361   3.141
 1182SOL    HW1 4445   1.921   4.311   3.087
 1182SOL    HW2 4446   1.897   4.440   3.185
 1183SOL     OW 4447   4.747   5.463   2.291
 1183SOL    HW1 4448   4.785   5.555   2.294
 1183SOL    HW2 4449   4.759   5.418   2.379
 1184SOL     OW 4450   3.236   2.932   5.533
 1184SOL    HW1 4451   3.235   2.851   5.591
 1184SOL    HW2 4452   3.327   2.946   5.496
 1185SOL     OW 4453   2.348   0.420   0.129
 1185SOL    HW1 4454   2.262   0.469   0.117
 1185SOL    HW2 4455   2.346   0.334   0.078
 1186SOL     OW 4456   5.883   0.169   5.825
 1186SOL    HW1 4457   5.955   0.203   5.764
 1186SOL    HW2 4458   5.867   0.072   5.805
 1187SOL     OW 4459   5.247   6.382   5.632
 1187SOL    HW1 4460   5.175   6.313   5.630
 1187SOL    HW2 4461   5.229   6.448   5.705
 1188SOL     OW 4462   2.982   6.617   6.360
 1188SOL    HW1 4463   2.900   6.571   6.395
 1188SOL    HW2 4464   3.061   6.556   6.370
 1189SOL     OW 4465   4.752   1.605   2.450
 1189SOL    HW1 4466   4.739   1.578   2.355
 1189SOL    HW2 4467   4.671   1.653   2.483
 1190SOL     OW 4468   4.161   4.769   4.282
 1190SOL    HW1 4469   4.064   4.748   4.277
 1190SOL    HW2 4470   4.203   4.754   4.192
 1191SOL     OW 4471   3.673   5.283   5.972
 1191SOL    HW1 4472   3.680   5.338   6.056
 1191SOL    HW2 4473   3.694   5.188   5.993
 1192SOL     OW 4474   5.251   4.493   2.840
 1192SOL    HW1 4475   5.334   4.492   2.896
 1192SOL    HW2 4476   5.194   4.570   2.866
 1193SOL     OW 4477   6.103   7.020   4.401
 1193SOL    HW1 4478   6.121   0.094   4.419
 1193SOL    HW2 4479   6.083   6.973   4.487
 1194SOL     OW 4480   0.147   1.102   0.527
 1194SOL    HW1 4481   0.244   1.078   0.534
 1194SOL    HW2 4482   0.095   1.021   0.502
 1195SOL     OW 4483   6.219   1.811   0.328
 1195SOL    HW1 4484   6.184   1.797   0.236
 1195SOL    HW2 4485   6.217   1.724   0.378
 1196SOL     OW 4486   6.934   4.974   1.854
 1196SOL    HW1 4487   6.843   4.958   1.816
 1196SOL    HW2 4488   6.966   4.891   1.901
 1197SOL     OW 4489   3.975   5.891   5.747
 1197SOL    HW1 4490   3.896   5.933   5.702
 1197SOL    HW2 4491   4.033   5.846   5.679
 1198SOL     OW 4492   2.187   2.819   2.091
 1198SOL    HW1 4493   2.129   2.753   2.043
 1198SOL    HW2 4494   2.244   2.771   2.157
 1199SOL     OW 4495   4.079   3.828   3.187
 1199SOL    HW1 4496   4.006   3.893   3.209
 1199SOL    HW2 4497   4.075   3.752   3.252
 1200SOL     OW 4498   4.038   3.852   5.455
 1200SOL    HW1 4499   4.036   3.857   5.555
 1200SOL    HW2 4500   4.057   3.943   5.418
 1201SOL     OW 4501   1.001   1.653   4.724
 1201SOL    HW1 4502   1.041   1.705   4.799
 1201SOL    HW2 4503   1.052   1.568   4.711
 1202SOL     OW 4504   5.703   0.520   6.115
 1202SOL    HW1 4505   5.741   0.428   6.101
 1202SOL    HW2 4506   5.607   0.513   6.140
 1203SOL     OW 4507   5.711   0.145   0.939
 1203SOL    HW1 4508   5.642   0.175   1.005
 1203SOL    HW2 4509   5.712   0.045   0.934
 1204SOL     OW 4510   4.314   1.282   0.574
 1204SOL    HW1 4511   4.234   1.230   0.544
 1204SOL    HW2 4512   4.380   1.220   0.616
 1205SOL     OW 4513   5.453   3.537   6.973
 1205SOL    HW1 4514   5.521   3.522   6.902
 1205SOL    HW2 4515   5.364   3.554   6.930
 1206SOL     OW 4516   1.879   1.418   5.073
 1206SOL    HW1 4517   1.821   1.353   5.024
 1206SOL    HW2 4518   1.944   1.460   5.009
 1207SOL     OW 4519   6.659   6.487   1.009
 1207SOL    HW1 4520   6.715   6.536   1.076
 1207SOL    HW2 4521   6.601   6.552   0.960
 1208SOL     OW 4522   3.872   4.001   2.463
 1208SOL    HW1 4523   3.833   3.968   2.377
 1208SOL    HW2 4524   3.799   4.030   2.524
 1209SOL     OW 4525   5.850   6.143   5.548
 1209SOL    HW1 4526   5.897   6.230   5.532
 1209SOL    HW2 4527   5.782   6.155   5.621
 1210SOL     OW 4528   4.058   0.500   3.011
 1210SOL    HW1 4529   4.040   0.454   2.924
 1210SOL    HW2 4530   3.972   0.530   3.052
 1211SOL     OW 4531   1.632   3.618   3.897
 1211SOL    HW1 4532   1.609   3.549   3.829
 1211SOL    HW2 4533   1.561   3.620   3.967
 1212SOL     OW 4534   0.611   2.905   5.404
 1212SOL    HW1 4535   0.655   2.988   5.436
 1212SOL    HW2 4536   0.560   2.863   5.479
 1213SOL     OW 4537   6.116   2.703   5.161
 1213SOL    HW1 4538   6.049   2.709   5.087
 1213SOL    HW2 4539   6.137   2.606   5.178
 1214SOL     OW 4540   1.272   3.347   4.076
 1214SOL    HW1 4541   1.185   3.357   4.027
 1214SOL    HW2 4542   1.318   3.263   4.047
 1215SOL     OW 4543   2.241   4.111   2.077
 1215SOL    HW1 4544   2.150   4.150   2.066
 1215SOL    HW2 4545   2.306   4.183   2.102
 1216SOL     OW 4546   0.034   6.971   1.654
 1216SOL    HW1 4547   7.012   6.887   1.623
 1216SOL    HW2 4548   6.999   0.027   1.632
 1217SOL     OW 4549   1.121   6.499   0.995
 1217SOL    HW1 4550   1.106   6.400   0.998
 1217SOL    HW2 4551   1.040   6.546   1.028
 1218SOL     OW 4552   1.291   3.134   4.781
 1218SOL    HW1 4553   1.372   3.137   4.723
 1218SOL    HW2 4554   1.306   3.070   4.856
 1219SOL     OW 4555   4.192   5.030   0.817
 1219SOL    HW1 4556   4.212   5.104   0.753
 1219SOL    HW2 4557   4.247   5.042   0.900
 1220SOL     OW 4558   5.308   3.735   2.332
 1220SOL    HW1 4559   5.408   3.733   2.340
 1220SOL    HW2 4560   5.273   3.641   2.336
 1221SOL     OW 4561   5.963   3.807   6.776
 1221SOL    HW1 4562   5.910   3.755   6.843
 1221SOL    HW2 4563   6.060   3.804   6.800
 1222SOL     OW 4564   7.019   0.015   0.502
 1222SOL    HW1 4565   0.069   0.001   0.570
 1222SOL    HW2 4566   6.954   0.082   0.536
 1223SOL     OW 4567   5.687   0.833   0.461
 1223SOL    HW1 4568   5.775   0.870   0.492
 1223SOL    HW2 4569   5.615   0.858   0.526
 1224SOL     OW 4570   3.880   6.626   6.344
 1224SOL    HW1 4571   3.950   6.558   6.364
 1224SOL    HW2 4572   3.912   6.717   6.371
 1225SOL     OW 4573   4.366   1.864   1.119
 1225SOL    HW1 4574   4.295   1.825   1.178
 1225SOL    HW2 4575   4.352   1.833   1.025
 1226SOL     OW 4576   5.700   6.659   0.709
 1226SOL    HW1 4577   5.686   6.601   0.629
 1226SOL    HW2 4578   5.616   6.710   0.729
 1227SOL     OW 4579   5.842   5.024   5.654
 1227SOL    HW1 4580   5.742   5.022   5.645
 1227SOL    HW2 4581   5.869   4.979   5.739
 1228SOL     OW 4582   3.989   3.145   1.786
 1228SOL    HW1 4583   3.979   3.242   1.760
 1228SOL    HW2 4584   3.919   3.123   1.855
 1229SOL     OW 4585   1.126   0.163   2.198
 1229SOL    HW1 4586   1.219   0.178   2.230
 1229SOL    HW2 4587   1.098   0.070   2.221
 1230SOL     OW 4588   5.579   5.549   2.808
 1230SOL    HW1 4589   5.574   5.600   2.722
 1230SOL    HW2 4590   5.509   5.478   2.809
 1231SOL     OW 4591   1.985   2.553   6.160
 1231SOL    HW1 4592   2.074   2.509   6.167
 1231SOL    HW2 4593   1.966   2.604   6.244
 1232SOL     OW 4594   4.469   1.199   5.229
 1232SOL    HW1 4595   4.428   1.200   5.320
 1232SOL    HW2 4596   4.443   1.283   5.180
 1233SOL     OW 4597   0.846   4.996   3.392
 1233SOL    HW1 4598   0.796   5.050   3.459
 1233SOL    HW2 4599   0.934   5.040   3.373
 1234SOL     OW 4600   0.071   2.690   6.922
 1234SOL    HW1 4601   0.021   2.730   6.999
 1234SOL    HW2 4602   0.008   2.639   6.864
 1235SOL     OW 4603   6.181   5.149   6.729
 1235SOL    HW1 4604   6.127   5.191   6.656
 1235SOL    HW2 4605   6.271   5.123   6.693
 1236SOL     OW 4606   3.619   1.633   0.750
 1236SOL    HW1 4607   3.669   1.585   0.678
 1236SOL    HW2 4608   3.642   1.592   0.839
 1237SOL     OW 4609   1.650   0.229   4.847
 1237SOL    HW1 4610   1.600   0.146   4.824
 1237SOL    HW2 4611   1.631   0.300   4.779
 1238SOL     OW 4612   0.337   6.543   3.245
 1238SOL    HW1 4613   0.345   6.474   3.317
 1238SOL    HW2 4614   0.428   6.574   3.218
 1239SOL     OW 4615   0.107   5.374   3.994
 1239SOL    HW1 4616   0.130   5.307   3.924
 1239SOL    HW2 4617   0.118   5.466   3.956
 1240SOL     OW 4618   6.020   5.496   2.294
 1240SOL    HW1 4619   5.926   5.471   2.318
 1240SOL    HW2 4620   6.081   5.420   2.318
 1241SOL     OW 4621   0.214   4.723   4.482
 1241SOL    HW1 4622   0.178   4.637   4.447
 1241SOL    HW2 4623   0.170   4.744   4.570
 1242SOL     OW 4624   1.974   3.898   6.768
 1242SOL    HW1 4625   2.063   3.942   6.778
 1242SOL    HW2 4626   1.986   3.799   6.774
 1243SOL     OW 4627   6.896   2.565   5.287
 1243SOL    HW1 4628   6.808   2.522   5.305
 1243SOL    HW2 4629   6.915   2.633   5.357
 1244SOL     OW 4630   5.704   6.465   5.456
 1244SOL    HW1 4631   5.688   6.526   5.378
 1244SOL    HW2 4632   5.770   6.395   5.430
 1245SOL     OW 4633   5.585   5.794   1.273
 1245SOL    HW1 4634   5.668   5.810   1.328
 1245SOL    HW2 4635   5.505   5.799   1.333
 1246SOL     OW 4636   4.609   0.934   1.826
 1246SOL    HW1 4637   4.526   0.983   1.855
 1246SOL    HW2 4638   4.584   0.858   1.767
 1247SOL     OW 4639   6.515   6.633   4.601
 1247SOL    HW1 4640   6.460   6.690   4.663
 1247SOL    HW2 4641   6.532   6.544   4.644
 1248SOL     OW 4642   0.364   6.192   4.465
 1248SOL    HW1 4643   0.385   6.122   4.397
 1248SOL    HW2 4644   0.296   6.255   4.428
 1249SOL     OW 4645   0.184   4.212   1.347
 1249SOL    HW1 4646   0.254   4.230   1.277
 1249SOL    HW2 4647   0.152   4.118   1.339
 1250SOL     OW 4648   5.943   3.592   5.109
 1250SOL    HW1 4649   5.995   3.611   5.192
 1250SOL    HW2 4650   5.917   3.678   5.066
 1251SOL     OW 4651   2.095   1.427   3.063
 1251SOL    HW1 4652   2.171   1.382   3.112
 1251SOL    HW2 4653   2.113   1.525   3.057
 1252SOL     OW 4654   3.310   5.626   6.671
 1252SOL    HW1 4655   3.299   5.691   6.747
 1252SOL    HW2 4656   3.407   5.617   6.648
 1253SOL     OW 4657   3.151   0.709   1.020
 1253SOL    HW1 4658   3.188   0.643   1.086
 1253SOL    HW2 4659   3.052   0.699   1.014
 1254SOL     OW 4660   6.010   1.530   3.254
 1254SOL    HW1 4661   5.913   1.545   3.271
 1254SOL    HW2 4662   6.032   1.434   3.267
 1255SOL     OW 4663   5.614   2.539   5.147
 1255SOL    HW1 4664   5.675   2.569   5.220
 1255SOL    HW2 4665   5.625   2.600   5.068
 1256SOL     OW 4666   6.727   5.973   3.269
 1256SOL    HW1 4667   6.691   5.881   3.279
 1256SOL    HW2 4668   6.656   6.039   3.294
 1257SOL     OW 4669   0.167   4.479   4.329
 1257SOL    HW1 4670   0.185   4.431   4.243
 1257SOL    HW2 4671   0.169   4.413   4.405
 1258SOL     OW 4672   2.103   5.942   3.567
 1258SOL    HW1 4673   2.105   5.892   3.480
 1258SOL    HW2 4674   2.100   5.877   3.642
 1259SOL     OW 4675   4.071   0.044   4.867
 1259SOL    HW1 4676   4.040   0.130   4.826
 1259SOL    HW2 4677   4.095   0.059   4.962
 1260SOL     OW 4678   3.082   0.651   2.083
 1260SOL    HW1 4679   3.105   0.553   2.085
 1260SOL    HW2 4680   3.036   0.672   1.997
 1261SOL     OW 4681   7.021   3.454   0.256
 1261SOL    HW1 4682   0.023   3.440   0.160
 1261SOL    HW2 4683   0.009   3.368   0.306
 1262SOL     OW 4684   4.148   4.637   1.411
 1262SOL    HW1 4685   4.216   4.563   1.414
 1262SOL    HW2 4686   4.153   4.683   1.322
 1263SOL     OW 4687   6.343   2.376   1.295
 1263SOL    HW1 4688   6.304   2.287   1.318
 1263SOL    HW2 4689   6.329   2.394   1.197
 1264SOL     OW 4690   0.267   4.142   3.147
 1264SOL    HW1 4691   0.209   4.076   3.099
 1264SOL    HW2 4692   0.360   4.136   3.111
 1265SOL     OW 4693   0.240   4.271   4.160
 1265SOL    HW1 4694   0.208   4.202   4.096
 1265SOL    HW2 4695   0.321   4.239   4.208
 1266SOL     OW 4696   2.986   1.629   4.704
 1266SOL    HW1 4697   2.996   1.653   4.800
 1266SOL    HW2 4698   3.004   1.710   4.648
 1267SOL     OW 4699   6.211   5.706   2.282
 1267SOL    HW1 4700   6.301   5.664   2.270
 1267SOL    HW2 4701   6.144   5.635   2.300
 1268SOL     OW 4702   5.642   2.286   0.216
 1268SOL    HW1 4703   5.712   2.259   0.282
 1268SOL    HW2 4704   5.591   2.364   0.253
 1269SOL     OW 4705   6.604   6.864   5.502
 1269SOL    HW1 4706   6.617   6.777   5.454
 1269SOL    HW2 4707   6.570   6.933   5.438
 1270SOL     OW 4708   2.013   3.821   4.475
 1270SOL    HW1 4709   2.027   3.839   4.572
 1270SOL    HW2 4710   2.021   3.906   4.423
 1271SOL     OW 4711   3.595   1.917   2.942
 1271SOL    HW1 4712   3.563   1.832   2.901
 1271SOL    HW2 4713   3.648   1.969   2.875
 1272SOL     OW 4714   0.339   6.170   0.899
 1272SOL    HW1 4715   0.265   6.236   0.886
 1272SOL    HW2 4716   0.400   6.204   0.971
 1273SOL     OW 4717   2.282   3.821   0.008
 1273SOL    HW1 4718   2.271   3.781   6.939
 1273SOL    HW2 4719   2.377   3.813   0.036
 1274SOL     OW 4720   0.383   3.203   1.841
 1274SOL    HW1 4721   0.359   3.217   1.937
 1274SOL    HW2 4722   0.335   3.269   1.785
 1275SOL     OW 4723   4.630   0.517   3.761
 1275SOL    HW1 4724   4.572   0.435   3.759
 1275SOL    HW2 4725   4.610   0.574   3.681
 1276SOL     OW 4726   6.664   0.401   3.868
 1276SOL    HW1 4727   6.638   0.376   3.775
 1276SOL    HW2 4728   6.759   0.375   3.884
 1277SOL     OW 4729   0.470   0.927   4.194
 1277SOL    HW1 4730   0.490   0.854   4.259
 1277SOL    HW2 4731   0.374   0.920   4.165
 1278SOL     OW 4732   2.113   2.084   5.003
 1278SOL    HW1 4733   2.139   2.180   5.010
 1278SOL    HW2 4734   2.022   2.072   5.045
 1279SOL     OW 4735   1.844   0.131   0.737
 1279SOL    HW1 4736   1.921   0.160   0.793
 1279SOL    HW2 4737   1.825   0.035   0.753
 1280SOL     OW 4738   2.698   6.603   3.475
 1280SOL    HW1 4739   2.658   6.523   3.518
 1280SOL    HW2 4740   2.630   6.649   3.418
 1281SOL     OW 4741   1.003   5.516   2.918
 1281SOL    HW1 4742   1.030   5.612   2.913
 1281SOL    HW2 4743   0.904   5.510   2.931
 1282SOL     OW 4744   0.342   0.803   0.587
 1282SOL    HW1 4745   0.389   0.742   0.652
 1282SOL    HW2 4746   0.397   0.885   0.574
 1283SOL     OW 4747   5.237   3.632   5.497
 1283SOL    HW1 4748   5.231   3.564   5.570
 1283SOL    HW2 4749   5.320   3.616   5.443
 1284SOL     OW 4750   3.134   2.909   1.805
 1284SOL    HW1 4751   3.183   2.915   1.892
 1284SOL    HW2 4752   3.164   2.828   1.755
 1285SOL     OW 4753   5.624   3.771   6.272
 1285SOL    HW1 4754   5.536   3.736   6.305
 1285SOL    HW2 4755   5.633   3.867   6.297
 1286SOL     OW 4756   4.277   4.636   2.470
 1286SOL    HW1 4757   4.352   4.581   2.434
 1286SOL    HW2 4758   4.208   4.649   2.400
 1287SOL     OW 4759   5.857   4.497   6.737
 1287SOL    HW1 4760   5.897   4.559   6.669
 1287SOL    HW2 4761   5.785   4.546   6.788
 1288SOL     OW 4762   6.925   3.121   0.916
 1288SOL    HW1 4763   6.967   3.034   0.892
 1288SOL    HW2 4764   6.832   3.105   0.951
 1289SOL     OW 4765   0.417   5.776   1.426
 1289SOL    HW1 4766   0.509   5.762   1.463
 1289SOL    HW2 4767   0.351   5.728   1.484
 1290SOL     OW 4768   0.560   0.983   0.294
 1290SOL    HW1 4769   0.534   1.017   0.203
 1290SOL    HW2 4770   0.553   0.884   0.295
 1291SOL     OW 4771   1.617   4.972   6.175
 1291SOL    HW1 4772   1.587   4.904   6.243
 1291SOL    HW2 4773   1.697   4.937   6.127
 1292SOL     OW 4774   6.825   4.935   2.222
 1292SOL    HW1 4775   6.889   4.864   2.252
 1292SOL    HW2 4776   6.877   5.012   2.183
 1293SOL     OW 4777   3.385   1.402   5.969
 1293SOL    HW1 4778   3.417   1.425   5.877
 1293SOL    HW2 4779   3.289   1.429   5.978
 1294SOL     OW 4780   0.635   2.981   0.774
 1294SOL    HW1 4781   0.634   2.926   0.690
 1294SOL    HW2 4782   0.692   2.936   0.842
 1295SOL     OW 4783   6.075   3.689   2.467
 1295SOL    HW1 4784   5.980   3.677   2.438
 1295SOL    HW2 4785   6.087   3.647   2.557
 1296SOL     OW 4786   4.199   1.510   6.016
 1296SOL    HW1 4787   4.145   1.427   6.007
 1296SOL    HW2 4788   4.139   1.590   6.018
 1297SOL     OW 4789   5.215   0.907   6.257
 1297SOL    HW1 4790   5.211   1.007   6.264
 1297SOL    HW2 4791   5.307   0.879   6.232
 1298SOL     OW 4792   6.313   3.092   2.983
 1298SOL    HW1 4793   6.311   3.183   3.026
 1298SOL    HW2 4794   6.339   3.024   3.052
 1299SOL     OW 4795   1.594   4.282   3.144
 1299SOL    HW1 4796   1.604   4.195   3.193
 1299SOL    HW2 4797   1.685   4.323   3.133
 1300SOL     OW 4798   3.488   3.483   2.040
 1300SOL    HW1 4799   3.485   3.462   1.942
 1300SOL    HW2 4800   3.581   3.471   2.074
 1301SOL     OW 4801   1.246   6.039   2.601
 1301SOL    HW1 4802   1.247   5.951   2.554
 1301SOL    HW2 4803   1.325   6.093   2.572
 1302SOL     OW 4804   3.039   6.629   4.613
 1302SOL    HW1 4805   3.108   6.558   4.621
 1302SOL    HW2 4806   2.953   6.588   4.583
 1303SOL     OW 4807   4.150   1.240   0.892
 1303SOL    HW1 4808   4.208   1.244   0.974
 1303SOL    HW2 4809   4.140   1.145   0.863
 1304SOL     OW 4810   2.086   1.543   6.238
 1304SOL    HW1 4811   2.097   1.563   6.141
 1304SOL    HW2 4812   2.040   1.619   6.283
 1305SOL     OW 4813   6.084   5.942   6.827
 1305SOL    HW1 4814   6.128   6.011   6.885
 1305SOL    HW2 4815   6.069   5.980   6.736
 1306SOL     OW 4816   0.911   4.883   5.699
 1306SOL    HW1 4817   0.901   4.927   5.609
 1306SOL    HW2 4818   0.856   4.800   5.702
 1307SOL     OW 4819   1.680   3.197   3.996
 1307SOL    HW1 4820   1.676   3.275   4.058
 1307SOL    HW2 4821   1.588   3.177   3.962
 1308SOL     OW 4822   4.229   6.223   4.590
 1308SOL    HW1 4823   4.264   6.169   4.667
 1308SOL    HW2 4824   4.174   6.164   4.530
 1309SOL     OW 4825   5.455   3.093   5.359
 1309SOL    HW1 4826   5.399   3.173   5.381
 1309SOL    HW2 4827   5.548   3.107   5.393
 1310SOL     OW 4828   5.644   3.783   4.863
 1310SOL    HW1 4829   5.680   3.808   4.773
 1310SOL    HW2 4830   5.611   3.689   4.860
 1311SOL     OW 4831   6.548   6.616   4.333
 1311SOL    HW1 4832   6.548   6.614   4.433
 1311SOL    HW2 4833   6.462   6.656   4.300
 1312SOL     OW 4834   0.635   0.681   6.674
 1312SOL    HW1 4835   0.591   0.755   6.622
 1312SOL    HW2 4836   0.615   0.594   6.631
 1313SOL     OW 4837   2.342   5.904   5.791
 1313SOL    HW1 4838   2.317   5.993   5.754
 1313SOL    HW2 4839   2.389   5.916   5.879
 1314SOL     OW 4840   1.935   1.504   5.501
 1314SOL    HW1 4841   1.911   1.456   5.416
 1314SOL    HW2 4842   1.904   1.451   5.579
 1315SOL     OW 4843   0.635   1.350   0.350
 1315SOL    HW1 4844   0.662   1.264   0.392
 1315SOL    HW2 4845   0.572   1.332   0.274
 1316SOL     OW 4846   2.343   7.003   2.991
 1316SOL    HW1 4847   2.253   6.984   2.952
 1316SOL    HW2 4848   2.413   6.990   2.921
 1317SOL     OW 4849   1.137   4.432   4.882
 1317SOL    HW1 4850   1.152   4.430   4.783
 1317SOL    HW2 4851   1.222   4.458   4.928
 1318SOL     OW 4852   0.454   1.075   0.528
 1318SOL    HW1 4853   0.466   1.174   0.538
 1318SOL    HW2 4854   0.496   1.044   0.443
 1319SOL     OW 4855   6.621   1.827   0.081
 1319SOL    HW1 4856   6.549   1.793   0.020
 1319SOL    HW2 4857   6.709   1.824   0.033
 1320SOL     OW 4858   5.941   4.626   0.208
 1320SOL    HW1 4859   5.984   4.567   0.140
 1320SOL    HW2 4860   6.004   4.700   0.233
 1321SOL     OW 4861   3.998   2.415   0.126
 1321SOL    HW1 4862   3.922   2.353   0.107
 1321SOL    HW2 4863   3.962   2.503   0.158
 1322SOL     OW 4864   5.397   1.410   3.738
 1322SOL    HW1 4865   5.351   1.405   3.650
 1322SOL    HW2 4866   5.412   1.317   3.773
 1323SOL     OW 4867   5.056   2.014   5.185
 1323SOL    HW1 4868   5.093   1.978   5.271
 1323SOL    HW2 4869   5.131   2.031   5.121
 1324SOL     OW 4870   1.481   2.126   1.789
 1324SOL    HW1 4871   1.523   2.071   1.716
 1324SOL    HW2 4872   1.442   2.065   1.858
 1325SOL     OW 4873   2.782   6.628   2.734
 1325SOL    HW1 4874   2.813   6.621   2.829
 1325SOL    HW2 4875   2.684   6.651   2.733
 1326SOL     OW 4876   4.633   2.715   4.791
 1326SOL    HW1 4877   4.680   2.671   4.714
 1326SOL    HW2 4878   4.538   2.684   4.794
 1327SOL     OW 4879   3.028   5.480   2.684
 1327SOL    HW1 4880   2.999   5.522   2.771
 1327SOL    HW2 4881   2.965   5.406   2.660
 1328SOL     OW 4882   0.940   2.805   0.655
 1328SOL    HW1 4883   1.030   2.762   0.660
 1328SOL    HW2 4884   0.889   2.786   0.739
 1329SOL     OW 4885   6.521   1.949   0.626
 1329SOL    HW1 4886   6.554   2.030   0.577
 1329SOL    HW2 4887   6.421   1.951   0.631
 1330SOL     OW 4888   6.440   6.945   1.165
 1330SOL    HW1 4889   6.459   6.925   1.261
 1330SOL    HW2 4890   6.482   0.009   1.139
 1331SOL     OW 4891   4.828   2.045   3.313
 1331SOL    HW1 4892   4.798   2.138   3.332
 1331SOL    HW2 4893   4.748   1.986   3.299
 1332SOL     OW 4894   3.705   0.272   0.728
 1332SOL    HW1 4895   3.710   0.212   0.808
 1332SOL    HW2 4896   3.775   0.244   0.662
 1333SOL     OW 4897   3.733   4.404   5.651
 1333SOL    HW1 4898   3.759   4.467   5.578
 1333SOL    HW2 4899   3.810   4.391   5.713
 1334SOL     OW 4900   0.659   3.324   4.396
 1334SOL    HW1 4901   0.626   3.233   4.372
 1334SOL    HW2 4902   0.735   3.317   4.460
 1335SOL     OW 4903   2.451   6.189   2.564
 1335SOL    HW1 4904   2.548   6.214   2.556
 1335SOL    HW2 4905   2.429   6.169   2.659
 1336SOL     OW 4906   1.721   1.025   5.744
 1336SOL    HW1 4907   1.815   1.022   5.710
 1336SOL    HW2 4908   1.722   1.032   5.844
 1337SOL     OW 4909   0.904   2.330   5.000
 1337SOL    HW1 4910   0.840   2.401   5.028
 1337SOL    HW2 4911   0.860   2.270   4.933
 1338SOL     OW 4912   4.345   4.037   6.195
 1338SOL    HW1 4913   4.425   4.003   6.146
 1338SOL    HW2 4914   4.373   4.093   6.272
 1339SOL     OW 4915   6.957   5.816   6.974
 1339SOL    HW1 4916   6.950   5.716   6.979
 1339SOL    HW2 4917   0.016   5.846   0.001
 1340SOL     OW 4918   0.994   1.598   1.609
 1340SOL    HW1 4919   0.941   1.544   1.543
 1340SOL    HW2 4920   1.091   1.587   1.591
 1341SOL     OW 4921   4.338   0.564   5.600
 1341SOL    HW1 4922   4.383   0.653   5.592
 1341SOL    HW2 4923   4.361   0.508   5.520
 1342SOL     OW 4924   1.208   5.894   6.063
 1342SOL    HW1 4925   1.242   5.959   5.995
 1342SOL    HW2 4926   1.176   5.945   6.144
 1343SOL     OW 4927   3.783   6.696   2.568
 1343SOL    HW1 4928   3.857   6.697   2.635
 1343SOL    HW2 4929   3.814   6.741   2.484
 1344SOL     OW 4930   0.110   3.071   3.439
 1344SOL    HW1 4931   0.013   3.081   3.418
 1344SOL    HW2 4932   0.140   3.149   3.495
 1345SOL     OW 4933   0.396   1.519   3.460
 1345SOL    HW1 4934   0.314   1.489   3.412
 1345SOL    HW2 4935   0.434   1.443   3.512
 1346SOL     OW 4936   1.814   0.099   2.589
 1346SOL    HW1 4937   1.804   0.170   2.519
 1346SOL    HW2 4938   1.754   0.120   2.667
 1347SOL     OW 4939   6.443   6.289   4.005
 1347SOL    HW1 4940   6.360   6.331   3.967
 1347SOL    HW2 4941   6.494   6.244   3.932
 1348SOL     OW 4942   6.030   4.891   3.315
 1348SOL    HW1 4943   5.996   4.845   3.398
 1348SOL    HW2 4944   6.013   4.989   3.322
 1349SOL     OW 4945   5.109   2.649   6.644
 1349SOL    HW1 4946   5.068   2.559   6.626
 1349SOL    HW2 4947   5.066   2.689   6.725
 1350SOL     OW 4948   4.074   5.210   6.822
 1350SOL    HW1 4949   4.041   5.239   6.733
 1350SOL    HW2 4950   4.171   5.234   6.831
 1351SOL     OW 4951   0.799   0.999   3.205
 1351SOL    HW1 4952   0.801   0.904   3.236
 1351SOL    HW2 4953   0.732   1.008   3.132
 1352SOL     OW 4954   0.382   0.076   3.575
 1352SOL    HW1 4955   0.378   0.074   3.475
 1352SOL    HW2 4956   0.463   0.026   3.606
 1353SOL     OW 4957   6.940   4.303   6.289
 1353SOL    HW1 4958   6.923   4.257   6.376
 1353SOL    HW2 4959   0.004   4.271   6.250
 1354SOL     OW 4960   6.706   2.206   0.889
 1354SOL    HW1 4961   6.735   2.265   0.813
 1354SOL    HW2 4962   6.685   2.263   0.969
 1355SOL     OW 4963   5.163   3.737   6.432
 1355SOL    HW1 4964   5.098   3.661   6.428
 1355SOL    HW2 4965   5.136   3.807   6.367
 1356SOL     OW 4966   3.734   3.668   4.041
 1356SOL    HW1 4967   3.770   3.703   3.954
 1356SOL    HW2 4968   3.636   3.650   4.031
 1357SOL     OW 4969   2.369   3.305   6.054
 1357SOL    HW1 4970   2.298   3.369   6.082
 1357SOL    HW2 4971   2.459   3.342   6.078
 1358SOL     OW 4972   2.951   2.038   5.924
 1358SOL    HW1 4973   2.994   2.055   5.835
 1358SOL    HW2 4974   3.019   2.003   5.988
 1359SOL     OW 4975   6.507   3.638   1.513
 1359SOL    HW1 4976   6.469   3.557   1.469
 1359SOL    HW2 4977   6.549   3.697   1.444
 1360SOL     OW 4978   4.064   3.796   2.436
 1360SOL    HW1 4979   4.040   3.882   2.481
 1360SOL    HW2 4980   4.121   3.814   2.357
 1361SOL     OW 4981   0.085   0.024   6.199
 1361SOL    HW1 4982   0.085   0.073   6.285
 1361SOL    HW2 4983   0.093   6.948   6.216
 1362SOL     OW 4984   2.959   3.410   5.606
 1362SOL    HW1 4985   2.910   3.344   5.663
 1362SOL    HW2 4986   2.922   3.501   5.620
 1363SOL     OW 4987   6.472   6.000   4.177
 1363SOL    HW1 4988   6.555   6.037   4.134
 1363SOL    HW2 4989   6.442   5.919   4.128
 1364SOL     OW 4990   7.005   2.204   6.914
 1364SOL    HW1 4991   6.906   2.218   6.919
 1364SOL    HW2 4992   0.008   2.128   6.974
 1365SOL     OW 4993   0.762   3.673   5.601
 1365SOL    HW1 4994   0.837   3.607   5.610
 1365SOL    HW2 4995   0.735   3.705   5.692
 1366SOL     OW 4996   0.191   3.397   1.250
 1366SOL    HW1 4997   0.240   3.358   1.328
 1366SOL    HW2 4998   0.242   3.380   1.166
 1367SOL     OW 4999   1.284   4.998   3.413
 1367SOL    HW1 5000   1.267   4.904   3.383
 1367SOL    HW2 5001   1.208   5.056   3.384
 1368SOL     OW 5002   6.758   0.688   4.189
 1368SOL    HW1 5003   6.828   0.617   4.200
 1368SOL    HW2 5004   6.744   0.705   4.092
 1369SOL     OW 5005   2.353   5.857   1.620
 1369SOL    HW1 5006   2.279   5.861   1.687
 1369SOL    HW2 5007   2.373   5.949   1.587
 1370SOL     OW 5008   0.165   1.625   4.048
 1370SOL    HW1 5009   0.220   1.659   3.971
 1370SOL    HW2 5010   0.225   1.588   4.119
 1371SOL     OW 5011   4.740   1.255   4.810
 1371SOL    HW1 5012   4.787   1.335   4.847
 1371SOL    HW2 5013   4.734   1.185   4.881
 1372SOL     OW 5014   6.291   2.470   1.016
 1372SOL    HW1 5015   6.300   2.506   0.923
 1372SOL    HW2 5016   6.275   2.372   1.012
 1373SOL     OW 5017   5.609   1.800   0.830
 1373SOL    HW1 5018   5.688   1.826   0.886
 1373SOL    HW2 5019   5.640   1.747   0.751
 1374SOL     OW 5020   5.525   4.549   0.091
 1374SOL    HW1 5021   5.468   4.628   0.116
 1374SOL    HW2 5022   5.578   4.571   0.009
 1375SOL     OW 5023   6.740   6.882   6.357
 1375SOL    HW1 5024   6.730   6.786   6.385
 1375SOL    HW2 5025   6.826   6.918   6.393
 1376SOL     OW 5026   3.589   4.884   6.192
 1376SOL    HW1 5027   3.551   4.827   6.265
 1376SOL    HW2 5028   3.602   4.828   6.110
 1377SOL     OW 5029   0.998   2.562   3.977
 1377SOL    HW1 5030   1.080   2.517   4.012
 1377SOL    HW2 5031   0.974   2.523   3.888
 1378SOL     OW 5032   4.887   2.412   4.809
 1378SOL    HW1 5033   4.820   2.452   4.746
 1378SOL    HW2 5034   4.975   2.458   4.798
 1379SOL     OW 5035   4.804   5.606   2.865
 1379SOL    HW1 5036   4.739   5.651   2.926
 1379SOL    HW2 5037   4.892   5.596   2.913
 1380SOL     OW 5038   0.071   6.191   2.496
 1380SOL    HW1 5039   6.999   6.195   2.464
 1380SOL    HW2 5040   0.080   6.245   2.580
 1381SOL     OW 5041   5.902   1.538   6.873
 1381SOL    HW1 5042   5.986   1.535   6.818
 1381SOL    HW2 5043   5.877   1.633   6.889
 1382SOL     OW 5044   5.000   2.987   1.065
 1382SOL    HW1 5045   5.038   2.954   1.152
 1382SOL    HW2 5046   5.075   3.016   1.006
 1383SOL     OW 5047   0.425   0.180   1.379
 1383SOL    HW1 5048   0.408   0.219   1.470
 1383SOL    HW2 5049   0.510   0.128   1.380
 1384SOL     OW 5050   4.272   6.895   1.179
 1384SOL    HW1 5051   4.295   6.979   1.226
 1384SOL    HW2 5052   4.203   6.914   1.109
 1385SOL     OW 5053   1.983   4.283   3.612
 1385SOL    HW1 5054   1.984   4.364   3.670
 1385SOL    HW2 5055   1.913   4.292   3.542
 1386SOL     OW 5056   3.303   0.149   3.318
 1386SOL    HW1 5057   3.368   0.073   3.317
 1386SOL    HW2 5058   3.354   0.236   3.322
 1387SOL     OW 5059   3.154   5.595   2.295
 1387SOL    HW1 5060   3.244   5.598   2.253
 1387SOL    HW2 5061   3.086   5.628   2.229
 1388SOL     OW 5062   6.527   6.801   1.906
 1388SOL    HW1 5063   6.597   6.868   1.879
 1388SOL    HW2 5064   6.514   6.736   1.832
 1389SOL     OW 5065   6.153   2.296   3.659
 1389SOL    HW1 5066   6.153   2.389   3.696
 1389SOL    HW2 5067   6.247   2.261   3.657
 1390SOL     OW 5068   7.002   3.906   6.924
 1390SOL    HW1 5069   0.004   3.844   6.849
 1390SOL    HW2 5070   6.906   3.891   6.950
 1391SOL     OW 5071   6.146   0.290   4.446
 1391SOL    HW1 5072   6.193   0.375   4.468
 1391SOL    HW2 5073   6.082   0.267   4.519
 1392SOL     OW 5074   5.344   5.682   6.364
 1392SOL    HW1 5075   5.260   5.734   6.352
 1392SOL    HW2 5076   5.416   5.742   6.400
 1393SOL     OW 5077   6.096   4.901   5.597
 1393SOL    HW1 5078   6.113   4.886   5.499
 1393SOL    HW2 5079   6.020   4.964   5.608
 1394SOL     OW 5080   2.964   5.699   5.061
 1394SOL    HW1 5081   2.960   5.726   5.157
 1394SOL    HW2 5082   2.892   5.633   5.041
 1395SOL     OW 5083   2.495   4.187   5.876
 1395SOL    HW1 5084   2.499   4.186   5.776
 1395SOL    HW2 5085   2.576   4.234   5.912
 1396SOL     OW 5086   1.692   1.255   4.942
 1396SOL    HW1 5087   1.640   1.177   4.978
 1396SOL    HW2 5088   1.670   1.268   4.845
 1397SOL     OW 5089   0.586   0.275   3.757
 1397SOL    HW1 5090   0.683   0.249   3.748
 1397SOL    HW2 5091   0.574   0.369   3.726
 1398SOL     OW 5092   2.859   0.485   5.961
 1398SOL    HW1 5093   2.825   0.568   5.917
 1398SOL    HW2 5094   2.924   0.439   5.900
 1399SOL     OW 5095   3.274   5.883   0.645
 1399SOL    HW1 5096   3.322   5.958   0.600
 1399SOL    HW2 5097   3.195   5.856   0.590
 1400SOL     OW 5098   6.989   0.924   2.923
 1400SOL    HW1 5099   6.998   0.930   2.824
 1400SOL    HW2 5100   0.057   0.908   2.963
 1401SOL     OW 5101   6.806   2.518   4.783
 1401SOL    HW1 5102   6.733   2.458   4.815
 1401SOL    HW2 5103   6.768   2.585   4.719
 1402SOL     OW 5104   0.464   3.597   0.011
 1402SOL    HW1 5105   0.536   3.532   0.033
 1402SOL    HW2 5106   0.375   3.551   0.016
 1403SOL     OW 5107   2.309   2.535   1.636
 1403SOL    HW1 5108   2.325   2.597   1.713
 1403SOL    HW2 5109   2.350   2.446   1.655
 1404SOL     OW 5110   5.510   6.812   0.110
 1404SOL    HW1 5111   5.425   6.839   0.064
 1404SOL    HW2 5112   5.547   6.890   0.161
 1405SOL     OW 5113   2.015   3.733   0.823
 1405SOL    HW1 5114   1.983   3.639   0.824
 1405SOL    HW2 5115   2.100   3.739   0.771
 1406SOL     OW 5116   1.172   5.247   1.286
 1406SOL    HW1 5117   1.123   5.162   1.307
 1406SOL    HW2 5118   1.212   5.240   1.195
 1407SOL     OW 5119   0.460   1.930   2.393
 1407SOL    HW1 5120   0.525   1.970   2.328
 1407SOL    HW2 5121   0.492   1.838   2.418
 1408SOL     OW 5122   5.508   1.353   5.623
 1408SOL    HW1 5123   5.466   1.268   5.655
 1408SOL    HW2 5124   5.584   1.378   5.683
 1409SOL     OW 5125   0.844   1.138   4.900
 1409SOL    HW1 5126   0.787   1.056   4.902
 1409SOL    HW2 5127   0.786   1.218   4.882
 1410SOL     OW 5128   1.889   2.763   6.347
 1410SOL    HW1 5129   1.799   2.719   6.353
 1410SOL    HW2 5130   1.878   2.855   6.307
 1411SOL     OW 5131   2.861   6.612   2.011
 1411SOL    HW1 5132   2.823   6.635   2.101
 1411SOL    HW2 5133   2.891   6.695   1.966
 1412SOL     OW 5134   0.056   2.184   1.153
 1412SOL    HW1 5135   0.056   2.113   1.081
 1412SOL    HW2 5136   6.984   2.203   1.180
 1413SOL     OW 5137   1.562   1.578   5.238
 1413SOL    HW1 5138   1.484   1.535   5.283
 1413SOL    HW2 5139   1.576   1.670   5.276
 1414SOL     OW 5140   2.488   1.129   1.752
 1414SOL    HW1 5141   2.509   1.036   1.721
 1414SOL    HW2 5142   2.572   1.178   1.772
 1415SOL     OW 5143   2.211   0.879   4.615
 1415SOL    HW1 5144   2.153   0.863   4.696
 1415SOL    HW2 5145   2.275   0.803   4.605
 1416SOL     OW 5146   4.777   4.611   4.398
 1416SOL    HW1 5147   4.865   4.622   4.444
 1416SOL    HW2 5148   4.755   4.695   4.347
 1417SOL     OW 5149   3.001   1.762   0.572
 1417SOL    HW1 5150   3.032   1.794   0.662
 1417SOL    HW2 5151   3.077   1.765   0.507
 1418SOL     OW 5152   2.913   3.668   4.047
 1418SOL    HW1 5153   2.866   3.618   3.976
 1418SOL    HW2 5154   2.984   3.725   4.006
 1419SOL     OW 5155   2.327   6.261   5.050
 1419SOL    HW1 5156   2.254   6.217   4.998
 1419SOL    HW2 5157   2.348   6.350   5.009
 1420SOL     OW 5158   2.557   6.994   1.536
 1420SOL    HW1 5159   2.468   6.951   1.528
 1420SOL    HW2 5160   2.617   6.938   1.593
 1421SOL     OW 5161   1.822   3.594   3.492
 1421SOL    HW1 5162   1.869   3.510   3.464
 1421SOL    HW2 5163   1.731   3.572   3.527
 1422SOL     OW 5164   1.593   3.700   1.387
 1422SOL    HW1 5165   1.580   3.612   1.433
 1422SOL    HW2 5166   1.579   3.774   1.453
 1423SOL     OW 5167   5.284   6.146   3.250
 1423SOL    HW1 5168   5.374   6.112   3.275
 1423SOL    HW2 5169   5.268   6.235   3.293
 1424SOL     OW 5170   6.336   4.987   5.669
 1424SOL    HW1 5171   6.390   4.912   5.706
 1424SOL    HW2 5172   6.260   4.950   5.615
 1425SOL     OW 5173   0.963   6.517   5.074
 1425SOL    HW1 5174   1.060   6.502   5.093
 1425SOL    HW2 5175   0.953   6.550   4.980
 1426SOL     OW 5176   2.260   2.500   6.235
 1426SOL    HW1 5177   2.287   2.596   6.221
 1426SOL    HW2 5178   2.320   2.441   6.181
 1427SOL     OW 5179   0.115   6.604   3.744
 1427SOL    HW1 5180   0.180   6.636   3.812
 1427SOL    HW2 5181   0.155   6.529   3.691
 1428SOL     OW 5182   5.839   2.923   0.731
 1428SOL    HW1 5183   5.924   2.964   0.765
 1428SOL    HW2 5184   5.789   2.882   0.808
 1429SOL     OW 5185   5.170   2.296   0.302
 1429SOL    HW1 5186   5.177   2.395   0.314
 1429SOL    HW2 5187   5.073   2.269   0.302
 1430SOL     OW 5188   1.740   4.271   3.893
 1430SOL    HW1 5189   1.798   4.202   3.850
 1430SOL    HW2 5190   1.676   4.308   3.826
 1431SOL     OW 5191   2.368   1.810   1.102
 1431SOL    HW1 5192   2.466   1.793   1.110
 1431SOL    HW2 5193   2.345   1.826   1.006
 1432SOL     OW 5194   3.155   1.287   2.636
 1432SOL    HW1 5195   3.100   1.286   2.720
 1432SOL    HW2 5196   3.248   1.258   2.657
 1433SOL     OW 5197   4.019   1.141   5.501
 1433SOL    HW1 5198   3.965   1.064   5.466
 1433SOL    HW2 5199   3.989   1.226   5.458
 1434SOL     OW 5200   6.949   0.632   5.789
 1434SOL    HW1 5201   7.022   0.651   5.855
 1434SOL    HW2 5202   6.925   0.535   5.793
 1435SOL     OW 5203   6.216   7.013   3.233
 1435SOL    HW1 5204   6.250   7.014   3.139
 1435SOL    HW2 5205   6.241   0.075   3.279
 1436SOL     OW 5206   5.524   3.881   6.908
 1436SOL    HW1 5207   5.606   3.825   6.904
 1436SOL    HW2 5208   5.453   3.841   6.849
 1437SOL     OW 5209   2.898   2.234   3.475
 1437SOL    HW1 5210   2.808   2.269   3.499
 1437SOL    HW2 5211   2.900   2.209   3.378
 1438SOL     OW 5212   3.273   5.837   1.428
 1438SOL    HW1 5213   3.268   5.919   1.373
 1438SOL    HW2 5214   3.326   5.855   1.511
 1439SOL     OW 5215   6.879   5.656   1.346
 1439SOL    HW1 5216   6.949   5.586   1.329
 1439SOL    HW2 5217   6.888   5.728   1.276
 1440SOL     OW 5218   3.064   3.586   0.265
 1440SOL    HW1 5219   3.077   3.487   0.273
 1440SOL    HW2 5220   3.045   3.609   0.169
 1441SOL     OW 5221   5.782   0.936   3.576
 1441SOL    HW1 5222   5.802   0.907   3.483
 1441SOL    HW2 5223   5.867   0.946   3.628
 1442SOL     OW 5224   7.021   6.170   7.017
 1442SOL    HW1 5225   6.989   6.222   6.938
 1442SOL    HW2 5226   6.994   6.075   7.007
 1443SOL     OW 5227   0.678   3.086   2.846
 1443SOL    HW1 5228   0.708   3.069   2.940
 1443SOL    HW2 5229   0.578   3.088   2.843
 1444SOL     OW 5230   5.267   5.949   1.192
 1444SOL    HW1 5231   5.277   5.988   1.283
 1444SOL    HW2 5232   5.183   5.894   1.189
 1445SOL     OW 5233   0.961   2.568   2.863
 1445SOL    HW1 5234   1.029   2.602   2.798
 1445SOL    HW2 5235   0.939   2.640   2.929
 1446SOL     OW 5236   6.028   1.427   0.191
 1446SOL    HW1 5237   5.962   1.473   0.250
 1446SOL    HW2 5238   5.981   1.372   0.123
 1447SOL     OW 5239   6.088   5.900   4.151
 1447SOL    HW1 5240   6.121   5.807   4.166
 1447SOL    HW2 5241   6.119   5.933   4.062
 1448SOL     OW 5242   6.302   3.079   5.361
 1448SOL    HW1 5243   6.376   3.129   5.316
 1448SOL    HW2 5244   6.317   3.080   5.460
 1449SOL     OW 5245   1.344   3.392   5.797
 1449SOL    HW1 5246   1.439   3.375   5.825
 1449SOL    HW2 5247   1.298   3.445   5.868
 1450SOL     OW 5248   1.142   2.201   6.861
 1450SOL    HW1 5249   1.044   2.208   6.877
 1450SOL    HW2 5250   1.190   2.206   6.949
 1451SOL     OW 5251   1.008   6.041   2.407
 1451SOL    HW1 5252   1.084   5.983   2.378
 1451SOL    HW2 5253   0.924   5.988   2.409
 1452SOL     OW 5254   4.195   2.426   5.483
 1452SOL    HW1 5255   4.148   2.354   5.534
 1452SOL    HW2 5256   4.127   2.489   5.444
 1453SOL     OW 5257   0.646   4.363   6.135
 1453SOL    HW1 5258   0.678   4.445   6.087
 1453SOL    HW2 5259   0.708   4.287   6.114
 1454SOL     OW 5260   1.048   2.210   1.732
 1454SOL    HW1 5261   1.085   2.206   1.824
 1454SOL    HW2 5262   1.106   2.267   1.675
 1455SOL     OW 5263   1.645   6.879   1.973
 1455SOL    HW1 5264   1.692   6.841   2.052
 1455SOL    HW2 5265   1.673   6.828   1.891
 1456SOL     OW 5266   6.305   0.376   6.400
 1456SOL    HW1 5267   6.324   0.278   6.388
 1456SOL    HW2 5268   6.357   0.428   6.332
 1457SOL     OW 5269   0.881   6.042   0.375
 1457SOL    HW1 5270   0.980   6.028   0.376
 1457SOL    HW2 5271   0.854   6.086   0.290
 1458SOL     OW 5272   6.350   4.965   4.933
 1458SOL    HW1 5273   6.256   4.997   4.923
 1458SOL    HW2 5274   6.398   4.976   4.847
 1459SOL     OW 5275   3.764   6.971   5.584
 1459SOL    HW1 5276   3.676   6.991   5.627
 1459SOL    HW2 5277   3.827   6.933   5.653
 1460SOL     OW 5278   0.950   0.117   5.235
 1460SOL    HW1 5279   0.987   0.190   5.293
 1460SOL    HW2 5280   0.851   0.111   5.249
 1461SOL     OW 5281   6.919   4.021   2.573
 1461SOL    HW1 5282   6.914   4.082   2.651
 1461SOL    HW2 5283   6.971   4.065   2.500
 1462SOL     OW 5284   1.205   1.323   6.591
 1462SOL    HW1 5285   1.160   1.344   6.504
 1462SOL    HW2 5286   1.302   1.306   6.575
 1463SOL     OW 5287   1.071   5.481   5.891
 1463SOL    HW1 5288   0.995   5.449   5.946
 1463SOL    HW2 5289   1.056   5.576   5.864
 1464SOL     OW 5290   0.122   5.912   2.164
 1464SOL    HW1 5291   0.184   5.861   2.105
 1464SOL    HW2 5292   0.140   6.010   2.153
 1465SOL     OW 5293   1.543   0.982   4.044
 1465SOL    HW1 5294   1.552   0.883   4.053
 1465SOL    HW2 5295   1.530   1.023   4.134
 1466SOL     OW 5296   2.772   1.395   2.173
 1466SOL    HW1 5297   2.786   1.451   2.255
 1466SOL    HW2 5298   2.674   1.389   2.152
 1467SOL     OW 5299   1.797   1.275   3.695
 1467SOL    HW1 5300   1.896   1.290   3.686
 1467SOL    HW2 5301   1.757   1.268   3.604
 1468SOL     OW 5302   2.311   5.367   2.262
 1468SOL    HW1 5303   2.358   5.311   2.194
 1468SOL    HW2 5304   2.378   5.408   2.324
 1469SOL     OW 5305   6.629   0.540   3.277
 1469SOL    HW1 5306   6.641   0.630   3.319
 1469SOL    HW2 5307   6.718   0.507   3.245
 1470SOL     OW 5308   0.981   1.464   1.930
 1470SOL    HW1 5309   0.911   1.524   1.892
 1470SOL    HW2 5310   1.017   1.405   1.858
 1471SOL     OW 5311   0.821   0.444   0.621
 1471SOL    HW1 5312   0.896   0.475   0.679
 1471SOL    HW2 5313   0.781   0.522   0.574
 1472SOL     OW 5314   2.695   5.795   6.652
 1472SOL    HW1 5315   2.613   5.838   6.613
 1472SOL    HW2 5316   2.725   5.846   6.732
 1473SOL     OW 5317   3.568   5.224   5.610
 1473SOL    HW1 5318   3.644   5.258   5.664
 1473SOL    HW2 5319   3.499   5.296   5.601
 1474SOL     OW 5320   4.681   4.658   1.230
 1474SOL    HW1 5321   4.706   4.616   1.318
 1474SOL    HW2 5322   4.753   4.721   1.202
 1475SOL     OW 5323   5.680   0.920   0.768
 1475SOL    HW1 5324   5.705   0.996   0.708
 1475SOL    HW2 5325   5.750   0.908   0.838
 1476SOL     OW 5326   2.755   1.031   1.129
 1476SOL    HW1 5327   2.743   1.018   1.031
 1476SOL    HW2 5328   2.852   1.031   1.151
 1477SOL     OW 5329   3.545   6.272   6.408
 1477SOL    HW1 5330   3.561   6.175   6.425
 1477SOL    HW2 5331   3.533   6.320   6.495
 1478SOL     OW 5332   6.100   5.549   5.371
 1478SOL    HW1 5333   6.096   5.471   5.308
 1478SOL    HW2 5334   6.020   5.546   5.431
 1479SOL     OW 5335   2.683   3.475   0.973
 1479SOL    HW1 5336   2.761   3.473   1.036
 1479SOL    HW2 5337   2.703   3.416   0.894
 1480SOL     OW 5338   2.675   0.038   4.472
 1480SOL    HW1 5339   2.762   7.011   4.470
 1480SOL    HW2 5340   2.688   0.132   4.441
 1481SOL     OW 5341   6.151   3.516   6.131
 1481SOL    HW1 5342   6.218   3.527   6.058
 1481SOL    HW2 5343   6.090   3.595   6.132
 1482SOL     OW 5344   4.542   0.604   2.097
 1482SOL    HW1 5345   4.565   0.690   2.144
 1482SOL    HW2 5346   4.474   0.623   2.027
 1483SOL     OW 5347   5.423   2.389   5.492
 1483SOL    HW1 5348   5.364   2.418   5.416
 1483SOL    HW2 5349   5.390   2.301   5.527
 1484SOL     OW 5350   4.885   4.925   3.893
 1484SOL    HW1 5351   4.964   4.878   3.932
 1484SOL    HW2 5352   4.880   4.905   3.795
 1485SOL     OW 5353   5.047   0.434   4.584
 1485SOL    HW1 5354   4.971   0.498   4.575
 1485SOL    HW2 5355   5.018   0.343   4.555
 1486SOL     OW 5356   5.291   0.551   3.206
 1486SOL    HW1 5357   5.252   0.642   3.225
 1486SOL    HW2 5358   5.386   0.549   3.237
 1487SOL     OW 5359   0.313   2.121   7.005
 1487SOL    HW1 5360   0.274   2.209   6.980
 1487SOL    HW2 5361   0.241   2.052   7.011
 1488SOL     OW 5362   4.752   6.900   3.637
 1488SOL    HW1 5363   4.832   6.888   3.579
 1488SOL    HW2 5364   4.714   6.811   3.662
 1489SOL     OW 5365   3.604   5.310   6.713
 1489SOL    HW1 5366   3.673   5.240   6.728
 1489SOL    HW2 5367   3.598   5.370   6.793
 1490SOL     OW 5368   0.174   3.617   1.430
 1490SOL    HW1 5369   0.183   3.559   1.349
 1490SOL    HW2 5370   0.264   3.634   1.469
 1491SOL     OW 5371   6.553   4.286   2.402
 1491SOL    HW1 5372   6.465   4.326   2.424
 1491SOL    HW2 5373   6.608   4.352   2.352
 1492SOL     OW 5374   5.933   0.458   2.401
 1492SOL    HW1 5375   6.003   0.386   2.394
 1492SOL    HW2 5376   5.948   0.525   2.328
 1493SOL     OW 5377   3.888   0.548   6.125
 1493SOL    HW1 5378   3.923   0.563   6.032
 1493SOL    HW2 5379   3.843   0.632   6.157
 1494SOL     OW 5380   5.547   2.707   6.554
 1494SOL    HW1 5381   5.476   2.749   6.498
 1494SOL    HW2 5382   5.555   2.610   6.531
 1495SOL     OW 5383   0.343   4.271   5.307
 1495SOL    HW1 5384   0.295   4.253   5.393
 1495SOL    HW2 5385   0.433   4.228   5.310
 1496SOL     OW 5386   1.477   1.240   0.503
 1496SOL    HW1 5387   1.475   1.339   0.492
 1496SOL    HW2 5388   1.511   1.217   0.594
 1497SOL     OW 5389   5.391   3.021   2.004
 1497SOL    HW1 5390   5.458   2.948   1.991
 1497SOL    HW2 5391   5.393   3.052   2.099
 1498SOL     OW 5392   2.595   4.453   0.374
 1498SOL    HW1 5393   2.543   4.387   0.428
 1498SOL    HW2 5394   2.679   4.478   0.423
 1499SOL     OW 5395   0.308   2.568   5.603
 1499SOL    HW1 5396   0.251   2.647   5.625
 1499SOL    HW2 5397   0.330   2.568   5.506
 1500SOL     OW 5398   0.387   6.681   0.108
 1500SOL    HW1 5399   0.457   6.711   0.173
 1500SOL    HW2 5400   0.302   6.732   0.125
 1501SOL     OW 5401   5.927   2.253   6.138
 1501SOL    HW1 5402   5.946   2.182   6.206
 1501SOL    HW2 5403   5.919   2.342   6.183
 1502SOL     OW 5404   5.062   0.929   0.153
 1502SOL    HW1 5405   4.963   0.927   0.147
 1502SOL    HW2 5406   5.090   0.992   0.225
 1503SOL     OW 5407   1.587   2.993   2.564
 1503SOL    HW1 5408   1.641   3.033   2.637
 1503SOL    HW2 5409   1.490   3.010   2.580
 1504SOL     OW 5410   0.339   0.166   4.192
 1504SOL    HW1 5411   0.306   0.186   4.285
 1504SOL    HW2 5412   0.400   0.087   4.195
 1505SOL     OW 5413   4.616   0.256   5.689
 1505SOL    HW1 5414   4.619   0.210   5.777
 1505SOL    HW2 5415   4.579   0.348   5.700
 1506SOL     OW 5416   0.844   6.639   0.053
 1506SOL    HW1 5417   0.939   6.614   0.033
 1506SOL    HW2 5418   0.804   6.571   0.115
 1507SOL     OW 5419   0.299   1.905   6.028
 1507SOL    HW1 5420   0.337   1.835   5.968
 1507SOL    HW2 5421   0.231   1.958   5.977
 1508SOL     OW 5422   6.077   1.547   1.228
 1508SOL    HW1 5423   6.022   1.541   1.311
 1508SOL    HW2 5424   6.039   1.484   1.159
 1509SOL     OW 5425   4.544   2.211   4.660
 1509SOL    HW1 5426   4.457   2.235   4.704
 1509SOL    HW2 5427   4.613   2.193   4.730
 1510SOL     OW 5428   5.153   6.623   5.086
 1510SOL    HW1 5429   5.151   6.540   5.143
 1510SOL    HW2 5430   5.162   6.597   4.990
 1511SOL     OW 5431   4.002   3.817   4.282
 1511SOL    HW1 5432   4.070   3.756   4.240
 1511SOL    HW2 5433   3.954   3.768   4.354
 1512SOL     OW 5434   6.607   5.634   1.315
 1512SOL    HW1 5435   6.701   5.602   1.306
 1512SOL    HW2 5436   6.599   5.694   1.394
 1513SOL     OW 5437   3.841   0.650   4.435
 1513SOL    HW1 5438   3.816   0.741   4.401
 1513SOL    HW2 5439   3.871   0.657   4.530
 1514SOL     OW 5440   4.025   2.943   5.604
 1514SOL    HW1 5441   4.082   2.860   5.607
 1514SOL    HW2 5442   3.941   2.928   5.654
 1515SOL     OW 5443   5.421   1.660   2.555
 1515SOL    HW1 5444   5.399   1.584   2.494
 1515SOL    HW2 5445   5.337   1.703   2.588
 1516SOL     OW 5446   6.280   5.519   5.961
 1516SOL    HW1 5447   6.200   5.498   5.904
 1516SOL    HW2 5448   6.252   5.527   6.057
 1517SOL     OW 5449   4.468   6.439   2.707
 1517SOL    HW1 5450   4.412   6.356   2.716
 1517SOL    HW2 5451   4.547   6.419   2.649
 1518SOL     OW 5452   6.900   1.993   0.528
 1518SOL    HW1 5453   6.830   2.028   0.466
 1518SOL    HW2 5454   6.936   2.068   0.583
 1519SOL     OW 5455   6.389   4.383   1.481
 1519SOL    HW1 5456   6.386   4.401   1.579
 1519SOL    HW2 5457   6.350   4.461   1.432
 1520SOL     OW 5458   0.213   4.526   1.796
 1520SOL    HW1 5459   0.283   4.491   1.859
 1520SOL    HW2 5460   0.191   4.455   1.729
 1521SOL     OW 5461   2.590   4.807   6.604
 1521SOL    HW1 5462   2.561   4.759   6.687
 1521SOL    HW2 5463   2.690   4.810   6.601
 1522SOL     OW 5464   6.027   5.836   5.126
 1522SOL    HW1 5465   6.056   5.788   5.043
 1522SOL    HW2 5466   6.098   5.827   5.196
 1523SOL     OW 5467   3.834   6.687   6.951
 1523SOL    HW1 5468   3.891   6.639   6.883
 1523SOL    HW2 5469   3.747   6.639   6.961
 1524SOL     OW 5470   2.269   1.615   1.824
 1524SOL    HW1 5471   2.213   1.626   1.906
 1524SOL    HW2 5472   2.279   1.518   1.802
 1525SOL     OW 5473   6.141   3.034   0.229
 1525SOL    HW1 5474   6.163   2.942   0.262
 1525SOL    HW2 5475   6.165   3.042   0.133
 1526SOL     OW 5476   6.903   1.216   6.586
 1526SOL    HW1 5477   6.947   1.259   6.665
 1526SOL    HW2 5478   6.966   1.152   6.543
 1527SOL     OW 5479   3.329   1.349   4.024
 1527SOL    HW1 5480   3.356   1.442   4.050
 1527SOL    HW2 5481   3.363   1.284   4.092
 1528SOL     OW 5482   4.309   4.919   2.893
 1528SOL    HW1 5483   4.294   4.882   2.985
 1528SOL    HW2 5484   4.288   4.849   2.825
 1529SOL     OW 5485   4.285   0.529   7.001
 1529SOL    HW1 5486   4.327   0.500   6.915
 1529SOL    HW2 5487   4.282   0.451   0.041
 1530SOL     OW 5488   3.712   1.748   2.138
 1530SOL    HW1 5489   3.629   1.712   2.097
 1530SOL    HW2 5490   3.692   1.836   2.181
 1531SOL     OW 5491   4.718   0.535   5.241
 1531SOL    HW1 5492   4.770   0.578   5.315
 1531SOL    HW2 5493   4.772   0.460   5.202
 1532SOL     OW 5494   3.663   4.323   6.055
 1532SOL    HW1 5495   3.729   4.383   6.101
 1532SOL    HW2 5496   3.583   4.376   6.027
 1533SOL     OW 5497   6.558   5.014   0.373
 1533SOL    HW1 5498   6.497   4.984   0.447
 1533SOL    HW2 5499   6.504   5.035   0.292
 1534SOL     OW 5500   3.051   6.066   6.179
 1534SOL    HW1 5501   3.027   5.973   6.151
 1534SOL    HW2 5502   2.968   6.116   6.202
 1535SOL     OW 5503   5.517   6.067   4.368
 1535SOL    HW1 5504   5.613   6.091   4.376
 1535SOL    HW2 5505   5.460   6.144   4.396
 1536SOL     OW 5506   4.009   5.230   6.035
 1536SOL    HW1 5507   3.989   5.304   5.970
 1536SOL    HW2 5508   3.939   5.159   6.027
 1537SOL     OW 5509   4.611   5.669   4.248
 1537SOL    HW1 5510   4.631   5.728   4.170
 1537SOL    HW2 5511   4.693   5.617   4.272
 1538SOL     OW 5512   3.245   0.043   6.731
 1538SOL    HW1 5513   3.329   0.059   6.678
 1538SOL    HW2 5514   3.232   6.967   6.742
 1539SOL     OW 5515   4.738   3.497   1.703
 1539SOL    HW1 5516   4.648   3.539   1.714
 1539SOL    HW2 5517   4.744   3.416   1.761
 1540SOL     OW 5518   0.082   6.565   5.297
 1540SOL    HW1 5519   0.002   6.553   5.355
 1540SOL    HW2 5520   0.159   6.513   5.335
 1541SOL     OW 5521   3.182   3.160   4.757
 1541SOL    HW1 5522   3.131   3.124   4.835
 1541SOL    HW2 5523   3.261   3.212   4.790
 1542SOL     OW 5524   6.187   1.166   2.542
 1542SOL    HW1 5525   6.256   1.217   2.491
 1542SOL    HW2 5526   6.233   1.100   2.603
 1543SOL     OW 5527   3.278   4.897   5.098
 1543SOL    HW1 5528   3.182   4.898   5.071
 1543SOL    HW2 5529   3.336   4.903   5.017
 1544SOL     OW 5530   3.034   3.440   3.546
 1544SOL    HW1 5531   3.079   3.458   3.633
 1544SOL    HW2 5532   3.053   3.346   3.517
 1545SOL     OW 5533   5.033   0.276   2.819
 1545SOL    HW1 5534   4.957   0.280   2.885
 1545SOL    HW2 5535   5.015   0.204   2.752
 1546SOL     OW 5536   4.542   6.865   5.564
 1546SOL    HW1 5537   4.448   6.885   5.538
 1546SOL    HW2 5538   4.554   6.881   5.662
 1547SOL     OW 5539   2.170   3.962   1.089
 1547SOL    HW1 5540   2.131   3.874   1.118
 1547SOL    HW2 5541   2.257   3.947   1.044
 1548SOL     OW 5542   5.445   3.947   6.545
 1548SOL    HW1 5543   5.376   3.965   6.475
 1548SOL    HW2 5544   5.536   3.961   6.507
 1549SOL     OW 5545   3.916   1.593   1.678
 1549SOL    HW1 5546   3.895   1.563   1.771
 1549SOL    HW2 5547   3.832   1.618   1.631
 1550SOL     OW 5548   2.611   3.630   0.395
 1550SOL    HW1 5549   2.606   3.728   0.413
 1550SOL    HW2 5550   2.519   3.595   0.374
 1551SOL     OW 5551   1.786   4.189   6.204
 1551SOL    HW1 5552   1.766   4.199   6.107
 1551SOL    HW2 5553   1.825   4.098   6.221
 1552SOL     OW 5554   2.290   5.391   0.787
 1552SOL    HW1 5555   2.265   5.353   0.876
 1552SOL    HW2 5556   2.246   5.339   0.715
 1553SOL     OW 5557   6.199   1.353   6.859
 1553SOL    HW1 5558   6.199   1.423   6.788
 1553SOL    HW2 5559   6.143   1.275   6.828
 1554SOL     OW 5560   3.413   1.890   3.483
 1554SOL    HW1 5561   3.511   1.870   3.487
 1554SOL    HW2 5562   3.393   1.970   3.540
 1555SOL     OW 5563   5.636   3.351   0.110
 1555SOL    HW1 5564   5.567   3.296   0.158
 1555SOL    HW2 5565   5.599   3.443   0.094
 1556SOL     OW 5566   2.861   2.193   0.095
 1556SOL    HW1 5567   2.809   2.201   0.010
 1556SOL    HW2 5568   2.946   2.142   0.078
 1557SOL     OW 5569   1.877   2.314   4.771
 1557SOL    HW1 5570   1.948   2.372   4.730
 1557SOL    HW2 5571   1.795   2.369   4.788
 1558SOL     OW 5572   6.102   0.749   4.661
 1558SOL    HW1 5573   6.060   0.664   4.692
 1558SOL    HW2 5574   6.030   0.813   4.633
 1559SOL     OW 5575   2.179   2.503   6.751
 1559SOL    HW1 5576   2.200   2.526   6.846
 1559SOL    HW2 5577   2.132   2.579   6.707
 1560SOL     OW 5578   6.951   0.872   6.114
 1560SOL    HW1 5579   6.951   0.946   6.047
 1560SOL    HW2 5580   6.977   0.908   6.204
 1561SOL     OW 5581   5.730   6.648   3.669
 1561SOL    HW1 5582   5.750   6.741   3.699
 1561SOL    HW2 5583   5.631   6.637   3.657
 1562SOL     OW 5584   5.084   5.822   2.622
 1562SOL    HW1 5585   5.129   5.834   2.711
 1562SOL    HW2 5586   5.133   5.874   2.552
 1563SOL     OW 5587   2.116   0.244   4.855
 1563SOL    HW1 5588   2.059   0.183   4.910
 1563SOL    HW2 5589   2.213   0.226   4.874
 1564SOL     OW 5590   1.440   2.058   3.531
 1564SOL    HW1 5591   1.527   2.074   3.483
 1564SOL    HW2 5592   1.365   2.099   3.479
 1565SOL     OW 5593   4.548   4.434   3.654
 1565SOL    HW1 5594   4.576   4.443   3.750
 1565SOL    HW2 5595   4.465   4.487   3.639
 1566SOL     OW 5596   6.313   4.667   2.862
 1566SOL    HW1 5597   6.240   4.656   2.930
 1566SOL    HW2 5598   6.381   4.732   2.896
 1567SOL     OW 5599   6.464   6.258   0.844
 1567SOL    HW1 5600   6.504   6.325   0.906
 1567SOL    HW2 5601   6.387   6.213   0.888
 1568SOL     OW 5602   1.609   6.790   6.537
 1568SOL    HW1 5603   1.685   6.836   6.492
 1568SOL    HW2 5604   1.541   6.762   6.469
 1569SOL     OW 5605   4.733   6.069   3.540
 1569SOL    HW1 5606   4.713   6.102   3.448
 1569SOL    HW2 5607   4.651   6.074   3.596
 1570SOL     OW 5608   1.375   0.484   1.023
 1570SOL    HW1 5609   1.380   0.575   0.984
 1570SOL    HW2 5610   1.345   0.419   0.953
 1571SOL     OW 5611   5.587   2.471   0.734
 1571SOL    HW1 5612   5.620   2.502   0.644
 1571SOL    HW2 5613   5.534   2.545   0.776
 1572SOL     OW 5614   0.171   6.737   1.442
 1572SOL    HW1 5615   0.255   6.729   1.388
 1572SOL    HW2 5616   0.175   6.820   1.498
 1573SOL     OW 5617   5.304   2.475   2.578
 1573SOL    HW1 5618   5.316   2.476   2.678
 1573SOL    HW2 5619   5.211   2.502   2.556
 1574SOL     OW 5620   6.177   0.861   1.907
 1574SOL    HW1 5621   6.121   0.908   1.976
 1574SOL    HW2 5622   6.138   0.878   1.816
 1575SOL     OW 5623   3.169   0.961   0.404
 1575SOL    HW1 5624   3.086   1.013   0.383
 1575SOL    HW2 5625   3.239   0.979   0.335
 1576SOL     OW 5626   0.349   6.618   3.969
 1576SOL    HW1 5627   0.277   6.684   3.989
 1576SOL    HW2 5628   0.327   6.531   4.013
 1577SOL     OW 5629   3.560   1.801   4.512
 1577SOL    HW1 5630   3.484   1.850   4.555
 1577SOL    HW2 5631   3.642   1.859   4.514
 1578SOL     OW 5632   6.036   3.688   5.341
 1578SOL    HW1 5633   6.071   3.782   5.352
 1578SOL    HW2 5634   6.099   3.624   5.383
 1579SOL     OW 5635   0.006   1.916   2.901
 1579SOL    HW1 5636   0.048   1.982   2.963
 1579SOL    HW2 5637   0.076   1.869   2.848
 1580SOL     OW 5638   2.606   3.486   5.433
 1580SOL    HW1 5639   2.610   3.540   5.518
 1580SOL    HW2 5640   2.554   3.537   5.364
 1581SOL     OW 5641   0.157   4.714   5.109
 1581SOL    HW1 5642   0.126   4.804   5.140
 1581SOL    HW2 5643   0.182   4.658   5.188
 1582SOL     OW 5644   1.511   6.614   4.251
 1582SOL    HW1 5645   1.573   6.608   4.329
 1582SOL    HW2 5646   1.422   6.578   4.277
 1583SOL     OW 5647   0.983   3.490   3.774
 1583SOL    HW1 5648   1.008   3.545   3.854
 1583SOL    HW2 5649   0.890   3.454   3.786
 1584SOL     OW 5650   1.349   6.715   4.846
 1584SOL    HW1 5651   1.251   6.731   4.857
 1584SOL    HW2 5652   1.372   6.625   4.882
 1585SOL     OW 5653   5.504   1.585   3.311
 1585SOL    HW1 5654   5.492   1.515   3.241
 1585SOL    HW2 5655   5.434   1.575   3.381
 1586SOL     OW 5656   3.043   3.994   0.951
 1586SOL    HW1 5657   3.087   4.032   1.032
 1586SOL    HW2 5658   3.091   3.910   0.924
 1587SOL     OW 5659   2.905   5.438   0.062
 1587SOL    HW1 5660   3.005   5.433   0.069
 1587SOL    HW2 5661   2.869   5.477   0.147
 1588SOL     OW 5662   5.168   1.359   3.190
 1588SOL    HW1 5663   5.120   1.374   3.104
 1588SOL    HW2 5664   5.112   1.300   3.249
 1589SOL     OW 5665   6.299   4.061   2.911
 1589SOL    HW1 5666   6.336   4.041   3.002
 1589SOL    HW2 5667   6.347   4.139   2.872
 1590SOL     OW 5668   2.505   6.811   5.802
 1590SOL    HW1 5669   2.464   6.774   5.885
 1590SOL    HW2 5670   2.598   6.843   5.821
 1591SOL     OW 5671   0.841   4.880   2.992
 1591SOL    HW1 5672   0.776   4.804   2.982
 1591SOL    HW2 5673   0.838   4.937   2.910
 1592SOL     OW 5674   2.687   4.466   1.472
 1592SOL    HW1 5675   2.641   4.384   1.439
 1592SOL    HW2 5676   2.658   4.485   1.566
 1593SOL     OW 5677   0.957   6.328   4.252
 1593SOL    HW1 5678   0.858   6.316   4.254
 1593SOL    HW2 5679   1.000   6.253   4.202
 1594SOL     OW 5680   6.964   5.738   2.728
 1594SOL    HW1 5681   6.907   5.795   2.668
 1594SOL    HW2 5682   6.970   5.646   2.690
 1595SOL     OW 5683   1.322   5.141   6.700
 1595SOL    HW1 5684   1.394   5.080   6.734
 1595SOL    HW2 5685   1.299   5.116   6.606
 1596SOL     OW 5686   0.734   2.500   5.126
 1596SOL    HW1 5687   0.698   2.522   5.216
 1596SOL    HW2 5688   0.678   2.543   5.055
 1597SOL     OW 5689   2.484   5.856   0.083
 1597SOL    HW1 5690   2.556   5.788   0.099
 1597SOL    HW2 5691   2.485   5.884   7.010
 1598SOL     OW 5692   0.988   3.779   0.104
 1598SOL    HW1 5693   1.006   3.691   0.148
 1598SOL    HW2 5694   1.003   3.771   0.005
 1599SOL     OW 5695   4.894   4.189   5.563
 1599SOL    HW1 5696   4.876   4.285   5.543
 1599SOL    HW2 5697   4.809   4.143   5.588
 1600SOL     OW 5698   5.221   1.938   4.954
 1600SOL    HW1 5699   5.263   1.944   4.863
 1600SOL    HW2 5700   5.284   1.893   5.017
 1601SOL     OW 5701   0.488   5.101   4.741
 1601SOL    HW1 5702   0.469   5.078   4.645
 1601SOL    HW2 5703   0.541   5.185   4.745
 1602SOL     OW 5704   2.138   5.414   4.258
 1602SOL    HW1 5705   2.168   5.505   4.283
 1602SOL    HW2 5706   2.112   5.412   4.162
 1603SOL     OW 5707   0.488   6.017   2.215
 1603SOL    HW1 5708   0.433   6.026   2.298
 1603SOL    HW2 5709   0.477   6.100   2.159
 1604SOL     OW 5710   6.230   4.660   6.929
 1604SOL    HW1 5711   6.269   4.611   7.007
 1604SOL    HW2 5712   6.209   4.595   6.856
 1605SOL     OW 5713   6.220   6.814   2.256
 1605SOL    HW1 5714   6.184   6.747   2.320
 1605SOL    HW2 5715   6.145   6.867   2.216
 1606SOL     OW 5716   3.530   0.207   4.767
 1606SOL    HW1 5717   3.507   0.230   4.862
 1606SOL    HW2 5718   3.475   0.264   4.706
 1607SOL     OW 5719   4.478   2.629   0.649
 1607SOL    HW1 5720   4.555   2.612   0.588
 1607SOL    HW2 5721   4.483   2.722   0.684
 1608SOL     OW 5722   1.500   0.592   5.675
 1608SOL    HW1 5723   1.534   0.685   5.660
 1608SOL    HW2 5724   1.411   0.581   5.631
 1609SOL     OW 5725   4.253   0.774   0.114
 1609SOL    HW1 5726   4.346   0.810   0.113
 1609SOL    HW2 5727   4.251   0.688   0.062
 1610SOL     OW 5728   6.153   3.955   5.306
 1610SOL    HW1 5729   6.162   3.932   5.210
 1610SOL    HW2 5730   6.242   3.984   5.342
 1611SOL     OW 5731   3.466   3.563   1.253
 1611SOL    HW1 5732   3.527   3.492   1.289
 1611SOL    HW2 5733   3.453   3.549   1.155
 1612SOL     OW 5734   3.104   1.217   5.551
 1612SOL    HW1 5735   3.089   1.308   5.592
 1612SOL    HW2 5736   3.202   1.198   5.549
 1613SOL     OW 5737   1.665   6.087   1.937
 1613SOL    HW1 5738   1.576   6.059   1.903
 1613SOL    HW2 5739   1.678   6.185   1.921
 1614SOL     OW 5740   6.184   3.685   0.250
 1614SOL    HW1 5741   6.137   3.768   0.220
 1614SOL    HW2 5742   6.227   3.702   0.339
 1615SOL     OW 5743   6.224   4.748   1.069
 1615SOL    HW1 5744   6.138   4.799   1.061
 1615SOL    HW2 5745   6.204   4.652   1.093
 1616SOL     OW 5746   4.069   2.500   5.874
 1616SOL    HW1 5747   4.088   2.423   5.813
 1616SOL    HW2 5748   3.985   2.483   5.925
 1617SOL     OW 5749   5.854   0.011   1.397
 1617SOL    HW1 5750   5.769   0.049   1.359
 1617SOL    HW2 5751   5.913   7.003   1.323
 1618SOL     OW 5752   0.598   3.819   0.649
 1618SOL    HW1 5753   0.578   3.917   0.638
 1618SOL    HW2 5754   0.522   3.776   0.697
 1619SOL     OW 5755   1.256   1.823   3.834
 1619SOL    HW1 5756   1.352   1.821   3.862
 1619SOL    HW2 5757   1.212   1.904   3.874
 1620SOL     OW 5758   1.695   6.089   0.558
 1620SOL    HW1 5759   1.597   6.094   0.538
 1620SOL    HW2 5760   1.719   6.158   0.627
 1621SOL     OW 5761   0.447   1.335   0.655
 1621SOL    HW1 5762   0.426   1.399   0.728
 1621SOL    HW2 5763   0.393   1.360   0.574
 1622SOL     OW 5764   1.194   2.824   4.808
 1622SOL    HW1 5765   1.234   2.900   4.858
 1622SOL    HW2 5766   1.151   2.761   4.873
 1623SOL     OW 5767   2.618   2.908   6.031
 1623SOL    HW1 5768   2.562   2.860   5.963
 1623SOL    HW2 5769   2.559   2.965   6.088
 1624SOL     OW 5770   3.351   1.020   5.857
 1624SOL    HW1 5771   3.429   1.073   5.823
 1624SOL    HW2 5772   3.311   0.969   5.781
 1625SOL     OW 5773   1.199   5.791   2.098
 1625SOL    HW1 5774   1.176   5.733   2.020
 1625SOL    HW2 5775   1.116   5.813   2.149
 1626SOL     OW 5776   3.111   1.908   6.736
 1626SOL    HW1 5777   3.104   2.006   6.720
 1626SOL    HW2 5778   3.125   1.861   6.649
 1627SOL     OW 5779   6.328   2.509   4.076
 1627SOL    HW1 5780   6.373   2.507   4.165
 1627SOL    HW2 5781   6.257   2.439   4.073
 1628SOL     OW 5782   4.736   4.946   6.876
 1628SOL    HW1 5783   4.768   4.999   6.953
 1628SOL    HW2 5784   4.785   4.858   6.873
 1629SOL     OW 5785   3.381   2.002   4.618
 1629SOL    HW1 5786   3.341   2.003   4.710
 1629SOL    HW2 5787   3.477   2.029   4.623
 1630SOL     OW 5788   1.350   6.260   5.298
 1630SOL    HW1 5789   1.445   6.288   5.282
 1630SOL    HW2 5790   1.316   6.305   5.380
 1631SOL     OW 5791   0.153   1.232   6.072
 1631SOL    HW1 5792   0.185   1.248   5.979
 1631SOL    HW2 5793   0.084   1.301   6.095
 1632SOL     OW 5794   0.266   1.470   7.018
 1632SOL    HW1 5795   0.166   1.473   7.018
 1632SOL    HW2 5796   0.302   1.544   6.961
 1633SOL     OW 5797   4.941   2.474   3.941
 1633SOL    HW1 5798   5.010   2.483   3.870
 1633SOL    HW2 5799   4.984   2.482   4.031
 1634SOL     OW 5800   4.305   5.117   5.661
 1634SOL    HW1 5801   4.281   5.160   5.748
 1634SOL    HW2 5802   4.332   5.188   5.596
 1635SOL     OW 5803   6.077   5.291   5.259
 1635SOL    HW1 5804   6.124   5.232   5.325
 1635SOL    HW2 5805   6.130   5.296   5.175
 1636SOL     OW 5806   2.218   4.185   1.536
 1636SOL    HW1 5807   2.198   4.238   1.453
 1636SOL    HW2 5808   2.296   4.125   1.519
 1637SOL     OW 5809   6.457   0.467   3.074
 1637SOL    HW1 5810   6.521   0.483   3.149
 1637SOL    HW2 5811   6.484   0.523   2.995
 1638SOL     OW 5812   0.705   4.129   4.095
 1638SOL    HW1 5813   0.607   4.125   4.075
 1638SOL    HW2 5814   0.746   4.206   4.046
 1639SOL     OW 5815   4.852   0.020   2.701
 1639SOL    HW1 5816   4.834   7.005   2.610
 1639SOL    HW2 5817   4.778   0.082   2.726
 1640SOL     OW 5818   5.789   1.832   1.024
 1640SOL    HW1 5819   5.870   1.849   1.080
 1640SOL    HW2 5820   5.739   1.753   1.061
 1641SOL     OW 5821   5.355   3.114   3.972
 1641SOL    HW1 5822   5.274   3.171   3.983
 1641SOL    HW2 5823   5.364   3.087   3.876
 1642SOL     OW 5824   6.350   3.493   0.132
 1642SOL    HW1 5825   6.323   3.582   0.168
 1642SOL    HW2 5826   6.388   3.503   0.041
 1643SOL     OW 5827   3.030   5.707   4.118
 1643SOL    HW1 5828   2.978   5.649   4.055
 1643SOL    HW2 5829   3.045   5.796   4.076
 1644SOL     OW 5830   1.435   2.399   1.247
 1644SOL    HW1 5831   1.500   2.324   1.256
 1644SOL    HW2 5832   1.453   2.450   1.163
 1645SOL     OW 5833   3.303   6.506   4.886
 1645SOL    HW1 5834   3.220   6.543   4.927
 1645SOL    HW2 5835   3.359   6.580   4.849
 1646SOL     OW 5836   2.481   5.785   1.181
 1646SOL    HW1 5837   2.483   5.846   1.260
 1646SOL    HW2 5838   2.390   5.744   1.172
 1647SOL     OW 5839   5.340   2.276   4.175
 1647SOL    HW1 5840   5.290   2.198   4.212
 1647SOL    HW2 5841   5.392   2.320   4.248
 1648SOL     OW 5842   6.009   5.990   1.322
 1648SOL    HW1 5843   5.988   5.969   1.227
 1648SOL    HW2 5844   6.074   6.066   1.326
 1649SOL     OW 5845   3.351   0.431   3.640
 1649SOL    HW1 5846   3.319   0.337   3.655
 1649SOL    HW2 5847   3.366   0.475   3.729
 1650SOL     OW 5848   2.319   6.902   4.205
 1650SOL    HW1 5849   2.290   6.816   4.163
 1650SOL    HW2 5850   2.362   6.960   4.136
 1651SOL     OW 5851   0.849   0.860   1.335
 1651SOL    HW1 5852   0.831   0.957   1.350
 1651SOL    HW2 5853   0.768   0.816   1.298
 1652SOL     OW 5854   1.249   2.610   1.816
 1652SOL    HW1 5855   1.195   2.591   1.734
 1652SOL    HW2 5856   1.282   2.524   1.854
 1653SOL     OW 5857   0.250   6.376   1.873
 1653SOL    HW1 5858   0.174   6.414   1.820
 1653SOL    HW2 5859   0.310   6.324   1.813
 1654SOL     OW 5860   6.889   2.610   1.931
 1654SOL    HW1 5861   6.945   2.528   1.943
 1654SOL    HW2 5862   6.942   2.680   1.884
 1655SOL     OW 5863   5.487   3.866   5.755
 1655SOL    HW1 5864   5.413   3.862   5.688
 1655SOL    HW2 5865   5.532   3.777   5.759
 1656SOL     OW 5866   1.609   4.557   3.437
 1656SOL    HW1 5867   1.547   4.626   3.475
 1656SOL    HW2 5868   1.564   4.512   3.360
 1657SOL     OW 5869   0.118   1.524   4.391
 1657SOL    HW1 5870   0.194   1.537   4.328
 1657SOL    HW2 5871   0.057   1.452   4.357
 1658SOL     OW 5872   0.716   7.003   3.185
 1658SOL    HW1 5873   0.669   0.067   3.167
 1658SOL    HW2 5874   0.722   6.950   3.101
 1659SOL     OW 5875   3.889   1.943   5.859
 1659SOL    HW1 5876   3.978   1.942   5.904
 1659SOL    HW2 5877   3.902   1.940   5.759
 1660SOL     OW 5878   1.702   4.812   4.134
 1660SOL    HW1 5879   1.777   4.755   4.168
 1660SOL    HW2 5880   1.730   4.908   4.135
 1661SOL     OW 5881   3.248   1.305   1.702
 1661SOL    HW1 5882   3.243   1.371   1.777
 1661SOL    HW2 5883   3.235   1.352   1.615
 1662SOL     OW 5884   6.305   1.410   3.499
 1662SOL    HW1 5885   6.366   1.331   3.499
 1662SOL    HW2 5886   6.218   1.386   3.542
 1663SOL     OW 5887   2.666   1.420   3.118
 1663SOL    HW1 5888   2.603   1.392   3.045
 1663SOL    HW2 5889   2.627   1.497   3.168
 1664SOL     OW 5890   1.336   0.383   3.833
 1664SOL    HW1 5891   1.303   0.423   3.747
 1664SOL    HW2 5892   1.392   0.449   3.882
 1665SOL     OW 5893   6.594   1.606   2.741
 1665SOL    HW1 5894   6.682   1.651   2.755
 1665SOL    HW2 5895   6.574   1.548   2.821
 1666SOL     OW 5896   5.880   3.759   0.404
 1666SOL    HW1 5897   5.966   3.807   0.385
 1666SOL    HW2 5898   5.803   3.813   0.369
 1667SOL     OW 5899   5.463   6.904   0.964
 1667SOL    HW1 5900   5.421   6.825   1.009
 1667SOL    HW2 5901   5.474   6.885   0.866
 1668SOL     OW 5902   5.129   6.095   6.079
 1668SOL    HW1 5903   5.142   6.126   6.173
 1668SOL    HW2 5904   5.206   6.039   6.051
 1669SOL     OW 5905   6.300   6.930   0.708
 1669SOL    HW1 5906   6.323   6.933   0.806
 1669SOL    HW2 5907   6.222   6.990   0.691
 1670SOL     OW 5908   0.021   5.754   6.146
 1670SOL    HW1 5909   0.028   5.853   6.157
 1670SOL    HW2 5910   6.957   5.732   6.100
 1671SOL     OW 5911   4.438   2.377   0.758
 1671SOL    HW1 5912   4.384   2.402   0.838
 1671SOL    HW2 5913   4.459   2.459   0.705
 1672SOL     OW 5914   2.099   4.127   2.468
 1672SOL    HW1 5915   2.158   4.197   2.508
 1672SOL    HW2 5916   2.080   4.149   2.373
 1673SOL     OW 5917   0.755   2.676   4.415
 1673SOL    HW1 5918   0.712   2.744   4.355
 1673SOL    HW2 5919   0.838   2.641   4.371
 1674SOL     OW 5920   0.986   3.987   1.398
 1674SOL    HW1 5921   0.914   3.999   1.329
 1674SOL    HW2 5922   1.039   3.905   1.376
 1675SOL     OW 5923   3.996   0.033   6.187
 1675SOL    HW1 5924   3.982   7.011   6.276
 1675SOL    HW2 5925   4.032   6.990   6.122
 1676SOL     OW 5926   3.441   1.068   2.193
 1676SOL    HW1 5927   3.458   0.969   2.187
 1676SOL    HW2 5928   3.508   1.117   2.137
 1677SOL     OW 5929   4.292   2.642   5.610
 1677SOL    HW1 5930   4.344   2.646   5.695
 1677SOL    HW2 5931   4.290   2.547   5.576
 1678SOL     OW 5932   5.257   4.772   4.524
 1678SOL    HW1 5933   5.226   4.863   4.498
 1678SOL    HW2 5934   5.326   4.780   4.597
 1679SOL     OW 5935   2.048   3.646   5.186
 1679SOL    HW1 5936   1.953   3.671   5.167
 1679SOL    HW2 5937   2.101   3.729   5.204
 1680SOL     OW 5938   1.049   1.767   4.085
 1680SOL    HW1 5939   1.014   1.729   4.000
 1680SOL    HW2 5940   1.146   1.744   4.095
 1681SOL     OW 5941   6.597   5.981   1.161
 1681SOL    HW1 5942   6.499   5.966   1.144
 1681SOL    HW2 5943   6.635   6.039   1.089
 1682SOL     OW 5944   0.432   3.141   4.551
 1682SOL    HW1 5945   0.359   3.197   4.512
 1682SOL    HW2 5946   0.429   3.050   4.511
 1683SOL     OW 5947   3.796   5.571   1.287
 1683SOL    HW1 5948   3.752   5.482   1.277
 1683SOL    HW2 5949   3.866   5.581   1.217
 1684SOL     OW 5950   1.283   6.137   2.898
 1684SOL    HW1 5951   1.244   6.082   2.971
 1684SOL    HW2 5952   1.260   6.097   2.809
 1685SOL     OW 5953   2.908   1.355   6.633
 1685SOL    HW1 5954   2.997   1.388   6.661
 1685SOL    HW2 5955   2.853   1.431   6.598
 1686SOL     OW 5956   2.127   5.037   5.613
 1686SOL    HW1 5957   2.151   5.099   5.539
 1686SOL    HW2 5958   2.201   5.037   5.681
 1687SOL     OW 5959   2.064   3.329   1.322
 1687SOL    HW1 5960   2.161   3.311   1.340
 1687SOL    HW2 5961   2.034   3.271   1.246
 1688SOL     OW 5962   1.255   2.584   3.427
 1688SOL    HW1 5963   1.224   2.613   3.337
 1688SOL    HW2 5964   1.347   2.546   3.420
 1689SOL     OW 5965   3.629   0.699   1.653
 1689SOL    HW1 5966   3.681   0.767   1.600
 1689SOL    HW2 5967   3.607   0.737   1.743
 1690SOL     OW 5968   1.129   2.750   3.191
 1690SOL    HW1 5969   1.049   2.770   3.249
 1690SOL    HW2 5970   1.118   2.794   3.102
 1691SOL     OW 5971   4.947   3.671   3.095
 1691SOL    HW1 5972   4.958   3.768   3.115
 1691SOL    HW2 5973   4.914   3.624   3.177
 1692SOL     OW 5974   6.471   6.946   1.443
 1692SOL    HW1 5975   6.428   6.907   1.524
 1692SOL    HW2 5976   6.488   0.021   1.457
 1693SOL     OW 5977   1.115   2.229   2.006
 1693SOL    HW1 5978   1.022   2.261   2.024
 1693SOL    HW2 5979   1.154   2.192   2.090
 1694SOL     OW 5980   4.392   6.750   4.275
 1694SOL    HW1 5981   4.459   6.791   4.213
 1694SOL    HW2 5982   4.424   6.759   4.369
 1695SOL     OW 5983   2.533   1.447   5.216
 1695SOL    HW1 5984   2.464   1.425   5.286
 1695SOL    HW2 5985   2.487   1.466   5.130
 1696SOL     OW 5986   5.444   5.188   0.744
 1696SOL    HW1 5987   5.377   5.117   0.766
 1696SOL    HW2 5988   5.397   5.266   0.702
 1697SOL     OW 5989   6.386   6.650   2.081
 1697SOL    HW1 5990   6.422   6.707   2.007
 1697SOL    HW2 5991   6.312   6.698   2.128
 1698SOL     OW 5992   4.442   1.523   0.526
 1698SOL    HW1 5993   4.484   1.563   0.607
 1698SOL    HW2 5994   4.368   1.461   0.553
 1699SOL     OW 5995   2.998   1.130   2.425
 1699SOL    HW1 5996   3.036   1.177   2.504
 1699SOL    HW2 5997   2.919   1.075   2.453
 1700SOL     OW 5998   6.311   1.977   3.713
 1700SOL    HW1 5999   6.271   1.984   3.621
 1700SOL    HW2 6000   6.311   2.067   3.756
 1701SOL     OW 6001   4.882   3.171   5.163
 1701SOL    HW1 6002   4.914   3.077   5.166
 1701SOL    HW2 6003   4.789   3.177   5.200
 1702SOL     OW 6004   6.726   3.564   0.637
 1702SOL    HW1 6005   6.712   3.653   0.592
 1702SOL    HW2 6006   6.751   3.579   0.733
 1703SOL     OW 6007   3.542   4.152   3.229
 1703SOL    HW1 6008   3.605   4.075   3.244
 1703SOL    HW2 6009   3.536   4.207   3.312
 1704SOL     OW 6010   0.600   1.277   1.149
 1704SOL    HW1 6011   0.648   1.325   1.076
 1704SOL    HW2 6012   0.503   1.303   1.148
 1705SOL     OW 6013   3.461   2.114   1.834
 1705SOL    HW1 6014   3.390   2.154   1.890
 1705SOL    HW2 6015   3.551   2.142   1.868
 1706SOL     OW 6016   4.022   6.663   1.318
 1706SOL    HW1 6017   4.040   6.745   1.372
 1706SOL    HW2 6018   4.093   6.595   1.337
 1707SOL     OW 6019   4.527   1.561   2.773
 1707SOL    HW1 6020   4.489   1.537   2.684
 1707SOL    HW2 6021   4.546   1.478   2.825
 1708SOL     OW 6022   5.178   5.530   2.507
 1708SOL    HW1 6023   5.161   5.628   2.515
 1708SOL    HW2 6024   5.263   5.516   2.455
 1709SOL     OW 6025   2.641   5.751   1.873
 1709SOL    HW1 6026   2.688   5.816   1.813
 1709SOL    HW2 6027   2.671   5.658   1.851
 1710SOL     OW 6028   5.956   4.426   3.753
 1710SOL    HW1 6029   5.960   4.431   3.853
 1710SOL    HW2 6030   5.949   4.519   3.716
 1711SOL     OW 6031   1.362   4.692   5.228
 1711SOL    HW1 6032   1.405   4.776   5.194
 1711SOL    HW2 6033   1.406   4.663   5.312
 1712SOL     OW 6034   0.705   2.883   6.475
 1712SOL    HW1 6035   0.673   2.937   6.397
 1712SOL    HW2 6036   0.791   2.838   6.450
 1713SOL     OW 6037   3.309   1.626   1.204
 1713SOL    HW1 6038   3.299   1.557   1.132
 1713SOL    HW2 6039   3.357   1.705   1.168
 1714SOL     OW 6040   4.359   1.752   6.219
 1714SOL    HW1 6041   4.378   1.682   6.150
 1714SOL    HW2 6042   4.445   1.781   6.262
 1715SOL     OW 6043   6.597   3.837   2.477
 1715SOL    HW1 6044   6.636   3.928   2.464
 1715SOL    HW2 6045   6.512   3.829   2.426
 1716SOL     OW 6046   5.319   6.695   1.498
 1716SOL    HW1 6047   5.390   6.664   1.436
 1716SOL    HW2 6048   5.349   6.685   1.593
 1717SOL     OW 6049   2.036   6.248   6.403
 1717SOL    HW1 6050   1.971   6.289   6.339
 1717SOL    HW2 6051   2.000   6.256   6.496
 1718SOL     OW 6052   1.817   1.690   0.827
 1718SOL    HW1 6053   1.808   1.604   0.879
 1718SOL    HW2 6054   1.913   1.715   0.821
 1719SOL     OW 6055   2.549   4.261   1.366
 1719SOL    HW1 6056   2.549   4.319   1.285
 1719SOL    HW2 6057   2.488   4.183   1.351
 1720SOL     OW 6058   6.841   1.044   1.568
 1720SOL    HW1 6059   6.820   0.959   1.520
 1720SOL    HW2 6060   6.838   1.120   1.504
 1721SOL     OW 6061   1.385   6.401   2.541
 1721SOL    HW1 6062   1.440   6.462   2.484
 1721SOL    HW2 6063   1.402   6.306   2.514
 1722SOL     OW 6064   5.386   1.172   3.906
 1722SOL    HW1 6065   5.301   1.122   3.889
 1722SOL    HW2 6066   5.435   1.129   3.982
 1723SOL     OW 6067   6.902   2.484   3.335
 1723SOL    HW1 6068   6.990   2.449   3.303
 1723SOL    HW2 6069   6.868   2.426   3.409
 1724SOL     OW 6070   5.760   1.640   0.640
 1724SOL    HW1 6071   5.729   1.561   0.587
 1724SOL    HW2 6072   5.812   1.702   0.580
 1725SOL     OW 6073   2.772   4.846   0.499
 1725SOL    HW1 6074   2.759   4.945   0.509
 1725SOL    HW2 6075   2.832   4.828   0.421
 1726SOL     OW 6076   0.164   4.198   5.829
 1726SOL    HW1 6077   0.192   4.165   5.739
 1726SOL    HW2 6078   0.244   4.237   5.876
 1727SOL     OW 6079   3.559   3.106   4.460
 1727SOL    HW1 6080   3.463   3.110   4.433
 1727SOL    HW2 6081   3.592   3.012   4.453
 1728SOL     OW 6082   5.612   5.402   4.753
 1728SOL    HW1 6083   5.623   5.304   4.740
 1728SOL    HW2 6084   5.688   5.450   4.709
 1729SOL     OW 6085   2.039   3.522   3.773
 1729SOL    HW1 6086   2.002   3.580   3.846
 1729SOL    HW2 6087   2.084   3.579   3.704
 1730SOL     OW 6088   6.655   0.787   4.775
 1730SOL    HW1 6089   6.572   0.781   4.721
 1730SOL    HW2 6090   6.715   0.857   4.737
 1731SOL     OW 6091   1.002   5.241   2.089
 1731SOL    HW1 6092   1.052   5.209   2.170
 1731SOL    HW2 6093   0.992   5.341   2.094
 1732SOL     OW 6094   2.503   4.482   6.098
 1732SOL    HW1 6095   2.495   4.383   6.083
 1732SOL    HW2 6096   2.443   4.509   6.174
 1733SOL     OW 6097   1.188   3.658   2.751
 1733SOL    HW1 6098   1.118   3.661   2.823
 1733SOL    HW2 6099   1.260   3.725   2.772
 1734SOL     OW 6100   4.762   3.002   1.651
 1734SOL    HW1 6101   4.686   2.938   1.637
 1734SOL    HW2 6102   4.751   3.047   1.740
 1735SOL     OW 6103   5.573   5.446   1.118
 1735SOL    HW1 6104   5.500   5.421   1.055
 1735SOL    HW2 6105   5.549   5.416   1.211
 1736SOL     OW 6106   4.767   1.550   0.593
 1736SOL    HW1 6107   4.842   1.548   0.526
 1736SOL    HW2 6108   4.805   1.538   0.685
 1737SOL     OW 6109   2.760   0.496   4.213
 1737SOL    HW1 6110   2.823   0.451   4.150
 1737SOL    HW2 6111   2.693   0.550   4.161
 1738SOL     OW 6112   1.897   2.442   3.789
 1738SOL    HW1 6113   1.933   2.516   3.846
 1738SOL    HW2 6114   1.905   2.468   3.692
 1739SOL     OW 6115   4.710   2.891   5.276
 1739SOL    HW1 6116   4.631   2.945   5.306
 1739SOL    HW2 6117   4.700   2.871   5.178
 1740SOL     OW 6118   6.973   1.806   6.705
 1740SOL    HW1 6119   0.005   1.725   6.728
 1740SOL    HW2 6120   0.010   1.887   6.704
 1741SOL     OW 6121   2.663   1.189   2.919
 1741SOL    HW1 6122   2.612   1.158   2.839
 1741SOL    HW2 6123   2.661   1.119   2.990
 1742SOL     OW 6124   4.257   6.185   5.745
 1742SOL    HW1 6125   4.326   6.215   5.810
 1742SOL    HW2 6126   4.277   6.092   5.714
 1743SOL     OW 6127   2.032   1.203   1.851
 1743SOL    HW1 6128   2.024   1.149   1.935
 1743SOL    HW2 6129   2.126   1.235   1.841
 1744SOL     OW 6130   0.377   6.797   1.959
 1744SOL    HW1 6131   0.427   6.813   2.044
 1744SOL    HW2 6132   0.307   6.867   1.948
 1745SOL     OW 6133   0.012   1.108   4.205
 1745SOL    HW1 6134   0.060   1.097   4.117
 1745SOL    HW2 6135   0.024   1.025   4.260
 1746SOL     OW 6136   1.985   5.270   5.255
 1746SOL    HW1 6137   2.053   5.242   5.322
 1746SOL    HW2 6138   1.985   5.370   5.246
 1747SOL     OW 6139   5.003   6.773   2.253
 1747SOL    HW1 6140   5.003   6.789   2.154
 1747SOL    HW2 6141   4.915   6.735   2.281
 1748SOL     OW 6142   0.208   0.496   3.522
 1748SOL    HW1 6143   0.179   0.530   3.433
 1748SOL    HW2 6144   0.184   0.563   3.593
 1749SOL     OW 6145   3.080   6.610   4.987
 1749SOL    HW1 6146   3.025   6.530   5.012
 1749SOL    HW2 6147   3.043   6.691   5.031
 1750SOL     OW 6148   5.542   0.985   3.729
 1750SOL    HW1 6149   5.630   0.997   3.682
 1750SOL    HW2 6150   5.475   1.048   3.691
 1751SOL     OW 6151   3.342   5.373   4.687
 1751SOL    HW1 6152   3.271   5.387   4.618
 1751SOL    HW2 6153   3.300   5.356   4.776
 1752SOL     OW 6154   6.737   2.176   2.298
 1752SOL    HW1 6155   6.750   2.159   2.395
 1752SOL    HW2 6156   6.741   2.275   2.281
 1753SOL     OW 6157   0.206   1.744   1.052
 1753SOL    HW1 6158   0.187   1.660   1.103
 1753SOL    HW2 6159   0.294   1.781   1.082
 1754SOL     OW 6160   3.386   3.332   1.488
 1754SOL    HW1 6161   3.302   3.286   1.458
 1754SOL    HW2 6162   3.463   3.298   1.436
 1755SOL     OW 6163   5.646   5.154   1.951
 1755SOL    HW1 6164   5.640   5.188   1.857
 1755SOL    HW2 6165   5.564   5.100   1.973
 1756SOL     OW 6166   4.348   4.443   6.476
 1756SOL    HW1 6167   4.287   4.480   6.407
 1756SOL    HW2 6168   4.352   4.504   6.555
 1757SOL     OW 6169   2.392   5.913   4.583
 1757SOL    HW1 6170   2.301   5.872   4.580
 1757SOL    HW2 6171   2.405   5.970   4.501
 1758SOL     OW 6172   2.417   0.397   3.076
 1758SOL    HW1 6173   2.456   0.486   3.051
 1758SOL    HW2 6174   2.376   0.404   3.168
 1759SOL     OW 6175   1.219   5.043   6.449
 1759SOL    HW1 6176   1.214   4.945   6.426
 1759SOL    HW2 6177   1.236   5.095   6.365
 1760SOL     OW 6178   6.641   1.343   1.832
 1760SOL    HW1 6179   6.706   1.267   1.831
 1760SOL    HW2 6180   6.668   1.410   1.762
 1761SOL     OW 6181   7.007   0.121   0.249
 1761SOL    HW1 6182   0.003   0.105   0.346
 1761SOL    HW2 6183   0.036   0.055   0.194
 1762SOL     OW 6184   6.259   1.538   5.045
 1762SOL    HW1 6185   6.230   1.446   5.070
 1762SOL    HW2 6186   6.344   1.561   5.093
 1763SOL     OW 6187   1.752   3.704   4.926
 1763SOL    HW1 6188   1.747   3.667   4.833
 1763SOL    HW2 6189   1.796   3.794   4.924
 1764SOL     OW 6190   1.733   3.966   2.919
 1764SOL    HW1 6191   1.712   3.985   3.015
 1764SOL    HW2 6192   1.806   4.026   2.888
 1765SOL     OW 6193   3.385   2.519   0.058
 1765SOL    HW1 6194   3.473   2.564   0.074
 1765SOL    HW2 6195   3.393   2.458   7.001
 1766SOL     OW 6196   4.849   3.380   4.195
 1766SOL    HW1 6197   4.770   3.409   4.140
 1766SOL    HW2 6198   4.841   3.416   4.288
 1767SOL     OW 6199   5.896   3.765   2.801
 1767SOL    HW1 6200   5.880   3.714   2.885
 1767SOL    HW2 6201   5.991   3.795   2.797
 1768SOL     OW 6202   3.732   1.344   4.687
 1768SOL    HW1 6203   3.802   1.295   4.635
 1768SOL    HW2 6204   3.690   1.414   4.629
 1769SOL     OW 6205   4.279   2.283   4.784
 1769SOL    HW1 6206   4.251   2.323   4.697
 1769SOL    HW2 6207   4.321   2.353   4.841
 1770SOL     OW 6208   0.842   5.723   4.559
 1770SOL    HW1 6209   0.745   5.701   4.554
 1770SOL    HW2 6210   0.869   5.775   4.478
 1771SOL     OW 6211   2.732   5.160   0.518
 1771SOL    HW1 6212   2.760   5.189   0.609
 1771SOL    HW2 6213   2.791   5.202   0.449
 1772SOL     OW 6214   3.144   6.874   3.471
 1772SOL    HW1 6215   3.213   6.879   3.543
 1772SOL    HW2 6216   3.066   6.931   3.496
 1773SOL     OW 6217   2.709   4.936   5.831
 1773SOL    HW1 6218   2.682   4.868   5.900
 1773SOL    HW2 6219   2.724   5.024   5.875
 1774SOL     OW 6220   4.007   6.392   1.590
 1774SOL    HW1 6221   4.075   6.350   1.650
 1774SOL    HW2 6222   3.922   6.405   1.641
 1775SOL     OW 6223   1.290   4.827   4.367
 1775SOL    HW1 6224   1.360   4.897   4.354
 1775SOL    HW2 6225   1.234   4.820   4.284
 1776SOL     OW 6226   2.972   0.094   3.992
 1776SOL    HW1 6227   2.928   0.178   3.961
 1776SOL    HW2 6228   3.031   0.059   3.919
 1777SOL     OW 6229   3.001   5.114   5.770
 1777SOL    HW1 6230   2.983   5.195   5.714
 1777SOL    HW2 6231   3.097   5.088   5.760
 1778SOL     OW 6232   4.301   3.557   5.444
 1778SOL    HW1 6233   4.232   3.563   5.373
 1778SOL    HW2 6234   4.297   3.467   5.487
 1779SOL     OW 6235   4.078   1.013   4.482
 1779SOL    HW1 6236   4.156   1.075   4.476
 1779SOL    HW2 6237   4.106   0.929   4.528
 1780SOL     OW 6238   3.116   3.135   6.409
 1780SOL    HW1 6239   3.158   3.197   6.475
 1780SOL    HW2 6240   3.090   3.050   6.454
 1781SOL     OW 6241   4.610   5.685   3.763
 1781SOL    HW1 6242   4.582   5.592   3.787
 1781SOL    HW2 6243   4.688   5.682   3.701
 1782SOL     OW 6244   3.545   1.506   2.563
 1782SOL    HW1 6245   3.532   1.416   2.521
 1782SOL    HW2 6246   3.589   1.567   2.497
 1783SOL     OW 6247   1.554   4.763   6.355
 1783SOL    HW1 6248   1.614   4.684   6.340
 1783SOL    HW2 6249   1.547   4.781   6.453
 1784SOL     OW 6250   3.454   1.309   5.513
 1784SOL    HW1 6251   3.477   1.305   5.610
 1784SOL    HW2 6252   3.449   1.217   5.475
 1785SOL     OW 6253   6.380   4.450   3.436
 1785SOL    HW1 6254   6.439   4.425   3.512
 1785SOL    HW2 6255   6.288   4.468   3.470
 1786SOL     OW 6256   1.224   2.176   1.080
 1786SOL    HW1 6257   1.275   2.259   1.102
 1786SOL    HW2 6258   1.155   2.196   1.009
 1787SOL     OW 6259   2.536   0.938   5.015
 1787SOL    HW1 6260   2.486   0.852   5.016
 1787SOL    HW2 6261   2.482   1.008   4.969
 1788SOL     OW 6262   3.479   2.995   0.475
 1788SOL    HW1 6263   3.513   3.038   0.559
 1788SOL    HW2 6264   3.414   2.923   0.499
 1789SOL     OW 6265   6.307   2.393   3.414
 1789SOL    HW1 6266   6.225   2.355   3.458
 1789SOL    HW2 6267   6.323   2.485   3.448
 1790SOL     OW 6268   4.014   6.166   4.290
 1790SOL    HW1 6269   4.108   6.160   4.258
 1790SOL    HW2 6270   3.988   6.262   4.300
 1791SOL     OW 6271   6.668   1.130   3.562
 1791SOL    HW1 6272   6.727   1.121   3.482
 1791SOL    HW2 6273   6.666   1.043   3.612
 1792SOL     OW 6274   0.232   3.363   4.464
 1792SOL    HW1 6275   0.175   3.328   4.539
 1792SOL    HW2 6276   0.173   3.391   4.388
 1793SOL     OW 6277   6.653   6.640   3.654
 1793SOL    HW1 6278   6.742   6.684   3.658
 1793SOL    HW2 6279   6.631   6.600   3.743
 1794SOL     OW 6280   5.818   6.301   6.323
 1794SOL    HW1 6281   5.730   6.346   6.335
 1794SOL    HW2 6282   5.839   6.245   6.404
 1795SOL     OW 6283   1.153   2.571   1.244
 1795SOL    HW1 6284   1.065   2.531   1.273
 1795SOL    HW2 6285   1.228   2.523   1.291
 1796SOL     OW 6286   2.453   0.579   4.329
 1796SOL    HW1 6287   2.470   0.505   4.394
 1796SOL    HW2 6288   2.458   0.544   4.236
 1797SOL     OW 6289   1.420   0.206   6.859
 1797SOL    HW1 6290   1.423   0.122   6.804
 1797SOL    HW2 6291   1.362   0.273   6.814
 1798SOL     OW 6292   5.076   2.138   4.451
 1798SOL    HW1 6293   5.138   2.162   4.526
 1798SOL    HW2 6294   5.130   2.113   4.371
 1799SOL     OW 6295   6.413   1.278   5.916
 1799SOL    HW1 6296   6.473   1.355   5.896
 1799SOL    HW2 6297   6.452   1.225   5.992
 1800SOL     OW 6298   3.918   4.862   2.443
 1800SOL    HW1 6299   3.922   4.951   2.397
 1800SOL    HW2 6300   3.992   4.804   2.410
 1801SOL     OW 6301   0.334   0.297   2.405
 1801SOL    HW1 6302   0.381   0.354   2.472
 1801SOL    HW2 6303   0.273   0.233   2.452
 1802SOL     OW 6304   5.808   5.360   2.821
 1802SOL    HW1 6305   5.743   5.285   2.821
 1802SOL    HW2 6306   5.759   5.447   2.832
 1803SOL     OW 6307   0.803   6.374   6.749
 1803SOL    HW1 6308   0.823   6.471   6.741
 1803SOL    HW2 6309   0.790   6.335   6.658
 1804SOL     OW 6310   2.321   3.697   5.515
 1804SOL    HW1 6311   2.394   3.683   5.582
 1804SOL    HW2 6312   2.233   3.673   5.556
 1805SOL     OW 6313   6.485   4.253   5.705
 1805SOL    HW1 6314   6.546   4.175   5.719
 1805SOL    HW2 6315   6.407   4.224   5.649
 1806SOL     OW 6316   0.661   0.532   0.384
 1806SOL    HW1 6317   0.745   0.485   0.356
 1806SOL    HW2 6318   0.624   0.488   0.466
 1807SOL     OW 6319   4.824   2.682   5.382
 1807SOL    HW1 6320   4.863   2.624   5.311
 1807SOL    HW2 6321   4.792   2.768   5.341
 1808SOL     OW 6322   0.643   4.065   6.255
 1808SOL    HW1 6323   0.566   4.036   6.199
 1808SOL    HW2 6324   0.651   4.004   6.334
 1809SOL     OW 6325   2.230   2.489   4.445
 1809SOL    HW1 6326   2.319   2.535   4.449
 1809SOL    HW2 6327   2.242   2.400   4.399
 1810SOL     OW 6328   2.807   6.972   3.660
 1810SOL    HW1 6329   2.782   0.046   3.667
 1810SOL    HW2 6330   2.794   6.941   3.566
 1811SOL     OW 6331   5.631   4.870   3.891
 1811SOL    HW1 6332   5.560   4.921   3.941
 1811SOL    HW2 6333   5.667   4.928   3.818
 1812SOL     OW 6334   4.433   6.069   4.781
 1812SOL    HW1 6335   4.443   6.007   4.704
 1812SOL    HW2 6336   4.441   6.018   4.867
 1813SOL     OW 6337   6.622   5.418   0.979
 1813SOL    HW1 6338   6.717   5.423   1.010
 1813SOL    HW2 6339   6.619   5.370   0.891
 1814SOL     OW 6340   6.273   1.798   0.843
 1814SOL    HW1 6341   6.242   1.710   0.880
 1814SOL    HW2 6342   6.291   1.861   0.919
 1815SOL     OW 6343   6.314   2.166   1.993
 1815SOL    HW1 6344   6.366   2.162   2.078
 1815SOL    HW2 6345   6.314   2.260   1.958
 1816SOL     OW 6346   2.666   3.775   1.356
 1816SOL    HW1 6347   2.755   3.779   1.401
 1816SOL    HW2 6348   2.663   3.841   1.281
 1817SOL     OW 6349   3.968   0.201   2.645
 1817SOL    HW1 6350   3.877   0.176   2.678
 1817SOL    HW2 6351   4.004   0.277   2.700
 1818SOL     OW 6352   1.873   5.944   2.703
 1818SOL    HW1 6353   1.863   5.945   2.803
 1818SOL    HW2 6354   1.857   5.852   2.668
 1819SOL     OW 6355   0.883   5.084   1.511
 1819SOL    HW1 6356   0.963   5.060   1.456
 1819SOL    HW2 6357   0.841   5.167   1.474
 1820SOL     OW 6358   4.990   0.851   2.114
 1820SOL    HW1 6359   4.953   0.887   2.028
 1820SOL    HW2 6360   4.919   0.799   2.161
 1821SOL     OW 6361   0.873   0.812   1.933
 1821SOL    HW1 6362   0.958   0.840   1.978
 1821SOL    HW2 6363   0.869   0.852   1.842
 1822SOL     OW 6364   2.501   3.007   1.384
 1822SOL    HW1 6365   2.427   2.948   1.417
 1822SOL    HW2 6366   2.544   3.053   1.461
 1823SOL     OW 6367   3.084   5.944   3.021
 1823SOL    HW1 6368   2.989   5.958   2.992
 1823SOL    HW2 6369   3.090   5.860   3.075
 1824SOL     OW 6370   3.199   2.645   1.753
 1824SOL    HW1 6371   3.126   2.620   1.816
 1824SOL    HW2 6372   3.273   2.579   1.758
 1825SOL     OW 6373   1.610   1.678   3.245
 1825SOL    HW1 6374   1.678   1.751   3.236
 1825SOL    HW2 6375   1.645   1.607   3.306
 1826SOL     OW 6376   2.996   7.010   1.076
 1826SOL    HW1 6377   2.915   6.994   1.134
 1826SOL    HW2 6378   3.078   6.983   1.126
 1827SOL     OW 6379   7.019   5.581   2.235
 1827SOL    HW1 6380   6.974   5.513   2.177
 1827SOL    HW2 6381   6.964   5.664   2.239
 1828SOL     OW 6382   1.142   2.177   0.673
 1828SOL    HW1 6383   1.106   2.147   0.761
 1828SOL    HW2 6384   1.073   2.230   0.624
 1829SOL     OW 6385   3.868   0.126   3.320
 1829SOL    HW1 6386   3.919   0.151   3.402
 1829SOL    HW2 6387   3.851   0.028   3.320
 1830SOL     OW 6388   6.108   5.645   3.872
 1830SOL    HW1 6389   6.109   5.556   3.828
 1830SOL    HW2 6390   6.168   5.708   3.822
 1831SOL     OW 6391   5.891   0.146   2.053
 1831SOL    HW1 6392   5.850   0.171   1.966
 1831SOL    HW2 6393   5.959   0.214   2.078
 1832SOL     OW 6394   5.196   1.031   1.006
 1832SOL    HW1 6395   5.263   0.967   1.043
 1832SOL    HW2 6396   5.135   1.061   1.079
 1833SOL     OW 6397   5.506   0.399   5.385
 1833SOL    HW1 6398   5.465   0.378   5.296
 1833SOL    HW2 6399   5.540   0.493   5.385
 1834SOL     OW 6400   2.598   3.885   0.421
 1834SOL    HW1 6401   2.655   3.966   0.437
 1834SOL    HW2 6402   2.539   3.869   0.501
 1835SOL     OW 6403   1.314   4.175   1.333
 1835SOL    HW1 6404   1.350   4.154   1.242
 1835SOL    HW2 6405   1.220   4.208   1.325
 1836SOL     OW 6406   5.231   1.508   1.313
 1836SOL    HW1 6407   5.192   1.542   1.227
 1836SOL    HW2 6408   5.251   1.584   1.374
 1837SOL     OW 6409   1.199   2.535   4.684
 1837SOL    HW1 6410   1.230   2.499   4.596
 1837SOL    HW2 6411   1.209   2.635   4.684
 1838SOL     OW 6412   0.064   2.012   4.180
 1838SOL    HW1 6413   0.017   2.085   4.231
 1838SOL    HW2 6414   0.007   1.930   4.180
 1839SOL     OW 6415   4.978   2.926   5.000
 1839SOL    HW1 6416   5.061   2.904   4.950
 1839SOL    HW2 6417   4.901   2.932   4.936
 1840SOL     OW 6418   3.588   5.742   1.374
 1840SOL    HW1 6419   3.529   5.779   1.303
 1840SOL    HW2 6420   3.660   5.686   1.332
 1841SOL     OW 6421   2.480   2.121   4.104
 1841SOL    HW1 6422   2.549   2.077   4.046
 1841SOL    HW2 6423   2.397   2.065   4.105
 1842SOL     OW 6424   0.680   5.251   0.626
 1842SOL    HW1 6425   0.772   5.267   0.660
 1842SOL    HW2 6426   0.613   5.293   0.687
 1843SOL     OW 6427   0.311   2.045   4.306
 1843SOL    HW1 6428   0.269   2.105   4.374
 1843SOL    HW2 6429   0.245   2.024   4.235
 1844SOL     OW 6430   3.681   0.577   5.755
 1844SOL    HW1 6431   3.611   0.623   5.809
 1844SOL    HW2 6432   3.748   0.535   5.816
 1845SOL     OW 6433   1.917   6.719   4.885
 1845SOL    HW1 6434   1.900   6.817   4.872
 1845SOL    HW2 6435   1.888   6.692   4.977
 1846SOL     OW 6436   4.340   2.626   0.378
 1846SOL    HW1 6437   4.373   2.633   0.472
 1846SOL    HW2 6438   4.418   2.617   0.316
 1847SOL     OW 6439   1.026   0.526   6.051
 1847SOL    HW1 6440   0.938   0.516   6.098
 1847SOL    HW2 6441   1.093   0.464   6.093
 1848SOL     OW 6442   0.755   6.659   2.613
 1848SOL    HW1 6443   0.853   6.666   2.636
 1848SOL    HW2 6444   0.705   6.626   2.693
 1849SOL     OW 6445   3.666   1.940   0.872
 1849SOL    HW1 6446   3.718   1.891   0.943
 1849SOL    HW2 6447   3.730   1.984   0.809
 1850SOL     OW 6448   0.244   3.223   2.485
 1850SOL    HW1 6449   0.167   3.181   2.436
 1850SOL    HW2 6450   0.326   3.169   2.469
 1851SOL     OW 6451   0.523   2.119   1.569
 1851SOL    HW1 6452   0.588   2.086   1.500
 1851SOL    HW2 6453   0.484   2.041   1.618
 1852SOL     OW 6454   5.611   3.609   1.802
 1852SOL    HW1 6455   5.569   3.629   1.891
 1852SOL    HW2 6456   5.551   3.549   1.750
 1853SOL     OW 6457   0.185   3.221   3.223
 1853SOL    HW1 6458   0.188   3.153   3.150
 1853SOL    HW2 6459   0.173   3.175   3.311
 1854SOL     OW 6460   2.368   6.129   3.184
 1854SOL    HW1 6461   2.288   6.186   3.201
 1854SOL    HW2 6462   2.441   6.155   3.247
 1855SOL     OW 6463   4.710   4.046   6.591
 1855SOL    HW1 6464   4.808   4.064   6.594
 1855SOL    HW2 6465   4.695   3.953   6.555
 1856SOL     OW 6466   6.660   3.731   5.281
 1856SOL    HW1 6467   6.705   3.807   5.235
 1856SOL    HW2 6468   6.588   3.694   5.222
 1857SOL     OW 6469   3.702   1.057   6.184
 1857SOL    HW1 6470   3.611   1.052   6.141
 1857SOL    HW2 6471   3.735   0.965   6.205
 1858SOL     OW 6472   6.052   2.989   3.475
 1858SOL    HW1 6473   6.012   3.079   3.490
 1858SOL    HW2 6474   6.067   2.944   3.563
 1859SOL     OW 6475   4.124   1.379   3.529
 1859SOL    HW1 6476   4.077   1.296   3.560
 1859SOL    HW2 6477   4.116   1.386   3.429
 1860SOL     OW 6478   6.474   0.613   3.901
 1860SOL    HW1 6479   6.496   0.709   3.914
 1860SOL    HW2 6480   6.556   0.563   3.875
 1861SOL     OW 6481   5.348   0.000   2.297
 1861SOL    HW1 6482   5.282   6.970   2.350
 1861SOL    HW2 6483   5.379   0.078   2.352
 1862SOL     OW 6484   2.704   0.689   6.400
 1862SOL    HW1 6485   2.720   0.666   6.304
 1862SOL    HW2 6486   2.628   0.755   6.406
 1863SOL     OW 6487   2.014   1.445   0.598
 1863SOL    HW1 6488   2.100   1.442   0.649
 1863SOL    HW2 6489   1.974   1.353   0.595
 1864SOL     OW 6490   0.878   6.834   5.694
 1864SOL    HW1 6491   0.938   6.758   5.670
 1864SOL    HW2 6492   0.883   6.852   5.792
 1865SOL     OW 6493   3.650   0.321   6.148
 1865SOL    HW1 6494   3.578   0.322   6.079
 1865SOL    HW2 6495   3.716   0.393   6.129
 1866SOL     OW 6496   4.215   4.885   3.277
 1866SOL    HW1 6497   4.246   4.943   3.352
 1866SOL    HW2 6498   4.116   4.894   3.267
 1867SOL     OW 6499   0.549   3.859   0.075
 1867SOL    HW1 6500   0.517   3.925   0.006
 1867SOL    HW2 6501   0.533   3.766   0.042
 1868SOL     OW 6502   4.981   4.040   0.140
 1868SOL    HW1 6503   4.958   3.943   0.147
 1868SOL    HW2 6504   4.909   4.087   0.089
 1869SOL     OW 6505   5.812   2.908   5.710
 1869SOL    HW1 6506   5.814   2.820   5.664
 1869SOL    HW2 6507   5.904   2.945   5.716
 1870SOL     OW 6508   2.071   2.943   5.762
 1870SOL    HW1 6509   1.984   2.898   5.740
 1870SOL    HW2 6510   2.059   2.999   5.844
 1871SOL     OW 6511   0.340   1.207   6.729
 1871SOL    HW1 6512   0.255   1.167   6.763
 1871SOL    HW2 6513   0.410   1.204   6.801
 1872SOL     OW 6514   3.474   2.663   0.455
 1872SOL    HW1 6515   3.433   2.707   0.535
 1872SOL    HW2 6516   3.446   2.712   0.373
 1873SOL     OW 6517   4.973   1.877   6.053
 1873SOL    HW1 6518   5.009   1.875   5.960
 1873SOL    HW2 6519   5.049   1.877   6.118
 1874SOL     OW 6520   3.245   1.270   1.161
 1874SOL    HW1 6521   3.213   1.195   1.104
 1874SOL    HW2 6522   3.173   1.297   1.225
 1875SOL     OW 6523   0.320   1.436   0.422
 1875SOL    HW1 6524   0.338   1.386   0.338
 1875SOL    HW2 6525   0.228   1.474   0.419
 1876SOL     OW 6526   4.228   6.880   5.856
 1876SOL    HW1 6527   4.159   6.850   5.922
 1876SOL    HW2 6528   4.243   6.978   5.866
 1877SOL     OW 6529   0.535   0.093   2.581
 1877SOL    HW1 6530   0.569   0.151   2.507
 1877SOL    HW2 6531   0.553   7.020   2.559
 1878SOL     OW 6532   6.635   2.018   3.638
 1878SOL    HW1 6533   6.615   2.103   3.588
 1878SOL    HW2 6534   6.593   2.022   3.728
 1879SOL     OW 6535   1.348   4.395   4.235
 1879SOL    HW1 6536   1.384   4.440   4.317
 1879SOL    HW2 6537   1.417   4.332   4.200
 1880SOL     OW 6538   6.973   2.198   4.782
 1880SOL    HW1 6539   6.993   2.292   4.755
 1880SOL    HW2 6540   0.027   2.162   4.836
 1881SOL     OW 6541   5.867   1.837   3.191
 1881SOL    HW1 6542   5.916   1.811   3.108
 1881SOL    HW2 6543   5.880   1.768   3.262
 1882SOL     OW 6544   1.172   3.823   6.234
 1882SOL    HW1 6545   1.270   3.831   6.255
 1882SOL    HW2 6546   1.159   3.824   6.135
 1883SOL     OW 6547   7.011   2.117   3.370
 1883SOL    HW1 6548   0.054   2.074   3.432
 1883SOL    HW2 6549   6.993   2.056   3.293
 1884SOL     OW 6550   0.164   2.402   0.739
 1884SOL    HW1 6551   0.099   2.473   0.764
 1884SOL    HW2 6552   0.241   2.401   0.804
 1885SOL     OW 6553   1.877   2.030   6.342
 1885SOL    HW1 6554   1.965   1.986   6.359
 1885SOL    HW2 6555   1.857   2.094   6.417
 1886SOL     OW 6556   1.498   0.718   1.466
 1886SOL    HW1 6557   1.566   0.682   1.530
 1886SOL    HW2 6558   1.540   0.789   1.409
 1887SOL     OW 6559   0.989   6.001   4.984
 1887SOL    HW1 6560   1.043   6.001   5.068
 1887SOL    HW2 6561   0.974   6.095   4.954
 1888SOL     OW 6562   3.120   2.107   0.075
 1888SOL    HW1 6563   3.157   2.189   0.118
 1888SOL    HW2 6564   3.180   2.029   0.096
 1889SOL     OW 6565   0.229   3.121   5.866
 1889SOL    HW1 6566   0.290   3.116   5.788
 1889SOL    HW2 6567   0.144   3.166   5.839
 1890SOL     OW 6568   1.741   5.952   4.294
 1890SOL    HW1 6569   1.678   5.937   4.371
 1890SOL    HW2 6570   1.745   6.049   4.272
 1891SOL     OW 6571   5.458   2.494   1.917
 1891SOL    HW1 6572   5.473   2.537   2.006
 1891SOL    HW2 6573   5.524   2.420   1.904
 1892SOL     OW 6574   2.165   0.688   2.436
 1892SOL    HW1 6575   2.154   0.619   2.507
 1892SOL    HW2 6576   2.241   0.748   2.460
 1893SOL     OW 6577   3.262   3.837   1.304
 1893SOL    HW1 6578   3.279   3.934   1.282
 1893SOL    HW2 6579   3.165   3.817   1.295
 1894SOL     OW 6580   3.509   3.922   3.976
 1894SOL    HW1 6581   3.588   3.941   4.034
 1894SOL    HW2 6582   3.426   3.955   4.021
 1895SOL     OW 6583   4.510   0.421   1.542
 1895SOL    HW1 6584   4.547   0.446   1.453
 1895SOL    HW2 6585   4.418   0.461   1.552
 1896SOL     OW 6586   5.120   1.281   1.424
 1896SOL    HW1 6587   5.152   1.371   1.395
 1896SOL    HW2 6588   5.118   1.277   1.524
 1897SOL     OW 6589   2.274   5.544   1.466
 1897SOL    HW1 6590   2.245   5.467   1.522
 1897SOL    HW2 6591   2.207   5.618   1.474
 1898SOL     OW 6592   2.190   5.406   3.954
 1898SOL    HW1 6593   2.100   5.430   3.917
 1898SOL    HW2 6594   2.210   5.310   3.933
 1899SOL     OW 6595   0.326   1.527   1.680
 1899SOL    HW1 6596   0.283   1.460   1.741
 1899SOL    HW2 6597   0.273   1.612   1.681
 1900SOL     OW 6598   2.094   0.719   6.895
 1900SOL    HW1 6599   2.083   0.804   6.946
 1900SOL    HW2 6600   2.184   0.718   6.850
 1901SOL     OW 6601   1.820   1.905   0.650
 1901SOL    HW1 6602   1.819   2.000   0.682
 1901SOL    HW2 6603   1.835   1.844   0.727
 1902SOL     OW 6604   2.010   0.972   5.256
 1902SOL    HW1 6605   2.060   0.892   5.224
 1902SOL    HW2 6606   2.047   1.001   5.345
 1903SOL     OW 6607   0.340   3.814   2.862
 1903SOL    HW1 6608   0.426   3.860   2.885
 1903SOL    HW2 6609   0.342   3.787   2.766
 1904SOL     OW 6610   5.610   5.320   3.736
 1904SOL    HW1 6611   5.657   5.405   3.712
 1904SOL    HW2 6612   5.626   5.299   3.832
 1905SOL     OW 6613   0.931   0.125   3.491
 1905SOL    HW1 6614   0.975   0.142   3.403
 1905SOL    HW2 6615   0.879   0.040   3.487
 1906SOL     OW 6616   1.913   0.238   4.650
 1906SOL    HW1 6617   1.969   0.229   4.732
 1906SOL    HW2 6618   1.838   0.301   4.668
 1907SOL     OW 6619   3.832   1.558   1.953
 1907SOL    HW1 6620   3.802   1.650   1.979
 1907SOL    HW2 6621   3.761   1.491   1.977
 1908SOL     OW 6622   3.618   6.650   5.811
 1908SOL    HW1 6623   3.641   6.667   5.907
 1908SOL    HW2 6624   3.690   6.594   5.769
 1909SOL     OW 6625   0.884   3.306   3.387
 1909SOL    HW1 6626   0.909   3.402   3.404
 1909SOL    HW2 6627   0.934   3.247   3.450
 1910SOL     OW 6628   0.230   5.575   6.141
 1910SOL    HW1 6629   0.151   5.637   6.143
 1910SOL    HW2 6630   0.303   5.616   6.086
 1911SOL     OW 6631   0.096   3.659   5.077
 1911SOL    HW1 6632   0.084   3.684   5.173
 1911SOL    HW2 6633   0.035   3.714   5.020
 1912SOL     OW 6634   3.203   5.783   0.963
 1912SOL    HW1 6635   3.226   5.822   0.874
 1912SOL    HW2 6636   3.107   5.801   0.984
 1913SOL     OW 6637   2.404   0.175   4.867
 1913SOL    HW1 6638   2.419   0.156   4.964
 1913SOL    HW2 6639   2.474   0.239   4.834
 1914SOL     OW 6640   4.077   3.038   6.447
 1914SOL    HW1 6641   4.160   3.094   6.435
 1914SOL    HW2 6642   4.057   2.990   6.362
 1915SOL     OW 6643   3.562   2.954   5.817
 1915SOL    HW1 6644   3.513   2.996   5.740
 1915SOL    HW2 6645   3.578   3.024   5.887
 1916SOL     OW 6646   4.048   5.689   1.515
 1916SOL    HW1 6647   4.081   5.602   1.479
 1916SOL    HW2 6648   4.040   5.756   1.441
 1917SOL     OW 6649   2.271   3.043   0.117
 1917SOL    HW1 6650   2.319   2.957   0.136
 1917SOL    HW2 6651   2.328   3.120   0.147
 1918SOL     OW 6652   1.443   1.648   4.850
 1918SOL    HW1 6653   1.454   1.578   4.920
 1918SOL    HW2 6654   1.531   1.665   4.806
 1919SOL     OW 6655   1.404   1.724   1.780
 1919SOL    HW1 6656   1.334   1.685   1.840
 1919SOL    HW2 6657   1.484   1.663   1.778
 1920SOL     OW 6658   6.928   4.185   2.970
 1920SOL    HW1 6659   6.873   4.148   3.045
 1920SOL    HW2 6660   6.996   4.117   2.942
 1921SOL     OW 6661   1.919   3.519   0.045
 1921SOL    HW1 6662   1.855   3.491   0.117
 1921SOL    HW2 6663   1.937   3.617   0.053
 1922SOL     OW 6664   2.907   3.674   1.528
 1922SOL    HW1 6665   2.834   3.682   1.595
 1922SOL    HW2 6666   2.996   3.671   1.575
 1923SOL     OW 6667   4.145   1.867   6.346
 1923SOL    HW1 6668   4.221   1.829   6.293
 1923SOL    HW2 6669   4.104   1.795   6.401
 1924SOL     OW 6670   4.476   6.438   0.316
 1924SOL    HW1 6671   4.523   6.381   0.383
 1924SOL    HW2 6672   4.474   6.533   0.347
 1925SOL     OW 6673   1.290   4.731   0.703
 1925SOL    HW1 6674   1.382   4.711   0.671
 1925SOL    HW2 6675   1.233   4.761   0.627
 1926SOL     OW 6676   3.124   6.617   2.799
 1926SOL    HW1 6677   3.061   6.682   2.841
 1926SOL    HW2 6678   3.076   6.568   2.726
 1927SOL     OW 6679   2.405   4.793   0.175
 1927SOL    HW1 6680   2.442   4.709   0.137
 1927SOL    HW2 6681   2.409   4.789   0.275
 1928SOL     OW 6682   6.302   4.108   4.871
 1928SOL    HW1 6683   6.397   4.129   4.847
 1928SOL    HW2 6684   6.248   4.099   4.787
 1929SOL     OW 6685   2.618   0.313   1.616
 1929SOL    HW1 6686   2.558   0.393   1.626
 1929SOL    HW2 6687   2.619   0.284   1.520
 1930SOL     OW 6688   5.613   3.677   6.572
 1930SOL    HW1 6689   5.586   3.583   6.591
 1930SOL    HW2 6690   5.541   3.722   6.518
 1931SOL     OW 6691   0.631   2.351   0.348
 1931SOL    HW1 6692   0.560   2.289   0.316
 1931SOL    HW2 6693   0.716   2.333   0.299
 1932SOL     OW 6694   4.729   2.751   3.490
 1932SOL    HW1 6695   4.778   2.830   3.453
 1932SOL    HW2 6696   4.742   2.747   3.589
 1933SOL     OW 6697   0.941   3.077   0.775
 1933SOL    HW1 6698   0.851   3.051   0.738
 1933SOL    HW2 6699   0.932   3.098   0.872
 1934SOL     OW 6700   0.185   1.556   4.762
 1934SOL    HW1 6701   0.202   1.614   4.843
 1934SOL    HW2 6702   0.148   1.613   4.689
 1935SOL     OW 6703   4.449   4.888   3.507
 1935SOL    HW1 6704   4.477   4.977   3.471
 1935SOL    HW2 6705   4.517   4.819   3.482
 1936SOL     OW 6706   4.877   3.925   3.805
 1936SOL    HW1 6707   4.955   3.979   3.838
 1936SOL    HW2 6708   4.822   3.982   3.744
 1937SOL     OW 6709   4.260   6.211   0.202
 1937SOL    HW1 6710   4.206   6.275   0.147
 1937SOL    HW2 6711   4.257   6.239   0.298
 1938SOL     OW 6712   1.724   1.979   0.935
 1938SOL    HW1 6713   1.626   1.993   0.944
 1938SOL    HW2 6714   1.764   2.054   0.882
 1939SOL     OW 6715   6.634   6.737   4.904
 1939SOL    HW1 6716   6.557   6.758   4.843
 1939SOL    HW2 6717   6.696   6.815   4.907
 1940SOL     OW 6718   5.904   4.142   1.410
 1940SOL    HW1 6719   5.938   4.205   1.340
 1940SOL    HW2 6720   5.896   4.050   1.372
 1941SOL     OW 6721   1.765   2.693   3.959
 1941SOL    HW1 6722   1.804   2.732   4.043
 1941SOL    HW2 6723   1.805   2.739   3.880
 1942SOL     OW 6724   5.324   3.412   2.923
 1942SOL    HW1 6725   5.278   3.500   2.908
 1942SOL    HW2 6726   5.260   3.338   2.903
 1943SOL     OW 6727   1.562   0.599   2.894
 1943SOL    HW1 6728   1.564   0.524   2.828
 1943SOL    HW2 6729   1.475   0.647   2.887
 1944SOL     OW 6730   5.908   4.210   0.265
 1944SOL    HW1 6731   5.812   4.192   0.246
 1944SOL    HW2 6732   5.919   4.237   0.361
 1945SOL     OW 6733   3.973   5.628   6.995
 1945SOL    HW1 6734   3.920   5.544   6.989
 1945SOL    HW2 6735   4.008   5.639   0.066
 1946SOL     OW 6736   5.901   0.363   1.191
 1946SOL    HW1 6737   5.891   0.462   1.187
 1946SOL    HW2 6738   5.886   0.324   1.100
 1947SOL     OW 6739   5.548   5.712   4.091
 1947SOL    HW1 6740   5.596   5.624   4.090
 1947SOL    HW2 6741   5.478   5.712   4.020
 1948SOL     OW 6742   6.512   4.946   2.782
 1948SOL    HW1 6743   6.556   5.029   2.747
 1948SOL    HW2 6744   6.450   4.971   2.857
 1949SOL     OW 6745   3.941   3.208   0.019
 1949SOL    HW1 6746   3.980   3.208   6.950
 1949SOL    HW2 6747   3.843   3.224   0.014
 1950SOL     OW 6748   3.938   3.080   3.017
 1950SOL    HW1 6749   3.872   3.154   3.003
 1950SOL    HW2 6750   4.009   3.086   2.946
 1951SOL     OW 6751   0.057   4.585   6.209
 1951SOL    HW1 6752   7.021   4.504   6.210
 1951SOL    HW2 6753   0.153   4.557   6.200
 1952SOL     OW 6754   5.339   4.788   1.169
 1952SOL    HW1 6755   5.344   4.885   1.194
 1952SOL    HW2 6756   5.311   4.735   1.249
 1953SOL     OW 6757   6.816   1.708   6.163
 1953SOL    HW1 6758   6.807   1.618   6.121
 1953SOL    HW2 6759   6.906   1.746   6.143
 1954SOL     OW 6760   6.074   0.284   1.383
 1954SOL    HW1 6761   6.019   0.297   1.300
 1954SOL    HW2 6762   6.046   0.352   1.451
 1955SOL     OW 6763   0.152   0.995   2.507
 1955SOL    HW1 6764   0.165   1.087   2.470
 1955SOL    HW2 6765   0.186   0.927   2.442
 1956SOL     OW 6766   4.510   0.047   1.905
 1956SOL    HW1 6767   4.567   0.043   1.987
 1956SOL    HW2 6768   4.555   0.103   1.836
 1957SOL     OW 6769   5.103   4.826   4.243
 1957SOL    HW1 6770   5.075   4.756   4.307
 1957SOL    HW2 6771   5.129   4.909   4.293
 1958SOL     OW 6772   4.650   1.203   1.909
 1958SOL    HW1 6773   4.611   1.197   2.001
 1958SOL    HW2 6774   4.594   1.150   1.845
 1959SOL     OW 6775   0.155   6.798   4.034
 1959SOL    HW1 6776   0.133   6.790   4.131
 1959SOL    HW2 6777   0.081   6.848   3.988
 1960SOL     OW 6778   6.979   3.976   2.202
 1960SOL    HW1 6779   6.981   3.944   2.296
 1960SOL    HW2 6780   6.886   4.001   2.176
 1961SOL     OW 6781   5.986   4.265   4.795
 1961SOL    HW1 6782   5.934   4.324   4.734
 1961SOL    HW2 6783   6.011   4.181   4.747
 1962SOL     OW 6784   1.603   6.394   2.711
 1962SOL    HW1 6785   1.601   6.322   2.781
 1962SOL    HW2 6786   1.513   6.402   2.669
 1963SOL     OW 6787   1.301   2.148   1.441
 1963SOL    HW1 6788   1.348   2.129   1.355
 1963SOL    HW2 6789   1.303   2.067   1.499
 1964SOL     OW 6790   4.207   4.960   2.006
 1964SOL    HW1 6791   4.226   4.959   1.908
 1964SOL    HW2 6792   4.285   4.997   2.055
 1965SOL     OW 6793   1.792   2.484   4.371
 1965SOL    HW1 6794   1.764   2.497   4.276
 1965SOL    HW2 6795   1.882   2.441   4.374
 1966SOL     OW 6796   1.448   5.757   1.323
 1966SOL    HW1 6797   1.356   5.725   1.305
 1966SOL    HW2 6798   1.462   5.846   1.281
 1967SOL     OW 6799   6.317   2.799   4.292
 1967SOL    HW1 6800   6.365   2.778   4.206
 1967SOL    HW2 6801   6.282   2.893   4.288
 1968SOL     OW 6802   2.577   0.686   5.393
 1968SOL    HW1 6803   2.530   0.730   5.317
 1968SOL    HW2 6804   2.598   0.754   5.463
 1969SOL     OW 6805   3.316   0.496   1.431
 1969SOL    HW1 6806   3.342   0.406   1.467
 1969SOL    HW2 6807   3.274   0.485   1.341
 1970SOL     OW 6808   0.135   0.360   5.309
 1970SOL    HW1 6809   0.217   0.379   5.254
 1970SOL    HW2 6810   0.146   0.273   5.357
 1971SOL     OW 6811   0.565   1.047   5.654
 1971SOL    HW1 6812   0.646   1.009   5.609
 1971SOL    HW2 6813   0.488   1.046   5.590
 1972SOL     OW 6814   5.453   2.703   1.346
 1972SOL    HW1 6815   5.489   2.659   1.263
 1972SOL    HW2 6816   5.391   2.639   1.392
 1973SOL     OW 6817   2.776   4.081   1.677
 1973SOL    HW1 6818   2.694   4.030   1.705
 1973SOL    HW2 6819   2.751   4.176   1.657
 1974SOL     OW 6820   4.710   6.611   4.614
 1974SOL    HW1 6821   4.725   6.553   4.694
 1974SOL    HW2 6822   4.614   6.609   4.588
 1975SOL     OW 6823   2.138   2.142   3.983
 1975SOL    HW1 6824   2.097   2.220   4.030
 1975SOL    HW2 6825   2.100   2.057   4.019
 1976SOL     OW 6826   5.490   5.755   0.277
 1976SOL    HW1 6827   5.538   5.749   0.190
 1976SOL    HW2 6828   5.409   5.696   0.274
 1977SOL     OW 6829   1.757   3.287   5.241
 1977SOL    HW1 6830   1.783   3.343   5.320
 1977SOL    HW2 6831   1.660   3.301   5.221
 1978SOL     OW 6832   1.691   5.813   3.146
 1978SOL    HW1 6833   1.760   5.823   3.075
 1978SOL    HW2 6834   1.735   5.797   3.234
 1979SOL     OW 6835   5.223   5.169   7.022
 1979SOL    HW1 6836   5.263   5.175   0.091
 1979SOL    HW2 6837   5.189   5.260   6.995
 1980SOL     OW 6838   4.006   0.946   2.992
 1980SOL    HW1 6839   3.960   0.860   2.968
 1980SOL    HW2 6840   4.059   0.932   3.076
 1981SOL     OW 6841   5.588   2.774   2.363
 1981SOL    HW1 6842   5.541   2.754   2.449
 1981SOL    HW2 6843   5.677   2.816   2.382
 1982SOL     OW 6844   6.509   3.691   3.996
 1982SOL    HW1 6845   6.563   3.610   3.974
 1982SOL    HW2 6846   6.560   3.749   4.059
 1983SOL     OW 6847   0.972   0.460   1.575
 1983SOL    HW1 6848   1.037   0.535   1.557
 1983SOL    HW2 6849   1.022   0.374   1.578
 1984SOL     OW 6850   4.427   2.333   5.316
 1984SOL    HW1 6851   4.399   2.371   5.404
 1984SOL    HW2 6852   4.471   2.404   5.261
 1985SOL     OW 6853   6.878   5.819   2.203
 1985SOL    HW1 6854   6.971   5.854   2.191
 1985SOL    HW2 6855   6.833   5.813   2.114
 1986SOL     OW 6856   3.001   0.924   6.137
 1986SOL    HW1 6857   3.033   0.830   6.122
 1986SOL    HW2 6858   2.934   0.924   6.211
 1987SOL     OW 6859   2.153   1.810   3.764
 1987SOL    HW1 6860   2.209   1.748   3.820
 1987SOL    HW2 6861   2.211   1.860   3.701
 1988SOL     OW 6862   0.547   1.788   1.027
 1988SOL    HW1 6863   0.619   1.813   0.962
 1988SOL    HW2 6864   0.574   1.704   1.075
 1989SOL     OW 6865   2.064   6.008   4.364
 1989SOL    HW1 6866   1.980   6.060   4.348
 1989SOL    HW2 6867   2.079   6.001   4.463
 1990SOL     OW 6868   3.819   6.144   0.196
 1990SOL    HW1 6869   3.862   6.208   0.132
 1990SOL    HW2 6870   3.731   6.113   0.160
 1991SOL     OW 6871   2.108   5.508   0.137
 1991SOL    HW1 6872   2.089   5.565   0.057
 1991SOL    HW2 6873   2.161   5.559   0.204
 1992SOL     OW 6874   6.901   0.480   0.434
 1992SOL    HW1 6875   6.974   0.537   0.471
 1992SOL    HW2 6876   6.816   0.532   0.431
 1993SOL     OW 6877   3.473   1.861   4.932
 1993SOL    HW1 6878   3.479   1.832   5.028
 1993SOL    HW2 6879   3.427   1.950   4.927
 1994SOL     OW 6880   5.185   1.996   1.351
 1994SOL    HW1 6881   5.232   2.054   1.284
 1994SOL    HW2 6882   5.128   1.929   1.302
 1995SOL     OW 6883   5.501   2.999   3.760
 1995SOL    HW1 6884   5.513   3.052   3.676
 1995SOL    HW2 6885   5.591   2.982   3.801
 1996SOL     OW 6886   2.495   1.954   1.559
 1996SOL    HW1 6887   2.541   1.940   1.646
 1996SOL    HW2 6888   2.563   1.955   1.485
 1997SOL     OW 6889   3.336   1.501   3.734
 1997SOL    HW1 6890   3.334   1.586   3.787
 1997SOL    HW2 6891   3.256   1.446   3.757
 1998SOL     OW 6892   1.531   3.749   0.531
 1998SOL    HW1 6893   1.561   3.777   0.622
 1998SOL    HW2 6894   1.476   3.822   0.489
 1999SOL     OW 6895   0.807   0.343   4.932
 1999SOL    HW1 6896   0.870   0.319   5.006
 1999SOL    HW2 6897   0.847   0.416   4.877
 2000SOL     OW 6898   4.259   3.377   5.854
 2000SOL    HW1 6899   4.299   3.311   5.918
 2000SOL    HW2 6900   4.195   3.436   5.903
 2001SOL     OW 6901   2.057   1.391   0.002
 2001SOL    HW1 6902   1.978   1.382   6.964
 2001SOL    HW2 6903   2.054   1.320   0.072
 2002SOL     OW 6904   0.516   5.601   0.665
 2002SOL    HW1 6905   0.488   5.506   0.650
 2002SOL    HW2 6906   0.510   5.652   0.579
 2003SOL     OW 6907   6.705   4.941   1.692
 2003SOL    HW1 6908   6.699   4.951   1.592
 2003SOL    HW2 6909   6.722   4.845   1.714
 2004SOL     OW 6910   4.541   0.642   4.996
 2004SOL    HW1 6911   4.601   0.678   4.925
 2004SOL    HW2 6912   4.597   0.598   5.067
 2005SOL     OW 6913   0.094   5.050   6.790
 2005SOL    HW1 6914   0.152   4.986   6.739
 2005SOL    HW2 6915   0.148   5.131   6.815
 2006SOL     OW 6916   5.949   6.587   4.464
 2006SOL    HW1 6917   6.035   6.622   4.502
 2006SOL    HW2 6918   5.969   6.519   4.394
 2007SOL     OW 6919   5.403   3.997   1.311
 2007SOL    HW1 6920   5.411   3.906   1.352
 2007SOL    HW2 6921   5.485   4.017   1.257
 2008SOL     OW 6922   2.181   3.264   3.351
 2008SOL    HW1 6923   2.124   3.271   3.433
 2008SOL    HW2 6924   2.181   3.352   3.303
 2009SOL     OW 6925   5.405   6.290   2.274
 2009SOL    HW1 6926   5.474   6.358   2.250
 2009SOL    HW2 6927   5.338   6.331   2.336
 2010SOL     OW 6928   2.019   1.249   1.555
 2010SOL    HW1 6929   2.002   1.204   1.643
 2010SOL    HW2 6930   1.932   1.270   1.511
 2011SOL     OW 6931   0.240   1.089   4.926
 2011SOL    HW1 6932   0.269   1.024   4.856
 2011SOL    HW2 6933   0.152   1.129   4.900
 2012SOL     OW 6934   1.810   3.406   2.147
 2012SOL    HW1 6935   1.765   3.372   2.065
 2012SOL    HW2 6936   1.878   3.475   2.123
 2013SOL     OW 6937   6.781   3.101   3.628
 2013SOL    HW1 6938   6.823   3.182   3.671
 2013SOL    HW2 6939   6.789   3.108   3.529
 2014SOL     OW 6940   2.717   0.082   3.173
 2014SOL    HW1 6941   2.708   7.007   3.153
 2014SOL    HW2 6942   2.813   0.107   3.173
 2015SOL     OW 6943   3.716   6.517   0.226
 2015SOL    HW1 6944   3.746   6.485   0.136
 2015SOL    HW2 6945   3.632   6.571   0.216
 2016SOL     OW 6946   1.635   5.513   5.523
 2016SOL    HW1 6947   1.695   5.574   5.472
 2016SOL    HW2 6948   1.541   5.526   5.492
 2017SOL     OW 6949   4.412   0.562   3.305
 2017SOL    HW1 6950   4.328   0.522   3.266
 2017SOL    HW2 6951   4.388   0.643   3.359
 2018SOL     OW 6952   6.820   3.117   4.124
 2018SOL    HW1 6953   6.899   3.066   4.090
 2018SOL    HW2 6954   6.848   3.174   4.201
 2019SOL     OW 6955   6.170   4.031   6.200
 2019SOL    HW1 6956   6.134   4.046   6.292
 2019SOL    HW2 6957   6.127   4.095   6.136
 2020SOL     OW 6958   1.845   6.268   5.613
 2020SOL    HW1 6959   1.869   6.278   5.710
 2020SOL    HW2 6960   1.807   6.354   5.580
 2021SOL     OW 6961   6.152   6.855   4.081
 2021SOL    HW1 6962   6.188   6.817   3.996
 2021SOL    HW2 6963   6.209   6.826   4.158
 2022SOL     OW 6964   1.898   4.601   4.723
 2022SOL    HW1 6965   1.992   4.596   4.690
 2022SOL    HW2 6966   1.867   4.697   4.723
 2023SOL     OW 6967   0.141   0.143   6.671
 2023SOL    HW1 6968   0.205   0.134   6.747
 2023SOL    HW2 6969   0.070   0.209   6.694
 2024SOL     OW 6970   6.846   5.816   3.809
 2024SOL    HW1 6971   6.917   5.869   3.762
 2024SOL    HW2 6972   6.785   5.774   3.742
 2025SOL     OW 6973   3.117   0.403   3.899
 2025SOL    HW1 6974   3.127   0.494   3.940
 2025SOL    HW2 6975   3.170   0.337   3.952
 2026SOL     OW 6976   6.382   1.853   6.567
 2026SOL    HW1 6977   6.332   1.847   6.653
 2026SOL    HW2 6978   6.414   1.762   6.540
 2027SOL     OW 6979   0.476   6.242   1.432
 2027SOL    HW1 6980   0.534   6.299   1.374
 2027SOL    HW2 6981   0.530   6.165   1.467
 2028SOL     OW 6982   3.446   5.625   3.037
 2028SOL    HW1 6983   3.401   5.671   3.114
 2028SOL    HW2 6984   3.516   5.686   2.999
 2029SOL     OW 6985   6.653   2.448   6.906
 2029SOL    HW1 6986   6.676   2.365   6.856
 2029SOL    HW2 6987   6.562   2.480   6.877
 2030SOL     OW 6988   3.481   0.407   2.544
 2030SOL    HW1 6989   3.564   0.424   2.491
 2030SOL    HW2 6990   3.409   0.470   2.515
 2031SOL     OW 6991   0.103   6.382   2.303
 2031SOL    HW1 6992   0.027   6.446   2.310
 2031SOL    HW2 6993   0.087   6.305   2.364
 2032SOL     OW 6994   3.495   1.371   1.086
 2032SOL    HW1 6995   3.545   1.362   1.173
 2032SOL    HW2 6996   3.406   1.325   1.095
 2033SOL     OW 6997   2.279   0.716   0.923
 2033SOL    HW1 6998   2.254   0.699   1.019
 2033SOL    HW2 6999   2.313   0.632   0.882
 2034SOL     OW 7000   1.713   5.092   5.799
 2034SOL    HW1 7001   1.757   5.044   5.723
 2034SOL    HW2 7002   1.663   5.171   5.764
 2035SOL     OW 7003   6.496   6.700   2.391
 2035SOL    HW1 7004   6.458   6.614   2.427
 2035SOL    HW2 7005   6.423   6.754   2.349
 2036SOL     OW 7006   1.514   3.632   3.538
 2036SOL    HW1 7007   1.505   3.722   3.581
 2036SOL    HW2 7008   1.520   3.642   3.439
 2037SOL     OW 7009   6.485   2.982   6.162
 2037SOL    HW1 7010   6.463   2.954   6.069
 2037SOL    HW2 7011   6.413   2.951   6.225
 2038SOL     OW 7012   2.289   0.835   0.420
 2038SOL    HW1 7013   2.380   0.840   0.380
 2038SOL    HW2 7014   2.241   0.921   0.404
 2039SOL     OW 7015   0.338   6.339   2.930
 2039SOL    HW1 7016   0.402   6.361   3.003
 2039SOL    HW2 7017   0.355   6.399   2.852
 2040SOL     OW 7018   1.737   1.869   0.045
 2040SOL    HW1 7019   1.809   1.855   7.000
 2040SOL    HW2 7020   1.712   1.780   0.085
 2041SOL     OW 7021   1.018   0.345   5.401
 2041SOL    HW1 7022   1.037   0.366   5.305
 2041SOL    HW2 7023   0.934   0.391   5.430
 2042SOL     OW 7024   5.009   0.273   6.095
 2042SOL    HW1 7025   5.082   0.271   6.027
 2042SOL    HW2 7026   4.948   0.195   6.080
 2043SOL     OW 7027   6.408   2.698   2.392
 2043SOL    HW1 7028   6.352   2.756   2.452
 2043SOL    HW2 7029   6.423   2.745   2.305
 2044SOL     OW 7030   6.069   0.896   1.313
 2044SOL    HW1 7031   6.068   0.988   1.271
 2044SOL    HW2 7032   6.114   0.832   1.250
 2045SOL     OW 7033   1.035   5.890   4.694
 2045SOL    HW1 7034   1.011   5.910   4.789
 2045SOL    HW2 7035   0.981   5.813   4.661
 2046SOL     OW 7036   6.492   2.586   5.501
 2046SOL    HW1 7037   6.434   2.526   5.446
 2046SOL    HW2 7038   6.466   2.579   5.598
 2047SOL     OW 7039   5.901   2.682   0.967
 2047SOL    HW1 7040   6.001   2.688   0.977
 2047SOL    HW2 7041   5.878   2.596   0.920
 2048SOL     OW 7042   0.219   1.073   4.609
 2048SOL    HW1 7043   0.182   1.023   4.530
 2048SOL    HW2 7044   0.144   1.113   4.661
 2049SOL     OW 7045   4.977   1.164   4.706
 2049SOL    HW1 7046   5.008   1.169   4.611
 2049SOL    HW2 7047   4.885   1.201   4.713
 2050SOL     OW 7048   0.316   2.460   4.522
 2050SOL    HW1 7049   0.345   2.492   4.612
 2050SOL    HW2 7050   0.396   2.454   4.462
 2051SOL     OW 7051   1.781   6.019   6.893
 2051SOL    HW1 7052   1.856   5.963   6.927
 2051SOL    HW2 7053   1.800   6.047   6.799
 2052SOL     OW 7054   1.437   3.015   0.799
 2052SOL    HW1 7055   1.476   3.093   0.749
 2052SOL    HW2 7056   1.339   3.012   0.783
 2053SOL     OW 7057   1.252   5.191   4.954
 2053SOL    HW1 7058   1.307   5.273   4.935
 2053SOL    HW2 7059   1.232   5.187   5.052
 2054SOL     OW 7060   3.308   3.215   3.130
 2054SOL    HW1 7061   3.368   3.146   3.092
 2054SOL    HW2 7062   3.358   3.272   3.195
 2055SOL     OW 7063   6.937   2.757   5.049
 2055SOL    HW1 7064   6.945   2.712   5.138
 2055SOL    HW2 7065   7.011   2.727   4.989
 2056SOL     OW 7066   4.341   4.442   1.461
 2056SOL    HW1 7067   4.340   4.444   1.561
 2056SOL    HW2 7068   4.281   4.369   1.428
 2057SOL     OW 7069   5.197   3.364   4.710
 2057SOL    HW1 7070   5.138   3.326   4.781
 2057SOL    HW2 7071   5.250   3.290   4.668
 2058SOL     OW 7072   0.794   6.545   2.353
 2058SOL    HW1 7073   0.873   6.483   2.355
 2058SOL    HW2 7074   0.778   6.581   2.445
 2059SOL     OW 7075   2.777   0.367   5.624
 2059SOL    HW1 7076   2.777   0.430   5.546
 2059SOL    HW2 7077   2.736   0.280   5.597
 2060SOL     OW 7078   0.553   3.104   1.542
 2060SOL    HW1 7079   0.590   3.042   1.473
 2060SOL    HW2 7080   0.532   3.052   1.625
 2061SOL     OW 7081   1.900   2.323   2.247
 2061SOL    HW1 7082   1.937   2.416   2.234
 2061SOL    HW2 7083   1.965   2.269   2.301
 2062SOL     OW 7084   6.506   5.825   5.215
 2062SOL    HW1 7085   6.564   5.897   5.177
 2062SOL    HW2 7086   6.552   5.781   5.292
 2063SOL     OW 7087   1.557   6.641   4.564
 2063SOL    HW1 7088   1.578   6.735   4.592
 2063SOL    HW2 7089   1.459   6.624   4.576
 2064SOL     OW 7090   0.864   3.054   4.359
 2064SOL    HW1 7091   0.874   2.966   4.407
 2064SOL    HW2 7092   0.866   3.128   4.426
 2065SOL     OW 7093   5.338   3.510   6.097
 2065SOL    HW1 7094   5.314   3.494   6.002
 2065SOL    HW2 7095   5.433   3.481   6.113
 2066SOL     OW 7096   6.831   4.148   5.531
 2066SOL    HW1 7097   6.789   4.176   5.617
 2066SOL    HW2 7098   6.875   4.059   5.543
 2067SOL     OW 7099   5.933   4.984   1.438
 2067SOL    HW1 7100   5.901   4.890   1.424
 2067SOL    HW2 7101   5.917   5.037   1.354
 2068SOL     OW 7102   3.881   1.279   4.278
 2068SOL    HW1 7103   3.950   1.317   4.339
 2068SOL    HW2 7104   3.913   1.286   4.183
 2069SOL     OW 7105   0.229   2.296   3.988
 2069SOL    HW1 7106   0.185   2.291   3.898
 2069SOL    HW2 7107   0.324   2.267   3.980
 2070SOL     OW 7108   1.549   2.857   0.979
 2070SOL    HW1 7109   1.618   2.788   0.958
 2070SOL    HW2 7110   1.500   2.882   0.895
 2071SOL     OW 7111   5.999   1.699   6.283
 2071SOL    HW1 7112   5.947   1.666   6.204
 2071SOL    HW2 7113   6.055   1.777   6.256
 2072SOL     OW 7114   4.213   5.303   5.319
 2072SOL    HW1 7115   4.198   5.372   5.248
 2072SOL    HW2 7116   4.163   5.328   5.402
 2073SOL     OW 7117   3.593   6.228   5.853
 2073SOL    HW1 7118   3.555   6.239   5.945
 2073SOL    HW2 7119   3.657   6.150   5.853
 2074SOL     OW 7120   1.877   2.446   6.556
 2074SOL    HW1 7121   1.942   2.372   6.538
 2074SOL    HW2 7122   1.924   2.519   6.606
 2075SOL     OW 7123   6.544   2.035   3.180
 2075SOL    HW1 7124   6.494   2.050   3.265
 2075SOL    HW2 7125   6.638   2.009   3.201
 2076SOL     OW 7126   6.516   0.662   5.213
 2076SOL    HW1 7127   6.488   0.566   5.218
 2076SOL    HW2 7128   6.612   0.667   5.185
 2077SOL     OW 7129   6.305   2.189   1.596
 2077SOL    HW1 7130   6.351   2.277   1.609
 2077SOL    HW2 7131   6.246   2.170   1.675
 2078SOL     OW 7132   1.558   5.207   6.060
 2078SOL    HW1 7133   1.581   5.127   6.115
 2078SOL    HW2 7134   1.636   5.270   6.058
 2079SOL     OW 7135   5.686   1.073   2.136
 2079SOL    HW1 7136   5.742   1.059   2.217
 2079SOL    HW2 7137   5.703   0.998   2.071
 2080SOL     OW 7138   3.681   1.501   5.101
 2080SOL    HW1 7139   3.648   1.549   5.020
 2080SOL    HW2 7140   3.703   1.568   5.172
 2081SOL     OW 7141   0.969   6.503   3.990
 2081SOL    HW1 7142   1.065   6.529   3.982
 2081SOL    HW2 7143   0.961   6.403   3.985
 2082SOL     OW 7144   0.896   6.198   3.311
 2082SOL    HW1 7145   0.930   6.209   3.218
 2082SOL    HW2 7146   0.939   6.119   3.354
 2083SOL     OW 7147   0.762   5.806   3.949
 2083SOL    HW1 7148   0.722   5.878   4.005
 2083SOL    HW2 7149   0.861   5.803   3.963
 2084SOL     OW 7150   1.240   2.390   1.556
 2084SOL    HW1 7151   1.309   2.463   1.558
 2084SOL    HW2 7152   1.269   2.319   1.493
 2085SOL     OW 7153   5.005   6.402   0.839
 2085SOL    HW1 7154   5.005   6.308   0.872
 2085SOL    HW2 7155   5.099   6.433   0.824
 2086SOL     OW 7156   3.331   6.259   0.100
 2086SOL    HW1 7157   3.258   6.194   0.079
 2086SOL    HW2 7158   3.293   6.338   0.148
 2087SOL     OW 7159   4.158   2.182   0.253
 2087SOL    HW1 7160   4.094   2.257   0.235
 2087SOL    HW2 7161   4.120   2.121   0.322
 2088SOL     OW 7162   1.221   5.980   5.280
 2088SOL    HW1 7163   1.126   5.982   5.309
 2088SOL    HW2 7164   1.254   6.073   5.267
 2089SOL     OW 7165   3.875   2.417   5.330
 2089SOL    HW1 7166   3.960   2.446   5.285
 2089SOL    HW2 7167   3.819   2.497   5.350
 2090SOL     OW 7168   4.966   2.998   5.427
 2090SOL    HW1 7169   4.896   2.951   5.373
 2090SOL    HW2 7170   5.024   2.931   5.473
 2091SOL     OW 7171   6.862   6.226   1.238
 2091SOL    HW1 7172   6.953   6.198   1.207
 2091SOL    HW2 7173   6.870   6.301   1.303
 2092SOL     OW 7174   5.184   3.869   0.378
 2092SOL    HW1 7175   5.256   3.895   0.443
 2092SOL    HW2 7176   5.166   3.771   0.386
 2093SOL     OW 7177   3.649   2.003   2.175
 2093SOL    HW1 7178   3.663   2.078   2.110
 2093SOL    HW2 7179   3.553   1.977   2.175
 2094SOL     OW 7180   5.498   2.375   0.451
 2094SOL    HW1 7181   5.429   2.447   0.459
 2094SOL    HW2 7182   5.508   2.328   0.538
 2095SOL     OW 7183   5.901   6.237   3.127
 2095SOL    HW1 7184   5.877   6.143   3.100
 2095SOL    HW2 7185   5.972   6.234   3.197
 2096SOL     OW 7186   4.623   6.194   3.007
 2096SOL    HW1 7187   4.662   6.249   2.933
 2096SOL    HW2 7188   4.669   6.106   3.010
 2097SOL     OW 7189   3.082   3.980   6.237
 2097SOL    HW1 7190   2.988   3.961   6.266
 2097SOL    HW2 7191   3.083   3.998   6.138
 2098SOL     OW 7192   4.280   6.353   2.998
 2098SOL    HW1 7193   4.369   6.395   3.020
 2098SOL    HW2 7194   4.295   6.266   2.953
 2099SOL     OW 7195   4.559   2.016   0.328
 2099SOL    HW1 7196   4.530   2.108   0.303
 2099SOL    HW2 7197   4.647   2.020   0.376
 2100SOL     OW 7198   5.326   1.055   0.758
 2100SOL    HW1 7199   5.277   1.061   0.845
 2100SOL    HW2 7200   5.274   1.103   0.687
 2101SOL     OW 7201   0.089   6.285   0.865
 2101SOL    HW1 7202   0.068   6.265   0.769
 2101SOL    HW2 7203   0.048   6.373   0.890
 2102SOL     OW 7204   4.563   3.758   1.128
 2102SOL    HW1 7205   4.643   3.698   1.130
 2102SOL    HW2 7206   4.489   3.717   1.181
 2103SOL     OW 7207   3.028   3.779   0.445
 2103SOL    HW1 7208   2.963   3.750   0.516
 2103SOL    HW2 7209   3.023   3.717   0.367
 2104SOL     OW 7210   1.451   4.543   2.236
 2104SOL    HW1 7211   1.547   4.560   2.260
 2104SOL    HW2 7212   1.394   4.554   2.317
 2105SOL     OW 7213   4.404   4.617   6.991
 2105SOL    HW1 7214   4.441   4.673   6.917
 2105SOL    HW2 7215   4.436   4.523   6.981
 2106SOL     OW 7216   5.358   3.552   1.634
 2106SOL    HW1 7217   5.275   3.586   1.678
 2106SOL    HW2 7218   5.383   3.613   1.559
 2107SOL     OW 7219   5.906   3.309   5.441
 2107SOL    HW1 7220   5.854   3.224   5.442
 2107SOL    HW2 7221   5.928   3.336   5.534
 2108SOL     OW 7222   5.554   6.425   6.278
 2108SOL    HW1 7223   5.479   6.398   6.218
 2108SOL    HW2 7224   5.563   6.524   6.277
 2109SOL     OW 7225   3.050   5.346   2.271
 2109SOL    HW1 7226   3.092   5.432   2.299
 2109SOL    HW2 7227   2.990   5.313   2.344
 2110SOL     OW 7228   4.236   0.586   6.257
 2110SOL    HW1 7229   4.271   0.678   6.241
 2110SOL    HW2 7230   4.149   0.591   6.305
 2111SOL     OW 7231   1.068   2.417   5.495
 2111SOL    HW1 7232   0.985   2.400   5.548
 2111SOL    HW2 7233   1.053   2.494   5.434
 2112SOL     OW 7234   5.925   2.076   6.580
 2112SOL    HW1 7235   5.841   2.069   6.634
 2112SOL    HW2 7236   6.003   2.050   6.636
 2113SOL     OW 7237   2.039   6.908   4.523
 2113SOL    HW1 7238   2.136   6.915   4.544
 2113SOL    HW2 7239   1.987   6.904   4.608
 2114SOL     OW 7240   2.467   2.851   0.180
 2114SOL    HW1 7241   2.519   2.864   0.264
 2114SOL    HW2 7242   2.402   2.777   0.192
 2115SOL     OW 7243   1.117   4.677   2.135
 2115SOL    HW1 7244   1.098   4.579   2.128
 2115SOL    HW2 7245   1.098   4.707   2.228
 2116SOL     OW 7246   0.426   2.602   0.789
 2116SOL    HW1 7247   0.365   2.649   0.725
 2116SOL    HW2 7248   0.374   2.576   0.871
 2117SOL     OW 7249   5.114   3.076   1.327
 2117SOL    HW1 7250   5.038   3.141   1.323
 2117SOL    HW2 7251   5.174   3.091   1.249
 2118SOL     OW 7252   6.184   3.697   2.224
 2118SOL    HW1 7253   6.102   3.719   2.169
 2118SOL    HW2 7254   6.161   3.701   2.321
 2119SOL     OW 7255   1.482   1.092   6.735
 2119SOL    HW1 7256   1.420   1.150   6.787
 2119SOL    HW2 7257   1.545   1.046   6.798
 2120SOL     OW 7258   6.421   2.013   2.817
 2120SOL    HW1 7259   6.362   2.086   2.851
 2120SOL    HW2 7260   6.456   1.960   2.894
 2121SOL     OW 7261   2.522   1.609   5.967
 2121SOL    HW1 7262   2.464   1.529   5.980
 2121SOL    HW2 7263   2.470   1.692   5.988
 2122SOL     OW 7264   5.965   6.761   5.824
 2122SOL    HW1 7265   5.924   6.769   5.915
 2122SOL    HW2 7266   6.057   6.800   5.826
 2123SOL     OW 7267   6.948   6.619   2.336
 2123SOL    HW1 7268   6.902   6.645   2.251
 2123SOL    HW2 7269   6.885   6.631   2.412
 2124SOL     OW 7270   3.141   2.128   5.451
 2124SOL    HW1 7271   3.221   2.187   5.448
 2124SOL    HW2 7272   3.073   2.161   5.385
 2125SOL     OW 7273   1.781   6.154   3.074
 2125SOL    HW1 7274   1.791   6.055   3.080
 2125SOL    HW2 7275   1.871   6.196   3.064
 2126SOL     OW 7276   3.799   3.028   0.331
 2126SOL    HW1 7277   3.719   3.066   0.284
 2126SOL    HW2 7278   3.860   3.103   0.358
 2127SOL     OW 7279   6.755   2.365   5.463
 2127SOL    HW1 7280   6.699   2.435   5.508
 2127SOL    HW2 7281   6.840   2.352   5.515
 2128SOL     OW 7282   5.525   3.833   0.544
 2128SOL    HW1 7283   5.541   3.840   0.642
 2128SOL    HW2 7284   5.573   3.753   0.508
 2129SOL     OW 7285   5.135   4.064   3.764
 2129SOL    HW1 7286   5.157   4.007   3.685
 2129SOL    HW2 7287   5.081   4.143   3.735
 2130SOL     OW 7288   2.383   1.515   1.139
 2130SOL    HW1 7289   2.480   1.525   1.160
 2130SOL    HW2 7290   2.331   1.580   1.195
 2131SOL     OW 7291   5.546   2.125   0.028
 2131SOL    HW1 7292   5.448   2.144   0.031
 2131SOL    HW2 7293   5.586   2.141   0.118
 2132SOL     OW 7294   3.264   1.048   0.106
 2132SOL    HW1 7295   3.170   1.077   0.120
 2132SOL    HW2 7296   3.282   1.039   0.008
 2133SOL     OW 7297   2.681   2.451   1.513
 2133SOL    HW1 7298   2.758   2.452   1.448
 2133SOL    HW2 7299   2.617   2.523   1.490
 2134SOL     OW 7300   0.702   0.458   4.455
 2134SOL    HW1 7301   0.798   0.446   4.481
 2134SOL    HW2 7302   0.675   0.387   4.390
 2135SOL     OW 7303   0.753   2.177   3.985
 2135SOL    HW1 7304   0.831   2.127   4.021
 2135SOL    HW2 7305   0.678   2.176   4.052
 2136SOL     OW 7306   1.106   3.902   5.387
 2136SOL    HW1 7307   1.171   3.964   5.431
 2136SOL    HW2 7308   1.074   3.942   5.302
 2137SOL     OW 7309   0.818   6.871   5.100
 2137SOL    HW1 7310   0.916   6.874   5.121
 2137SOL    HW2 7311   0.766   6.880   5.185
 2138SOL     OW 7312   6.428   2.420   1.668
 2138SOL    HW1 7313   6.520   2.456   1.654
 2138SOL    HW2 7314   6.374   2.487   1.718
 2139SOL     OW 7315   3.114   0.670   3.997
 2139SOL    HW1 7316   3.030   0.685   4.049
 2139SOL    HW2 7317   3.144   0.756   3.956
 2140SOL     OW 7318   2.658   6.110   2.816
 2140SOL    HW1 7319   2.659   6.160   2.902
 2140SOL    HW2 7320   2.724   6.152   2.752
 2141SOL     OW 7321   6.648   2.617   1.579
 2141SOL    HW1 7322   6.677   2.690   1.641
 2141SOL    HW2 7323   6.728   2.569   1.544
 2142SOL     OW 7324   1.650   2.020   3.308
 2142SOL    HW1 7325   1.710   1.965   3.250
 2142SOL    HW2 7326   1.686   2.020   3.402
 2143SOL     OW 7327   3.727   6.136   1.295
 2143SOL    HW1 7328   3.764   6.087   1.215
 2143SOL    HW2 7329   3.787   6.213   1.317
 2144SOL     OW 7330   1.451   0.847   3.091
 2144SOL    HW1 7331   1.536   0.872   3.046
 2144SOL    HW2 7332   1.387   0.810   3.023
 2145SOL     OW 7333   3.240   5.624   3.519
 2145SOL    HW1 7334   3.168   5.567   3.480
 2145SOL    HW2 7335   3.232   5.626   3.619
 2146SOL     OW 7336   3.080   3.981   2.189
 2146SOL    HW1 7337   3.007   4.039   2.153
 2146SOL    HW2 7338   3.060   3.885   2.168
 2147SOL     OW 7339   0.006   1.478   0.068
 2147SOL    HW1 7340   6.960   1.541   0.104
 2147SOL    HW2 7341   0.033   1.413   0.139
 2148SOL     OW 7342   4.895   3.641   3.841
 2148SOL    HW1 7343   4.947   3.615   3.922
 2148SOL    HW2 7344   4.884   3.741   3.839
 2149SOL     OW 7345   3.638   0.256   1.808
 2149SOL    HW1 7346   3.649   0.301   1.896
 2149SOL    HW2 7347   3.570   0.304   1.753
 2150SOL     OW 7348   3.362   1.777   2.503
 2150SOL    HW1 7349   3.449   1.731   2.483
 2150SOL    HW2 7350   3.302   1.715   2.553
 2151SOL     OW 7351   3.785   2.643   5.546
 2151SOL    HW1 7352   3.695   2.655   5.505
 2151SOL    HW2 7353   3.855   2.674   5.482
 2152SOL     OW 7354   5.630   6.212   2.083
 2152SOL    HW1 7355   5.647   6.144   2.012
 2152SOL    HW2 7356   5.652   6.303   2.049
 2153SOL     OW 7357   4.626   1.220   3.997
 2153SOL    HW1 7358   4.669   1.311   3.999
 2153SOL    HW2 7359   4.540   1.224   4.047
 2154SOL     OW 7360   3.263   5.946   4.471
 2154SOL    HW1 7361   3.180   5.949   4.526
 2154SOL    HW2 7362   3.276   5.853   4.435
 2155SOL     OW 7363   1.611   5.114   0.107
 2155SOL    HW1 7364   1.586   5.194   0.052
 2155SOL    HW2 7365   1.621   5.034   0.048
 2156SOL     OW 7366   1.706   0.414   1.411
 2156SOL    HW1 7367   1.805   0.429   1.411
 2156SOL    HW2 7368   1.665   0.461   1.333
 2157SOL     OW 7369   6.598   1.242   4.718
 2157SOL    HW1 7370   6.606   1.342   4.724
 2157SOL    HW2 7371   6.503   1.215   4.734
 2158SOL     OW 7372   3.467   6.656   0.130
 2158SOL    HW1 7373   3.426   6.633   0.218
 2158SOL    HW2 7374   3.441   6.750   0.105
 2159SOL     OW 7375   1.650   6.833   5.141
 2159SOL    HW1 7376   1.666   6.889   5.222
 2159SOL    HW2 7377   1.724   6.766   5.132
 2160SOL     OW 7378   4.210   4.177   1.666
 2160SOL    HW1 7379   4.275   4.177   1.741
 2160SOL    HW2 7380   4.241   4.114   1.595
 2161SOL     OW 7381   4.922   3.474   3.298
 2161SOL    HW1 7382   4.915   3.383   3.257
 2161SOL    HW2 7383   4.923   3.466   3.397
 2162SOL     OW 7384   1.667   0.894   6.805
 2162SOL    HW1 7385   1.628   0.809   6.840
 2162SOL    HW2 7386   1.761   0.903   6.839
 2163SOL     OW 7387   1.332   6.853   6.430
 2163SOL    HW1 7388   1.338   6.753   6.428
 2163SOL    HW2 7389   1.248   6.882   6.384
 2164SOL     OW 7390   2.393   0.706   6.107
 2164SOL    HW1 7391   2.336   0.788   6.116
 2164SOL    HW2 7392   2.335   0.625   6.112
 2165SOL     OW 7393   1.727   0.667   2.580
 2165SOL    HW1 7394   1.634   0.680   2.545
 2165SOL    HW2 7395   1.723   0.648   2.678
 2166SOL     OW 7396   1.475   2.531   5.438
 2166SOL    HW1 7397   1.425   2.445   5.448
 2166SOL    HW2 7398   1.410   2.605   5.419
 2167SOL     OW 7399   2.841   0.546   2.187
 2167SOL    HW1 7400   2.836   0.498   2.275
 2167SOL    HW2 7401   2.937   0.550   2.157
 2168SOL     OW 7402   6.071   3.021   5.003
 2168SOL    HW1 7403   6.031   3.083   5.071
 2168SOL    HW2 7404   6.032   2.930   5.015
 2169SOL     OW 7405   5.667   2.564   6.267
 2169SOL    HW1 7406   5.613   2.614   6.200
 2169SOL    HW2 7407   5.609   2.540   6.345
 2170SOL     OW 7408   5.278   4.724   5.139
 2170SOL    HW1 7409   5.190   4.711   5.185
 2170SOL    HW2 7410   5.266   4.717   5.040
 2171SOL     OW 7411   6.746   2.854   6.905
 2171SOL    HW1 7412   6.788   2.804   6.981
 2171SOL    HW2 7413   6.652   2.821   6.891
 2172SOL     OW 7414   3.064   0.691   0.383
 2172SOL    HW1 7415   3.019   0.732   0.303
 2172SOL    HW2 7416   3.115   0.761   0.432
 2173SOL     OW 7417   3.914   0.475   5.850
 2173SOL    HW1 7418   3.987   0.531   5.812
 2173SOL    HW2 7419   3.912   0.387   5.803
 2174SOL     OW 7420   6.479   4.537   5.655
 2174SOL    HW1 7421   6.504   4.443   5.678
 2174SOL    HW2 7422   6.561   4.587   5.625
 2175SOL     OW 7423   2.779   0.506   3.619
 2175SOL    HW1 7424   2.808   0.581   3.559
 2175SOL    HW2 7425   2.772   0.540   3.713
 2176SOL     OW 7426   1.646   2.010   1.604
 2176SOL    HW1 7427   1.559   1.970   1.576
 2176SOL    HW2 7428   1.700   1.940   1.651
 2177SOL     OW 7429   6.384   1.436   2.173
 2177SOL    HW1 7430   6.366   1.535   2.172
 2177SOL    HW2 7431   6.483   1.421   2.175
 2178SOL     OW 7432   0.925   4.300   0.358
 2178SOL    HW1 7433   1.001   4.329   0.417
 2178SOL    HW2 7434   0.895   4.209   0.385
 2179SOL     OW 7435   1.726   5.913   3.905
 2179SOL    HW1 7436   1.675   5.884   3.824
 2179SOL    HW2 7437   1.797   5.846   3.926
 2180SOL     OW 7438   3.016   3.654   2.992
 2180SOL    HW1 7439   3.017   3.698   2.902
 2180SOL    HW2 7440   3.064   3.567   2.987
 2181SOL     OW 7441   4.597   4.748   5.947
 2181SOL    HW1 7442   4.622   4.698   5.864
 2181SOL    HW2 7443   4.593   4.846   5.927
 2182SOL     OW 7444   0.065   3.647   6.405
 2182SOL    HW1 7445   0.095   3.665   6.312
 2182SOL    HW2 7446   0.125   3.578   6.447
 2183SOL     OW 7447   2.768   3.006   0.725
 2183SOL    HW1 7448   2.840   2.936   0.731
 2183SOL    HW2 7449   2.775   3.053   0.638
 2184SOL     OW 7450   3.918   0.798   6.474
 2184SOL    HW1 7451   3.827   0.825   6.442
 2184SOL    HW2 7452   3.937   0.843   6.561
 2185SOL     OW 7453   1.506   1.498   0.536
 2185SOL    HW1 7454   1.443   1.528   0.609
 2185SOL    HW2 7455   1.599   1.525   0.560
 2186SOL     OW 7456   0.057   4.773   2.330
 2186SOL    HW1 7457   0.004   4.706   2.278
 2186SOL    HW2 7458   0.117   4.726   2.395
 2187SOL     OW 7459   0.028   1.202   1.443
 2187SOL    HW1 7460   0.077   1.185   1.528
 2187SOL    HW2 7461   0.051   1.131   1.376
 2188SOL     OW 7462   4.824   6.014   3.787
 2188SOL    HW1 7463   4.778   6.009   3.698
 2188SOL    HW2 7464   4.922   5.997   3.775
 2189SOL     OW 7465   1.866   6.956   5.984
 2189SOL    HW1 7466   1.964   6.939   5.981
 2189SOL    HW2 7467   1.818   6.869   5.998
 2190SOL     OW 7468   6.291   2.627   1.778
 2190SOL    HW1 7469   6.292   2.677   1.691
 2190SOL    HW2 7470   6.243   2.681   1.847
 2191SOL     OW 7471   3.502   2.579   6.683
 2191SOL    HW1 7472   3.484   2.625   6.770
 2191SOL    HW2 7473   3.471   2.484   6.690
 2192SOL     OW 7474   4.276   6.205   5.272
 2192SOL    HW1 7475   4.322   6.240   5.191
 2192SOL    HW2 7476   4.269   6.278   5.340
 2193SOL     OW 7477   0.100   5.385   5.729
 2193SOL    HW1 7478   0.164   5.371   5.654
 2193SOL    HW2 7479   0.093   5.301   5.783
 2194SOL     OW 7480   1.866   5.681   0.241
 2194SOL    HW1 7481   1.895   5.645   0.330
 2194SOL    HW2 7482   1.904   5.773   0.228
 2195SOL     OW 7483   0.646   6.399   1.797
 2195SOL    HW1 7484   0.737   6.428   1.824
 2195SOL    HW2 7485   0.578   6.459   1.838
 2196SOL     OW 7486   3.182   0.634   5.248
 2196SOL    HW1 7487   3.097   0.593   5.216
 2196SOL    HW2 7488   3.212   0.704   5.183
 2197SOL     OW 7489   4.686   4.410   1.769
 2197SOL    HW1 7490   4.662   4.503   1.797
 2197SOL    HW2 7491   4.622   4.345   1.810
 2198SOL     OW 7492   6.438   3.412   6.890
 2198SOL    HW1 7493   6.525   3.386   6.849
 2198SOL    HW2 7494   6.366   3.407   6.822
 2199SOL     OW 7495   4.711   6.731   0.688
 2199SOL    HW1 7496   4.734   6.785   0.769
 2199SOL    HW2 7497   4.781   6.746   0.617
 2200SOL     OW 7498   4.146   0.805   4.630
 2200SOL    HW1 7499   4.176   0.835   4.720
 2200SOL    HW2 7500   4.115   0.710   4.635
 2201SOL     OW 7501   5.916   3.626   1.868
 2201SOL    HW1 7502   5.819   3.602   1.872
 2201SOL    HW2 7503   5.966   3.555   1.817
 2202SOL     OW 7504   3.726   4.936   4.721
 2202SOL    HW1 7505   3.819   4.938   4.683
 2202SOL    HW2 7506   3.666   4.885   4.660
 2203SOL     OW 7507   3.504   2.103   3.130
 2203SOL    HW1 7508   3.525   2.079   3.036
 2203SOL    HW2 7509   3.582   2.081   3.189
 2204SOL     OW 7510   3.619   1.233   6.984
 2204SOL    HW1 7511   3.535   1.242   6.930
 2204SOL    HW2 7512   3.634   1.317   0.014
 2205SOL     OW 7513   1.051   0.138   6.837
 2205SOL    HW1 7514   1.079   0.141   6.741
 2205SOL    HW2 7515   1.015   0.227   6.864
 2206SOL     OW 7516   2.784   3.743   6.315
 2206SOL    HW1 7517   2.706   3.805   6.305
 2206SOL    HW2 7518   2.824   3.724   6.225
 2207SOL     OW 7519   1.052   4.058   6.476
 2207SOL    HW1 7520   1.055   4.107   6.563
 2207SOL    HW2 7521   1.033   3.961   6.493
 2208SOL     OW 7522   0.488   3.573   1.818
 2208SOL    HW1 7523   0.516   3.522   1.900
 2208SOL    HW2 7524   0.494   3.513   1.738
 2209SOL     OW 7525   1.704   6.040   6.549
 2209SOL    HW1 7526   1.719   6.135   6.520
 2209SOL    HW2 7527   1.616   6.008   6.514
 2210SOL     OW 7528   0.633   4.857   3.255
 2210SOL    HW1 7529   0.699   4.897   3.191
 2210SOL    HW2 7530   0.660   4.879   3.349
 2211SOL     OW 7531   6.016   1.522   5.392
 2211SOL    HW1 7532   5.979   1.430   5.381
 2211SOL    HW2 7533   5.996   1.576   5.310
 2212SOL     OW 7534   0.319   6.767   5.969
 2212SOL    HW1 7535   0.286   6.847   5.918
 2212SOL    HW2 7536   0.242   6.709   5.993
 2213SOL     OW 7537   4.086   2.153   4.303
 2213SOL    HW1 7538   4.183   2.135   4.282
 2213SOL    HW2 7539   4.066   2.122   4.395
 2214SOL     OW 7540   5.342   0.324   5.147
 2214SOL    HW1 7541   5.373   0.381   5.070
 2214SOL    HW2 7542   5.242   0.333   5.156
 2215SOL     OW 7543   6.540   1.651   5.641
 2215SOL    HW1 7544   6.550   1.578   5.708
 2215SOL    HW2 7545   6.541   1.740   5.688
 2216SOL     OW 7546   1.308   6.706   1.380
 2216SOL    HW1 7547   1.389   6.765   1.382
 2216SOL    HW2 7548   1.277   6.695   1.286
 2217SOL     OW 7549   4.090   0.019   0.660
 2217SOL    HW1 7550   4.066   0.100   0.714
 2217SOL    HW2 7551   4.187   7.022   0.670
 2218SOL     OW 7552   1.123   6.327   6.272
 2218SOL    HW1 7553   1.183   6.388   6.221
 2218SOL    HW2 7554   1.117   6.356   6.367
 2219SOL     OW 7555   1.654   4.000   3.184
 2219SOL    HW1 7556   1.747   3.989   3.220
 2219SOL    HW2 7557   1.596   3.926   3.219
 2220SOL     OW 7558   0.605   2.270   4.604
 2220SOL    HW1 7559   0.616   2.174   4.630
 2220SOL    HW2 7560   0.652   2.328   4.670
 2221SOL     OW 7561   6.513   2.055   1.352
 2221SOL    HW1 7562   6.560   1.985   1.298
 2221SOL    HW2 7563   6.421   2.069   1.314
 2222SOL     OW 7564   4.291   0.210   1.721
 2222SOL    HW1 7565   4.365   0.253   1.773
 2222SOL    HW2 7566   4.229   0.281   1.686
 2223SOL     OW 7567   6.485   5.180   3.305
 2223SOL    HW1 7568   6.545   5.101   3.291
 2223SOL    HW2 7569   6.410   5.177   3.238
 2224SOL     OW 7570   1.844   4.805   1.638
 2224SOL    HW1 7571   1.862   4.716   1.681
 2224SOL    HW2 7572   1.819   4.791   1.542
 2225SOL     OW 7573   6.093   4.922   2.595
 2225SOL    HW1 7574   6.029   4.852   2.562
 2225SOL    HW2 7575   6.041   5.004   2.622
 2226SOL     OW 7576   3.818   2.873   1.236
 2226SOL    HW1 7577   3.758   2.793   1.242
 2226SOL    HW2 7578   3.821   2.919   1.324
 2227SOL     OW 7579   6.769   4.134   5.986
 2227SOL    HW1 7580   6.720   4.130   6.072
 2227SOL    HW2 7581   6.855   4.083   5.994
 2228SOL     OW 7582   3.181   4.719   0.455
 2228SOL    HW1 7583   3.199   4.621   0.465
 2228SOL    HW2 7584   3.209   4.749   0.363
 2229SOL     OW 7585   4.767   1.306   4.356
 2229SOL    HW1 7586   4.793   1.397   4.323
 2229SOL    HW2 7587   4.714   1.315   4.441
 2230SOL     OW 7588   1.350   5.305   4.029
 2230SOL    HW1 7589   1.443   5.316   4.063
 2230SOL    HW2 7590   1.301   5.239   4.086
 2231SOL     OW 7591   1.822   1.196   2.276
 2231SOL    HW1 7592   1.807   1.144   2.192
 2231SOL    HW2 7593   1.891   1.266   2.260
 2232SOL     OW 7594   0.350   3.317   2.750
 2232SOL    HW1 7595   0.439   3.356   2.771
 2232SOL    HW2 7596   0.338   3.311   2.651
 2233SOL     OW 7597   3.384   5.208   0.473
 2233SOL    HW1 7598   3.289   5.200   0.445
 2233SOL    HW2 7599   3.410   5.305   0.476
 2234SOL     OW 7600   3.861   1.860   1.047
 2234SOL    HW1 7601   3.916   1.869   1.131
 2234SOL    HW2 7602   3.922   1.856   0.968
 2235SOL     OW 7603   1.110   0.169   6.578
 2235SOL    HW1 7604   1.121   0.260   6.539
 2235SOL    HW2 7605   1.199   0.131   6.602
 2236SOL     OW 7606   0.286   4.351   0.844
 2236SOL    HW1 7607   0.312   4.268   0.796
 2236SOL    HW2 7608   0.186   4.356   0.848
 2237SOL     OW 7609   6.571   3.484   4.663
 2237SOL    HW1 7610   6.510   3.533   4.724
 2237SOL    HW2 7611   6.522   3.458   4.580
 2238SOL     OW 7612   0.144   5.342   1.985
 2238SOL    HW1 7613   0.206   5.416   2.010
 2238SOL    HW2 7614   0.197   5.261   1.960
 2239SOL     OW 7615   4.346   4.583   3.555
 2239SOL    HW1 7616   4.273   4.519   3.529
 2239SOL    HW2 7617   4.307   4.674   3.569
 2240SOL     OW 7618   6.659   5.415   3.730
 2240SOL    HW1 7619   6.649   5.379   3.637
 2240SOL    HW2 7620   6.610   5.501   3.738
 2241SOL     OW 7621   0.112   6.243   2.052
 2241SOL    HW1 7622   0.162   6.275   1.972
 2241SOL    HW2 7623   0.118   6.311   2.125
 2242SOL     OW 7624   5.087   2.012   3.258
 2242SOL    HW1 7625   4.992   2.018   3.290
 2242SOL    HW2 7626   5.100   1.926   3.209
 2243SOL     OW 7627   2.509   6.245   4.233
 2243SOL    HW1 7628   2.588   6.284   4.281
 2243SOL    HW2 7629   2.466   6.175   4.291
 2244SOL     OW 7630   3.769   0.786   4.128
 2244SOL    HW1 7631   3.804   0.828   4.211
 2244SOL    HW2 7632   3.834   0.800   4.053
 2245SOL     OW 7633   0.057   2.368   2.333
 2245SOL    HW1 7634   0.069   2.326   2.423
 2245SOL    HW2 7635   0.035   2.296   2.266
 2246SOL     OW 7636   1.384   3.328   5.527
 2246SOL    HW1 7637   1.373   3.339   5.626
 2246SOL    HW2 7638   1.446   3.398   5.492
 2247SOL     OW 7639   2.272   2.205   5.315
 2247SOL    HW1 7640   2.235   2.251   5.234
 2247SOL    HW2 7641   2.318   2.121   5.288
 2248SOL     OW 7642   4.870   4.417   5.192
 2248SOL    HW1 7643   4.934   4.344   5.166
 2248SOL    HW2 7644   4.777   4.388   5.171
 2249SOL     OW 7645   5.228   5.786   2.916
 2249SOL    HW1 7646   5.291   5.846   2.868
 2249SOL    HW2 7647   5.241   5.796   3.015
 2250SOL     OW 7648   5.506   3.751   1.076
 2250SOL    HW1 7649   5.499   3.826   1.010
 2250SOL    HW2 7650   5.564   3.679   1.039
 2251SOL     OW 7651   6.108   1.716   0.041
 2251SOL    HW1 7652   6.094   1.621   0.068
 2251SOL    HW2 7653   6.037   1.743   6.999
 2252SOL     OW 7654   5.341   2.847   5.424
 2252SOL    HW1 7655   5.392   2.933   5.422
 2252SOL    HW2 7656   5.269   2.853   5.492
 2253SOL     OW 7657   2.483   2.871   6.933
 2253SOL    HW1 7658   2.504   2.838   0.002
 2253SOL    HW2 7659   2.467   2.969   6.935
 2254SOL     OW 7660   1.857   3.415   6.158
 2254SOL    HW1 7661   1.784   3.347   6.167
 2254SOL    HW2 7662   1.905   3.424   6.245
 2255SOL     OW 7663   6.174   2.767   1.985
 2255SOL    HW1 7664   6.113   2.802   1.914
 2255SOL    HW2 7665   6.163   2.822   2.069
 2256SOL     OW 7666   3.655   4.864   2.547
 2256SOL    HW1 7667   3.749   4.856   2.515
 2256SOL    HW2 7668   3.649   4.936   2.617
 2257SOL     OW 7669   1.424   3.560   4.393
 2257SOL    HW1 7670   1.346   3.623   4.395
 2257SOL    HW2 7671   1.393   3.469   4.420
 2258SOL     OW 7672   1.830   4.810   5.198
 2258SOL    HW1 7673   1.805   4.756   5.279
 2258SOL    HW2 7674   1.760   4.880   5.182
 2259SOL     OW 7675   5.672   4.042   6.399
 2259SOL    HW1 7676   5.723   3.979   6.457
 2259SOL    HW2 7677   5.674   4.133   6.440
 2260SOL     OW 7678   4.279   5.151   2.630
 2260SOL    HW1 7679   4.289   5.060   2.590
 2260SOL    HW2 7680   4.193   5.191   2.599
 2261SOL     OW 7681   5.262   6.479   0.717
 2261SOL    HW1 7682   5.356   6.490   0.750
 2261SOL    HW2 7683   5.221   6.569   0.703
 2262SOL     OW 7684   5.577   1.989   4.507
 2262SOL    HW1 7685   5.614   2.062   4.564
 2262SOL    HW2 7686   5.577   2.019   4.411
 2263SOL     OW 7687   1.888   5.429   5.538
 2263SOL    HW1 7688   1.790   5.452   5.539
 2263SOL    HW2 7689   1.903   5.346   5.591
 2264SOL     OW 7690   2.990   3.119   2.778
 2264SOL    HW1 7691   2.917   3.133   2.845
 2264SOL    HW2 7692   2.993   3.023   2.751
 2265SOL     OW 7693   6.954   1.040   2.677
 2265SOL    HW1 7694   6.969   1.122   2.732
 2265SOL    HW2 7695   0.006   1.030   2.611
 2266SOL     OW 7696   6.591   0.775   1.001
 2266SOL    HW1 7697   6.545   0.687   1.011
 2266SOL    HW2 7698   6.629   0.782   0.909
 2267SOL     OW 7699   5.864   2.365   4.723
 2267SOL    HW1 7700   5.922   2.287   4.747
 2267SOL    HW2 7701   5.808   2.390   4.802
 2268SOL     OW 7702   6.738   6.384   0.667
 2268SOL    HW1 7703   6.740   6.292   0.707
 2268SOL    HW2 7704   6.681   6.443   0.724
 2269SOL     OW 7705   6.383   6.183   5.825
 2269SOL    HW1 7706   6.449   6.109   5.841
 2269SOL    HW2 7707   6.319   6.188   5.901
 2270SOL     OW 7708   3.154   3.218   1.866
 2270SOL    HW1 7709   3.184   3.124   1.850
 2270SOL    HW2 7710   3.056   3.219   1.888
 2271SOL     OW 7711   5.707   4.215   1.568
 2271SOL    HW1 7712   5.630   4.222   1.504
 2271SOL    HW2 7713   5.789   4.189   1.517
 2272SOL     OW 7714   4.881   2.320   5.473
 2272SOL    HW1 7715   4.863   2.230   5.513
 2272SOL    HW2 7716   4.890   2.311   5.374
 2273SOL     OW 7717   0.382   0.111   3.299
 2273SOL    HW1 7718   0.371   0.014   3.275
 2273SOL    HW2 7719   0.446   0.154   3.235
 2274SOL     OW 7720   1.494   3.427   5.171
 2274SOL    HW1 7721   1.499   3.402   5.074
 2274SOL    HW2 7722   1.411   3.481   5.188
 2275SOL     OW 7723   5.146   5.952   4.658
 2275SOL    HW1 7724   5.056   5.951   4.614
 2275SOL    HW2 7725   5.195   5.868   4.637
 2276SOL     OW 7726   4.188   4.148   0.939
 2276SOL    HW1 7727   4.233   4.210   0.876
 2276SOL    HW2 7728   4.097   4.183   0.961
 2277SOL     OW 7729   2.920   3.366   5.938
 2277SOL    HW1 7730   3.006   3.410   5.914
 2277SOL    HW2 7731   2.937   3.297   6.009
 2278SOL     OW 7732   5.440   6.031   2.353
 2278SOL    HW1 7733   5.457   6.126   2.329
 2278SOL    HW2 7734   5.466   5.972   2.277
 2279SOL     OW 7735   5.395   3.300   4.397
 2279SOL    HW1 7736   5.414   3.265   4.305
 2279SOL    HW2 7737   5.354   3.391   4.390
 2280SOL     OW 7738   6.853   6.287   5.312
 2280SOL    HW1 7739   6.847   6.266   5.215
 2280SOL    HW2 7740   6.761   6.290   5.352
 2281SOL     OW 7741   3.812   1.988   1.792
 2281SOL    HW1 7742   3.911   1.993   1.801
 2281SOL    HW2 7743   3.773   2.080   1.798
 2282SOL     OW 7744   4.918   5.407   4.521
 2282SOL    HW1 7745   4.941   5.467   4.598
 2282SOL    HW2 7746   4.962   5.318   4.533
 2283SOL     OW 7747   6.552   3.988   3.303
 2283SOL    HW1 7748   6.508   3.951   3.385
 2283SOL    HW2 7749   6.499   3.961   3.222
 2284SOL     OW 7750   2.466   2.638   1.872
 2284SOL    HW1 7751   2.543   2.618   1.811
 2284SOL    HW2 7752   2.434   2.553   1.914
 2285SOL     OW 7753   1.684   3.701   0.315
 2285SOL    HW1 7754   1.725   3.790   0.295
 2285SOL    HW2 7755   1.612   3.712   0.383
 2286SOL     OW 7756   6.795   5.808   4.889
 2286SOL    HW1 7757   6.837   5.732   4.939
 2286SOL    HW2 7758   6.720   5.773   4.833
 2287SOL     OW 7759   2.138   2.512   1.023
 2287SOL    HW1 7760   2.117   2.503   1.120
 2287SOL    HW2 7761   2.237   2.525   1.011
 2288SOL     OW 7762   0.507   6.466   3.797
 2288SOL    HW1 7763   0.590   6.521   3.789
 2288SOL    HW2 7764   0.435   6.521   3.840
 2289SOL     OW 7765   5.051   1.611   2.304
 2289SOL    HW1 7766   4.993   1.578   2.377
 2289SOL    HW2 7767   5.146   1.615   2.335
 2290SOL     OW 7768   2.981   3.754   3.523
 2290SOL    HW1 7769   2.976   3.657   3.546
 2290SOL    HW2 7770   2.978   3.766   3.424
 2291SOL     OW 7771   1.899   1.579   1.174
 2291SOL    HW1 7772   1.976   1.637   1.198
 2291SOL    HW2 7773   1.924   1.483   1.187
 2292SOL     OW 7774   4.747   2.370   4.087
 2292SOL    HW1 7775   4.802   2.395   4.007
 2292SOL    HW2 7776   4.804   2.374   4.169
 2293SOL     OW 7777   5.659   1.377   1.113
 2293SOL    HW1 7778   5.668   1.293   1.059
 2293SOL    HW2 7779   5.574   1.373   1.166
 2294SOL     OW 7780   2.044   2.509   5.509
 2294SOL    HW1 7781   2.076   2.598   5.541
 2294SOL    HW2 7782   1.950   2.517   5.476
 2295SOL     OW 7783   6.367   0.397   1.536
 2295SOL    HW1 7784   6.332   0.488   1.560
 2295SOL    HW2 7785   6.363   0.385   1.437
 2296SOL     OW 7786   2.305   5.185   3.721
 2296SOL    HW1 7787   2.293   5.146   3.813
 2296SOL    HW2 7788   2.297   5.112   3.653
 2297SOL     OW 7789   5.385   4.859   5.370
 2297SOL    HW1 7790   5.353   4.878   5.463
 2297SOL    HW2 7791   5.309   4.826   5.315
 2298SOL     OW 7792   3.909   3.164   4.686
 2298SOL    HW1 7793   3.839   3.096   4.707
 2298SOL    HW2 7794   3.961   3.185   4.769
 2299SOL     OW 7795   5.474   3.324   4.941
 2299SOL    HW1 7796   5.433   3.234   4.929
 2299SOL    HW2 7797   5.414   3.380   4.999
 2300SOL     OW 7798   3.759   6.893   3.401
 2300SOL    HW1 7799   3.797   6.904   3.493
 2300SOL    HW2 7800   3.778   6.801   3.368
 2301SOL     OW 7801   3.379   3.189   4.136
 2301SOL    HW1 7802   3.285   3.169   4.110
 2301SOL    HW2 7803   3.439   3.172   4.058
 2302SOL     OW 7804   4.036   1.372   0.687
 2302SOL    HW1 7805   4.086   1.403   0.607
 2302SOL    HW2 7806   4.084   1.294   0.728
 2303SOL     OW 7807   2.458   2.807   1.006
 2303SOL    HW1 7808   2.553   2.838   0.996
 2303SOL    HW2 7809   2.440   2.735   0.939
 2304SOL     OW 7810   6.274   5.989   3.184
 2304SOL    HW1 7811   6.254   5.991   3.086
 2304SOL    HW2 7812   6.322   5.904   3.207
 2305SOL     OW 7813   1.301   1.218   4.178
 2305SOL    HW1 7814   1.212   1.174   4.190
 2305SOL    HW2 7815   1.288   1.311   4.144
 2306SOL     OW 7816   1.951   4.747   3.758
 2306SOL    HW1 7817   1.980   4.695   3.677
 2306SOL    HW2 7818   1.874   4.701   3.801
 2307SOL     OW 7819   1.059   3.058   5.530
 2307SOL    HW1 7820   1.032   3.114   5.609
 2307SOL    HW2 7821   1.127   3.106   5.476
 2308SOL     OW 7822   2.157   4.657   1.245
 2308SOL    HW1 7823   2.239   4.621   1.201
 2308SOL    HW2 7824   2.137   4.604   1.327
 2309SOL     OW 7825   1.381   0.222   4.090
 2309SOL    HW1 7826   1.447   0.150   4.070
 2309SOL    HW2 7827   1.348   0.262   4.004
 2310SOL     OW 7828   4.650   6.753   1.911
 2310SOL    HW1 7829   4.644   6.834   1.853
 2310SOL    HW2 7830   4.570   6.695   1.895
 2311SOL     OW 7831   2.634   6.013   0.396
 2311SOL    HW1 7832   2.613   6.024   0.299
 2311SOL    HW2 7833   2.587   6.085   0.448
 2312SOL     OW 7834   3.658   5.862   2.582
 2312SOL    HW1 7835   3.665   5.850   2.483
 2312SOL    HW2 7836   3.574   5.819   2.614
 2313SOL     OW 7837   5.123   5.150   2.936
 2313SOL    HW1 7838   5.064   5.070   2.926
 2313SOL    HW2 7839   5.179   5.161   2.854
 2314SOL     OW 7840   2.819   5.617   3.244
 2314SOL    HW1 7841   2.726   5.653   3.238
 2314SOL    HW2 7842   2.882   5.692   3.267
 2315SOL     OW 7843   4.745   3.119   6.273
 2315SOL    HW1 7844   4.695   3.123   6.187
 2315SOL    HW2 7845   4.728   3.031   6.317
 2316SOL     OW 7846   5.600   2.698   3.078
 2316SOL    HW1 7847   5.578   2.794   3.097
 2316SOL    HW2 7848   5.611   2.685   2.980
 2317SOL     OW 7849   1.220   4.571   2.440
 2317SOL    HW1 7850   1.131   4.614   2.424
 2317SOL    HW2 7851   1.226   4.541   2.535
 2318SOL     OW 7852   0.243   1.649   3.012
 2318SOL    HW1 7853   0.317   1.692   2.960
 2318SOL    HW2 7854   0.275   1.562   3.049
 2319SOL     OW 7855   2.026   4.098   4.265
 2319SOL    HW1 7856   2.092   4.035   4.225
 2319SOL    HW2 7857   2.065   4.190   4.267
 2320SOL     OW 7858   0.160   2.534   4.107
 2320SOL    HW1 7859   0.206   2.449   4.081
 2320SOL    HW2 7860   0.197   2.609   4.053
 2321SOL     OW 7861   2.761   6.865   4.921
 2321SOL    HW1 7862   2.730   6.911   4.838
 2321SOL    HW2 7863   2.755   6.766   4.908
 2322SOL     OW 7864   1.407   1.215   5.590
 2322SOL    HW1 7865   1.500   1.182   5.571
 2322SOL    HW2 7866   1.345   1.185   5.518
 2323SOL     OW 7867   4.412   5.601   3.128
 2323SOL    HW1 7868   4.405   5.635   3.222
 2323SOL    HW2 7869   4.379   5.507   3.125
 2324SOL     OW 7870   1.039   6.142   3.062
 2324SOL    HW1 7871   1.075   6.235   3.054
 2324SOL    HW2 7872   0.980   6.122   2.984
 2325SOL     OW 7873   1.071   3.950   1.009
 2325SOL    HW1 7874   0.997   3.934   1.074
 2325SOL    HW2 7875   1.056   3.893   0.928
 2326SOL     OW 7876   1.879   5.158   6.871
 2326SOL    HW1 7877   1.869   5.059   6.874
 2326SOL    HW2 7878   1.861   5.191   6.778
 2327SOL     OW 7879   5.280   2.626   4.277
 2327SOL    HW1 7880   5.221   2.673   4.344
 2327SOL    HW2 7881   5.323   2.694   4.218
 2328SOL     OW 7882   4.661   1.305   3.207
 2328SOL    HW1 7883   4.696   1.211   3.216
 2328SOL    HW2 7884   4.737   1.369   3.214
 2329SOL     OW 7885   0.878   5.642   4.196
 2329SOL    HW1 7886   0.953   5.608   4.253
 2329SOL    HW2 7887   0.905   5.730   4.156
 2330SOL     OW 7888   0.874   4.490   2.005
 2330SOL    HW1 7889   0.830   4.559   2.063
 2330SOL    HW2 7890   0.956   4.456   2.050
 2331SOL     OW 7891   0.386   3.923   5.340
 2331SOL    HW1 7892   0.404   3.875   5.255
 2331SOL    HW2 7893   0.465   3.914   5.401
 2332SOL     OW 7894   5.301   2.845   6.090
 2332SOL    HW1 7895   5.226   2.864   6.155
 2332SOL    HW2 7896   5.371   2.916   6.099
 2333SOL     OW 7897   1.270   5.266   3.443
 2333SOL    HW1 7898   1.280   5.186   3.502
 2333SOL    HW2 7899   1.193   5.251   3.381
 2334SOL     OW 7900   3.365   6.875   0.011
 2334SOL    HW1 7901   3.324   6.848   6.946
 2334SOL    HW2 7902   3.343   6.971   0.030
 2335SOL     OW 7903   5.104   6.930   3.299
 2335SOL    HW1 7904   5.044   7.003   3.267
 2335SOL    HW2 7905   5.180   6.918   3.235
 2336SOL     OW 7906   4.632   1.203   6.067
 2336SOL    HW1 7907   4.615   1.110   6.099
 2336SOL    HW2 7908   4.644   1.264   6.146
 2337SOL     OW 7909   5.528   0.313   3.332
 2337SOL    HW1 7910   5.438   0.298   3.292
 2337SOL    HW2 7911   5.523   0.307   3.431
 2338SOL     OW 7912   7.005   6.922   6.597
 2338SOL    HW1 7913   0.023   6.987   6.661
 2338SOL    HW2 7914   6.926   6.878   6.640
 2339SOL     OW 7915   3.652   4.623   6.888
 2339SOL    HW1 7916   3.665   4.524   6.896
 2339SOL    HW2 7917   3.659   4.665   6.979
 2340SOL     OW 7918   3.671   5.788   4.822
 2340SOL    HW1 7919   3.591   5.741   4.786
 2340SOL    HW2 7920   3.677   5.880   4.783
 2341SOL     OW 7921   5.721   5.219   0.789
 2341SOL    HW1 7922   5.740   5.272   0.871
 2341SOL    HW2 7923   5.623   5.224   0.767
 2342SOL     OW 7924   6.699   0.395   5.116
 2342SOL    HW1 7925   6.768   0.324   5.131
 2342SOL    HW2 7926   6.623   0.381   5.180
 2343SOL     OW 7927   1.078   5.810   0.687
 2343SOL    HW1 7928   1.019   5.808   0.768
 2343SOL    HW2 7929   1.085   5.904   0.653
 2344SOL     OW 7930   2.182   1.691   2.602
 2344SOL    HW1 7931   2.169   1.617   2.667
 2344SOL    HW2 7932   2.274   1.686   2.564
 2345SOL     OW 7933   1.623   0.993   4.703
 2345SOL    HW1 7934   1.615   0.904   4.659
 2345SOL    HW2 7935   1.696   1.046   4.658
 2346SOL     OW 7936   4.738   3.532   5.594
 2346SOL    HW1 7937   4.683   3.491   5.521
 2346SOL    HW2 7938   4.823   3.480   5.605
 2347SOL     OW 7939   1.650   3.311   1.931
 2347SOL    HW1 7940   1.589   3.380   1.892
 2347SOL    HW2 7941   1.716   3.282   1.862
 2348SOL     OW 7942   2.848   6.305   3.420
 2348SOL    HW1 7943   2.883   6.324   3.511
 2348SOL    HW2 7944   2.903   6.233   3.377
 2349SOL     OW 7945   0.062   6.862   5.829
 2349SOL    HW1 7946   0.050   6.763   5.822
 2349SOL    HW2 7947   7.009   6.901   5.882
 2350SOL     OW 7948   2.769   0.199   5.363
 2350SOL    HW1 7949   2.789   0.119   5.306
 2350SOL    HW2 7950   2.684   0.183   5.414
 2351SOL     OW 7951   2.550   4.904   3.694
 2351SOL    HW1 7952   2.602   4.819   3.706
 2351SOL    HW2 7953   2.608   4.972   3.648
 2352SOL     OW 7954   0.002   4.437   2.976
 2352SOL    HW1 7955   6.981   4.346   2.974
 2352SOL    HW2 7956   0.024   4.461   3.070
 2353SOL     OW 7957   2.758   4.237   6.002
 2353SOL    HW1 7958   2.831   4.248   6.070
 2353SOL    HW2 7959   2.763   4.145   5.964
 2354SOL     OW 7960   3.656   2.314   0.744
 2354SOL    HW1 7961   3.601   2.252   0.800
 2354SOL    HW2 7962   3.613   2.404   0.742
 2355SOL     OW 7963   0.409   6.497   0.368
 2355SOL    HW1 7964   0.354   6.562   0.316
 2355SOL    HW2 7965   0.436   6.421   0.309
 2356SOL     OW 7966   2.045   4.967   2.762
 2356SOL    HW1 7967   2.025   4.957   2.665
 2356SOL    HW2 7968   2.141   4.992   2.773
 2357SOL     OW 7969   5.414   4.245   2.546
 2357SOL    HW1 7970   5.335   4.184   2.547
 2357SOL    HW2 7971   5.382   4.340   2.537
 2358SOL     OW 7972   3.732   0.374   5.125
 2358SOL    HW1 7973   3.760   0.288   5.081
 2358SOL    HW2 7974   3.769   0.451   5.072
 2359SOL     OW 7975   2.779   1.500   5.497
 2359SOL    HW1 7976   2.739   1.541   5.579
 2359SOL    HW2 7977   2.709   1.491   5.427
 2360SOL     OW 7978   3.904   5.031   0.892
 2360SOL    HW1 7979   3.903   4.950   0.950
 2360SOL    HW2 7980   3.998   5.054   0.867
 2361SOL     OW 7981   3.372   6.710   2.864
 2361SOL    HW1 7982   3.438   6.688   2.792
 2361SOL    HW2 7983   3.279   6.696   2.829
 2362SOL     OW 7984   4.892   5.968   4.533
 2362SOL    HW1 7985   4.818   5.928   4.588
 2362SOL    HW2 7986   4.870   5.956   4.436
 2363SOL     OW 7987   3.224   3.279   6.967
 2363SOL    HW1 7988   3.137   3.271   6.917
 2363SOL    HW2 7989   3.219   3.223   0.028
 2364SOL     OW 7990   4.694   1.491   1.940
 2364SOL    HW1 7991   4.604   1.519   1.906
 2364SOL    HW2 7992   4.717   1.401   1.904
 2365SOL     OW 7993   5.132   3.446   4.441
 2365SOL    HW1 7994   5.175   3.448   4.531
 2365SOL    HW2 7995   5.034   3.427   4.451
 2366SOL     OW 7996   1.917   3.965   5.843
 2366SOL    HW1 7997   1.995   3.903   5.843
 2366SOL    HW2 7998   1.932   4.037   5.774
 2367SOL     OW 7999   0.711   3.380   6.427
 2367SOL    HW1 8000   0.796   3.389   6.478
 2367SOL    HW2 8001   0.717   3.302   6.364
 2368SOL     OW 8002   5.264   0.599   4.209
 2368SOL    HW1 8003   5.203   0.525   4.235
 2368SOL    HW2 8004   5.244   0.680   4.265
 2369SOL     OW 8005   3.408   1.574   3.487
 2369SOL    HW1 8006   3.367   1.537   3.570
 2369SOL    HW2 8007   3.491   1.625   3.510
 2370SOL     OW 8008   4.666   2.768   1.022
 2370SOL    HW1 8009   4.657   2.800   1.116
 2370SOL    HW2 8010   4.669   2.668   1.022
 2371SOL     OW 8011   0.708   6.561   2.873
 2371SOL    HW1 8012   0.643   6.514   2.933
 2371SOL    HW2 8013   0.775   6.495   2.838
 2372SOL     OW 8014   6.173   1.391   5.798
 2372SOL    HW1 8015   6.198   1.423   5.707
 2372SOL    HW2 8016   6.255   1.356   5.844
 2373SOL     OW 8017   6.534   0.887   6.361
 2373SOL    HW1 8018   6.496   0.799   6.332
 2373SOL    HW2 8019   6.634   0.881   6.365
 2374SOL     OW 8020   5.851   5.981   3.042
 2374SOL    HW1 8021   5.799   5.909   3.087
 2374SOL    HW2 8022   5.918   5.940   2.980
 2375SOL     OW 8023   0.925   0.444   3.803
 2375SOL    HW1 8024   0.839   0.493   3.796
 2375SOL    HW2 8025   0.919   0.358   3.751
 2376SOL     OW 8026   6.610   2.321   3.038
 2376SOL    HW1 8027   6.684   2.276   3.089
 2376SOL    HW2 8028   6.522   2.281   3.066
 2377SOL     OW 8029   3.913   4.933   6.452
 2377SOL    HW1 8030   3.867   5.019   6.430
 2377SOL    HW2 8031   3.887   4.905   6.544
 2378SOL     OW 8032   5.972   2.304   0.455
 2378SOL    HW1 8033   5.926   2.392   0.468
 2378SOL    HW2 8034   5.907   2.230   0.470
 2379SOL     OW 8035   0.114   5.280   0.446
 2379SOL    HW1 8036   0.129   5.221   0.526
 2379SOL    HW2 8037   0.144   5.373   0.467
 2380SOL     OW 8038   5.662   3.580   5.140
 2380SOL    HW1 8039   5.587   3.559   5.078
 2380SOL    HW2 8040   5.749   3.571   5.092
 2381SOL     OW 8041   2.304   4.658   5.319
 2381SOL    HW1 8042   2.233   4.630   5.255
 2381SOL    HW2 8043   2.263   4.674   5.409
 2382SOL     OW 8044   1.775   5.686   2.654
 2382SOL    HW1 8045   1.772   5.604   2.711
 2382SOL    HW2 8046   1.682   5.721   2.642
 2383SOL     OW 8047   5.203   5.993   5.721
 2383SOL    HW1 8048   5.125   5.957   5.772
 2383SOL    HW2 8049   5.175   6.077   5.673
 2384SOL     OW 8050   0.770   2.195   1.775
 2384SOL    HW1 8051   0.750   2.122   1.709
 2384SOL    HW2 8052   0.869   2.211   1.777
 2385SOL     OW 8053   0.604   2.286   0.618
 2385SOL    HW1 8054   0.627   2.373   0.663
 2385SOL    HW2 8055   0.584   2.303   0.522
 2386SOL     OW 8056   3.137   5.174   4.384
 2386SOL    HW1 8057   3.121   5.234   4.463
 2386SOL    HW2 8058   3.152   5.081   4.416
 2387SOL     OW 8059   0.479   2.548   3.337
 2387SOL    HW1 8060   0.489   2.585   3.429
 2387SOL    HW2 8061   0.554   2.579   3.279
 2388SOL     OW 8062   6.869   2.047   6.130
 2388SOL    HW1 8063   6.799   1.985   6.164
 2388SOL    HW2 8064   6.954   2.031   6.180
 2389SOL     OW 8065   5.729   4.784   4.580
 2389SOL    HW1 8066   5.714   4.710   4.514
 2389SOL    HW2 8067   5.826   4.786   4.607
 2390SOL     OW 8068   4.322   3.261   6.329
 2390SOL    HW1 8069   4.316   3.337   6.394
 2390SOL    HW2 8070   4.364   3.293   6.244
 2391SOL     OW 8071   3.534   3.687   6.357
 2391SOL    HW1 8072   3.584   3.609   6.395
 2391SOL    HW2 8073   3.506   3.666   6.263
 2392SOL     OW 8074   3.459   5.103   5.949
 2392SOL    HW1 8075   3.509   5.189   5.946
 2392SOL    HW2 8076   3.400   5.095   5.868
 2393SOL     OW 8077   3.963   5.359   1.601
 2393SOL    HW1 8078   4.022   5.385   1.525
 2393SOL    HW2 8079   3.914   5.439   1.635
 2394SOL     OW 8080   0.003   3.708   3.528
 2394SOL    HW1 8081   0.079   3.645   3.539
 2394SOL    HW2 8082   6.950   3.680   3.587
 2395SOL     OW 8083   0.242   3.523   6.589
 2395SOL    HW1 8084   0.287   3.433   6.588
 2395SOL    HW2 8085   0.271   3.574   6.670
 2396SOL     OW 8086   5.386   0.734   5.132
 2396SOL    HW1 8087   5.408   0.828   5.106
 2396SOL    HW2 8088   5.286   0.725   5.141
 2397SOL     OW 8089   0.662   5.249   5.957
 2397SOL    HW1 8090   0.718   5.172   5.987
 2397SOL    HW2 8091   0.667   5.322   6.026
 2398SOL     OW 8092   2.412   5.637   3.663
 2398SOL    HW1 8093   2.370   5.634   3.572
 2398SOL    HW2 8094   2.437   5.544   3.691
 2399SOL     OW 8095   2.663   2.341   3.596
 2399SOL    HW1 8096   2.614   2.324   3.511
 2399SOL    HW2 8097   2.603   2.390   3.659
 2400SOL     OW 8098   2.287   4.066   0.097
 2400SOL    HW1 8099   2.212   4.117   0.053
 2400SOL    HW2 8100   2.276   3.969   0.077
 2401SOL     OW 8101   3.517   6.936   4.404
 2401SOL    HW1 8102   3.603   6.980   4.429
 2401SOL    HW2 8103   3.441   6.999   4.421
 2402SOL     OW 8104   0.953   1.875   2.662
 2402SOL    HW1 8105   1.027   1.827   2.614
 2402SOL    HW2 8106   0.879   1.895   2.597
 2403SOL     OW 8107   3.890   3.408   1.134
 2403SOL    HW1 8108   3.887   3.311   1.159
 2403SOL    HW2 8109   3.902   3.417   1.036
 2404SOL     OW 8110   6.306   1.638   1.528
 2404SOL    HW1 8111   6.337   1.729   1.555
 2404SOL    HW2 8112   6.359   1.606   1.449
 2405SOL     OW 8113   2.819   4.716   6.911
 2405SOL    HW1 8114   2.885   4.756   6.848
 2405SOL    HW2 8115   2.727   4.723   6.871
 2406SOL     OW 8116   1.465   0.650   3.615
 2406SOL    HW1 8117   1.528   0.676   3.542
 2406SOL    HW2 8118   1.446   0.730   3.673
 2407SOL     OW 8119   4.503   2.040   3.406
 2407SOL    HW1 8120   4.563   2.120   3.409
 2407SOL    HW2 8121   4.552   1.962   3.368
 2408SOL     OW 8122   2.207   5.890   3.268
 2408SOL    HW1 8123   2.263   5.973   3.258
 2408SOL    HW2 8124   2.226   5.829   3.191
 2409SOL     OW 8125   2.261   2.960   1.164
 2409SOL    HW1 8126   2.350   2.958   1.209
 2409SOL    HW2 8127   2.262   3.031   1.092
 2410SOL     OW 8128   5.978   3.395   5.694
 2410SOL    HW1 8129   5.894   3.360   5.735
 2410SOL    HW2 8130   6.011   3.473   5.746
 2411SOL     OW 8131   2.978   4.313   6.631
 2411SOL    HW1 8132   3.047   4.296   6.561
 2411SOL    HW2 8133   3.011   4.278   6.719
 2412SOL     OW 8134   3.009   2.975   6.829
 2412SOL    HW1 8135   2.929   2.922   6.799
 2412SOL    HW2 8136   3.087   2.954   6.770
 2413SOL     OW 8137   7.004   3.178   6.087
 2413SOL    HW1 8138   6.929   3.177   6.154
 2413SOL    HW2 8139   0.049   3.247   6.113
 2414SOL     OW 8140   5.554   2.653   3.848
 2414SOL    HW1 8141   5.603   2.701   3.921
 2414SOL    HW2 8142   5.475   2.606   3.887
 2415SOL     OW 8143   2.416   6.564   0.418
 2415SOL    HW1 8144   2.420   6.664   0.424
 2415SOL    HW2 8145   2.497   6.530   0.372
 2416SOL     OW 8146   0.614   3.474   2.843
 2416SOL    HW1 8147   0.612   3.526   2.757
 2416SOL    HW2 8148   0.709   3.456   2.868
 2417SOL     OW 8149   4.776   2.514   0.021
 2417SOL    HW1 8150   4.824   2.602   0.020
 2417SOL    HW2 8151   4.717   2.507   6.964
 2418SOL     OW 8152   3.918   4.277   5.324
 2418SOL    HW1 8153   3.947   4.369   5.299
 2418SOL    HW2 8154   3.911   4.221   5.241
 2419SOL     OW 8155   1.998   6.888   4.256
 2419SOL    HW1 8156   2.096   6.881   4.235
 2419SOL    HW2 8157   1.987   6.906   4.354
 2420SOL     OW 8158   3.560   5.765   2.085
 2420SOL    HW1 8159   3.505   5.827   2.029
 2420SOL    HW2 8160   3.607   5.699   2.026
 2421SOL     OW 8161   3.518   6.287   3.615
 2421SOL    HW1 8162   3.589   6.308   3.682
 2421SOL    HW2 8163   3.561   6.262   3.528
 2422SOL     OW 8164   3.753   6.764   1.235
 2422SOL    HW1 8165   3.843   6.740   1.272
 2422SOL    HW2 8166   3.727   6.854   1.269
 2423SOL     OW 8167   2.129   5.327   1.588
 2423SOL    HW1 8168   2.211   5.294   1.634
 2423SOL    HW2 8169   2.079   5.249   1.549
 2424SOL     OW 8170   5.370   6.536   0.053
 2424SOL    HW1 8171   5.380   6.448   0.098
 2424SOL    HW2 8172   5.326   6.601   0.116
 2425SOL     OW 8173   5.087   5.547   5.777
 2425SOL    HW1 8174   5.023   5.596   5.836
 2425SOL    HW2 8175   5.134   5.613   5.718
 2426SOL     OW 8176   1.371   5.983   4.837
 2426SOL    HW1 8177   1.417   5.967   4.750
 2426SOL    HW2 8178   1.360   5.896   4.885
 2427SOL     OW 8179   4.709   6.265   6.308
 2427SOL    HW1 8180   4.729   6.182   6.255
 2427SOL    HW2 8181   4.649   6.325   6.256
 2428SOL     OW 8182   0.165   1.307   3.527
 2428SOL    HW1 8183   0.136   1.350   3.441
 2428SOL    HW2 8184   0.107   1.228   3.545
 2429SOL     OW 8185   5.315   5.219   2.310
 2429SOL    HW1 8186   5.372   5.137   2.303
 2429SOL    HW2 8187   5.264   5.231   2.225
 2430SOL     OW 8188   5.829   2.435   0.866
 2430SOL    HW1 8189   5.731   2.443   0.848
 2430SOL    HW2 8190   5.880   2.465   0.786
 2431SOL     OW 8191   5.934   1.784   2.058
 2431SOL    HW1 8192   5.951   1.831   2.144
 2431SOL    HW2 8193   6.019   1.776   2.006
 2432SOL     OW 8194   3.067   5.320   1.847
 2432SOL    HW1 8195   3.091   5.225   1.868
 2432SOL    HW2 8196   3.053   5.330   1.749
 2433SOL     OW 8197   0.601   5.581   7.001
 2433SOL    HW1 8198   0.611   5.633   6.917
 2433SOL    HW2 8199   0.678   5.519   7.012
 2434SOL     OW 8200   4.421   2.448   2.326
 2434SOL    HW1 8201   4.381   2.397   2.402
 2434SOL    HW2 8202   4.497   2.503   2.359
 2435SOL     OW 8203   5.592   6.058   0.073
 2435SOL    HW1 8204   5.627   6.018   0.158
 2435SOL    HW2 8205   5.637   6.016   7.017
 2436SOL     OW 8206   1.566   1.187   1.238
 2436SOL    HW1 8207   1.578   1.285   1.255
 2436SOL    HW2 8208   1.474   1.171   1.201
 2437SOL     OW 8209   5.755   5.620   2.188
 2437SOL    HW1 8210   5.780   5.609   2.092
 2437SOL    HW2 8211   5.687   5.552   2.213
 2438SOL     OW 8212   3.744   1.879   4.833
 2438SOL    HW1 8213   3.798   1.795   4.845
 2438SOL    HW2 8214   3.648   1.859   4.848
 2439SOL     OW 8215   0.298   5.849   6.697
 2439SOL    HW1 8216   0.292   5.812   6.790
 2439SOL    HW2 8217   0.206   5.861   6.660
 2440SOL     OW 8218   4.379   0.808   4.479
 2440SOL    HW1 8219   4.301   0.776   4.532
 2440SOL    HW2 8220   4.451   0.839   4.541
 2441SOL     OW 8221   5.412   0.644   6.943
 2441SOL    HW1 8222   5.377   0.690   0.001
 2441SOL    HW2 8223   5.495   0.593   6.967
 2442SOL     OW 8224   5.596   3.449   2.557
 2442SOL    HW1 8225   5.558   3.512   2.625
 2442SOL    HW2 8226   5.544   3.364   2.557
 2443SOL     OW 8227   2.181   1.113   6.496
 2443SOL    HW1 8228   2.254   1.077   6.438
 2443SOL    HW2 8229   2.112   1.156   6.438
 2444SOL     OW 8230   4.157   4.816   0.316
 2444SOL    HW1 8231   4.121   4.856   0.400
 2444SOL    HW2 8232   4.246   4.774   0.334
 2445SOL     OW 8233   6.182   1.692   1.957
 2445SOL    HW1 8234   6.252   1.759   1.984
 2445SOL    HW2 8235   6.220   1.631   1.887
 2446SOL     OW 8236   0.831   2.332   2.133
 2446SOL    HW1 8237   0.848   2.375   2.221
 2446SOL    HW2 8238   0.783   2.396   2.073
 2447SOL     OW 8239   2.194   0.436   0.630
 2447SOL    HW1 8240   2.207   0.488   0.546
 2447SOL    HW2 8241   2.226   0.342   0.616
 2448SOL     OW 8242   6.204   2.291   4.108
 2448SOL    HW1 8243   6.146   2.261   4.184
 2448SOL    HW2 8244   6.250   2.211   4.069
 2449SOL     OW 8245   0.982   4.072   2.050
 2449SOL    HW1 8246   1.061   4.085   1.990
 2449SOL    HW2 8247   1.013   4.063   2.145
 2450SOL     OW 8248   3.155   4.998   0.107
 2450SOL    HW1 8249   3.246   4.956   0.115
 2450SOL    HW2 8250   3.122   4.989   0.013
 2451SOL     OW 8251   0.917   6.970   3.919
 2451SOL    HW1 8252   0.869   6.952   4.005
 2451SOL    HW2 8253   1.014   6.947   3.929
 2452SOL     OW 8254   2.299   2.288   3.308
 2452SOL    HW1 8255   2.307   2.345   3.226
 2452SOL    HW2 8256   2.218   2.230   3.301
 2453SOL     OW 8257   6.749   2.625   0.635
 2453SOL    HW1 8258   6.737   2.691   0.562
 2453SOL    HW2 8259   6.687   2.646   0.711
 2454SOL     OW 8260   3.030   5.666   6.993
 2454SOL    HW1 8261   2.962   5.622   0.029
 2454SOL    HW2 8262   3.042   5.612   6.909
 2455SOL     OW 8263   3.839   1.031   0.500
 2455SOL    HW1 8264   3.775   1.046   0.576
 2455SOL    HW2 8265   3.816   1.093   0.425
 2456SOL     OW 8266   0.771   3.456   6.904
 2456SOL    HW1 8267   0.729   3.541   6.872
 2456SOL    HW2 8268   0.740   3.436   6.997
 2457SOL     OW 8269   5.796   0.904   5.540
 2457SOL    HW1 8270   5.777   0.833   5.608
 2457SOL    HW2 8271   5.828   0.986   5.586
 2458SOL     OW 8272   0.837   0.435   3.364
 2458SOL    HW1 8273   0.899   0.423   3.287
 2458SOL    HW2 8274   0.885   0.412   3.449
 2459SOL     OW 8275   2.962   6.292   5.503
 2459SOL    HW1 8276   3.056   6.260   5.495
 2459SOL    HW2 8277   2.961   6.380   5.550
 2460SOL     OW 8278   1.030   0.706   0.547
 2460SOL    HW1 8279   1.026   0.660   0.458
 2460SOL    HW2 8280   0.943   0.752   0.564
 2461SOL     OW 8281   4.805   7.014   4.241
 2461SOL    HW1 8282   4.899   0.002   4.209
 2461SOL    HW2 8283   4.804   6.956   4.322
 2462SOL     OW 8284   1.682   5.014   0.701
 2462SOL    HW1 8285   1.640   4.996   0.790
 2462SOL    HW2 8286   1.704   5.112   0.694
 2463SOL     OW 8287   6.762   2.007   0.274
 2463SOL    HW1 8288   6.792   2.084   0.219
 2463SOL    HW2 8289   6.770   1.922   0.222
 2464SOL     OW 8290   1.482   3.034   2.883
 2464SOL    HW1 8291   1.530   3.010   2.967
 2464SOL    HW2 8292   1.431   3.119   2.897
 2465SOL     OW 8293   6.744   6.224   6.082
 2465SOL    HW1 8294   6.645   6.214   6.093
 2465SOL    HW2 8295   6.769   6.215   5.986
 2466SOL     OW 8296   1.549   1.752   2.242
 2466SOL    HW1 8297   1.476   1.708   2.189
 2466SOL    HW2 8298   1.627   1.769   2.183
 2467SOL     OW 8299   5.010   2.003   5.773
 2467SOL    HW1 8300   4.930   2.061   5.790
 2467SOL    HW2 8301   4.980   1.917   5.730
 2468SOL     OW 8302   4.361   0.036   0.148
 2468SOL    HW1 8303   4.360   0.067   0.053
 2468SOL    HW2 8304   4.432   0.086   0.199
 2469SOL     OW 8305   3.627   3.208   5.415
 2469SOL    HW1 8306   3.650   3.305   5.411
 2469SOL    HW2 8307   3.584   3.181   5.330
 2470SOL     OW 8308   3.942   5.414   6.249
 2470SOL    HW1 8309   3.942   5.355   6.168
 2470SOL    HW2 8310   4.023   5.396   6.304
 2471SOL     OW 8311   3.045   0.007   0.365
 2471SOL    HW1 8312   3.098   0.043   0.441
 2471SOL    HW2 8313   2.961   6.988   0.399
 2472SOL     OW 8314   4.127   2.079   3.489
 2472SOL    HW1 8315   4.047   2.127   3.524
 2472SOL    HW2 8316   4.108   2.045   3.397
 2473SOL     OW 8317   1.163   4.361   5.715
 2473SOL    HW1 8318   1.194   4.388   5.806
 2473SOL    HW2 8319   1.215   4.411   5.646
 2474SOL     OW 8320   0.880   5.267   1.057
 2474SOL    HW1 8321   0.932   5.183   1.043
 2474SOL    HW2 8322   0.943   5.342   1.079
 2475SOL     OW 8323   4.872   0.355   2.071
 2475SOL    HW1 8324   4.780   0.344   2.107
 2475SOL    HW2 8325   4.939   0.318   2.136
 2476SOL     OW 8326   5.716   0.352   2.578
 2476SOL    HW1 8327   5.639   0.309   2.531
 2476SOL    HW2 8328   5.783   0.383   2.511
 2477SOL     OW 8329   4.296   1.008   3.275
 2477SOL    HW1 8330   4.207   1.051   3.289
 2477SOL    HW2 8331   4.285   0.925   3.220
 2478SOL     OW 8332   5.704   1.145   1.673
 2478SOL    HW1 8333   5.611   1.180   1.687
 2478SOL    HW2 8334   5.707   1.091   1.589
 2479SOL     OW 8335   1.193   3.173   1.960
 2479SOL    HW1 8336   1.208   3.119   1.878
 2479SOL    HW2 8337   1.202   3.271   1.939
 2480SOL     OW 8338   4.139   3.087   1.126
 2480SOL    HW1 8339   4.186   3.012   1.080
 2480SOL    HW2 8340   4.202   3.164   1.136
 2481SOL     OW 8341   3.210   6.861   1.165
 2481SOL    HW1 8342   3.204   6.766   1.133
 2481SOL    HW2 8343   3.305   6.892   1.157
 2482SOL     OW 8344   5.551   3.217   6.427
 2482SOL    HW1 8345   5.538   3.153   6.503
 2482SOL    HW2 8346   5.539   3.311   6.461
 2483SOL     OW 8347   2.062   1.555   6.586
 2483SOL    HW1 8348   1.965   1.577   6.579
 2483SOL    HW2 8349   2.111   1.633   6.624
 2484SOL     OW 8350   3.379   0.763   0.281
 2484SOL    HW1 8351   3.344   0.700   0.351
 2484SOL    HW2 8352   3.423   0.841   0.325
 2485SOL     OW 8353   5.195   3.086   0.880
 2485SOL    HW1 8354   5.174   3.179   0.912
 2485SOL    HW2 8355   5.290   3.082   0.848
 2486SOL     OW 8356   1.424   5.108   5.563
 2486SOL    HW1 8357   1.439   5.205   5.582
 2486SOL    HW2 8358   1.327   5.092   5.547
 2487SOL     OW 8359   4.537   6.736   0.361
 2487SOL    HW1 8360   4.570   6.758   0.453
 2487SOL    HW2 8361   4.453   6.787   0.342
 2488SOL     OW 8362   0.764   3.997   2.183
 2488SOL    HW1 8363   0.831   4.048   2.131
 2488SOL    HW2 8364   0.737   3.915   2.132
 2489SOL     OW 8365   0.972   6.168   4.021
 2489SOL    HW1 8366   1.053   6.187   3.965
 2489SOL    HW2 8367   0.890   6.192   3.969
 2490SOL     OW 8368   0.220   5.424   0.885
 2490SOL    HW1 8369   0.266   5.513   0.894
 2490SOL    HW2 8370   0.129   5.437   0.846
 2491SOL     OW 8371   3.125   4.220   0.180
 2491SOL    HW1 8372   3.063   4.288   0.220
 2491SOL    HW2 8373   3.080   4.173   0.105
 2492SOL     OW 8374   4.452   4.118   0.942
 2492SOL    HW1 8375   4.361   4.153   0.964
 2492SOL    HW2 8376   4.443   4.033   0.890
 2493SOL     OW 8377   6.456   0.132   1.875
 2493SOL    HW1 8378   6.421   0.077   1.950
 2493SOL    HW2 8379   6.529   0.192   1.908
 2494SOL     OW 8380   5.571   4.160   2.749
 2494SOL    HW1 8381   5.509   4.197   2.679
 2494SOL    HW2 8382   5.619   4.081   2.712
 2495SOL     OW 8383   5.068   5.920   3.731
 2495SOL    HW1 8384   5.049   5.826   3.760
 2495SOL    HW2 8385   5.062   5.926   3.632
 2496SOL     OW 8386   0.637   2.740   6.776
 2496SOL    HW1 8387   0.571   2.814   6.762
 2496SOL    HW2 8388   0.680   2.717   6.689
 2497SOL     OW 8389   0.625   0.390   0.809
 2497SOL    HW1 8390   0.568   0.315   0.842
 2497SOL    HW2 8391   0.702   0.353   0.757
 2498SOL     OW 8392   2.911   2.197   5.311
 2498SOL    HW1 8393   2.844   2.157   5.249
 2498SOL    HW2 8394   2.866   2.217   5.399
 2499SOL     OW 8395   6.080   3.276   2.109
 2499SOL    HW1 8396   6.066   3.214   2.186
 2499SOL    HW2 8397   6.174   3.268   2.075
 2500SOL     OW 8398   3.747   4.413   6.665
 2500SOL    HW1 8399   3.841   4.378   6.653
 2500SOL    HW2 8400   3.713   4.384   6.754
 2501SOL     OW 8401   5.066   5.246   0.690
 2501SOL    HW1 8402   5.047   5.344   0.683
 2501SOL    HW2 8403   5.099   5.225   0.782
 2502SOL     OW 8404   0.978   0.387   4.554
 2502SOL    HW1 8405   1.043   0.412   4.483
 2502SOL    HW2 8406   0.962   0.288   4.552
 2503SOL     OW 8407   2.172   6.629   4.151
 2503SOL    HW1 8408   2.163   6.614   4.250
 2503SOL    HW2 8409   2.081   6.632   4.109
 2504SOL     OW 8410   3.839   5.158   3.792
 2504SOL    HW1 8411   3.754   5.113   3.820
 2504SOL    HW2 8412   3.870   5.218   3.866
 2505SOL     OW 8413   0.059   0.046   2.817
 2505SOL    HW1 8414   0.153   0.067   2.845
 2505SOL    HW2 8415   7.018   0.106   2.867
 2506SOL     OW 8416   6.928   3.870   6.389
 2506SOL    HW1 8417   6.860   3.841   6.321
 2506SOL    HW2 8418   6.992   3.795   6.407
 2507SOL     OW 8419   6.516   3.167   0.018
 2507SOL    HW1 8420   6.535   3.109   6.961
 2507SOL    HW2 8421   6.447   3.235   7.017
 2508SOL     OW 8422   2.931   1.638   3.272
 2508SOL    HW1 8423   2.962   1.590   3.355
 2508SOL    HW2 8424   2.951   1.582   3.192
 2509SOL     OW 8425   0.161   4.174   0.541
 2509SOL    HW1 8426   0.230   4.171   0.613
 2509SOL    HW2 8427   0.188   4.242   0.473
 2510SOL     OW 8428   2.618   5.102   1.142
 2510SOL    HW1 8429   2.603   5.024   1.203
 2510SOL    HW2 8430   2.549   5.103   1.071
 2511SOL     OW 8431   3.686   2.119   4.024
 2511SOL    HW1 8432   3.782   2.146   4.035
 2511SOL    HW2 8433   3.632   2.156   4.099
 2512SOL     OW 8434   4.503   4.000   5.436
 2512SOL    HW1 8435   4.481   3.918   5.384
 2512SOL    HW2 8436   4.478   4.081   5.383
 2513SOL     OW 8437   2.211   4.745   4.932
 2513SOL    HW1 8438   2.251   4.811   4.867
 2513SOL    HW2 8439   2.285   4.699   4.982
 2514SOL     OW 8440   0.446   3.786   5.105
 2514SOL    HW1 8441   0.351   3.792   5.073
 2514SOL    HW2 8442   0.481   3.694   5.090
 2515SOL     OW 8443   1.023   6.629   0.407
 2515SOL    HW1 8444   1.122   6.642   0.407
 2515SOL    HW2 8445   0.990   6.619   0.313
 2516SOL     OW 8446   5.142   1.592   3.326
 2516SOL    HW1 8447   5.130   1.661   3.255
 2516SOL    HW2 8448   5.167   1.505   3.284
 2517SOL     OW 8449   0.589   6.935   6.373
 2517SOL    HW1 8450   0.525   6.859   6.359
 2517SOL    HW2 8451   0.552   7.018   6.332
 2518SOL     OW 8452   1.739   5.279   0.606
 2518SOL    HW1 8453   1.691   5.261   0.520
 2518SOL    HW2 8454   1.802   5.356   0.593
 2519SOL     OW 8455   3.545   6.479   1.930
 2519SOL    HW1 8456   3.553   6.383   1.903
 2519SOL    HW2 8457   3.539   6.486   2.029
 2520SOL     OW 8458   3.354   1.567   0.747
 2520SOL    HW1 8459   3.442   1.612   0.729
 2520SOL    HW2 8460   3.371   1.472   0.773
 2521SOL     OW 8461   2.945   0.377   5.274
 2521SOL    HW1 8462   2.996   0.309   5.221
 2521SOL    HW2 8463   2.871   0.332   5.323
 2522SOL     OW 8464   0.419   2.233   5.490
 2522SOL    HW1 8465   0.473   2.239   5.574
 2522SOL    HW2 8466   0.332   2.187   5.510
 2523SOL     OW 8467   0.837   2.784   0.911
 2523SOL    HW1 8468   0.768   2.728   0.956
 2523SOL    HW2 8469   0.925   2.772   0.956
 2524SOL     OW 8470   0.211   6.413   5.054
 2524SOL    HW1 8471   0.170   6.464   5.130
 2524SOL    HW2 8472   0.189   6.316   5.065
 2525SOL     OW 8473   0.859   2.203   5.279
 2525SOL    HW1 8474   0.926   2.213   5.353
 2525SOL    HW2 8475   0.889   2.256   5.200
 2526SOL     OW 8476   1.633   5.165   6.417
 2526SOL    HW1 8477   1.635   5.082   6.361
 2526SOL    HW2 8478   1.575   5.233   6.373
 2527SOL     OW 8479   5.703   6.477   6.045
 2527SOL    HW1 8480   5.802   6.477   6.058
 2527SOL    HW2 8481   5.658   6.448   6.130
 2528SOL     OW 8482   6.435   4.827   0.007
 2528SOL    HW1 8483   6.414   4.922   0.030
 2528SOL    HW2 8484   6.355   4.784   6.988
 2529SOL     OW 8485   6.480   6.247   6.407
 2529SOL    HW1 8486   6.499   6.194   6.324
 2529SOL    HW2 8487   6.444   6.187   6.478
 2530SOL     OW 8488   2.971   6.417   4.456
 2530SOL    HW1 8489   2.948   6.322   4.433
 2530SOL    HW2 8490   3.018   6.460   4.378
 2531SOL     OW 8491   5.435   5.980   4.857
 2531SOL    HW1 8492   5.407   5.890   4.823
 2531SOL    HW2 8493   5.515   5.969   4.916
 2532SOL     OW 8494   0.198   6.184   0.401
 2532SOL    HW1 8495   0.253   6.196   0.484
 2532SOL    HW2 8496   0.103   6.167   0.426
 2533SOL     OW 8497   3.991   6.489   4.067
 2533SOL    HW1 8498   3.993   6.587   4.045
 2533SOL    HW2 8499   4.084   6.454   4.072
 2534SOL     OW 8500   3.685   1.341   2.008
 2534SOL    HW1 8501   3.651   1.255   1.968
 2534SOL    HW2 8502   3.628   1.365   2.087
 2535SOL     OW 8503   2.986   3.039   5.627
 2535SOL    HW1 8504   3.081   3.053   5.598
 2535SOL    HW2 8505   2.973   2.943   5.653
 2536SOL     OW 8506   0.999   1.494   4.996
 2536SOL    HW1 8507   1.080   1.513   5.052
 2536SOL    HW2 8508   0.919   1.537   5.038
 2537SOL     OW 8509   3.561   0.379   6.401
 2537SOL    HW1 8510   3.467   0.346   6.389
 2537SOL    HW2 8511   3.616   0.352   6.322
 2538SOL     OW 8512   0.734   4.129   3.419
 2538SOL    HW1 8513   0.784   4.077   3.488
 2538SOL    HW2 8514   0.653   4.077   3.390
 2539SOL     OW 8515   5.938   0.967   4.671
 2539SOL    HW1 8516   5.957   0.991   4.766
 2539SOL    HW2 8517   6.001   1.017   4.611
 2540SOL     OW 8518   3.952   1.819   2.735
 2540SOL    HW1 8519   3.907   1.875   2.805
 2540SOL    HW2 8520   3.950   1.867   2.648
 2541SOL     OW 8521   2.462   0.503   5.030
 2541SOL    HW1 8522   2.413   0.572   4.975
 2541SOL    HW2 8523   2.560   0.509   5.012
 2542SOL     OW 8524   3.047   2.512   5.911
 2542SOL    HW1 8525   3.099   2.584   5.865
 2542SOL    HW2 8526   2.965   2.491   5.858
 2543SOL     OW 8527   1.298   0.716   2.924
 2543SOL    HW1 8528   1.289   0.780   2.847
 2543SOL    HW2 8529   1.223   0.649   2.920
 2544SOL     OW 8530   0.359   6.021   1.309
 2544SOL    HW1 8531   0.397   5.939   1.351
 2544SOL    HW2 8532   0.401   6.102   1.350
 2545SOL     OW 8533   0.801   7.022   2.380
 2545SOL    HW1 8534   0.743   6.948   2.413
 2545SOL    HW2 8535   0.784   0.082   2.433
 2546SOL     OW 8536   6.587   0.621   2.076
 2546SOL    HW1 8537   6.677   0.652   2.105
 2546SOL    HW2 8538   6.517   0.684   2.110
 2547SOL     OW 8539   6.706   4.469   0.208
 2547SOL    HW1 8540   6.737   4.506   0.296
 2547SOL    HW2 8541   6.752   4.382   0.190
 2548SOL     OW 8542   0.785   0.050   5.586
 2548SOL    HW1 8543   0.820   6.989   5.628
 2548SOL    HW2 8544   0.842   0.128   5.614
 2549SOL     OW 8545   1.728   0.158   1.279
 2549SOL    HW1 8546   1.717   0.244   1.329
 2549SOL    HW2 8547   1.699   0.170   1.185
 2550SOL     OW 8548   0.307   0.535   6.629
 2550SOL    HW1 8549   0.336   0.626   6.660
 2550SOL    HW2 8550   0.221   0.511   6.675
 2551SOL     OW 8551   3.162   5.192   0.300
 2551SOL    HW1 8552   3.196   5.283   0.280
 2551SOL    HW2 8553   3.158   5.138   0.216
 2552SOL     OW 8554   1.824   6.177   4.591
 2552SOL    HW1 8555   1.796   6.272   4.586
 2552SOL    HW2 8556   1.844   6.153   4.686
 2553SOL     OW 8557   4.869   3.343   5.974
 2553SOL    HW1 8558   4.788   3.293   6.006
 2553SOL    HW2 8559   4.843   3.435   5.946
 2554SOL     OW 8560   2.200   6.995   0.097
 2554SOL    HW1 8561   2.110   6.957   0.077
 2554SOL    HW2 8562   2.214   6.998   0.196
 2555SOL     OW 8563   5.397   6.805   5.234
 2555SOL    HW1 8564   5.368   6.780   5.141
 2555SOL    HW2 8565   5.438   6.897   5.232
 2556SOL     OW 8566   4.114   6.079   6.922
 2556SOL    HW1 8567   4.102   6.138   6.842
 2556SOL    HW2 8568   4.075   6.123   7.002
 2557SOL     OW 8569   2.528   4.742   6.858
 2557SOL    HW1 8570   2.491   4.823   6.904
 2557SOL    HW2 8571   2.457   4.672   6.851
 2558SOL     OW 8572   5.078   1.536   4.861
 2558SOL    HW1 8573   5.177   1.550   4.856
 2558SOL    HW2 8574   5.057   1.463   4.926
 2559SOL     OW 8575   0.637   4.081   4.921
 2559SOL    HW1 8576   0.537   4.072   4.923
 2559SOL    HW2 8577   0.673   4.070   5.013
 2560SOL     OW 8578   5.576   2.778   4.550
 2560SOL    HW1 8579   5.599   2.865   4.506
 2560SOL    HW2 8580   5.577   2.705   4.482
 2561SOL     OW 8581   3.144   5.922   5.010
 2561SOL    HW1 8582   3.072   5.854   5.027
 2561SOL    HW2 8583   3.102   6.009   4.987
 2562SOL     OW 8584   2.302   4.941   1.391
 2562SOL    HW1 8585   2.264   4.910   1.479
 2562SOL    HW2 8586   2.235   5.000   1.345
 2563SOL     OW 8587   3.798   1.753   0.424
 2563SOL    HW1 8588   3.870   1.687   0.444
 2563SOL    HW2 8589   3.756   1.783   0.509
 2564SOL     OW 8590   2.288   5.359   6.291
 2564SOL    HW1 8591   2.238   5.319   6.368
 2564SOL    HW2 8592   2.229   5.423   6.242
 2565SOL     OW 8593   1.327   0.064   0.049
 2565SOL    HW1 8594   1.243   0.015   0.026
 2565SOL    HW2 8595   1.374   0.090   6.988
 2566SOL     OW 8596   2.386   6.605   1.049
 2566SOL    HW1 8597   2.305   6.577   0.996
 2566SOL    HW2 8598   2.394   6.704   1.047
 2567SOL     OW 8599   0.967   0.531   0.858
 2567SOL    HW1 8600   0.952   0.450   0.915
 2567SOL    HW2 8601   0.917   0.609   0.895
 2568SOL     OW 8602   4.586   1.037   6.901
 2568SOL    HW1 8603   4.548   0.958   6.854
 2568SOL    HW2 8604   4.681   1.051   6.873
 2569SOL     OW 8605   3.001   1.145   2.145
 2569SOL    HW1 8606   2.905   1.137   2.118
 2569SOL    HW2 8607   3.008   1.137   2.244
 2570SOL     OW 8608   5.681   6.992   6.961
 2570SOL    HW1 8609   5.720   6.908   6.924
 2570SOL    HW2 8610   5.693   6.993   0.038
 2571SOL     OW 8611   2.492   4.446   5.244
 2571SOL    HW1 8612   2.445   4.387   5.178
 2571SOL    HW2 8613   2.425   4.500   5.295
 2572SOL     OW 8614   2.480   6.128   0.738
 2572SOL    HW1 8615   2.417   6.078   0.678
 2572SOL    HW2 8616   2.537   6.063   0.788
 2573SOL     OW 8617   6.988   1.663   1.766
 2573SOL    HW1 8618   6.987   1.748   1.713
 2573SOL    HW2 8619   7.009   1.587   1.705
 2574SOL     OW 8620   5.716   4.034   0.478
 2574SOL    HW1 8621   5.678   4.098   0.411
 2574SOL    HW2 8622   5.651   3.960   0.494
 2575SOL     OW 8623   5.375   5.408   0.949
 2575SOL    HW1 8624   5.314   5.335   0.919
 2575SOL    HW2 8625   5.375   5.481   0.881
 2576SOL     OW 8626   4.422   6.594   4.943
 2576SOL    HW1 8627   4.382   6.524   4.883
 2576SOL    HW2 8628   4.472   6.660   4.888
 2577SOL     OW 8629   4.015   6.424   2.301
 2577SOL    HW1 8630   4.053   6.513   2.276
 2577SOL    HW2 8631   3.924   6.436   2.341
 2578SOL     OW 8632   4.833   1.593   4.708
 2578SOL    HW1 8633   4.762   1.563   4.771
 2578SOL    HW2 8634   4.923   1.574   4.746
 2579SOL     OW 8635   1.709   6.723   3.022
 2579SOL    HW1 8636   1.784   6.684   2.969
 2579SOL    HW2 8637   1.621   6.693   2.984
 2580SOL     OW 8638   3.447   4.674   6.707
 2580SOL    HW1 8639   3.382   4.600   6.723
 2580SOL    HW2 8640   3.524   4.664   6.769
 2581SOL     OW 8641   2.243   4.826   1.928
 2581SOL    HW1 8642   2.337   4.859   1.932
 2581SOL    HW2 8643   2.227   4.760   2.002
 2582SOL     OW 8644   0.472   4.479   1.236
 2582SOL    HW1 8645   0.517   4.537   1.168
 2582SOL    HW2 8646   0.512   4.497   1.326
 2583SOL     OW 8647   1.485   1.925   6.017
 2583SOL    HW1 8648   1.543   1.860   6.067
 2583SOL    HW2 8649   1.531   1.952   5.933
 2584SOL     OW 8650   5.179   5.175   6.129
 2584SOL    HW1 8651   5.099   5.224   6.094
 2584SOL    HW2 8652   5.157   5.138   6.220
 2585SOL     OW 8653   3.569   3.201   0.646
 2585SOL    HW1 8654   3.602   3.291   0.615
 2585SOL    HW2 8655   3.636   3.162   0.709
 2586SOL     OW 8656   3.636   0.645   4.736
 2586SOL    HW1 8657   3.563   0.643   4.668
 2586SOL    HW2 8658   3.704   0.714   4.710
 2587SOL     OW 8659   6.340   0.775   3.477
 2587SOL    HW1 8660   6.254   0.785   3.426
 2587SOL    HW2 8661   6.319   0.765   3.574
 2588SOL     OW 8662   5.022   2.175   6.476
 2588SOL    HW1 8663   5.118   2.194   6.497
 2588SOL    HW2 8664   5.004   2.199   6.380
 2589SOL     OW 8665   1.377   6.665   5.435
 2589SOL    HW1 8666   1.359   6.675   5.337
 2589SOL    HW2 8667   1.469   6.629   5.448
 2590SOL     OW 8668   3.740   5.182   0.143
 2590SOL    HW1 8669   3.777   5.114   0.079
 2590SOL    HW2 8670   3.763   5.156   0.236
 2591SOL     OW 8671   6.702   4.724   2.971
 2591SOL    HW1 8672   6.677   4.705   2.876
 2591SOL    HW2 8673   6.692   4.641   3.026
 2592SOL     OW 8674   2.975   5.291   0.451
 2592SOL    HW1 8675   3.008   5.341   0.531
 2592SOL    HW2 8676   3.053   5.265   0.393
 2593SOL     OW 8677   4.467   6.065   6.839
 2593SOL    HW1 8678   4.546   6.022   6.885
 2593SOL    HW2 8679   4.385   6.010   6.856
 2594SOL     OW 8680   1.730   4.282   6.452
 2594SOL    HW1 8681   1.729   4.247   6.359
 2594SOL    HW2 8682   1.780   4.219   6.511
 2595SOL     OW 8683   0.208   0.822   4.212
 2595SOL    HW1 8684   0.238   0.728   4.193
 2595SOL    HW2 8685   0.163   0.825   4.301
 2596SOL     OW 8686   3.110   2.241   1.770
 2596SOL    HW1 8687   3.154   2.265   1.684
 2596SOL    HW2 8688   3.045   2.312   1.795
 2597SOL     OW 8689   0.775   5.634   6.343
 2597SOL    HW1 8690   0.828   5.719   6.348
 2597SOL    HW2 8691   0.678   5.654   6.357
 2598SOL     OW 8692   6.299   1.596   2.976
 2598SOL    HW1 8693   6.340   1.687   2.985
 2598SOL    HW2 8694   6.369   1.531   2.945
 2599SOL     OW 8695   1.568   6.051   0.913
 2599SOL    HW1 8696   1.605   6.139   0.944
 2599SOL    HW2 8697   1.535   6.061   0.820
 2600SOL     OW 8698   5.592   2.448   4.506
 2600SOL    HW1 8699   5.658   2.391   4.457
 2600SOL    HW2 8700   5.499   2.417   4.484
 2601SOL     OW 8701   1.536   1.415   1.487
 2601SOL    HW1 8702   1.450   1.384   1.447
 2601SOL    HW2 8703   1.551   1.512   1.465
 2602SOL     OW 8704   1.018   4.894   4.970
 2602SOL    HW1 8705   1.005   4.919   5.066
 2602SOL    HW2 8706   1.063   4.970   4.922
 2603SOL     OW 8707   3.228   1.128   3.097
 2603SOL    HW1 8708   3.256   1.108   3.191
 2603SOL    HW2 8709   3.243   1.048   3.040
 2604SOL     OW 8710   4.422   2.050   3.096
 2604SOL    HW1 8711   4.412   2.143   3.060
 2604SOL    HW2 8712   4.409   2.051   3.195
 2605SOL     OW 8713   1.916   3.056   2.574
 2605SOL    HW1 8714   1.856   3.114   2.630
 2605SOL    HW2 8715   1.901   3.076   2.478
 2606SOL     OW 8716   6.014   5.110   1.668
 2606SOL    HW1 8717   5.981   5.203   1.658
 2606SOL    HW2 8718   5.993   5.057   1.586
 2607SOL     OW 8719   0.674   1.608   1.434
 2607SOL    HW1 8720   0.746   1.539   1.421
 2607SOL    HW2 8721   0.670   1.634   1.531
 2608SOL     OW 8722   3.983   5.403   0.572
 2608SOL    HW1 8723   4.005   5.462   0.495
 2608SOL    HW2 8724   3.913   5.446   0.628
 2609SOL     OW 8725   5.911   1.552   2.177
 2609SOL    HW1 8726   5.920   1.635   2.122
 2609SOL    HW2 8727   5.971   1.559   2.257
 2610SOL     OW 8728   1.024   4.511   4.452
 2610SOL    HW1 8729   1.089   4.445   4.490
 2610SOL    HW2 8730   1.030   4.596   4.504
 2611SOL     OW 8731   4.672   6.124   0.667
 2611SOL    HW1 8732   4.691   6.154   0.761
 2611SOL    HW2 8733   4.588   6.069   0.666
 2612SOL     OW 8734   5.906   6.356   4.781
 2612SOL    HW1 8735   5.882   6.400   4.694
 2612SOL    HW2 8736   6.005   6.349   4.788
 2613SOL     OW 8737   2.538   5.204   5.911
 2613SOL    HW1 8738   2.505   5.207   6.006
 2613SOL    HW2 8739   2.622   5.257   5.903
 2614SOL     OW 8740   6.798   2.482   0.126
 2614SOL    HW1 8741   6.783   2.475   0.028
 2614SOL    HW2 8742   6.860   2.558   0.145
 2615SOL     OW 8743   0.829   3.316   1.997
 2615SOL    HW1 8744   0.833   3.216   2.003
 2615SOL    HW2 8745   0.743   3.348   2.035
 2616SOL     OW 8746   2.367   2.102   5.984
 2616SOL    HW1 8747   2.384   2.131   5.890
 2616SOL    HW2 8748   2.353   2.183   6.042
 2617SOL     OW 8749   4.598   1.320   0.440
 2617SOL    HW1 8750   4.651   1.275   0.511
 2617SOL    HW2 8751   4.541   1.392   0.480
 2618SOL     OW 8752   6.554   0.151   3.930
 2618SOL    HW1 8753   6.630   0.150   3.995
 2618SOL    HW2 8754   6.547   0.242   3.889
 2619SOL     OW 8755   4.482   1.880   1.867
 2619SOL    HW1 8756   4.575   1.902   1.835
 2619SOL    HW2 8757   4.428   1.846   1.791
 2620SOL     OW 8758   6.593   0.060   3.278
 2620SOL    HW1 8759   6.622   0.121   3.351
 2620SOL    HW2 8760   6.673   0.018   3.235
 2621SOL     OW 8761   1.238   5.339   2.463
 2621SOL    HW1 8762   1.192   5.375   2.544
 2621SOL    HW2 8763   1.238   5.408   2.390
 2622SOL     OW 8764   2.116   3.667   5.861
 2622SOL    HW1 8765   2.179   3.590   5.854
 2622SOL    HW2 8766   2.155   3.747   5.814
 2623SOL     OW 8767   1.024   1.060   5.111
 2623SOL    HW1 8768   1.119   1.077   5.087
 2623SOL    HW2 8769   0.964   1.095   5.038
 2624SOL     OW 8770   0.224   1.930   5.331
 2624SOL    HW1 8771   0.158   1.855   5.331
 2624SOL    HW2 8772   0.176   2.018   5.325
 2625SOL     OW 8773   2.466   3.922   5.772
 2625SOL    HW1 8774   2.541   3.881   5.823
 2625SOL    HW2 8775   2.502   3.980   5.699
 2626SOL     OW 8776   6.607   0.418   6.233
 2626SOL    HW1 8777   6.551   0.489   6.189
 2626SOL    HW2 8778   6.699   0.420   6.194
 2627SOL     OW 8779   2.258   1.231   5.746
 2627SOL    HW1 8780   2.171   1.194   5.715
 2627SOL    HW2 8781   2.314   1.156   5.783
 2628SOL     OW 8782   1.921   3.925   5.183
 2628SOL    HW1 8783   1.824   3.914   5.201
 2628SOL    HW2 8784   1.967   3.962   5.264
 2629SOL     OW 8785   3.806   3.614   2.764
 2629SOL    HW1 8786   3.902   3.613   2.793
 2629SOL    HW2 8787   3.798   3.577   2.672
 2630SOL     OW 8788   3.523   1.273   3.100
 2630SOL    HW1 8789   3.429   1.238   3.096
 2630SOL    HW2 8790   3.533   1.349   3.036
 2631SOL     OW 8791   5.191   0.881   6.530
 2631SOL    HW1 8792   5.223   0.957   6.587
 2631SOL    HW2 8793   5.205   0.904   6.434
 2632SOL     OW 8794   5.798   3.711   6.963
 2632SOL    HW1 8795   5.819   3.738   0.035
 2632SOL    HW2 8796   5.849   3.628   6.940
 2633SOL     OW 8797   6.622   2.351   4.915
 2633SOL    HW1 8798   6.553   2.291   4.876
 2633SOL    HW2 8799   6.623   2.342   5.015
 2634SOL     OW 8800   0.657   5.557   3.467
 2634SOL    HW1 8801   0.588   5.518   3.528
 2634SOL    HW2 8802   0.743   5.569   3.517
 2635SOL     OW 8803   6.589   5.535   4.128
 2635SOL    HW1 8804   6.654   5.534   4.205
 2635SOL    HW2 8805   6.512   5.475   4.150
 2636SOL     OW 8806   3.911   0.915   6.716
 2636SOL    HW1 8807   3.979   0.908   6.789
 2636SOL    HW2 8808   3.830   0.861   6.740
 2637SOL     OW 8809   6.329   1.608   4.075
 2637SOL    HW1 8810   6.401   1.678   4.080
 2637SOL    HW2 8811   6.370   1.521   4.048
 2638SOL     OW 8812   0.134   6.801   4.678
 2638SOL    HW1 8813   0.110   6.854   4.759
 2638SOL    HW2 8814   0.053   6.789   4.621
 2639SOL     OW 8815   6.680   5.906   6.434
 2639SOL    HW1 8816   6.735   5.835   6.477
 2639SOL    HW2 8817   6.583   5.884   6.444
 2640SOL     OW 8818   6.643   6.618   5.401
 2640SOL    HW1 8819   6.647   6.627   5.302
 2640SOL    HW2 8820   6.730   6.585   5.435
 2641SOL     OW 8821   4.970   2.133   1.484
 2641SOL    HW1 8822   5.030   2.062   1.446
 2641SOL    HW2 8823   4.966   2.210   1.420
 2642SOL     OW 8824   6.377   0.089   4.270
 2642SOL    HW1 8825   6.346   0.141   4.349
 2642SOL    HW2 8826   6.304   0.086   4.201
 2643SOL     OW 8827   1.175   3.324   3.772
 2643SOL    HW1 8828   1.093   3.381   3.774
 2643SOL    HW2 8829   1.151   3.231   3.800
 2644SOL     OW 8830   4.405   5.142   5.256
 2644SOL    HW1 8831   4.360   5.058   5.287
 2644SOL    HW2 8832   4.356   5.221   5.292
 2645SOL     OW 8833   5.193   5.116   3.934
 2645SOL    HW1 8834   5.130   5.090   3.860
 2645SOL    HW2 8835   5.202   5.216   3.936
 2646SOL     OW 8836   0.069   2.576   0.204
 2646SOL    HW1 8837   0.141   2.524   0.159
 2646SOL    HW2 8838   0.007   2.514   0.253
 2647SOL     OW 8839   5.830   0.142   1.642
 2647SOL    HW1 8840   5.829   0.098   1.552
 2647SOL    HW2 8841   5.924   0.163   1.668
 2648SOL     OW 8842   6.933   6.774   4.516
 2648SOL    HW1 8843   6.893   6.736   4.433
 2648SOL    HW2 8844   6.860   6.808   4.576
 2649SOL     OW 8845   6.364   3.300   1.555
 2649SOL    HW1 8846   6.354   3.351   1.641
 2649SOL    HW2 8847   6.438   3.340   1.501
 2650SOL     OW 8848   2.417   5.650   4.638
 2650SOL    HW1 8849   2.421   5.749   4.624
 2650SOL    HW2 8850   2.323   5.618   4.626
 2651SOL     OW 8851   2.960   1.131   0.305
 2651SOL    HW1 8852   2.977   1.168   0.214
 2651SOL    HW2 8853   2.864   1.144   0.329
 2652SOL     OW 8854   4.987   3.139   5.810
 2652SOL    HW1 8855   4.943   3.181   5.889
 2652SOL    HW2 8856   4.919   3.125   5.738
 2653SOL     OW 8857   4.471   5.897   5.971
 2653SOL    HW1 8858   4.506   5.990   5.981
 2653SOL    HW2 8859   4.518   5.852   5.895
 2654SOL     OW 8860   4.928   6.127   1.269
 2654SOL    HW1 8861   4.964   6.156   1.357
 2654SOL    HW2 8862   4.832   6.154   1.262
 2655SOL     OW 8863   4.597   5.410   3.858
 2655SOL    HW1 8864   4.554   5.430   3.946
 2655SOL    HW2 8865   4.571   5.318   3.828
 2656SOL     OW 8866   3.426   4.889   3.759
 2656SOL    HW1 8867   3.441   4.884   3.660
 2656SOL    HW2 8868   3.328   4.900   3.777
 2657SOL     OW 8869   1.921   3.473   0.745
 2657SOL    HW1 8870   1.915   3.505   0.650
 2657SOL    HW2 8871   1.832   3.437   0.773
 2658SOL     OW 8872   4.767   4.780   0.126
 2658SOL    HW1 8873   4.672   4.756   0.144
 2658SOL    HW2 8874   4.798   4.733   0.042
 2659SOL     OW 8875   4.644   3.239   5.289
 2659SOL    HW1 8876   4.579   3.177   5.333
 2659SOL    HW2 8877   4.616   3.334   5.306
 2660SOL     OW 8878   0.619   0.688   1.385
 2660SOL    HW1 8879   0.580   0.696   1.476
 2660SOL    HW2 8880   0.685   0.613   1.384
 2661SOL     OW 8881   2.000   6.590   1.594
 2661SOL    HW1 8882   1.945   6.547   1.665
 2661SOL    HW2 8883   1.967   6.684   1.580
 2662SOL     OW 8884   2.405   0.438   3.795
 2662SOL    HW1 8885   2.332   0.370   3.789
 2662SOL    HW2 8886   2.428   0.454   3.891
 2663SOL     OW 8887   4.577   5.508   6.422
 2663SOL    HW1 8888   4.553   5.443   6.494
 2663SOL    HW2 8889   4.581   5.600   6.460
 2664SOL     OW 8890   4.221   3.110   5.373
 2664SOL    HW1 8891   4.144   3.162   5.333
 2664SOL    HW2 8892   4.187   3.023   5.408
 2665SOL     OW 8893   2.165   3.424   5.303
 2665SOL    HW1 8894   2.147   3.516   5.267
 2665SOL    HW2 8895   2.169   3.428   5.403
 2666SOL     OW 8896   1.479   4.300   1.517
 2666SOL    HW1 8897   1.419   4.264   1.446
 2666SOL    HW2 8898   1.459   4.396   1.533
 2667SOL     OW 8899   0.974   5.500   3.983
 2667SOL    HW1 8900   0.940   5.549   4.063
 2667SOL    HW2 8901   1.073   5.509   3.978
 2668SOL     OW 8902   5.851   2.802   4.413
 2668SOL    HW1 8903   5.836   2.741   4.491
 2668SOL    HW2 8904   5.788   2.879   4.418
 2669SOL     OW 8905   3.621   5.470   6.959
 2669SOL    HW1 8906   3.707   5.421   6.967
 2669SOL    HW2 8907   3.609   5.531   0.015
 2670SOL     OW 8908   6.041   2.663   4.828
 2670SOL    HW1 8909   6.072   2.569   4.837
 2670SOL    HW2 8910   6.085   2.705   4.749
 2671SOL     OW 8911   4.924   5.329   6.111
 2671SOL    HW1 8912   4.916   5.300   6.016
 2671SOL    HW2 8913   4.834   5.323   6.155
 2672SOL     OW 8914   3.353   6.915   1.834
 2672SOL    HW1 8915   3.428   6.849   1.847
 2672SOL    HW2 8916   3.392   7.006   1.819
 2673SOL     OW 8917   5.642   1.723   2.153
 2673SOL    HW1 8918   5.724   1.736   2.097
 2673SOL    HW2 8919   5.656   1.645   2.213
 2674SOL     OW 8920   1.437   4.760   4.044
 2674SOL    HW1 8921   1.507   4.730   4.109
 2674SOL    HW2 8922   1.479   4.818   3.974
 2675SOL     OW 8923   0.083   6.741   4.283
 2675SOL    HW1 8924   0.119   6.661   4.236
 2675SOL    HW2 8925   0.086   6.726   4.382
 2676SOL     OW 8926   3.869   3.422   2.509
 2676SOL    HW1 8927   3.809   3.349   2.544
 2676SOL    HW2 8928   3.930   3.384   2.439
 2677SOL     OW 8929   2.837   4.891   1.236
 2677SOL    HW1 8930   2.841   4.832   1.156
 2677SOL    HW2 8931   2.742   4.902   1.266
 2678SOL     OW 8932   6.984   2.348   1.958
 2678SOL    HW1 8933   6.911   2.292   1.918
 2678SOL    HW2 8934   0.001   2.300   2.036
 2679SOL     OW 8935   1.857   4.530   2.907
 2679SOL    HW1 8936   1.811   4.619   2.909
 2679SOL    HW2 8937   1.839   4.481   2.992
 2680SOL     OW 8938   1.127   2.478   0.187
 2680SOL    HW1 8939   1.154   2.510   0.096
 2680SOL    HW2 8940   1.208   2.465   0.243
 2681SOL     OW 8941   1.300   2.970   4.995
 2681SOL    HW1 8942   1.243   2.964   5.077
 2681SOL    HW2 8943   1.396   2.956   5.019
 2682SOL     OW 8944   5.231   3.842   3.289
 2682SOL    HW1 8945   5.215   3.743   3.290
 2682SOL    HW2 8946   5.329   3.859   3.275
 2683SOL     OW 8947   2.095   4.493   2.378
 2683SOL    HW1 8948   2.034   4.430   2.328
 2683SOL    HW2 8949   2.188   4.458   2.373
 2684SOL     OW 8950   5.101   6.912   1.258
 2684SOL    HW1 8951   5.043   6.858   1.320
 2684SOL    HW2 8952   5.193   6.917   1.296
 2685SOL     OW 8953   6.190   4.874   5.342
 2685SOL    HW1 8954   6.272   4.925   5.316
 2685SOL    HW2 8955   6.126   4.872   5.265
 2686SOL     OW 8956   1.069   1.404   5.415
 2686SOL    HW1 8957   1.104   1.311   5.429
 2686SOL    HW2 8958   1.086   1.432   5.321
 2687SOL     OW 8959   3.583   6.328   0.705
 2687SOL    HW1 8960   3.487   6.316   0.730
 2687SOL    HW2 8961   3.589   6.394   0.629
 2688SOL     OW 8962   2.908   1.486   0.704
 2688SOL    HW1 8963   2.944   1.559   0.644
 2688SOL    HW2 8964   2.921   1.512   0.799
 2689SOL     OW 8965   0.239   4.076   2.601
 2689SOL    HW1 8966   0.242   4.107   2.506
 2689SOL    HW2 8967   0.242   3.976   2.604
 2690SOL     OW 8968   3.007   3.300   6.799
 2690SOL    HW1 8969   2.963   3.241   6.731
 2690SOL    HW2 8970   2.999   3.395   6.771
 2691SOL     OW 8971   0.177   4.454   3.622
 2691SOL    HW1 8972   0.132   4.500   3.699
 2691SOL    HW2 8973   0.109   4.430   3.553
 2692SOL     OW 8974   2.215   6.717   2.861
 2692SOL    HW1 8975   2.165   6.631   2.860
 2692SOL    HW2 8976   2.151   6.794   2.859
 2693SOL     OW 8977   2.124   4.609   3.986
 2693SOL    HW1 8978   2.030   4.580   4.002
 2693SOL    HW2 8979   2.169   4.544   3.925
 2694SOL     OW 8980   4.138   6.834   3.123
 2694SOL    HW1 8981   4.131   6.933   3.110
 2694SOL    HW2 8982   4.235   6.807   3.118
 2695SOL     OW 8983   5.862   6.789   2.970
 2695SOL    HW1 8984   5.888   6.854   3.041
 2695SOL    HW2 8985   5.859   6.835   2.881
 2696SOL     OW 8986   4.639   4.115   5.640
 2696SOL    HW1 8987   4.610   4.200   5.684
 2696SOL    HW2 8988   4.576   4.093   5.565
 2697SOL     OW 8989   4.449   1.959   2.591
 2697SOL    HW1 8990   4.521   1.890   2.587
 2697SOL    HW2 8991   4.365   1.917   2.624
 2698SOL     OW 8992   2.124   4.834   6.596
 2698SOL    HW1 8993   2.062   4.759   6.617
 2698SOL    HW2 8994   2.184   4.850   6.675
 2699SOL     OW 8995   2.729   5.923   1.105
 2699SOL    HW1 8996   2.802   5.959   1.163
 2699SOL    HW2 8997   2.654   5.890   1.162
 2700SOL     OW 8998   2.639   1.578   1.190
 2700SOL    HW1 8999   2.688   1.492   1.201
 2700SOL    HW2 9000   2.664   1.641   1.264
 2701SOL     OW 9001   5.333   2.127   5.588
 2701SOL    HW1 9002   5.254   2.109   5.530
 2701SOL    HW2 9003   5.306   2.122   5.684
 2702SOL     OW 9004   1.039   1.986   3.151
 2702SOL    HW1 9005   1.061   1.963   3.056
 2702SOL    HW2 9006   1.073   2.078   3.172
 2703SOL     OW 9007   1.558   5.475   1.438
 2703SOL    HW1 9008   1.595   5.542   1.502
 2703SOL    HW2 9009   1.471   5.508   1.402
 2704SOL     OW 9010   6.948   5.419   1.866
 2704SOL    HW1 9011   6.963   5.470   1.782
 2704SOL    HW2 9012   0.013   5.387   1.903
 2705SOL     OW 9013   6.679   0.960   5.038
 2705SOL    HW1 9014   6.740   0.927   4.966
 2705SOL    HW2 9015   6.675   0.892   5.112
 2706SOL     OW 9016   6.446   4.623   4.130
 2706SOL    HW1 9017   6.523   4.571   4.092
 2706SOL    HW2 9018   6.459   4.635   4.228
 2707SOL     OW 9019   4.093   0.125   4.185
 2707SOL    HW1 9020   4.173   0.084   4.142
 2707SOL    HW2 9021   4.089   0.097   4.281
 2708SOL     OW 9022   6.536   2.736   0.774
 2708SOL    HW1 9023   6.552   2.831   0.748
 2708SOL    HW2 9024   6.442   2.710   0.748
 2709SOL     OW 9025   4.763   0.029   6.445
 2709SOL    HW1 9026   4.670   0.057   6.421
 2709SOL    HW2 9027   4.813   0.107   6.483
 2710SOL     OW 9028   1.876   2.881   3.758
 2710SOL    HW1 9029   1.971   2.857   3.738
 2710SOL    HW2 9030   1.874   2.945   3.835
 2711SOL     OW 9031   3.076   1.129   3.587
 2711SOL    HW1 9032   3.166   1.119   3.546
 2711SOL    HW2 9033   3.081   1.106   3.685
 2712SOL     OW 9034   2.811   5.283   2.156
 2712SOL    HW1 9035   2.909   5.302   2.150
 2712SOL    HW2 9036   2.772   5.336   2.232
 2713SOL     OW 9037   3.949   3.977   6.453
 2713SOL    HW1 9038   4.024   3.980   6.387
 2713SOL    HW2 9039   3.862   3.971   6.405
 2714SOL     OW 9040   3.705   3.774   0.037
 2714SOL    HW1 9041   3.758   3.691   0.021
 2714SOL    HW2 9042   3.746   3.826   0.112
 2715SOL     OW 9043   5.466   2.207   0.784
 2715SOL    HW1 9044   5.506   2.297   0.801
 2715SOL    HW2 9045   5.377   2.218   0.740
 2716SOL     OW 9046   4.874   3.179   3.539
 2716SOL    HW1 9047   4.928   3.247   3.490
 2716SOL    HW2 9048   4.888   3.190   3.638
 2717SOL     OW 9049   0.800   6.673   2.047
 2717SOL    HW1 9050   0.812   6.677   2.146
 2717SOL    HW2 9051   0.872   6.727   2.003
 2718SOL     OW 9052   0.160   1.437   5.183
 2718SOL    HW1 9053   0.065   1.467   5.188
 2718SOL    HW2 9054   0.199   1.460   5.094
 2719SOL     OW 9055   1.208   4.466   1.829
 2719SOL    HW1 9056   1.188   4.512   1.742
 2719SOL    HW2 9057   1.284   4.403   1.816
 2720SOL     OW 9058   0.846   0.173   3.727
 2720SOL    HW1 9059   0.858   0.094   3.786
 2720SOL    HW2 9060   0.876   0.150   3.634
 2721SOL     OW 9061   3.386   6.605   3.257
 2721SOL    HW1 9062   3.470   6.557   3.232
 2721SOL    HW2 9063   3.336   6.630   3.174
 2722SOL     OW 9064   4.888   5.288   6.433
 2722SOL    HW1 9065   4.827   5.328   6.365
 2722SOL    HW2 9066   4.941   5.213   6.392
 2723SOL     OW 9067   2.347   6.403   6.544
 2723SOL    HW1 9068   2.257   6.446   6.535
 2723SOL    HW2 9069   2.344   6.312   6.504
 2724SOL     OW 9070   1.546   6.313   6.472
 2724SOL    HW1 9071   1.512   6.250   6.402
 2724SOL    HW2 9072   1.510   6.286   6.561
 2725SOL     OW 9073   5.457   3.640   4.609
 2725SOL    HW1 9074   5.501   3.589   4.683
 2725SOL    HW2 9075   5.358   3.639   4.623
 2726SOL     OW 9076   0.649   1.852   1.680
 2726SOL    HW1 9077   0.713   1.911   1.630
 2726SOL    HW2 9078   0.575   1.908   1.718
 2727SOL     OW 9079   1.648   3.627   4.610
 2727SOL    HW1 9080   1.658   3.726   4.602
 2727SOL    HW2 9081   1.567   3.597   4.559
 2728SOL     OW 9082   5.368   6.026   6.361
 2728SOL    HW1 9083   5.387   6.016   6.459
 2728SOL    HW2 9084   5.319   6.112   6.345
 2729SOL     OW 9085   6.705   6.609   0.290
 2729SOL    HW1 9086   6.677   6.702   0.266
 2729SOL    HW2 9087   6.710   6.553   0.207
 2730SOL     OW 9088   0.872   5.898   1.880
 2730SOL    HW1 9089   0.779   5.917   1.911
 2730SOL    HW2 9090   0.908   5.978   1.831
 2731SOL     OW 9091   3.166   3.563   3.325
 2731SOL    HW1 9092   3.101   3.564   3.249
 2731SOL    HW2 9093   3.127   3.513   3.401
 2732SOL     OW 9094   6.019   2.241   1.216
 2732SOL    HW1 9095   6.010   2.340   1.215
 2732SOL    HW2 9096   5.946   2.201   1.272
 2733SOL     OW 9097   0.191   1.702   5.080
 2733SOL    HW1 9098   0.201   1.659   5.169
 2733SOL    HW2 9099   0.117   1.769   5.084
 2734SOL     OW 9100   3.541   5.627   1.625
 2734SOL    HW1 9101   3.532   5.532   1.595
 2734SOL    HW2 9102   3.551   5.686   1.545
 2735SOL     OW 9103   1.518   2.049   1.237
 2735SOL    HW1 9104   1.542   1.968   1.291
 2735SOL    HW2 9105   1.593   2.115   1.240
 2736SOL     OW 9106   6.183   6.361   4.802
 2736SOL    HW1 9107   6.171   6.343   4.704
 2736SOL    HW2 9108   6.270   6.321   4.832
 2737SOL     OW 9109   2.617   3.421   6.094
 2737SOL    HW1 9110   2.707   3.389   6.064
 2737SOL    HW2 9111   2.612   3.417   6.194
 2738SOL     OW 9112   6.091   6.602   2.403
 2738SOL    HW1 9113   6.087   6.670   2.477
 2738SOL    HW2 9114   6.001   6.559   2.393
 2739SOL     OW 9115   0.457   5.322   0.802
 2739SOL    HW1 9116   0.483   5.260   0.876
 2739SOL    HW2 9117   0.375   5.373   0.827
 2740SOL     OW 9118   6.554   5.151   1.781
 2740SOL    HW1 9119   6.621   5.190   1.844
 2740SOL    HW2 9120   6.589   5.065   1.743
 2741SOL     OW 9121   0.180   2.153   4.938
 2741SOL    HW1 9122   0.273   2.158   4.900
 2741SOL    HW2 9123   0.162   2.060   4.969
 2742SOL     OW 9124   2.150   5.125   1.248
 2742SOL    HW1 9125   2.079   5.070   1.204
 2742SOL    HW2 9126   2.170   5.205   1.192
 2743SOL     OW 9127   6.665   4.563   2.327
 2743SOL    HW1 9128   6.627   4.625   2.395
 2743SOL    HW2 9129   6.656   4.604   2.236
 2744SOL     OW 9130   4.253   3.297   1.691
 2744SOL    HW1 9131   4.178   3.276   1.753
 2744SOL    HW2 9132   4.230   3.265   1.599
 2745SOL     OW 9133   6.703   1.429   5.483
 2745SOL    HW1 9134   6.681   1.513   5.532
 2745SOL    HW2 9135   6.685   1.350   5.542
 2746SOL     OW 9136   0.792   2.510   4.140
 2746SOL    HW1 9137   0.868   2.560   4.097
 2746SOL    HW2 9138   0.829   2.441   4.201
 2747SOL     OW 9139   4.872   5.747   6.780
 2747SOL    HW1 9140   4.863   5.683   6.856
 2747SOL    HW2 9141   4.833   5.707   6.697
 2748SOL     OW 9142   4.360   0.745   1.953
 2748SOL    HW1 9143   4.333   0.826   1.901
 2748SOL    HW2 9144   4.352   0.764   2.050
 2749SOL     OW 9145   0.332   4.887   0.858
 2749SOL    HW1 9146   0.284   4.963   0.903
 2749SOL    HW2 9147   0.425   4.915   0.836
 2750SOL     OW 9148   1.958   4.288   2.232
 2750SOL    HW1 9149   1.975   4.292   2.134
 2750SOL    HW2 9150   1.893   4.215   2.252
 2751SOL     OW 9151   1.588   2.408   1.674
 2751SOL    HW1 9152   1.510   2.364   1.720
 2751SOL    HW2 9153   1.554   2.468   1.602
 2752SOL     OW 9154   3.327   4.211   6.098
 2752SOL    HW1 9155   3.346   4.139   6.166
 2752SOL    HW2 9156   3.295   4.293   6.145
 2753SOL     OW 9157   0.054   6.029   4.890
 2753SOL    HW1 9158   0.059   6.062   4.795
 2753SOL    HW2 9159   7.013   5.952   4.895
 2754SOL     OW 9160   0.293   0.213   6.877
 2754SOL    HW1 9161   0.236   0.275   6.931
 2754SOL    HW2 9162   0.320   0.135   6.933
 2755SOL     OW 9163   3.900   0.264   3.083
 2755SOL    HW1 9164   3.855   0.351   3.068
 2755SOL    HW2 9165   3.864   0.221   3.166
 2756SOL     OW 9166   4.176   6.248   0.493
 2756SOL    HW1 9167   4.079   6.246   0.517
 2756SOL    HW2 9168   4.208   6.343   0.489
 2757SOL     OW 9169   1.858   6.900   0.836
 2757SOL    HW1 9170   1.773   6.908   0.887
 2757SOL    HW2 9171   1.926   6.851   0.892
 2758SOL     OW 9172   4.718   0.021   4.812
 2758SOL    HW1 9173   4.670   0.090   4.758
 2758SOL    HW2 9174   4.799   7.013   4.762
 2759SOL     OW 9175   5.591   6.612   5.638
 2759SOL    HW1 9176   5.641   6.565   5.566
 2759SOL    HW2 9177   5.529   6.679   5.598
 2760SOL     OW 9178   0.933   5.813   1.200
 2760SOL    HW1 9179   0.924   5.732   1.257
 2760SOL    HW2 9180   0.868   5.883   1.231
 2761SOL     OW 9181   2.172   4.428   4.411
 2761SOL    HW1 9182   2.201   4.436   4.315
 2761SOL    HW2 9183   2.237   4.370   4.460
 2762SOL     OW 9184   1.050   0.964   4.704
 2762SOL    HW1 9185   0.960   1.006   4.690
 2762SOL    HW2 9186   1.118   1.036   4.715
 2763SOL     OW 9187   5.723   1.634   3.779
 2763SOL    HW1 9188   5.807   1.684   3.754
 2763SOL    HW2 9189   5.710   1.557   3.716
 2764SOL     OW 9190   6.333   0.293   0.958
 2764SOL    HW1 9191   6.322   0.383   0.917
 2764SOL    HW2 9192   6.402   0.241   0.907
 2765SOL     OW 9193   5.691   0.102   0.652
 2765SOL    HW1 9194   5.658   0.188   0.614
 2765SOL    HW2 9195   5.696   0.109   0.752
 2766SOL     OW 9196   4.961   2.860   0.361
 2766SOL    HW1 9197   4.916   2.843   0.449
 2766SOL    HW2 9198   4.975   2.958   0.349
 2767SOL     OW 9199   6.821   4.909   6.771
 2767SOL    HW1 9200   6.766   4.948   6.697
 2767SOL    HW2 9201   6.800   4.811   6.780
 2768SOL     OW 9202   4.911   0.712   0.446
 2768SOL    HW1 9203   4.934   0.639   0.381
 2768SOL    HW2 9204   4.987   0.777   0.450
 2769SOL     OW 9205   0.467   4.110   3.976
 2769SOL    HW1 9206   0.410   4.192   3.970
 2769SOL    HW2 9207   0.506   4.090   3.886
 2770SOL     OW 9208   2.485   5.581   6.341
 2770SOL    HW1 9209   2.579   5.581   6.374
 2770SOL    HW2 9210   2.449   5.488   6.345
 2771SOL     OW 9211   5.735   1.382   2.054
 2771SOL    HW1 9212   5.772   1.289   2.050
 2771SOL    HW2 9213   5.808   1.445   2.079
 2772SOL     OW 9214   4.751   1.730   1.136
 2772SOL    HW1 9215   4.707   1.700   1.221
 2772SOL    HW2 9216   4.685   1.728   1.061
 2773SOL     OW 9217   5.715   3.128   5.499
 2773SOL    HW1 9218   5.693   3.221   5.528
 2773SOL    HW2 9219   5.756   3.078   5.576
 2774SOL     OW 9220   6.535   3.481   2.570
 2774SOL    HW1 9221   6.505   3.534   2.490
 2774SOL    HW2 9222   6.568   3.391   2.540
 2775SOL     OW 9223   0.229   5.285   6.853
 2775SOL    HW1 9224   0.208   5.380   6.828
 2775SOL    HW2 9225   0.324   5.279   6.883
 2776SOL     OW 9226   5.315   5.207   5.522
 2776SOL    HW1 9227   5.231   5.260   5.512
 2776SOL    HW2 9228   5.364   5.237   5.604
 2777SOL     OW 9229   2.677   0.929   1.948
 2777SOL    HW1 9230   2.687   0.863   1.874
 2777SOL    HW2 9231   2.657   0.882   2.033
 2778SOL     OW 9232   1.249   0.777   4.657
 2778SOL    HW1 9233   1.199   0.859   4.683
 2778SOL    HW2 9234   1.214   0.699   4.709
 2779SOL     OW 9235   4.950   6.653   0.948
 2779SOL    HW1 9236   4.917   6.562   0.924
 2779SOL    HW2 9237   5.010   6.687   0.875
 2780SOL     OW 9238   0.046   5.898   6.591
 2780SOL    HW1 9239   0.087   5.859   6.509
 2780SOL    HW2 9240   0.042   5.998   6.582
 2781SOL     OW 9241   6.130   5.639   1.570
 2781SOL    HW1 9242   6.148   5.666   1.664
 2781SOL    HW2 9243   6.175   5.703   1.508
 2782SOL     OW 9244   2.989   2.031   5.643
 2782SOL    HW1 9245   2.920   1.981   5.592
 2782SOL    HW2 9246   3.062   2.059   5.581
 2783SOL     OW 9247   5.981   3.177   4.771
 2783SOL    HW1 9248   5.974   3.124   4.686
 2783SOL    HW2 9249   5.997   3.115   4.848
 2784SOL     OW 9250   3.086   1.765   1.307
 2784SOL    HW1 9251   3.148   1.694   1.273
 2784SOL    HW2 9252   3.017   1.786   1.238
 2785SOL     OW 9253   5.972   1.597   0.841
 2785SOL    HW1 9254   5.944   1.575   0.748
 2785SOL    HW2 9255   5.950   1.692   0.862
 2786SOL     OW 9256   4.249   5.577   1.941
 2786SOL    HW1 9257   4.312   5.505   1.970
 2786SOL    HW2 9258   4.174   5.583   2.007
 2787SOL     OW 9259   2.863   2.716   6.637
 2787SOL    HW1 9260   2.903   2.647   6.698
 2787SOL    HW2 9261   2.860   2.680   6.544
 2788SOL     OW 9262   2.727   4.448   6.943
 2788SOL    HW1 9263   2.757   4.541   6.920
 2788SOL    HW2 9264   2.627   4.442   6.931
 2789SOL     OW 9265   2.175   2.979   3.289
 2789SOL    HW1 9266   2.183   3.078   3.298
 2789SOL    HW2 9267   2.176   2.936   3.379
 2790SOL     OW 9268   2.542   5.168   2.318
 2790SOL    HW1 9269   2.575   5.254   2.357
 2790SOL    HW2 9270   2.600   5.093   2.348
 2791SOL     OW 9271   1.238   3.866   4.400
 2791SOL    HW1 9272   1.207   3.817   4.319
 2791SOL    HW2 9273   1.194   3.827   4.481
 2792SOL     OW 9274   0.808   6.949   4.831
 2792SOL    HW1 9275   0.790   6.875   4.765
 2792SOL    HW2 9276   0.820   6.910   4.922
 2793SOL     OW 9277   4.839   3.127   2.772
 2793SOL    HW1 9278   4.922   3.124   2.828
 2793SOL    HW2 9279   4.808   3.221   2.763
 2794SOL     OW 9280   6.824   2.595   1.118
 2794SOL    HW1 9281   6.798   2.661   1.188
 2794SOL    HW2 9282   6.744   2.569   1.065
 2795SOL     OW 9283   2.266   3.455   0.597
 2795SOL    HW1 9284   2.234   3.367   0.564
 2795SOL    HW2 9285   2.292   3.447   0.694
 2796SOL     OW 9286   6.592   5.207   2.713
 2796SOL    HW1 9287   6.509   5.257   2.737
 2796SOL    HW2 9288   6.614   5.223   2.617
 2797SOL     OW 9289   4.783   5.302   4.286
 2797SOL    HW1 9290   4.845   5.229   4.258
 2797SOL    HW2 9291   4.824   5.356   4.359
 2798SOL     OW 9292   1.559   4.642   1.796
 2798SOL    HW1 9293   1.487   4.666   1.861
 2798SOL    HW2 9294   1.630   4.589   1.842
 2799SOL     OW 9295   0.113   6.497   0.108
 2799SOL    HW1 9296   0.053   6.440   0.051
 2799SOL    HW2 9297   0.140   6.578   0.056
 2800SOL     OW 9298   4.539   5.307   6.620
 2800SOL    HW1 9299   4.497   5.289   6.709
 2800SOL    HW2 9300   4.622   5.252   6.610
 2801SOL     OW 9301   4.768   5.701   4.858
 2801SOL    HW1 9302   4.724   5.614   4.838
 2801SOL    HW2 9303   4.731   5.772   4.798
 2802SOL     OW 9304   4.584   2.778   6.075
 2802SOL    HW1 9305   4.565   2.850   6.009
 2802SOL    HW2 9306   4.667   2.729   6.047
 2803SOL     OW 9307   3.512   6.191   6.094
 2803SOL    HW1 9308   3.466   6.147   6.171
 2803SOL    HW2 9309   3.551   6.278   6.123
 2804SOL     OW 9310   6.960   5.045   4.604
 2804SOL    HW1 9311   6.866   5.033   4.635
 2804SOL    HW2 9312   7.020   4.984   4.656
 2805SOL     OW 9313   5.048   2.620   1.994
 2805SOL    HW1 9314   5.098   2.565   1.927
 2805SOL    HW2 9315   5.108   2.643   2.070
 2806SOL     OW 9316   6.974   5.093   4.066
 2806SOL    HW1 9317   7.015   5.091   3.975
 2806SOL    HW2 9318   6.898   5.158   4.068
 2807SOL     OW 9319   6.093   5.462   3.642
 2807SOL    HW1 9320   6.066   5.552   3.606
 2807SOL    HW2 9321   6.180   5.435   3.601
 2808SOL     OW 9322   5.205   2.790   2.594
 2808SOL    HW1 9323   5.124   2.738   2.567
 2808SOL    HW2 9324   5.179   2.884   2.613
 2809SOL     OW 9325   5.758   2.670   1.903
 2809SOL    HW1 9326   5.820   2.592   1.896
 2809SOL    HW2 9327   5.728   2.697   1.811
 2810SOL     OW 9328   3.257   6.294   4.120
 2810SOL    HW1 9329   3.357   6.300   4.131
 2810SOL    HW2 9330   3.225   6.205   4.154
 2811SOL     OW 9331   0.805   0.741   3.308
 2811SOL    HW1 9332   0.815   0.648   3.342
 2811SOL    HW2 9333   0.727   0.746   3.246
 2812SOL     OW 9334   5.484   3.647   0.199
 2812SOL    HW1 9335   5.478   3.622   0.103
 2812SOL    HW2 9336   5.467   3.745   0.210
 2813SOL     OW 9337   6.609   0.359   5.750
 2813SOL    HW1 9338   6.560   0.418   5.814
 2813SOL    HW2 9339   6.582   0.264   5.764
 2814SOL     OW 9340   5.149   3.269   6.617
 2814SOL    HW1 9341   5.209   3.190   6.628
 2814SOL    HW2 9342   5.054   3.239   6.618
 2815SOL     OW 9343   6.977   1.454   5.539
 2815SOL    HW1 9344   6.890   1.439   5.492
 2815SOL    HW2 9345   6.960   1.466   5.637
 2816SOL     OW 9346   6.746   6.126   3.593
 2816SOL    HW1 9347   6.773   6.200   3.532
 2816SOL    HW2 9348   6.805   6.046   3.577
 2817SOL     OW 9349   2.147   6.786   1.207
 2817SOL    HW1 9350   2.160   6.727   1.286
 2817SOL    HW2 9351   2.135   6.881   1.238
 2818SOL     OW 9352   0.123   6.751   7.022
 2818SOL    HW1 9353   0.144   6.787   6.931
 2818SOL    HW2 9354   0.132   6.823   0.068
 2819SOL     OW 9355   0.352   1.236   1.282
 2819SOL    HW1 9356   0.370   1.324   1.325
 2819SOL    HW2 9357   0.397   1.164   1.335
 2820SOL     OW 9358   1.282   1.835   3.064
 2820SOL    HW1 9359   1.363   1.868   3.016
 2820SOL    HW2 9360   1.309   1.797   3.153
 2821SOL     OW 9361   4.076   3.442   0.103
 2821SOL    HW1 9362   4.030   3.353   0.100
 2821SOL    HW2 9363   4.031   3.505   0.040
 2822SOL     OW 9364   4.301   1.993   0.061
 2822SOL    HW1 9365   4.252   2.077   0.085
 2822SOL    HW2 9366   4.374   2.014   7.019
 2823SOL     OW 9367   3.417   6.708   0.402
 2823SOL    HW1 9368   3.441   6.800   0.370
 2823SOL    HW2 9369   3.333   6.713   0.457
 2824SOL     OW 9370   2.630   1.094   4.229
 2824SOL    HW1 9371   2.590   1.009   4.262
 2824SOL    HW2 9372   2.689   1.074   4.150
 2825SOL     OW 9373   6.713   0.551   6.783
 2825SOL    HW1 9374   6.759   0.639   6.787
 2825SOL    HW2 9375   6.672   0.538   6.693
 2826SOL     OW 9376   5.285   2.205   0.070
 2826SOL    HW1 9377   5.240   2.252   0.146
 2826SOL    HW2 9378   5.232   2.123   0.046
 2827SOL     OW 9379   5.960   0.981   4.953
 2827SOL    HW1 9380   5.994   0.887   4.959
 2827SOL    HW2 9381   5.955   1.021   5.044
 2828SOL     OW 9382   2.908   0.855   0.208
 2828SOL    HW1 9383   2.962   0.870   0.124
 2828SOL    HW2 9384   2.848   0.934   0.223
 2829SOL     OW 9385   3.487   3.759   5.824
 2829SOL    HW1 9386   3.550   3.836   5.827
 2829SOL    HW2 9387   3.454   3.747   5.730
 2830SOL     OW 9388   0.794   3.287   6.672
 2830SOL    HW1 9389   0.712   3.311   6.619
 2830SOL    HW2 9390   0.772   3.291   6.770
 2831SOL     OW 9391   0.717   6.033   3.664
 2831SOL    HW1 9392   0.646   5.976   3.707
 2831SOL    HW2 9393   0.804   5.984   3.665
 2832SOL     OW 9394   0.802   1.239   2.208
 2832SOL    HW1 9395   0.777   1.270   2.116
 2832SOL    HW2 9396   0.768   1.304   2.276
 2833SOL     OW 9397   4.620   2.652   2.695
 2833SOL    HW1 9398   4.565   2.593   2.755
 2833SOL    HW2 9399   4.574   2.662   2.607
 2834SOL     OW 9400   2.729   6.872   5.370
 2834SOL    HW1 9401   2.708   6.948   5.432
 2834SOL    HW2 9402   2.720   6.786   5.420
 2835SOL     OW 9403   6.980   0.562   2.362
 2835SOL    HW1 9404   6.932   0.597   2.281
 2835SOL    HW2 9405   0.056   0.579   2.351
 2836SOL     OW 9406   6.100   6.931   1.881
 2836SOL    HW1 9407   6.065   7.014   1.925
 2836SOL    HW2 9408   6.051   6.851   1.916
 2837SOL     OW 9409   5.754   3.721   3.098
 2837SOL    HW1 9410   5.691   3.674   3.036
 2837SOL    HW2 9411   5.764   3.816   3.070
 2838SOL     OW 9412   1.966   4.154   1.073
 2838SOL    HW1 9413   1.880   4.123   1.113
 2838SOL    HW2 9414   2.036   4.084   1.085
 2839SOL     OW 9415   5.747   1.953   1.797
 2839SOL    HW1 9416   5.698   2.022   1.851
 2839SOL    HW2 9417   5.840   1.986   1.778
 2840SOL     OW 9418   1.427   0.900   3.736
 2840SOL    HW1 9419   1.477   0.946   3.663
 2840SOL    HW2 9420   1.362   0.963   3.778
 2841SOL     OW 9421   0.638   1.235   5.818
 2841SOL    HW1 9422   0.627   1.169   5.744
 2841SOL    HW2 9423   0.689   1.314   5.785
 2842SOL     OW 9424   0.002   3.574   4.333
 2842SOL    HW1 9425   0.054   3.610   4.411
 2842SOL    HW2 9426   7.021   3.643   4.261
 2843SOL     OW 9427   2.588   1.556   2.856
 2843SOL    HW1 9428   2.537   1.521   2.778
 2843SOL    HW2 9429   2.675   1.508   2.863
 2844SOL     OW 9430   1.087   5.676   0.457
 2844SOL    HW1 9431   1.113   5.755   0.401
 2844SOL    HW2 9432   1.054   5.709   0.546
 2845SOL     OW 9433   0.642   2.963   1.153
 2845SOL    HW1 9434   0.722   3.003   1.109
 2845SOL    HW2 9435   0.604   2.891   1.094
 2846SOL     OW 9436   4.283   1.203   6.634
 2846SOL    HW1 9437   4.342   1.204   6.715
 2846SOL    HW2 9438   4.330   1.154   6.560
 2847SOL     OW 9439   5.212   3.260   3.247
 2847SOL    HW1 9440   5.223   3.221   3.339
 2847SOL    HW2 9441   5.119   3.245   3.215
 2848SOL     OW 9442   1.390   3.129   6.177
 2848SOL    HW1 9443   1.300   3.153   6.213
 2848SOL    HW2 9444   1.380   3.081   6.090
 2849SOL     OW 9445   3.516   6.955   1.117
 2849SOL    HW1 9446   3.497   0.009   1.055
 2849SOL    HW2 9447   3.585   6.983   1.184
 2850SOL     OW 9448   3.318   6.942   2.596
 2850SOL    HW1 9449   3.276   0.008   2.577
 2850SOL    HW2 9450   3.327   6.929   2.694
 2851SOL     OW 9451   0.156   2.763   5.702
 2851SOL    HW1 9452   0.103   2.747   5.785
 2851SOL    HW2 9453   0.219   2.839   5.716
 2852SOL     OW 9454   5.916   4.194   0.570
 2852SOL    HW1 9455   5.868   4.282   0.573
 2852SOL    HW2 9456   5.851   4.121   0.552
 2853SOL     OW 9457   2.103   2.522   0.481
 2853SOL    HW1 9458   2.142   2.443   0.528
 2853SOL    HW2 9459   2.055   2.580   0.547
 2854SOL     OW 9460   3.875   1.018   5.256
 2854SOL    HW1 9461   3.833   1.043   5.168
 2854SOL    HW2 9462   3.861   0.920   5.272
 2855SOL     OW 9463   2.744   1.023   6.195
 2855SOL    HW1 9464   2.713   1.014   6.290
 2855SOL    HW2 9465   2.686   1.089   6.148
 2856SOL     OW 9466   1.661   2.739   5.733
 2856SOL    HW1 9467   1.671   2.795   5.815
 2856SOL    HW2 9468   1.625   2.795   5.659
 2857SOL     OW 9469   3.120   1.631   2.313
 2857SOL    HW1 9470   3.069   1.717   2.305
 2857SOL    HW2 9471   3.168   1.630   2.400
 2858SOL     OW 9472   5.429   3.724   1.968
 2858SOL    HW1 9473   5.381   3.775   1.896
 2858SOL    HW2 9474   5.449   3.784   2.045
 2859SOL     OW 9475   5.061   2.484   0.117
 2859SOL    HW1 9476   4.963   2.481   0.094
 2859SOL    HW2 9477   5.115   2.461   0.036
 2860SOL     OW 9478   3.653   1.717   1.205
 2860SOL    HW1 9479   3.720   1.778   1.163
 2860SOL    HW2 9480   3.670   1.711   1.303
 2861SOL     OW 9481   4.387   4.626   6.124
 2861SOL    HW1 9482   4.366   4.673   6.209
 2861SOL    HW2 9483   4.460   4.675   6.076
 2862SOL     OW 9484   5.253   2.203   3.367
 2862SOL    HW1 9485   5.188   2.138   3.328
 2862SOL    HW2 9486   5.253   2.195   3.467
 2863SOL     OW 9487   4.907   1.439   0.104
 2863SOL    HW1 9488   4.887   1.503   0.030
 2863SOL    HW2 9489   4.846   1.457   0.181
 2864SOL     OW 9490   4.292   1.042   1.567
 2864SOL    HW1 9491   4.247   1.131   1.562
 2864SOL    HW2 9492   4.367   1.039   1.501
 2865SOL     OW 9493   5.577   4.666   5.439
 2865SOL    HW1 9494   5.525   4.743   5.403
 2865SOL    HW2 9495   5.638   4.698   5.512
 2866SOL     OW 9496   6.361   5.924   0.109
 2866SOL    HW1 9497   6.411   5.974   0.180
 2866SOL    HW2 9498   6.376   5.969   0.021
 2867SOL     OW 9499   5.523   3.917   2.156
 2867SOL    HW1 9500   5.456   3.974   2.203
 2867SOL    HW2 9501   5.607   3.912   2.211
 2868SOL     OW 9502   0.231   2.775   5.146
 2868SOL    HW1 9503   0.240   2.758   5.048
 2868SOL    HW2 9504   0.173   2.854   5.161
 2869SOL     OW 9505   5.972   1.040   3.978
 2869SOL    HW1 9506   6.005   0.963   4.033
 2869SOL    HW2 9507   5.963   1.121   4.037
 2870SOL     OW 9508   0.586   1.628   4.268
 2870SOL    HW1 9509   0.681   1.649   4.244
 2870SOL    HW2 9510   0.551   1.700   4.329
 2871SOL     OW 9511   0.917   2.318   0.262
 2871SOL    HW1 9512   0.944   2.222   0.254
 2871SOL    HW2 9513   0.995   2.377   0.241
 2872SOL     OW 9514   2.735   1.873   3.306
 2872SOL    HW1 9515   2.748   1.889   3.208
 2872SOL    HW2 9516   2.820   1.837   3.345
 2873SOL     OW 9517   0.211   4.825   2.983
 2873SOL    HW1 9518   0.133   4.781   2.938
 2873SOL    HW2 9519   0.282   4.757   3.002
 2874SOL     OW 9520   4.172   6.364   3.253
 2874SOL    HW1 9521   4.230   6.329   3.328
 2874SOL    HW2 9522   4.225   6.369   3.169
 2875SOL     OW 9523   5.143   6.324   0.507
 2875SOL    HW1 9524   5.054   6.371   0.503
 2875SOL    HW2 9525   5.199   6.364   0.579
 2876SOL     OW 9526   0.685   0.243   2.052
 2876SOL    HW1 9527   0.648   0.254   2.144
 2876SOL    HW2 9528   0.778   0.279   2.050
 2877SOL     OW 9529   3.790   2.813   5.251
 2877SOL    HW1 9530   3.793   2.885   5.320
 2877SOL    HW2 9531   3.878   2.765   5.249
 2878SOL     OW 9532   4.090   5.195   4.629
 2878SOL    HW1 9533   4.174   5.162   4.671
 2878SOL    HW2 9534   4.104   5.287   4.592
 2879SOL     OW 9535   5.181   4.471   0.909
 2879SOL    HW1 9536   5.278   4.491   0.926
 2879SOL    HW2 9537   5.125   4.518   0.978
 2880SOL     OW 9538   5.976   6.983   1.155
 2880SOL    HW1 9539   6.030   0.020   1.097
 2880SOL    HW2 9540   5.898   6.948   1.103
 2881SOL     OW 9541   5.723   6.376   0.571
 2881SOL    HW1 9542   5.807   6.427   0.588
 2881SOL    HW2 9543   5.700   6.380   0.474
 2882SOL     OW 9544   0.542   4.533   2.446
 2882SOL    HW1 9545   0.498   4.573   2.526
 2882SOL    HW2 9546   0.482   4.541   2.367
 2883SOL     OW 9547   5.352   6.346   3.751
 2883SOL    HW1 9548   5.426   6.344   3.818
 2883SOL    HW2 9549   5.350   6.435   3.705
 2884SOL     OW 9550   0.624   5.317   3.327
 2884SOL    HW1 9551   0.562   5.332   3.250
 2884SOL    HW2 9552   0.663   5.404   3.356
 2885SOL     OW 9553   0.700   3.246   2.297
 2885SOL    HW1 9554   0.772   3.277   2.359
 2885SOL    HW2 9555   0.731   3.164   2.249
 2886SOL     OW 9556   2.694   4.000   6.576
 2886SOL    HW1 9557   2.634   3.948   6.515
 2886SOL    HW2 9558   2.736   4.075   6.525
 2887SOL     OW 9559   1.416   0.179   4.488
 2887SOL    HW1 9560   1.399   0.127   4.571
 2887SOL    HW2 9561   1.369   0.267   4.493
 2888SOL     OW 9562   0.883   4.381   6.928
 2888SOL    HW1 9563   0.927   4.356   7.015
 2888SOL    HW2 9564   0.940   4.350   6.852
 2889SOL     OW 9565   2.105   6.962   2.574
 2889SOL    HW1 9566   2.020   6.912   2.592
 2889SOL    HW2 9567   2.091   0.037   2.591
 2890SOL     OW 9568   2.954   0.174   0.803
 2890SOL    HW1 9569   2.949   0.075   0.816
 2890SOL    HW2 9570   2.891   0.220   0.867
 2891SOL     OW 9571   2.112   3.738   3.631
 2891SOL    HW1 9572   2.026   3.788   3.618
 2891SOL    HW2 9573   2.182   3.801   3.665
 2892SOL     OW 9574   5.338   3.722   6.755
 2892SOL    HW1 9575   5.327   3.630   6.717
 2892SOL    HW2 9576   5.324   3.790   6.683
 2893SOL     OW 9577   6.908   6.428   4.838
 2893SOL    HW1 9578   6.944   6.499   4.898
 2893SOL    HW2 9579   6.976   6.406   4.768
 2894SOL     OW 9580   2.879   2.863   0.397
 2894SOL    HW1 9581   2.780   2.873   0.398
 2894SOL    HW2 9582   2.903   2.776   0.354
 2895SOL     OW 9583   4.080   2.717   6.574
 2895SOL    HW1 9584   3.992   2.690   6.613
 2895SOL    HW2 9585   4.154   2.684   6.633
 2896SOL     OW 9586   3.343   5.166   6.816
 2896SOL    HW1 9587   3.392   5.153   6.902
 2896SOL    HW2 9588   3.390   5.236   6.761
 2897SOL     OW 9589   3.273   5.770   3.206
 2897SOL    HW1 9590   3.226   5.773   3.294
 2897SOL    HW2 9591   3.245   5.848   3.151
 2898SOL     OW 9592   4.277   5.103   3.910
 2898SOL    HW1 9593   4.346   5.149   3.853
 2898SOL    HW2 9594   4.250   5.163   3.985
 2899SOL     OW 9595   0.612   1.832   6.939
 2899SOL    HW1 9596   0.602   1.856   0.013
 2899SOL    HW2 9597   0.708   1.813   6.919
 2900SOL     OW 9598   2.203   4.771   5.551
 2900SOL    HW1 9599   2.149   4.855   5.554
 2900SOL    HW2 9600   2.256   4.763   5.636
 2901SOL     OW 9601   2.019   0.218   3.190
 2901SOL    HW1 9602   1.948   0.286   3.173
 2901SOL    HW2 9603   2.080   0.213   3.111
 2902SOL     OW 9604   5.329   6.294   1.801
 2902SOL    HW1 9605   5.339   6.250   1.890
 2902SOL    HW2 9606   5.413   6.345   1.780
 2903SOL     OW 9607   3.219   0.328   0.785
 2903SOL    HW1 9608   3.291   0.270   0.824
 2903SOL    HW2 9609   3.131   0.303   0.825
 2904SOL     OW 9610   1.810   3.440   5.740
 2904SOL    HW1 9611   1.909   3.444   5.746
 2904SOL    HW2 9612   1.781   3.449   5.645
 2905SOL     OW 9613   1.612   2.525   3.542
 2905SOL    HW1 9614   1.561   2.556   3.462
 2905SOL    HW2 9615   1.692   2.472   3.513
 2906SOL     OW 9616   5.157   5.401   2.739
 2906SOL    HW1 9617   5.173   5.452   2.654
 2906SOL    HW2 9618   5.080   5.339   2.727
 2907SOL     OW 9619   0.475   1.141   3.938
 2907SOL    HW1 9620   0.480   1.241   3.948
 2907SOL    HW2 9621   0.453   1.100   4.026
 2908SOL     OW 9622   4.565   6.968   4.124
 2908SOL    HW1 9623   4.523   0.034   4.103
 2908SOL    HW2 9624   4.655   6.982   4.164
 2909SOL     OW 9625   0.486   6.202   3.869
 2909SOL    HW1 9626   0.460   6.130   3.805
 2909SOL    HW2 9627   0.494   6.289   3.820
 2910SOL     OW 9628   4.846   5.914   4.249
 2910SOL    HW1 9629   4.917   5.932   4.181
 2910SOL    HW2 9630   4.829   5.815   4.254
 2911SOL     OW 9631   1.688   5.558   3.809
 2911SOL    HW1 9632   1.624   5.485   3.787
 2911SOL    HW2 9633   1.657   5.643   3.766
 2912SOL     OW 9634   4.288   0.011   6.404
 2912SOL    HW1 9635   4.257   7.008   6.495
 2912SOL    HW2 9636   4.251   0.101   6.380
 2913SOL     OW 9637   2.185   4.874   2.341
 2913SOL    HW1 9638   2.105   4.893   2.399
 2913SOL    HW2 9639   2.159   4.807   2.271
 2914SOL     OW 9640   6.013   6.501   5.763
 2914SOL    HW1 9641   5.963   6.587   5.772
 2914SOL    HW2 9642   6.108   6.514   5.791
 2915SOL     OW 9643   5.358   1.433   5.073
 2915SOL    HW1 9644   5.443   1.475   5.106
 2915SOL    HW2 9645   5.309   1.392   5.150
 2916SOL     OW 9646   6.532   5.788   6.069
 2916SOL    HW1 9647   6.533   5.694   6.036
 2916SOL    HW2 9648   6.438   5.816   6.087
 2917SOL     OW 9649   4.137   6.575   1.978
 2917SOL    HW1 9650   4.100   6.618   2.060
 2917SOL    HW2 9651   4.063   6.532   1.926
 2918SOL     OW 9652   6.846   3.982   3.510
 2918SOL    HW1 9653   6.792   4.065   3.521
 2918SOL    HW2 9654   6.790   3.912   3.465
 2919SOL     OW 9655   6.705   0.878   0.796
 2919SOL    HW1 9656   6.624   0.919   0.753
 2919SOL    HW2 9657   6.763   0.951   0.833
 2920SOL     OW 9658   2.894   1.860   2.234
 2920SOL    HW1 9659   2.893   1.847   2.333
 2920SOL    HW2 9660   2.931   1.951   2.213
 2921SOL     OW 9661   0.914   6.913   2.843
 2921SOL    HW1 9662   0.881   6.875   2.929
 2921SOL    HW2 9663   0.978   6.849   2.801
 2922SOL     OW 9664   5.959   0.319   0.139
 2922SOL    HW1 9665   5.903   0.276   0.210
 2922SOL    HW2 9666   5.992   0.248   0.077
 2923SOL     OW 9667   0.041   4.719   1.918
 2923SOL    HW1 9668   0.123   4.686   1.870
 2923SOL    HW2 9669   0.044   4.688   2.013
 2924SOL     OW 9670   0.377   1.978   6.775
 2924SOL    HW1 9671   0.419   1.888   6.789
 2924SOL    HW2 9672   0.387   2.033   6.859
 2925SOL     OW 9673   4.940   1.031   3.533
 2925SOL    HW1 9674   4.925   0.940   3.495
 2925SOL    HW2 9675   4.946   1.026   3.633
 2926SOL     OW 9676   0.360   1.423   4.539
 2926SOL    HW1 9677   0.282   1.452   4.484
 2926SOL    HW2 9678   0.339   1.433   4.636
 2927SOL     OW 9679   1.711   1.528   2.098
 2927SOL    HW1 9680   1.781   1.475   2.146
 2927SOL    HW2 9681   1.747   1.619   2.078
 2928SOL     OW 9682   6.821   2.316   6.141
 2928SOL    HW1 9683   6.828   2.221   6.112
 2928SOL    HW2 9684   6.912   2.349   6.168
 2929SOL     OW 9685   0.716   0.866   6.361
 2929SOL    HW1 9686   0.728   0.964   6.379
 2929SOL    HW2 9687   0.801   0.817   6.384
 2930SOL     OW 9688   4.379   6.336   5.065
 2930SOL    HW1 9689   4.350   6.296   4.979
 2930SOL    HW2 9690   4.443   6.410   5.048
 2931SOL     OW 9691   5.755   5.586   0.139
 2931SOL    HW1 9692   5.829   5.586   0.072
 2931SOL    HW2 9693   5.793   5.588   0.231
 2932SOL     OW 9694   1.333   5.396   1.921
 2932SOL    HW1 9695   1.411   5.395   1.859
 2932SOL    HW2 9696   1.333   5.311   1.975
 2933SOL     OW 9697   6.382   3.308   3.109
 2933SOL    HW1 9698   6.433   3.372   3.052
 2933SOL    HW2 9699   6.356   3.354   3.194
 2934SOL     OW 9700   4.319   1.557   0.281
 2934SOL    HW1 9701   4.387   1.576   0.352
 2934SOL    HW2 9702   4.277   1.642   0.251
 2935SOL     OW 9703   6.190   3.461   1.739
 2935SOL    HW1 9704   6.177   3.487   1.644
 2935SOL    HW2 9705   6.220   3.541   1.792
 2936SOL     OW 9706   4.657   5.046   2.371
 2936SOL    HW1 9707   4.633   5.140   2.397
 2936SOL    HW2 9708   4.741   5.047   2.317
 2937SOL     OW 9709   4.232   5.018   0.128
 2937SOL    HW1 9710   4.261   5.102   0.175
 2937SOL    HW2 9711   4.197   4.953   0.195
 2938SOL     OW 9712   5.392   4.861   5.722
 2938SOL    HW1 9713   5.339   4.906   5.794
 2938SOL    HW2 9714   5.482   4.834   5.758
 2939SOL     OW 9715   0.641   0.078   4.522
 2939SOL    HW1 9716   0.602   7.008   4.528
 2939SOL    HW2 9717   0.663   0.099   4.427
 2940SOL     OW 9718   5.905   6.861   6.356
 2940SOL    HW1 9719   5.844   6.937   6.379
 2940SOL    HW2 9720   5.983   6.860   6.419
 2941SOL     OW 9721   2.430   2.271   4.442
 2941SOL    HW1 9722   2.458   2.181   4.408
 2941SOL    HW2 9723   2.510   2.332   4.443
 2942SOL     OW 9724   2.496   2.207   1.330
 2942SOL    HW1 9725   2.546   2.273   1.386
 2942SOL    HW2 9726   2.551   2.181   1.252
 2943SOL     OW 9727   6.038   4.127   2.841
 2943SOL    HW1 9728   6.125   4.101   2.883
 2943SOL    HW2 9729   5.997   4.202   2.892
 2944SOL     OW 9730   2.405   6.007   5.136
 2944SOL    HW1 9731   2.362   5.956   5.062
 2944SOL    HW2 9732   2.399   6.105   5.117
 2945SOL     OW 9733   3.731   4.088   4.232
 2945SOL    HW1 9734   3.775   4.027   4.166
 2945SOL    HW2 9735   3.797   4.157   4.263
 2946SOL     OW 9736   0.935   5.453   6.495
 2946SOL    HW1 9737   0.906   5.469   6.589
 2946SOL    HW2 9738   0.914   5.533   6.439
 2947SOL     OW 9739   0.872   4.094   6.940
 2947SOL    HW1 9740   0.797   4.106   6.875
 2947SOL    HW2 9741   0.954   4.064   6.890
 2948SOL     OW 9742   0.160   4.714   5.518
 2948SOL    HW1 9743   0.214   4.781   5.467
 2948SOL    HW2 9744   0.147   4.632   5.463
 2949SOL     OW 9745   1.988   5.966   1.104
 2949SOL    HW1 9746   1.994   5.900   1.179
 2949SOL    HW2 9747   1.910   5.942   1.045
 2950SOL     OW 9748   4.899   3.712   4.619
 2950SOL    HW1 9749   4.886   3.806   4.650
 2950SOL    HW2 9750   4.872   3.649   4.691
 2951SOL     OW 9751   6.824   2.309   1.596
 2951SOL    HW1 9752   6.795   2.308   1.692
 2951SOL    HW2 9753   6.743   2.310   1.538
 2952SOL     OW 9754   0.983   6.277   5.422
 2952SOL    HW1 9755   0.991   6.183   5.390
 2952SOL    HW2 9756   0.898   6.317   5.387
 2953SOL     OW 9757   5.000   3.015   2.976
 2953SOL    HW1 9758   5.083   2.965   2.998
 2953SOL    HW2 9759   4.923   2.978   3.029
 2954SOL     OW 9760   0.905   5.359   1.701
 2954SOL    HW1 9761   0.986   5.339   1.646
 2954SOL    HW2 9762   0.913   5.313   1.790
 2955SOL     OW 9763   1.218   3.683   1.065
 2955SOL    HW1 9764   1.163   3.738   1.002
 2955SOL    HW2 9765   1.294   3.737   1.100
 2956SOL     OW 9766   6.065   6.361   2.912
 2956SOL    HW1 9767   5.980   6.347   2.962
 2956SOL    HW2 9768   6.125   6.282   2.925
 2957SOL     OW 9769   6.729   2.912   1.426
 2957SOL    HW1 9770   6.828   2.924   1.430
 2957SOL    HW2 9771   6.686   2.972   1.493
 2958SOL     OW 9772   2.526   4.492   4.688
 2958SOL    HW1 9773   2.439   4.478   4.734
 2958SOL    HW2 9774   2.588   4.543   4.749
 2959SOL     OW 9775   4.309   4.363   0.827
 2959SOL    HW1 9776   4.268   4.419   0.899
 2959SOL    HW2 9777   4.408   4.377   0.826
 2960SOL     OW 9778   3.632   0.296   6.865
 2960SOL    HW1 9779   3.570   0.372   6.884
 2960SOL    HW2 9780   3.641   0.285   6.766
 2961SOL     OW 9781   5.361   2.710   4.677
 2961SOL    HW1 9782   5.391   2.626   4.723
 2961SOL    HW2 9783   5.437   2.748   4.624
 2962SOL     OW 9784   4.366   1.189   4.164
 2962SOL    HW1 9785   4.369   1.102   4.212
 2962SOL    HW2 9786   4.366   1.264   4.230
 2963SOL     OW 9787   2.343   1.475   5.672
 2963SOL    HW1 9788   2.329   1.552   5.735
 2963SOL    HW2 9789   2.290   1.397   5.704
 2964SOL     OW 9790   0.587   0.441   2.298
 2964SOL    HW1 9791   0.530   0.489   2.364
 2964SOL    HW2 9792   0.636   0.508   2.242
 2965SOL     OW 9793   0.012   1.130   4.774
 2965SOL    HW1 9794   7.009   1.041   4.811
 2965SOL    HW2 9795   6.967   1.160   4.707
 2966SOL     OW 9796   5.725   5.023   4.403
 2966SOL    HW1 9797   5.810   5.075   4.394
 2966SOL    HW2 9798   5.725   4.975   4.491
 2967SOL     OW 9799   6.397   2.259   4.456
 2967SOL    HW1 9800   6.370   2.292   4.547
 2967SOL    HW2 9801   6.346   2.175   4.435
 2968SOL     OW 9802   0.989   3.794   6.607
 2968SOL    HW1 9803   0.984   3.757   6.514
 2968SOL    HW2 9804   0.990   3.719   6.672
 2969SOL     OW 9805   5.845   1.294   4.430
 2969SOL    HW1 9806   5.929   1.244   4.411
 2969SOL    HW2 9807   5.846   1.380   4.379
 2970SOL     OW 9808   1.144   3.781   6.873
 2970SOL    HW1 9809   1.082   3.702   6.875
 2970SOL    HW2 9810   1.165   3.803   6.778
 2971SOL     OW 9811   5.661   3.337   5.886
 2971SOL    HW1 9812   5.703   3.421   5.852
 2971SOL    HW2 9813   5.653   3.341   5.985
 2972SOL     OW 9814   6.645   5.064   6.415
 2972SOL    HW1 9815   6.717   5.114   6.462
 2972SOL    HW2 9816   6.672   4.968   6.405
 2973SOL     OW 9817   5.592   1.155   4.516
 2973SOL    HW1 9818   5.690   1.172   4.525
 2973SOL    HW2 9819   5.577   1.070   4.466
 2974SOL     OW 9820   0.779   3.812   2.742
 2974SOL    HW1 9821   0.770   3.766   2.654
 2974SOL    HW2 9822   0.689   3.846   2.772
 2975SOL     OW 9823   0.515   2.310   5.043
 2975SOL    HW1 9824   0.544   2.369   5.118
 2975SOL    HW2 9825   0.570   2.227   5.042
 2976SOL     OW 9826   4.178   1.455   3.242
 2976SOL    HW1 9827   4.275   1.474   3.256
 2976SOL    HW2 9828   4.155   1.466   3.145
 2977SOL     OW 9829   1.526   6.344   3.900
 2977SOL    HW1 9830   1.554   6.324   3.806
 2977SOL    HW2 9831   1.557   6.269   3.960
 2978SOL     OW 9832   4.311   5.021   6.496
 2978SOL    HW1 9833   4.408   5.002   6.481
 2978SOL    HW2 9834   4.268   5.045   6.409
 2979SOL     OW 9835   4.959   6.593   4.346
 2979SOL    HW1 9836   4.914   6.646   4.418
 2979SOL    HW2 9837   5.053   6.626   4.335
 2980SOL     OW 9838   1.235   6.123   3.862
 2980SOL    HW1 9839   1.202   6.206   3.816
 2980SOL    HW2 9840   1.245   6.142   3.960
 2981SOL     OW 9841   0.904   1.134   5.668
 2981SOL    HW1 9842   0.850   1.217   5.657
 2981SOL    HW2 9843   0.875   1.066   5.601
 2982SOL     OW 9844   4.850   5.756   3.320
 2982SOL    HW1 9845   4.887   5.841   3.283
 2982SOL    HW2 9846   4.918   5.683   3.313
 2983SOL     OW 9847   0.778   1.480   3.919
 2983SOL    HW1 9848   0.762   1.484   4.018
 2983SOL    HW2 9849   0.862   1.430   3.901
 2984SOL     OW 9850   4.738   5.409   1.866
 2984SOL    HW1 9851   4.829   5.397   1.828
 2984SOL    HW2 9852   4.669   5.381   1.799
 2985SOL     OW 9853   0.852   2.808   5.076
 2985SOL    HW1 9854   0.797   2.843   5.000
 2985SOL    HW2 9855   0.866   2.882   5.143
 2986SOL     OW 9856   1.902   3.959   6.126
 2986SOL    HW1 9857   1.935   3.866   6.137
 2986SOL    HW2 9858   1.946   4.000   6.046
 2987SOL     OW 9859   5.503   0.565   3.816
 2987SOL    HW1 9860   5.552   0.523   3.893
 2987SOL    HW2 9861   5.510   0.505   3.736
 2988SOL     OW 9862   0.705   6.798   3.017
 2988SOL    HW1 9863   0.634   6.770   3.082
 2988SOL    HW2 9864   0.725   6.722   2.955
 2989SOL     OW 9865   6.369   6.267   0.604
 2989SOL    HW1 9866   6.413   6.348   0.564
 2989SOL    HW2 9867   6.411   6.249   0.693
 2990SOL     OW 9868   4.625   1.378   3.753
 2990SOL    HW1 9869   4.623   1.374   3.853
 2990SOL    HW2 9870   4.630   1.285   3.717
 2991SOL     OW 9871   6.744   3.856   6.967
 2991SOL    HW1 9872   6.693   3.775   6.936
 2991SOL    HW2 9873   6.724   3.872   0.041
 2992SOL     OW 9874   2.262   4.773   5.928
 2992SOL    HW1 9875   2.312   4.830   5.993
 2992SOL    HW2 9876   2.291   4.678   5.937
 2993SOL     OW 9877   1.069   4.934   1.690
 2993SOL    HW1 9878   0.996   4.977   1.638
 2993SOL    HW2 9879   1.137   5.002   1.715
 2994SOL     OW 9880   4.042   0.287   0.702
 2994SOL    HW1 9881   4.024   0.330   0.791
 2994SOL    HW2 9882   4.099   0.347   0.647
 2995SOL     OW 9883   1.703   3.313   6.534
 2995SOL    HW1 9884   1.788   3.326   6.483
 2995SOL    HW2 9885   1.674   3.399   6.574
 2996SOL     OW 9886   2.313   6.450   3.329
 2996SOL    HW1 9887   2.255   6.370   3.312
 2996SOL    HW2 9888   2.329   6.498   3.243
 2997SOL     OW 9889   5.046   0.306   1.639
 2997SOL    HW1 9890   5.116   0.243   1.673
 2997SOL    HW2 9891   5.010   0.360   1.715
 2998SOL     OW 9892   5.448   6.409   5.106
 2998SOL    HW1 9893   5.529   6.467   5.110
 2998SOL    HW2 9894   5.398   6.416   5.193
 2999SOL     OW 9895   3.156   4.918   3.714
 2999SOL    HW1 9896   3.066   4.904   3.755
 2999SOL    HW2 9897   3.150   4.986   3.641
 3000SOL     OW 9898   1.860   3.827   6.491
 3000SOL    HW1 9899   1.888   3.807   6.584
 3000SOL    HW2 9900   1.780   3.771   6.467
 3001SOL     OW 9901   5.775   5.951   6.922
 3001SOL    HW1 9902   5.828   6.035   6.932
 3001SOL    HW2 9903   5.836   5.874   6.908
 3002SOL     OW 9904   4.161   0.289   6.255
 3002SOL    HW1 9905   4.143   0.243   6.168
 3002SOL    HW2 9906   4.202   0.379   6.237
 3003SOL     OW 9907   2.341   0.000   6.553
 3003SOL    HW1 9908   2.294   6.947   6.508
 3003SOL    HW2 9909   2.362   0.071   6.486
 3004SOL     OW 9910   0.983   5.239   3.897
 3004SOL    HW1 9911   0.951   5.334   3.900
 3004SOL    HW2 9912   0.997   5.206   3.990
 3005SOL     OW 9913   3.110   2.628   0.118
 3005SOL    HW1 9914   3.113   2.723   0.088
 3005SOL    HW2 9915   3.204   2.592   0.125
 3006SOL     OW 9916   5.982   2.268   6.801
 3006SOL    HW1 9917   5.971   2.366   6.814
 3006SOL    HW2 9918   6.048   2.233   6.867
 3007SOL     OW 9919   5.970   4.975   2.229
 3007SOL    HW1 9920   6.022   4.906   2.179
 3007SOL    HW2 9921   6.009   4.987   2.320
 3008SOL     OW 9922   3.360   0.815   6.348
 3008SOL    HW1 9923   3.346   0.871   6.430
 3008SOL    HW2 9924   3.319   0.725   6.362
 3009SOL     OW 9925   0.022   6.569   3.303
 3009SOL    HW1 9926   0.016   6.575   3.403
 3009SOL    HW2 9927   0.110   6.604   3.273
 3010SOL     OW 9928   3.774   6.614   3.385
 3010SOL    HW1 9929   3.765   6.613   3.485
 3010SOL    HW2 9930   3.870   6.607   3.360
 3011SOL     OW 9931   5.749   1.561   0.254
 3011SOL    HW1 9932   5.746   1.625   0.178
 3011SOL    HW2 9933   5.725   1.609   0.339
 3012SOL     OW 9934   0.884   3.548   5.174
 3012SOL    HW1 9935   0.898   3.453   5.145
 3012SOL    HW2 9936   0.870   3.605   5.093
 3013SOL     OW 9937   5.356   5.478   4.764
 3013SOL    HW1 9938   5.338   5.563   4.715
 3013SOL    HW2 9939   5.455   5.458   4.762
 3014SOL     OW 9940   5.237   3.591   4.239
 3014SOL    HW1 9941   5.283   3.667   4.285
 3014SOL    HW2 9942   5.196   3.530   4.307
 3015SOL     OW 9943   2.624   2.414   0.348
 3015SOL    HW1 9944   2.715   2.373   0.349
 3015SOL    HW2 9945   2.559   2.350   0.306
 3016SOL     OW 9946   2.769   5.654   3.741
 3016SOL    HW1 9947   2.807   5.601   3.817
 3016SOL    HW2 9948   2.714   5.729   3.777
 3017SOL     OW 9949   0.907   5.119   1.865
 3017SOL    HW1 9950   0.936   5.024   1.851
 3017SOL    HW2 9951   0.952   5.155   1.947
 3018SOL     OW 9952   1.967   0.084   5.021
 3018SOL    HW1 9953   2.031   0.025   5.072
 3018SOL    HW2 9954   1.909   0.134   5.085
 3019SOL     OW 9955   2.287   6.826   0.334
 3019SOL    HW1 9956   2.275   6.922   0.359
 3019SOL    HW2 9957   2.198   6.786   0.312
 3020SOL     OW 9958   3.461   3.894   1.784
 3020SOL    HW1 9959   3.411   3.840   1.716
 3020SOL    HW2 9960   3.531   3.949   1.739
 3021SOL     OW 9961   3.366   0.718   7.019
 3021SOL    HW1 9962   3.373   0.723   0.096
 3021SOL    HW2 9963   3.412   0.796   6.978
 3022SOL     OW 9964   4.001   5.613   4.079
 3022SOL    HW1 9965   3.941   5.683   4.040
 3022SOL    HW2 9966   4.058   5.574   4.007
 3023SOL     OW 9967   4.795   6.941   2.462
 3023SOL    HW1 9968   4.832   6.848   2.458
 3023SOL    HW2 9969   4.844   6.999   2.396
 3024SOL     OW 9970   3.933   6.872   5.768
 3024SOL    HW1 9971   4.032   6.862   5.781
 3024SOL    HW2 9972   3.893   6.913   5.849
 3025SOL     OW 9973   4.032   1.961   0.404
 3025SOL    HW1 9974   4.063   2.012   0.485
 3025SOL    HW2 9975   3.936   1.935   0.416
 3026SOL     OW 9976   2.183   1.633   0.500
 3026SOL    HW1 9977   2.220   1.622   0.407
 3026SOL    HW2 9978   2.119   1.558   0.519
 3027SOL     OW 9979   4.202   0.387   2.016
 3027SOL    HW1 9980   4.251   0.411   2.100
 3027SOL    HW2 9981   4.174   0.470   1.969
 3028SOL     OW 9982   1.764   3.731   5.735
 3028SOL    HW1 9983   1.761   3.784   5.820
 3028SOL    HW2 9984   1.766   3.633   5.757
 3029SOL     OW 9985   0.435   5.207   5.094
 3029SOL    HW1 9986   0.403   5.189   5.187
 3029SOL    HW2 9987   0.399   5.137   5.032
 3030SOL     OW 9988   1.136   2.528   6.093
 3030SOL    HW1 9989   1.137   2.627   6.110
 3030SOL    HW2 9990   1.109   2.512   5.998
 3031SOL     OW 9991   6.935   3.558   0.906
 3031SOL    HW1 9992   6.881   3.485   0.948
 3031SOL    HW2 9993   0.008   3.550   0.936
 3032SOL     OW 9994   4.534   6.495   1.263
 3032SOL    HW1 9995   4.497   6.538   1.180
 3032SOL    HW2 9996   4.489   6.532   1.343
 3033SOL     OW 9997   0.450   2.689   1.401
 3033SOL    HW1 9998   0.361   2.731   1.387
 3033SOL    HW2 9999   0.449   2.596   1.365
 3034SOL     OW10000   1.814   5.787   3.382
 3034SOL    HW110001   1.893   5.730   3.403
 3034SOL    HW210002   1.783   5.833   3.465
 3035SOL     OW10003   6.793   3.186   0.098
 3035SOL    HW110004   6.828   3.145   0.182
 3035SOL    HW210005   6.697   3.210   0.109
 3036SOL     OW10006   1.631   2.793   6.108
 3036SOL    HW110007   1.640   2.698   6.079
 3036SOL    HW210008   1.682   2.852   6.045
 3037SOL     OW10009   0.134   5.689   4.348
 3037SOL    HW110010   0.159   5.605   4.397
 3037SOL    HW210011   0.161   5.769   4.402
 3038SOL     OW10012   5.805   6.596   6.580
 3038SOL    HW110013   5.794   6.695   6.575
 3038SOL    HW210014   5.887   6.569   6.529
 3039SOL     OW10015   6.791   3.582   1.673
 3039SOL    HW110016   6.699   3.603   1.640
 3039SOL    HW210017   6.787   3.505   1.736
 3040SOL     OW10018   4.721   3.310   6.471
 3040SOL    HW110019   4.706   3.249   6.393
 3040SOL    HW210020   4.791   3.377   6.447
 3041SOL     OW10021   2.181   3.110   5.268
 3041SOL    HW110022   2.221   3.192   5.308
 3041SOL    HW210023   2.241   3.077   5.195
 3042SOL     OW10024   5.398   0.092   1.539
 3042SOL    HW110025   5.380   0.046   1.452
 3042SOL    HW210026   5.456   0.034   1.596
 3043SOL     OW10027   0.712   5.500   1.172
 3043SOL    HW110028   0.793   5.558   1.185
 3043SOL    HW210029   0.741   5.406   1.153
 3044SOL     OW10030   3.205   4.688   6.319
 3044SOL    HW110031   3.113   4.668   6.352
 3044SOL    HW210032   3.200   4.760   6.249
 3045SOL     OW10033   5.080   1.054   3.194
 3045SOL    HW110034   5.036   1.063   3.104
 3045SOL    HW210035   5.034   1.113   3.259
 3046SOL     OW10036   2.686   1.879   6.984
 3046SOL    HW110037   2.709   1.928   6.900
 3046SOL    HW210038   2.704   1.781   6.972
 3047SOL     OW10039   5.484   6.606   2.333
 3047SOL    HW110040   5.497   6.704   2.325
 3047SOL    HW210041   5.461   6.582   2.427
 3048SOL     OW10042   4.005   2.867   1.752
 3048SOL    HW110043   3.914   2.853   1.713
 3048SOL    HW210044   4.017   2.963   1.775
 3049SOL     OW10045   1.196   6.197   1.989
 3049SOL    HW110046   1.143   6.212   1.905
 3049SOL    HW210047   1.138   6.214   2.069
 3050SOL     OW10048   3.694   0.899   2.836
 3050SOL    HW110049   3.649   0.816   2.866
 3050SOL    HW210050   3.753   0.879   2.758
 3051SOL     OW10051   2.274   3.758   6.778
 3051SOL    HW110052   2.245   3.842   6.732
 3051SOL    HW210053   2.340   3.709   6.720
 3052SOL     OW10054   4.392   0.823   2.216
 3052SOL    HW110055   4.441   0.911   2.217
 3052SOL    HW210056   4.392   0.783   2.307
 3053SOL     OW10057   7.001   1.481   6.511
 3053SOL    HW110058   6.949   1.517   6.588
 3053SOL    HW210059   0.071   1.458   6.540
 3054SOL     OW10060   6.901   2.497   1.420
 3054SOL    HW110061   6.927   2.471   1.327
 3054SOL    HW210062   6.877   2.415   1.472
 3055SOL     OW10063   5.101   6.866   4.072
 3055SOL    HW110064   5.016   6.818   4.049
 3055SOL    HW210065   5.156   6.810   4.134
 3056SOL     OW10066   6.601   1.449   5.820
 3056SOL    HW110067   6.630   1.469   5.913
 3056SOL    HW210068   6.649   1.367   5.787
 3057SOL     OW10069   3.973   5.969   3.331
 3057SOL    HW110070   3.929   5.898   3.385
 3057SOL    HW210071   3.989   5.936   3.238
 3058SOL     OW10072   6.888   5.900   1.192
 3058SOL    HW110073   6.811   5.936   1.245
 3058SOL    HW210074   6.873   5.919   1.095
 3059SOL     OW10075   2.335   2.390   4.041
 3059SOL    HW110076   2.417   2.444   4.057
 3059SOL    HW210077   2.351   2.296   4.070
 3060SOL     OW10078   0.792   6.283   0.524
 3060SOL    HW110079   0.694   6.268   0.508
 3060SOL    HW210080   0.841   6.197   0.512
 3061SOL     OW10081   6.040   0.798   5.450
 3061SOL    HW110082   5.954   0.848   5.456
 3061SOL    HW210083   6.078   0.787   5.542
 3062SOL     OW10084   1.245   6.710   6.824
 3062SOL    HW110085   1.196   6.786   6.864
 3062SOL    HW210086   1.343   6.733   6.818
 3063SOL     OW10087   2.766   5.546   1.551
 3063SOL    HW110088   2.677   5.578   1.585
 3063SOL    HW210089   2.817   5.624   1.515
 3064SOL     OW10090   5.320   3.546   3.936
 3064SOL    HW110091   5.224   3.559   3.961
 3064SOL    HW210092   5.378   3.591   4.004
 3065SOL     OW10093   1.989   0.814   6.628
 3065SOL    HW110094   2.048   0.895   6.625
 3065SOL    HW210095   1.973   0.789   6.724
 3066SOL     OW10096   4.871   4.840   0.639
 3066SOL    HW110097   4.881   4.781   0.559
 3066SOL    HW210098   4.905   4.932   0.618
 3067SOL     OW10099   3.895   2.112   4.861
 3067SOL    HW110100   3.817   2.168   4.888
 3067SOL    HW210101   3.873   2.016   4.875
 3068SOL     OW10102   5.493   5.898   0.998
 3068SOL    HW110103   5.441   5.870   1.078
 3068SOL    HW210104   5.575   5.843   0.990
 3069SOL     OW10105   6.605   6.245   2.055
 3069SOL    HW110106   6.699   6.276   2.065
 3069SOL    HW210107   6.547   6.291   2.123
 3070SOL     OW10108   1.495   0.766   2.519
 3070SOL    HW110109   1.485   0.815   2.433
 3070SOL    HW210110   1.419   0.789   2.580
 3071SOL     OW10111   5.695   5.887   3.688
 3071SOL    HW110112   5.714   5.980   3.659
 3071SOL    HW210113   5.715   5.877   3.786
 3072SOL     OW10114   1.172   6.406   0.626
 3072SOL    HW110115   1.135   6.441   0.540
 3072SOL    HW210116   1.103   6.419   0.698
 3073SOL     OW10117   0.491   3.288   5.429
 3073SOL    HW110118   0.415   3.228   5.406
 3073SOL    HW210119   0.470   3.382   5.400
 3074SOL     OW10120   5.466   2.808   0.905
 3074SOL    HW110121   5.558   2.825   0.939
 3074SOL    HW210122   5.413   2.760   0.975
 3075SOL     OW10123   1.867   6.274   1.196
 3075SOL    HW110124   1.948   6.253   1.142
 3075SOL    HW210125   1.892   6.286   1.292
 3076SOL     OW10126   6.778   1.736   4.615
 3076SOL    HW110127   6.738   1.736   4.524
 3076SOL    HW210128   6.877   1.719   4.608
 3077SOL     OW10129   5.422   5.323   2.780
 3077SOL    HW110130   5.326   5.335   2.754
 3077SOL    HW210131   5.448   5.227   2.767
 3078SOL     OW10132   1.079   3.357   1.194
 3078SOL    HW110133   1.092   3.269   1.238
 3078SOL    HW210134   1.006   3.350   1.125
 3079SOL     OW10135   2.509   2.023   4.369
 3079SOL    HW110136   2.475   1.930   4.372
 3079SOL    HW210137   2.518   2.053   4.274
 3080SOL     OW10138   4.984   4.436   3.347
 3080SOL    HW110139   5.007   4.483   3.432
 3080SOL    HW210140   4.887   4.408   3.349
 3081SOL     OW10141   0.448   2.807   6.142
 3081SOL    HW110142   0.433   2.803   6.241
 3081SOL    HW210143   0.389   2.741   6.097
 3082SOL     OW10144   3.437   7.019   3.581
 3082SOL    HW110145   3.495   0.075   3.603
 3082SOL    HW210146   3.460   6.986   3.489
 3083SOL     OW10147   4.341   6.210   3.423
 3083SOL    HW110148   4.411   6.280   3.412
 3083SOL    HW210149   4.317   6.202   3.520
 3084SOL     OW10150   4.864   3.933   4.758
 3084SOL    HW110151   4.896   4.021   4.724
 3084SOL    HW210152   4.764   3.927   4.746
 3085SOL     OW10153   0.685   4.900   1.996
 3085SOL    HW110154   0.658   4.996   1.987
 3085SOL    HW210155   0.783   4.892   1.975
 3086SOL     OW10156   3.965   1.878   2.095
 3086SOL    HW110157   3.934   1.972   2.083
 3086SOL    HW210158   3.887   1.816   2.086
 3087SOL     OW10159   1.133   5.110   4.140
 3087SOL    HW110160   1.047   5.145   4.179
 3087SOL    HW210161   1.127   5.011   4.129
 3088SOL     OW10162   2.337   5.031   5.778
 3088SOL    HW110163   2.397   5.100   5.819
 3088SOL    HW210164   2.304   4.969   5.849
 3089SOL     OW10165   1.212   3.169   0.590
 3089SOL    HW110166   1.151   3.103   0.547
 3089SOL    HW210167   1.159   3.235   0.643
 3090SOL     OW10168   2.149   2.305   1.911
 3090SOL    HW110169   2.164   2.322   1.814
 3090SOL    HW210170   2.088   2.226   1.921
 3091SOL     OW10171   1.539   6.763   0.185
 3091SOL    HW110172   1.599   6.819   0.243
 3091SOL    HW210173   1.555   6.787   0.089
 3092SOL     OW10174   5.149   6.890   0.467
 3092SOL    HW110175   5.166   6.972   0.414
 3092SOL    HW210176   5.126   6.915   0.561
 3093SOL     OW10177   5.554   5.537   5.790
 3093SOL    HW110178   5.642   5.491   5.786
 3093SOL    HW210179   5.567   5.635   5.770
 3094SOL     OW10180   3.163   6.716   4.032
 3094SOL    HW110181   3.153   6.661   3.949
 3094SOL    HW210182   3.080   6.770   4.046
 3095SOL     OW10183   2.744   5.777   4.509
 3095SOL    HW110184   2.690   5.694   4.496
 3095SOL    HW210185   2.778   5.780   4.603
 3096SOL     OW10186   0.914   0.549   4.778
 3096SOL    HW110187   0.951   0.489   4.706
 3096SOL    HW210188   0.825   0.585   4.748
 3097SOL     OW10189   0.318   2.255   1.165
 3097SOL    HW110190   0.223   2.230   1.184
 3097SOL    HW210191   0.379   2.181   1.192
 3098SOL     OW10192   2.444   3.588   1.063
 3098SOL    HW110193   2.516   3.563   0.998
 3098SOL    HW210194   2.482   3.649   1.133
 3099SOL     OW10195   0.102   5.740   4.730
 3099SOL    HW110196   0.051   5.794   4.663
 3099SOL    HW210197   0.048   5.660   4.756
 3100SOL     OW10198   6.400   0.088   4.599
 3100SOL    HW110199   6.469   0.147   4.641
 3100SOL    HW210200   6.438   0.045   4.517
 3101SOL     OW10201   5.357   5.932   6.046
 3101SOL    HW110202   5.422   5.900   5.977
 3101SOL    HW210203   5.291   5.860   6.065
 3102SOL     OW10204   0.385   5.139   3.156
 3102SOL    HW110205   0.338   5.055   3.181
 3102SOL    HW210206   0.484   5.125   3.162
 3103SOL     OW10207   3.050   1.115   1.761
 3103SOL    HW110208   3.077   1.091   1.854
 3103SOL    HW210209   3.124   1.166   1.717
 3104SOL     OW10210   4.883   6.538   5.347
 3104SOL    HW110211   4.982   6.530   5.360
 3104SOL    HW210212   4.847   6.453   5.308
 3105SOL     OW10213   6.062   4.736   2.071
 3105SOL    HW110214   5.970   4.699   2.058
 3105SOL    HW210215   6.103   4.755   1.982
 3106SOL     OW10216   6.108   0.809   2.883
 3106SOL    HW110217   6.008   0.810   2.880
 3106SOL    HW210218   6.139   0.757   2.962
 3107SOL     OW10219   4.415   0.732   3.785
 3107SOL    HW110220   4.397   0.681   3.869
 3107SOL    HW210221   4.464   0.817   3.808
 3108SOL     OW10222   1.291   0.431   4.562
 3108SOL    HW110223   1.267   0.377   4.642
 3108SOL    HW210224   1.355   0.504   4.588
 3109SOL     OW10225   5.830   5.777   2.474
 3109SOL    HW110226   5.875   5.861   2.505
 3109SOL    HW210227   5.830   5.774   2.374
 3110SOL     OW10228   1.361   1.711   3.313
 3110SOL    HW110229   1.459   1.701   3.295
 3110SOL    HW210230   1.348   1.777   3.387
 3111SOL     OW10231   6.661   5.735   3.608
 3111SOL    HW110232   6.574   5.696   3.640
 3111SOL    HW210233   6.643   5.820   3.559
 3112SOL     OW10234   5.204   2.429   6.280
 3112SOL    HW110235   5.264   2.440   6.201
 3112SOL    HW210236   5.201   2.514   6.332
 3113SOL     OW10237   1.774   6.447   4.570
 3113SOL    HW110238   1.855   6.468   4.515
 3113SOL    HW210239   1.711   6.525   4.568
 3114SOL     OW10240   4.594   2.419   6.841
 3114SOL    HW110241   4.514   2.443   6.896
 3114SOL    HW210242   4.614   2.493   6.776
 3115SOL     OW10243   4.561   3.377   6.703
 3115SOL    HW110244   4.555   3.477   6.698
 3115SOL    HW210245   4.616   3.343   6.627
 3116SOL     OW10246   6.758   3.571   0.031
 3116SOL    HW110247   6.814   3.638   0.080
 3116SOL    HW210248   6.706   3.517   0.096
 3117SOL     OW10249   4.424   3.778   5.311
 3117SOL    HW110250   4.371   3.719   5.371
 3117SOL    HW210251   4.494   3.724   5.265
 3118SOL     OW10252   0.475   4.624   0.062
 3118SOL    HW110253   0.436   4.694   0.122
 3118SOL    HW210254   0.568   4.602   0.093
 3119SOL     OW10255   1.597   3.352   5.894
 3119SOL    HW110256   1.670   3.386   5.834
 3119SOL    HW210257   1.592   3.253   5.888
 3120SOL     OW10258   2.875   6.820   4.017
 3120SOL    HW110259   2.898   6.918   4.022
 3120SOL    HW210260   2.798   6.808   3.955
 3121SOL     OW10261   0.440   1.669   2.490
 3121SOL    HW110262   0.366   1.609   2.519
 3121SOL    HW210263   0.507   1.678   2.564
 3122SOL     OW10264   2.735   5.961   5.593
 3122SOL    HW110265   2.704   5.889   5.654
 3122SOL    HW210266   2.764   6.041   5.647
 3123SOL     OW10267   3.265   0.495   4.160
 3123SOL    HW110268   3.195   0.554   4.119
 3123SOL    HW210269   3.335   0.552   4.203
 3124SOL     OW10270   4.220   6.877   4.657
 3124SOL    HW110271   4.187   6.885   4.751
 3124SOL    HW210272   4.299   6.936   4.643
 3125SOL     OW10273   6.307   1.904   5.517
 3125SOL    HW110274   6.337   1.813   5.489
 3125SOL    HW210275   6.296   1.906   5.617
 3126SOL     OW10276   5.018   5.077   6.332
 3126SOL    HW110277   5.047   5.052   6.425
 3126SOL    HW210278   4.954   5.008   6.298
 3127SOL     OW10279   1.201   2.254   3.159
 3127SOL    HW110280   1.173   2.300   3.075
 3127SOL    HW210281   1.298   2.231   3.155
 3128SOL     OW10282   1.896   0.151   6.388
 3128SOL    HW110283   1.892   0.242   6.346
 3128SOL    HW210284   1.955   0.154   6.468
 3129SOL     OW10285   1.074   4.255   6.746
 3129SOL    HW110286   1.132   4.181   6.780
 3129SOL    HW210287   1.132   4.326   6.704
 3130SOL     OW10288   1.928   3.996   1.866
 3130SOL    HW110289   1.839   3.958   1.839
 3130SOL    HW210290   2.000   3.955   1.810
 3131SOL     OW10291   0.435   2.412   1.359
 3131SOL    HW110292   0.361   2.401   1.425
 3131SOL    HW210293   0.423   2.347   1.284
 3132SOL     OW10294   4.917   5.064   5.630
 3132SOL    HW110295   4.831   5.016   5.612
 3132SOL    HW210296   4.994   5.005   5.606
 3133SOL     OW10297   3.241   2.101   3.262
 3133SOL    HW110298   3.324   2.112   3.208
 3133SOL    HW210299   3.239   2.010   3.303
 3134SOL     OW10300   4.526   4.878   1.593
 3134SOL    HW110301   4.483   4.926   1.670
 3134SOL    HW210302   4.624   4.899   1.591
 3135SOL     OW10303   4.756   1.065   4.994
 3135SOL    HW110304   4.712   0.983   5.029
 3135SOL    HW210305   4.852   1.047   4.977
 3136SOL     OW10306   5.302   0.415   6.836
 3136SOL    HW110307   5.336   0.504   6.867
 3136SOL    HW210308   5.214   0.396   6.878
 3137SOL     OW10309   5.987   0.431   3.387
 3137SOL    HW110310   5.968   0.348   3.334
 3137SOL    HW210311   5.908   0.491   3.384
 3138SOL     OW10312   6.598   2.097   3.925
 3138SOL    HW110313   6.515   2.151   3.915
 3138SOL    HW210314   6.664   2.146   3.982
 3139SOL     OW10315   4.902   7.016   0.173
 3139SOL    HW110316   4.881   6.919   0.173
 3139SOL    HW210317   4.959   0.016   0.094
 3140SOL     OW10318   5.819   6.924   6.632
 3140SOL    HW110319   5.785   6.864   6.705
 3140SOL    HW210320   5.742   6.968   6.587
 3141SOL     OW10321   0.654   6.298   6.033
 3141SOL    HW110322   0.586   6.348   6.086
 3141SOL    HW210323   0.742   6.301   6.079
 3142SOL     OW10324   4.507   6.039   1.726
 3142SOL    HW110325   4.491   6.049   1.824
 3142SOL    HW210326   4.493   6.127   1.681
 3143SOL     OW10327   0.488   2.509   6.728
 3143SOL    HW110328   0.532   2.598   6.746
 3143SOL    HW210329   0.530   2.467   6.648
 3144SOL     OW10330   2.988   4.291   1.333
 3144SOL    HW110331   2.948   4.357   1.269
 3144SOL    HW210332   2.986   4.328   1.426
 3145SOL     OW10333   1.670   5.003   2.666
 3145SOL    HW110334   1.610   5.050   2.602
 3145SOL    HW210335   1.717   5.070   2.724
 3146SOL     OW10336   1.193   6.962   3.187
 3146SOL    HW110337   1.142   6.876   3.194
 3146SOL    HW210338   1.222   6.976   3.092
 3147SOL     OW10339   4.454   5.240   6.879
 3147SOL    HW110340   4.523   5.218   6.948
 3147SOL    HW210341   4.400   5.158   6.859
 3148SOL     OW10342   5.561   5.869   4.556
 3148SOL    HW110343   5.525   5.953   4.514
 3148SOL    HW210344   5.629   5.828   4.495
 3149SOL     OW10345   3.597   0.691   4.997
 3149SOL    HW110346   3.682   0.647   5.027
 3149SOL    HW210347   3.587   0.682   4.898
 3150SOL     OW10348   6.431   5.637   3.736
 3150SOL    HW110349   6.415   5.725   3.781
 3150SOL    HW210350   6.379   5.632   3.651
 3151SOL     OW10351   3.677   0.794   6.763
 3151SOL    HW110352   3.651   0.730   6.690
 3151SOL    HW210353   3.711   0.742   6.842
 3152SOL     OW10354   1.544   4.945   2.020
 3152SOL    HW110355   1.621   4.942   1.956
 3152SOL    HW210356   1.488   4.864   2.008
 3153SOL     OW10357   6.926   4.179   1.684
 3153SOL    HW110358   6.910   4.091   1.638
 3153SOL    HW210359   7.019   4.180   1.721
 3154SOL     OW10360   6.071   1.540   0.547
 3154SOL    HW110361   5.999   1.472   0.538
 3154SOL    HW210362   6.030   1.631   0.551
 3155SOL     OW10363   6.908   5.143   1.549
 3155SOL    HW110364   6.862   5.056   1.528
 3155SOL    HW210365   6.992   5.124   1.601
 3156SOL     OW10366   4.032   3.174   3.726
 3156SOL    HW110367   3.964   3.186   3.798
 3156SOL    HW210368   4.124   3.182   3.766
 3157SOL     OW10369   1.573   3.111   5.057
 3157SOL    HW110370   1.557   3.018   5.089
 3157SOL    HW210371   1.671   3.124   5.038
 3158SOL     OW10372   4.639   0.241   1.734
 3158SOL    HW110373   4.574   0.292   1.678
 3158SOL    HW210374   4.693   0.180   1.676
 3159SOL     OW10375   5.615   0.662   0.250
 3159SOL    HW110376   5.650   0.740   0.302
 3159SOL    HW210377   5.693   0.610   0.214
 3160SOL     OW10378   6.516   5.619   5.472
 3160SOL    HW110379   6.584   5.546   5.476
 3160SOL    HW210380   6.429   5.586   5.508
 3161SOL     OW10381   1.124   1.268   2.864
 3161SOL    HW110382   1.099   1.295   2.957
 3161SOL    HW210383   1.187   1.336   2.825
 3162SOL     OW10384   0.737   5.388   0.377
 3162SOL    HW110385   0.726   5.476   0.330
 3162SOL    HW210386   0.679   5.386   0.459
 3163SOL     OW10387   3.327   2.309   0.256
 3163SOL    HW110388   3.305   2.382   0.191
 3163SOL    HW210389   3.342   2.349   0.347
 3164SOL     OW10390   4.611   4.349   1.435
 3164SOL    HW110391   4.512   4.356   1.422
 3164SOL    HW210392   4.631   4.270   1.494
 3165SOL     OW10393   0.530   6.578   1.554
 3165SOL    HW110394   0.542   6.662   1.607
 3165SOL    HW210395   0.561   6.500   1.607
 3166SOL     OW10396   4.992   2.390   6.640
 3166SOL    HW110397   5.025   2.320   6.577
 3166SOL    HW210398   4.962   2.348   6.725
 3167SOL     OW10399   0.402   4.695   1.578
 3167SOL    HW110400   0.442   4.699   1.669
 3167SOL    HW210401   0.329   4.626   1.576
 3168SOL     OW10402   5.328   2.990   0.412
 3168SOL    HW110403   5.303   3.073   0.461
 3168SOL    HW210404   5.248   2.953   0.366
 3169SOL     OW10405   0.813   2.872   5.904
 3169SOL    HW110406   0.802   2.813   5.823
 3169SOL    HW210407   0.794   2.819   5.986
 3170SOL     OW10408   4.002   0.469   0.361
 3170SOL    HW110409   4.050   0.474   0.448
 3170SOL    HW210410   3.903   0.473   0.377
 3171SOL     OW10411   6.832   6.829   1.003
 3171SOL    HW110412   6.784   6.846   0.917
 3171SOL    HW210413   6.884   6.911   1.029
 3172SOL     OW10414   0.616   5.797   5.709
 3172SOL    HW110415   0.680   5.822   5.782
 3172SOL    HW210416   0.575   5.708   5.729
 3173SOL     OW10417   2.790   1.716   1.365
 3173SOL    HW110418   2.837   1.645   1.418
 3173SOL    HW210419   2.776   1.796   1.423
 3174SOL     OW10420   2.521   2.650   6.746
 3174SOL    HW110421   2.484   2.717   6.810
 3174SOL    HW210422   2.581   2.586   6.796
 3175SOL     OW10423   6.759   6.341   0.375
 3175SOL    HW110424   6.758   6.437   0.347
 3175SOL    HW210425   6.740   6.334   0.473
 3176SOL     OW10426   2.135   5.203   4.932
 3176SOL    HW110427   2.080   5.179   5.012
 3176SOL    HW210428   2.227   5.167   4.942
 3177SOL     OW10429   5.261   5.722   5.645
 3177SOL    HW110430   5.266   5.822   5.653
 3177SOL    HW210431   5.296   5.694   5.555
 3178SOL     OW10432   6.801   3.394   1.099
 3178SOL    HW110433   6.796   3.470   1.163
 3178SOL    HW210434   6.762   3.312   1.140
 3179SOL     OW10435   2.000   2.834   1.514
 3179SOL    HW110436   1.921   2.833   1.452
 3179SOL    HW210437   2.025   2.929   1.535
 3180SOL     OW10438   4.420   0.819   6.802
 3180SOL    HW110439   4.331   0.830   6.759
 3180SOL    HW210440   4.444   0.722   6.806
 3181SOL     OW10441   0.660   0.082   2.926
 3181SOL    HW110442   0.602   0.027   2.865
 3181SOL    HW210443   0.603   0.145   2.978
 3182SOL     OW10444   1.145   0.924   5.744
 3182SOL    HW110445   1.088   0.967   5.674
 3182SOL    HW210446   1.088   0.873   5.808
 3183SOL     OW10447   4.891   4.115   1.705
 3183SOL    HW110448   4.942   4.135   1.622
 3183SOL    HW210449   4.862   4.019   1.704
 3184SOL     OW10450   2.551   1.900   2.515
 3184SOL    HW110451   2.628   1.918   2.454
 3184SOL    HW210452   2.468   1.943   2.478
 3185SOL     OW10453   5.917   0.671   6.480
 3185SOL    HW110454   5.867   0.670   6.567
 3185SOL    HW210455   5.981   0.595   6.478
 3186SOL     OW10456   3.309   0.920   2.938
 3186SOL    HW110457   3.361   0.919   2.852
 3186SOL    HW210458   3.297   0.826   2.970
 3187SOL     OW10459   4.216   4.209   6.979
 3187SOL    HW110460   4.247   4.114   6.977
 3187SOL    HW210461   4.234   4.249   0.046
 3188SOL     OW10462   3.670   5.825   3.006
 3188SOL    HW110463   3.650   5.915   2.966
 3188SOL    HW210464   3.769   5.814   3.017
 3189SOL     OW10465   2.406   1.240   2.973
 3189SOL    HW110466   2.390   1.265   3.069
 3189SOL    HW210467   2.501   1.260   2.949
 3190SOL     OW10468   0.696   6.470   1.361
 3190SOL    HW110469   0.712   6.542   1.293
 3190SOL    HW210470   0.627   6.501   1.426
 3191SOL     OW10471   3.449   6.687   0.720
 3191SOL    HW110472   3.542   6.699   0.684
 3191SOL    HW210473   3.386   6.748   0.671
 3192SOL     OW10474   0.678   2.439   1.148
 3192SOL    HW110475   0.672   2.364   1.082
 3192SOL    HW210476   0.599   2.437   1.208
 3193SOL     OW10477   4.510   2.098   6.596
 3193SOL    HW110478   4.451   2.020   6.576
 3193SOL    HW210479   4.487   2.174   6.535
 3194SOL     OW10480   1.479   2.398   6.450
 3194SOL    HW110481   1.452   2.354   6.365
 3194SOL    HW210482   1.399   2.407   6.510
 3195SOL     OW10483   2.072   2.374   2.625
 3195SOL    HW110484   2.085   2.469   2.595
 3195SOL    HW210485   1.998   2.371   2.692
 3196SOL     OW10486   6.072   0.471   5.153
 3196SOL    HW110487   6.162   0.489   5.113
 3196SOL    HW210488   6.031   0.391   5.109
 3197SOL     OW10489   1.626   5.799   3.675
 3197SOL    HW110490   1.684   5.867   3.630
 3197SOL    HW210491   1.543   5.785   3.621
 3198SOL     OW10492   6.386   2.352   6.870
 3198SOL    HW110493   6.329   2.391   6.796
 3198SOL    HW210494   6.363   2.256   6.882
 3199SOL     OW10495   4.786   2.588   2.115
 3199SOL    HW110496   4.868   2.581   2.059
 3199SOL    HW210497   4.791   2.669   2.173
 3200SOL     OW10498   6.729   1.681   1.257
 3200SOL    HW110499   6.729   1.600   1.198
 3200SOL    HW210500   6.655   1.742   1.230
 3201SOL     OW10501   5.184   4.211   3.995
 3201SOL    HW110502   5.101   4.259   4.024
 3201SOL    HW210503   5.164   4.153   3.917
 3202SOL     OW10504   1.520   4.311   2.107
 3202SOL    HW110505   1.536   4.389   2.167
 3202SOL    HW210506   1.477   4.342   2.023
 3203SOL     OW10507   5.793   0.959   1.028
 3203SOL    HW110508   5.832   0.877   0.986
 3203SOL    HW210509   5.865   1.027   1.044
 3204SOL     OW10510   5.734   6.148   1.812
 3204SOL    HW110511   5.773   6.062   1.845
 3204SOL    HW210512   5.689   6.132   1.724
 3205SOL     OW10513   0.260   3.983   6.799
 3205SOL    HW110514   0.346   3.995   6.849
 3205SOL    HW210515   0.184   3.977   6.863
 3206SOL     OW10516   6.927   0.044   6.002
 3206SOL    HW110517   6.989   0.044   6.080
 3206SOL    HW210518   6.833   0.036   6.035
 3207SOL     OW10519   0.407   1.514   6.367
 3207SOL    HW110520   0.438   1.581   6.434
 3207SOL    HW210521   0.377   1.561   6.284
 3208SOL     OW10522   4.030   6.087   5.363
 3208SOL    HW110523   4.115   6.140   5.360
 3208SOL    HW210524   3.991   6.080   5.271
 3209SOL     OW10525   2.652   6.415   3.717
 3209SOL    HW110526   2.651   6.326   3.762
 3209SOL    HW210527   2.562   6.436   3.681
 3210SOL     OW10528   0.505   3.683   2.108
 3210SOL    HW110529   0.448   3.690   2.025
 3210SOL    HW210530   0.529   3.588   2.124
 3211SOL     OW10531   2.159   4.934   0.130
 3211SOL    HW110532   2.233   4.867   0.132
 3211SOL    HW210533   2.182   5.006   0.064
 3212SOL     OW10534   4.291   1.640   6.997
 3212SOL    HW110535   4.197   1.673   7.001
 3212SOL    HW210536   4.307   1.576   0.050
 3213SOL     OW10537   5.791   4.552   2.793
 3213SOL    HW110538   5.875   4.605   2.790
 3213SOL    HW210539   5.732   4.578   2.717
 3214SOL     OW10540   4.570   6.165   0.236
 3214SOL    HW110541   4.480   6.209   0.228
 3214SOL    HW210542   4.562   6.082   0.292
 3215SOL     OW10543   6.153   3.281   0.769
 3215SOL    HW110544   6.179   3.365   0.722
 3215SOL    HW210545   6.169   3.292   0.868
 3216SOL     OW10546   5.771   5.387   2.427
 3216SOL    HW110547   5.687   5.370   2.479
 3216SOL    HW210548   5.850   5.383   2.488
 3217SOL     OW10549   1.261   4.110   3.328
 3217SOL    HW110550   1.189   4.136   3.264
 3217SOL    HW210551   1.246   4.155   3.416
 3218SOL     OW10552   4.512   6.501   3.423
 3218SOL    HW110553   4.506   6.438   3.501
 3218SOL    HW210554   4.608   6.511   3.396
 3219SOL     OW10555   6.931   0.328   3.860
 3219SOL    HW110556   6.989   0.337   3.940
 3219SOL    HW210557   6.966   0.255   3.801
 3220SOL     OW10558   6.464   4.780   5.822
 3220SOL    HW110559   6.479   4.785   5.920
 3220SOL    HW210560   6.444   4.685   5.796
 3221SOL     OW10561   2.800   6.106   2.254
 3221SOL    HW110562   2.828   6.020   2.296
 3221SOL    HW210563   2.711   6.095   2.212
 3222SOL     OW10564   4.712   2.061   3.776
 3222SOL    HW110565   4.744   2.012   3.695
 3222SOL    HW210566   4.788   2.111   3.818
 3223SOL     OW10567   2.348   5.601   6.763
 3223SOL    HW110568   2.263   5.598   6.710
 3223SOL    HW210569   2.343   5.533   6.836
 3224SOL     OW10570   4.588   5.007   5.913
 3224SOL    HW110571   4.532   5.052   5.982
 3224SOL    HW210572   4.601   5.069   5.836
 3225SOL     OW10573   4.306   2.174   6.006
 3225SOL    HW110574   4.359   2.252   6.040
 3225SOL    HW210575   4.208   2.196   6.013
 3226SOL     OW10576   2.170   1.670   4.091
 3226SOL    HW110577   2.106   1.596   4.111
 3226SOL    HW210578   2.126   1.758   4.110
 3227SOL     OW10579   3.449   2.251   6.635
 3227SOL    HW110580   3.422   2.155   6.621
 3227SOL    HW210581   3.380   2.297   6.690
 3228SOL     OW10582   5.543   2.896   4.125
 3228SOL    HW110583   5.612   2.824   4.119
 3228SOL    HW210584   5.510   2.919   4.033
 3229SOL     OW10585   3.166   1.753   5.605
 3229SOL    HW110586   3.094   1.820   5.622
 3229SOL    HW210587   3.189   1.752   5.508
 3230SOL     OW10588   0.467   2.189   3.063
 3230SOL    HW110589   0.440   2.233   2.977
 3230SOL    HW210590   0.536   2.120   3.045
 3231SOL     OW10591   4.571   5.630   1.511
 3231SOL    HW110592   4.525   5.578   1.438
 3231SOL    HW210593   4.502   5.673   1.569
 3232SOL     OW10594   4.639   5.290   4.604
 3232SOL    HW110595   4.551   5.273   4.558
 3232SOL    HW210596   4.713   5.284   4.538
 3233SOL     OW10597   0.990   4.184   0.689
 3233SOL    HW110598   0.900   4.141   0.703
 3233SOL    HW210599   0.994   4.270   0.740
 3234SOL     OW10600   6.948   2.347   0.356
 3234SOL    HW110601   7.007   2.298   0.421
 3234SOL    HW210602   6.853   2.338   0.385
 3235SOL     OW10603   5.974   5.788   2.129
 3235SOL    HW110604   6.068   5.786   2.163
 3235SOL    HW210605   5.927   5.704   2.157
 3236SOL     OW10606   1.586   3.500   1.558
 3236SOL    HW110607   1.580   3.503   1.658
 3236SOL    HW210608   1.627   3.413   1.530
 3237SOL     OW10609   4.903   0.481   3.764
 3237SOL    HW110610   4.956   0.408   3.807
 3237SOL    HW210611   4.810   0.481   3.801
 3238SOL     OW10612   0.487   5.738   6.507
 3238SOL    HW110613   0.559   5.712   6.571
 3238SOL    HW210614   0.414   5.785   6.556
 3239SOL     OW10615   5.749   1.415   0.491
 3239SOL    HW110616   5.757   1.352   0.414
 3239SOL    HW210617   5.676   1.384   0.552
 3240SOL     OW10618   0.418   6.928   5.141
 3240SOL    HW110619   0.328   6.897   5.111
 3240SOL    HW210620   0.449   6.872   5.218
 3241SOL     OW10621   4.863   1.529   4.273
 3241SOL    HW110622   4.863   1.569   4.364
 3241SOL    HW210623   4.955   1.537   4.233
 3242SOL     OW10624   3.562   5.096   1.038
 3242SOL    HW110625   3.645   5.138   1.075
 3242SOL    HW210626   3.536   5.143   0.954
 3243SOL     OW10627   5.646   5.174   0.354
 3243SOL    HW110628   5.570   5.115   0.383
 3243SOL    HW210629   5.732   5.123   0.361
 3244SOL     OW10630   5.040   5.533   6.260
 3244SOL    HW110631   5.121   5.570   6.214
 3244SOL    HW210632   5.000   5.461   6.205
 3245SOL     OW10633   4.341   2.762   6.445
 3245SOL    HW110634   4.362   2.858   6.466
 3245SOL    HW210635   4.252   2.739   6.483
 3246SOL     OW10636   5.723   0.432   3.204
 3246SOL    HW110637   5.649   0.378   3.246
 3246SOL    HW210638   5.743   0.511   3.262
 3247SOL     OW10639   0.193   4.505   2.388
 3247SOL    HW110640   0.210   4.509   2.487
 3247SOL    HW210641   0.179   4.410   2.360
 3248SOL     OW10642   5.856   3.463   2.201
 3248SOL    HW110643   5.771   3.437   2.155
 3248SOL    HW210644   5.932   3.410   2.162
 3249SOL     OW10645   3.849   4.653   5.338
 3249SOL    HW110646   3.777   4.583   5.341
 3249SOL    HW210647   3.936   4.609   5.316
 3250SOL     OW10648   5.301   6.640   3.199
 3250SOL    HW110649   5.288   6.730   3.157
 3250SOL    HW210650   5.249   6.572   3.148
 3251SOL     OW10651   3.660   1.398   2.817
 3251SOL    HW110652   3.672   1.464   2.743
 3251SOL    HW210653   3.748   1.380   2.861
 3252SOL     OW10654   3.501   0.789   2.247
 3252SOL    HW110655   3.509   0.732   2.166
 3252SOL    HW210656   3.408   0.781   2.284
 3253SOL     OW10657   4.958   2.140   2.332
 3253SOL    HW110658   4.993   2.231   2.313
 3253SOL    HW210659   4.896   2.144   2.411
 3254SOL     OW10660   3.543   5.304   3.947
 3254SOL    HW110661   3.565   5.207   3.936
 3254SOL    HW210662   3.571   5.334   4.039
 3255SOL     OW10663   4.314   5.166   0.626
 3255SOL    HW110664   4.368   5.093   0.586
 3255SOL    HW210665   4.338   5.254   0.584
 3256SOL     OW10666   5.615   0.235   6.920
 3256SOL    HW110667   5.563   0.240   6.835
 3256SOL    HW210668   5.623   0.139   6.949
 3257SOL     OW10669   1.638   2.320   0.867
 3257SOL    HW110670   1.576   2.366   0.931
 3257SOL    HW210671   1.717   2.378   0.851
 3258SOL     OW10672   4.802   6.712   1.613
 3258SOL    HW110673   4.894   6.730   1.648
 3258SOL    HW210674   4.787   6.614   1.606
 3259SOL     OW10675   4.122   5.817   4.382
 3259SOL    HW110676   4.144   5.736   4.327
 3259SOL    HW210677   4.028   5.845   4.364
 3260SOL     OW10678   2.092   1.724   0.781
 3260SOL    HW110679   2.137   1.805   0.819
 3260SOL    HW210680   2.137   1.699   0.694
 3261SOL     OW10681   3.883   6.282   0.504
 3261SOL    HW110682   3.860   6.230   0.421
 3261SOL    HW210683   3.833   6.244   0.582
 3262SOL     OW10684   3.931   1.721   3.243
 3262SOL    HW110685   3.901   1.814   3.221
 3262SOL    HW210686   3.974   1.680   3.163
 3263SOL     OW10687   4.967   0.163   3.231
 3263SOL    HW110688   4.921   0.186   3.146
 3263SOL    HW210689   5.044   0.226   3.245
 3264SOL     OW10690   0.494   5.193   6.940
 3264SOL    HW110691   0.483   5.098   6.912
 3264SOL    HW210692   0.580   5.229   6.902
 3265SOL     OW10693   4.109   2.166   6.811
 3265SOL    HW110694   4.125   2.068   6.799
 3265SOL    HW210695   4.080   2.205   6.724
 3266SOL     OW10696   0.260   2.080   0.420
 3266SOL    HW110697   0.181   2.079   0.482
 3266SOL    HW210698   0.342   2.054   0.472
 3267SOL     OW10699   3.460   2.557   1.513
 3267SOL    HW110700   3.493   2.652   1.514
 3267SOL    HW210701   3.432   2.530   1.605
 3268SOL     OW10702   1.427   3.890   6.978
 3268SOL    HW110703   1.482   3.827   0.009
 3268SOL    HW210704   1.347   3.843   6.942
 3269SOL     OW10705   4.613   4.641   1.888
 3269SOL    HW110706   4.553   4.594   1.953
 3269SOL    HW210707   4.637   4.731   1.924
 3270SOL     OW10708   0.746   5.387   3.724
 3270SOL    HW110709   0.804   5.469   3.724
 3270SOL    HW210710   0.651   5.414   3.743
 3271SOL     OW10711   5.404   1.977   2.795
 3271SOL    HW110712   5.387   1.969   2.697
 3271SOL    HW210713   5.425   2.071   2.819
 3272SOL     OW10714   3.598   5.917   0.440
 3272SOL    HW110715   3.622   5.877   0.528
 3272SOL    HW210716   3.514   5.971   0.450
 3273SOL     OW10717   0.894   6.493   1.854
 3273SOL    HW110718   0.932   6.565   1.797
 3273SOL    HW210719   0.875   6.529   1.946
 3274SOL     OW10720   3.785   2.248   0.039
 3274SOL    HW110721   3.725   2.200   0.103
 3274SOL    HW210722   3.730   2.309   7.004
 3275SOL     OW10723   1.710   0.298   7.005
 3275SOL    HW110724   1.731   0.390   6.972
 3275SOL    HW210725   1.620   0.271   6.971
 3276SOL     OW10726   3.747   5.079   6.754
 3276SOL    HW110727   3.822   5.092   6.819
 3276SOL    HW210728   3.671   5.032   6.800
 3277SOL     OW10729   6.140   0.125   6.403
 3277SOL    HW110730   6.111   0.154   6.494
 3277SOL    HW210731   6.078   0.163   6.334
 3278SOL     OW10732   6.907   1.501   5.074
 3278SOL    HW110733   6.933   1.509   4.978
 3278SOL    HW210734   6.846   1.422   5.086
 3279SOL     OW10735   0.094   0.270   0.630
 3279SOL    HW110736   0.002   0.284   0.592
 3279SOL    HW210737   0.154   0.238   0.557
 3280SOL     OW10738   2.652   5.198   6.422
 3280SOL    HW110739   2.662   5.099   6.410
 3280SOL    HW210740   2.736   5.244   6.393
 3281SOL     OW10741   1.496   5.983   1.172
 3281SOL    HW110742   1.526   5.996   1.078
 3281SOL    HW210743   1.474   6.071   1.213
 3282SOL     OW10744   3.103   6.505   4.246
 3282SOL    HW110745   3.181   6.450   4.215
 3282SOL    HW210746   3.111   6.597   4.209
 3283SOL     OW10747   3.153   1.541   3.122
 3283SOL    HW110748   3.206   1.477   3.177
 3283SOL    HW210749   3.181   1.635   3.142
 3284SOL     OW10750   6.855   6.809   6.953
 3284SOL    HW110751   6.945   6.769   6.938
 3284SOL    HW210752   6.801   6.803   6.869
 3285SOL     OW10753   0.136   2.920   3.189
 3285SOL    HW110754   0.199   2.843   3.206
 3285SOL    HW210755   0.112   2.962   3.276
 3286SOL     OW10756   4.030   3.539   3.913
 3286SOL    HW110757   3.959   3.485   3.870
 3286SOL    HW210758   4.089   3.480   3.968
 3287SOL     OW10759   1.051   5.784   0.094
 3287SOL    HW110760   1.058   5.883   0.088
 3287SOL    HW210761   1.138   5.742   0.069
 3288SOL     OW10762   0.348   6.317   6.833
 3288SOL    HW110763   0.426   6.374   6.859
 3288SOL    HW210764   0.295   6.293   6.915
 3289SOL     OW10765   1.233   6.675   5.184
 3289SOL    HW110766   1.178   6.593   5.201
 3289SOL    HW210767   1.173   6.755   5.184
 3290SOL     OW10768   0.625   5.991   1.979
 3290SOL    HW110769   0.553   5.996   1.910
 3290SOL    HW210770   0.585   5.995   2.070
 3291SOL     OW10771   1.743   6.356   6.289
 3291SOL    HW110772   1.727   6.308   6.203
 3291SOL    HW210773   1.671   6.334   6.354
 3292SOL     OW10774   0.646   1.421   6.871
 3292SOL    HW110775   0.708   1.443   6.946
 3292SOL    HW210776   0.570   1.486   6.870
 3293SOL     OW10777   6.870   1.719   3.378
 3293SOL    HW110778   6.828   1.635   3.412
 3293SOL    HW210779   6.952   1.740   3.432
 3294SOL     OW10780   6.680   0.489   6.484
 3294SOL    HW110781   6.663   0.471   6.387
 3294SOL    HW210782   6.776   0.470   6.505
 3295SOL     OW10783   2.693   1.807   1.031
 3295SOL    HW110784   2.721   1.796   0.935
 3295SOL    HW210785   2.683   1.717   1.073
 3296SOL     OW10786   2.495   6.786   1.816
 3296SOL    HW110787   2.567   6.721   1.790
 3296SOL    HW210788   2.536   6.866   1.859
 3297SOL     OW10789   3.142   2.017   5.188
 3297SOL    HW110790   3.060   2.034   5.132
 3297SOL    HW210791   3.180   2.105   5.217
 3298SOL     OW10792   6.377   3.138   2.698
 3298SOL    HW110793   6.319   3.120   2.778
 3298SOL    HW210794   6.404   3.234   2.697
 3299SOL     OW10795   1.938   0.300   3.491
 3299SOL    HW110796   2.004   0.374   3.475
 3299SOL    HW210797   1.846   0.331   3.466
 3300SOL     OW10798   6.742   0.722   6.098
 3300SOL    HW110799   6.769   0.626   6.102
 3300SOL    HW210800   6.815   0.778   6.137
 3301SOL     OW10801   1.509   3.924   3.959
 3301SOL    HW110802   1.589   3.943   4.016
 3301SOL    HW210803   1.470   4.010   3.927
 3302SOL     OW10804   1.349   5.126   4.458
 3302SOL    HW110805   1.256   5.160   4.444
 3302SOL    HW210806   1.352   5.071   4.542
 3303SOL     OW10807   3.723   3.253   2.691
 3303SOL    HW110808   3.780   3.172   2.678
 3303SOL    HW210809   3.701   3.263   2.788
 3304SOL     OW10810   1.165   4.851   3.687
 3304SOL    HW110811   1.236   4.842   3.618
 3304SOL    HW210812   1.162   4.768   3.743
 3305SOL     OW10813   1.978   1.027   2.054
 3305SOL    HW110814   1.927   0.941   2.063
 3305SOL    HW210815   2.072   1.014   2.086
 3306SOL     OW10816   2.046   3.747   2.769
 3306SOL    HW110817   2.108   3.787   2.837
 3306SOL    HW210818   1.992   3.820   2.726
 3307SOL     OW10819   0.125   5.932   0.110
 3307SOL    HW110820   0.137   6.030   0.130
 3307SOL    HW210821   0.106   5.884   0.196
 3308SOL     OW10822   4.781   5.647   0.009
 3308SOL    HW110823   4.741   5.737   0.027
 3308SOL    HW210824   4.785   5.595   0.094
 3309SOL     OW10825   0.890   5.218   2.550
 3309SOL    HW110826   0.851   5.182   2.466
 3309SOL    HW210827   0.831   5.290   2.586
 3310SOL     OW10828   0.405   3.570   3.018
 3310SOL    HW110829   0.362   3.644   2.967
 3310SOL    HW210830   0.496   3.552   2.981
 3311SOL     OW10831   2.655   5.702   0.694
 3311SOL    HW110832   2.671   5.643   0.773
 3311SOL    HW210833   2.646   5.797   0.725
 3312SOL     OW10834   3.231   4.286   6.442
 3312SOL    HW110835   3.238   4.334   6.354
 3312SOL    HW210836   3.322   4.278   6.483
 3313SOL     OW10837   1.326   5.158   3.756
 3313SOL    HW110838   1.320   5.214   3.839
 3313SOL    HW210839   1.239   5.164   3.706
 3314SOL     OW10840   1.757   3.032   4.758
 3314SOL    HW110841   1.735   2.966   4.686
 3314SOL    HW210842   1.856   3.043   4.764
 3315SOL     OW10843   6.559   3.028   4.110
 3315SOL    HW110844   6.583   2.936   4.080
 3315SOL    HW210845   6.641   3.086   4.108
 3316SOL     OW10846   4.103   1.893   6.017
 3316SOL    HW110847   4.055   1.806   6.028
 3316SOL    HW210848   4.159   1.911   6.097
 3317SOL     OW10849   4.621   2.489   1.922
 3317SOL    HW110850   4.689   2.539   1.977
 3317SOL    HW210851   4.668   2.429   1.857
 3318SOL     OW10852   2.608   6.435   6.318
 3318SOL    HW110853   2.577   6.529   6.334
 3318SOL    HW210854   2.530   6.377   6.297
 3319SOL     OW10855   6.890   6.511   3.921
 3319SOL    HW110856   6.923   6.571   3.993
 3319SOL    HW210857   6.962   6.495   3.854
 3320SOL     OW10858   5.634   1.492   5.447
 3320SOL    HW110859   5.638   1.588   5.474
 3320SOL    HW210860   5.593   1.438   5.521
 3321SOL     OW10861   3.749   2.929   2.726
 3321SOL    HW110862   3.838   2.972   2.740
 3321SOL    HW210863   3.679   2.980   2.777
 3322SOL     OW10864   4.881   2.103   1.118
 3322SOL    HW110865   4.808   2.050   1.075
 3322SOL    HW210866   4.939   2.041   1.172
 3323SOL     OW10867   2.417   4.428   6.914
 3323SOL    HW110868   2.375   4.447   7.003
 3323SOL    HW210869   2.349   4.386   6.854
 3324SOL     OW10870   1.636   4.093   0.565
 3324SOL    HW110871   1.683   4.167   0.515
 3324SOL    HW210872   1.547   4.076   0.522
 3325SOL     OW10873   2.431   3.267   0.181
 3325SOL    HW110874   2.414   3.358   0.219
 3325SOL    HW210875   2.508   3.225   0.228
 3326SOL     OW10876   5.591   1.999   2.030
 3326SOL    HW110877   5.493   1.999   2.051
 3326SOL    HW210878   5.636   1.927   2.082
 3327SOL     OW10879   2.632   6.531   1.713
 3327SOL    HW110880   2.557   6.487   1.665
 3327SOL    HW210881   2.677   6.465   1.773
 3328SOL     OW10882   4.367   1.324   1.800
 3328SOL    HW110883   4.310   1.272   1.863
 3328SOL    HW210884   4.402   1.405   1.846
 3329SOL     OW10885   4.090   0.582   5.247
 3329SOL    HW110886   4.167   0.639   5.220
 3329SOL    HW210887   4.015   0.640   5.278
 3330SOL     OW10888   5.998   6.937   2.175
 3330SOL    HW110889   5.972   7.021   2.126
 3330SOL    HW210890   5.919   6.875   2.178
 3331SOL     OW10891   1.419   3.553   3.033
 3331SOL    HW110892   1.489   3.497   3.077
 3331SOL    HW210893   1.330   3.510   3.042
 3332SOL     OW10894   5.394   4.588   0.600
 3332SOL    HW110895   5.315   4.582   0.661
 3332SOL    HW210896   5.398   4.506   0.542
 3333SOL     OW10897   3.254   3.768   1.035
 3333SOL    HW110898   3.161   3.741   1.013
 3333SOL    HW210899   3.261   3.785   1.134
 3334SOL     OW10900   1.640   2.674   2.204
 3334SOL    HW110901   1.609   2.592   2.155
 3334SOL    HW210902   1.740   2.679   2.200
 3335SOL     OW10903   3.639   4.690   6.004
 3335SOL    HW110904   3.559   4.699   5.944
 3335SOL    HW210905   3.613   4.635   6.084
 3336SOL     OW10906   2.226   0.295   4.168
 3336SOL    HW110907   2.147   0.305   4.229
 3336SOL    HW210908   2.241   0.198   4.149
 3337SOL     OW10909   4.105   3.342   2.366
 3337SOL    HW110910   4.167   3.391   2.428
 3337SOL    HW210911   4.151   3.326   2.279
 3338SOL     OW10912   1.120   1.890   1.753
 3338SOL    HW110913   1.189   1.930   1.693
 3338SOL    HW210914   1.049   1.957   1.773
 3339SOL     OW10915   1.829   0.155   5.713
 3339SOL    HW110916   1.784   0.234   5.671
 3339SOL    HW210917   1.832   0.169   5.812
 3340SOL     OW10918   4.869   0.630   4.509
 3340SOL    HW110919   4.918   0.716   4.524
 3340SOL    HW210920   4.837   0.626   4.414
 3341SOL     OW10921   2.181   4.661   2.887
 3341SOL    HW110922   2.231   4.693   2.806
 3341SOL    HW210923   2.083   4.657   2.865
 3342SOL     OW10924   6.163   0.375   3.074
 3342SOL    HW110925   6.143   0.388   2.977
 3342SOL    HW210926   6.261   0.390   3.090
 3343SOL     OW10927   5.214   5.249   6.499
 3343SOL    HW110928   5.121   5.270   6.468
 3343SOL    HW210929   5.281   5.290   6.436
 3344SOL     OW10930   6.316   2.891   2.542
 3344SOL    HW110931   6.394   2.940   2.579
 3344SOL    HW210932   6.270   2.947   2.473
 3345SOL     OW10933   0.630   3.407   0.097
 3345SOL    HW110934   0.706   3.347   0.119
 3345SOL    HW210935   0.579   3.429   0.180
 3346SOL     OW10936   2.201   0.971   0.079
 3346SOL    HW110937   2.210   1.059   0.033
 3346SOL    HW210938   2.292   0.934   0.098
 3347SOL     OW10939   1.224   2.809   6.210
 3347SOL    HW110940   1.221   2.886   6.274
 3347SOL    HW210941   1.184   2.836   6.123
 3348SOL     OW10942   3.901   4.314   6.333
 3348SOL    HW110943   3.912   4.287   6.428
 3348SOL    HW210944   3.904   4.233   6.274
 3349SOL     OW10945   2.246   3.982   3.693
 3349SOL    HW110946   2.201   3.944   3.774
 3349SOL    HW210947   2.285   4.072   3.716
 3350SOL     OW10948   0.772   4.323   5.668
 3350SOL    HW110949   0.820   4.236   5.675
 3350SOL    HW210950   0.811   4.376   5.592
 3351SOL     OW10951   5.531   0.677   1.457
 3351SOL    HW110952   5.481   0.728   1.527
 3351SOL    HW210953   5.467   0.616   1.409
 3352SOL     OW10954   5.445   3.072   0.793
 3352SOL    HW110955   5.539   3.103   0.803
 3352SOL    HW210956   5.439   2.975   0.819
 3353SOL     OW10957   1.777   0.017   1.525
 3353SOL    HW110958   1.767   0.077   1.605
 3353SOL    HW210959   1.751   0.067   1.442
 3354SOL     OW10960   3.930   3.361   5.734
 3354SOL    HW110961   3.981   3.381   5.818
 3354SOL    HW210962   3.833   3.350   5.756
 3355SOL     OW10963   1.751   1.384   5.305
 3355SOL    HW110964   1.803   1.389   5.220
 3355SOL    HW210965   1.669   1.441   5.296
 3356SOL     OW10966   0.917   0.105   6.091
 3356SOL    HW110967   0.850   0.143   6.027
 3356SOL    HW210968   0.991   0.170   6.104
 3357SOL     OW10969   3.080   3.679   1.763
 3357SOL    HW110970   2.997   3.653   1.812
 3357SOL    HW210971   3.132   3.596   1.740
 3358SOL     OW10972   5.632   1.442   3.572
 3358SOL    HW110973   5.556   1.425   3.634
 3358SOL    HW210974   5.637   1.369   3.504
 3359SOL     OW10975   0.647   5.590   4.070
 3359SOL    HW110976   0.722   5.573   4.134
 3359SOL    HW210977   0.676   5.655   4.000
 3360SOL     OW10978   0.628   2.379   6.527
 3360SOL    HW110979   0.722   2.394   6.557
 3360SOL    HW210980   0.602   2.284   6.544
 3361SOL     OW10981   1.157   0.224   4.240
 3361SOL    HW110982   1.175   0.133   4.279
 3361SOL    HW210983   1.235   0.253   4.186
 3362SOL     OW10984   3.900   1.791   3.968
 3362SOL    HW110985   3.969   1.808   4.038
 3362SOL    HW210986   3.944   1.753   3.887
 3363SOL     OW10987   6.984   2.994   1.732
 3363SOL    HW110988   0.014   2.914   1.763
 3363SOL    HW210989   6.973   2.991   1.633
 3364SOL     OW10990   0.821   4.100   2.705
 3364SOL    HW110991   0.735   4.055   2.729
 3364SOL    HW210992   0.854   4.065   2.618
 3365SOL     OW10993   1.784   3.129   4.445
 3365SOL    HW110994   1.877   3.104   4.473
 3365SOL    HW210995   1.777   3.229   4.439
 3366SOL     OW10996   0.187   4.053   4.479
 3366SOL    HW110997   0.174   4.152   4.473
 3366SOL    HW210998   0.282   4.034   4.505
 3367SOL     OW10999   3.631   3.700   4.289
 3367SOL    HW111000   3.680   3.706   4.202
 3367SOL    HW211001   3.575   3.782   4.300
 3368SOL     OW11002   1.404   6.591   6.413
 3368SOL    HW111003   1.360   6.575   6.325
 3368SOL    HW211004   1.498   6.558   6.410
 3369SOL     OW11005   4.256   1.940   1.434
 3369SOL    HW111006   4.205   2.025   1.442
 3369SOL    HW211007   4.207   1.867   1.481
 3370SOL     OW11008   6.399   6.353   1.635
 3370SOL    HW111009   6.316   6.322   1.589
 3370SOL    HW211010   6.428   6.283   1.701
 3371SOL     OW11011   2.005   3.592   2.093
 3371SOL    HW111012   2.029   3.686   2.119
 3371SOL    HW211013   2.071   3.558   2.026
 3372SOL     OW11014   6.601   2.784   1.224
 3372SOL    HW111015   6.537   2.728   1.275
 3372SOL    HW211016   6.649   2.846   1.286
 3373SOL     OW11017   0.590   1.463   1.711
 3373SOL    HW111018   0.497   1.501   1.705
 3373SOL    HW211019   0.650   1.530   1.754
 3374SOL     OW11020   0.597   7.005   4.139
 3374SOL    HW111021   0.635   6.930   4.194
 3374SOL    HW211022   0.562   6.968   4.053
 3375SOL     OW11023   0.073   4.893   0.062
 3375SOL    HW111024   0.139   4.818   0.067
 3375SOL    HW211025   0.059   4.932   0.153
 3376SOL     OW11026   2.549   3.331   5.691
 3376SOL    HW111027   2.626   3.284   5.735
 3376SOL    HW211028   2.506   3.270   5.625
 3377SOL     OW11029   6.489   5.313   4.294
 3377SOL    HW111030   6.494   5.223   4.250
 3377SOL    HW211031   6.577   5.335   4.335
 3378SOL     OW11032   0.830   6.643   6.708
 3378SOL    HW111033   0.853   6.687   6.622
 3378SOL    HW211034   0.771   6.703   6.762
 3379SOL     OW11035   1.031   3.233   4.830
 3379SOL    HW111036   0.955   3.178   4.797
 3379SOL    HW211037   1.117   3.190   4.805
 3380SOL     OW11038   3.880   4.741   5.596
 3380SOL    HW111039   3.833   4.788   5.671
 3380SOL    HW211040   3.822   4.742   5.515
 3381SOL     OW11041   0.599   2.593   1.642
 3381SOL    HW111042   0.531   2.607   1.571
 3381SOL    HW211043   0.584   2.505   1.687
 3382SOL     OW11044   6.669   2.996   0.994
 3382SOL    HW111045   6.652   2.899   1.010
 3382SOL    HW211046   6.612   3.027   0.918
 3383SOL     OW11047   3.445   4.959   0.580
 3383SOL    HW111048   3.522   4.993   0.635
 3383SOL    HW211049   3.404   5.035   0.530
 3384SOL     OW11050   2.481   4.781   0.864
 3384SOL    HW111051   2.441   4.787   0.955
 3384SOL    HW211052   2.409   4.778   0.795
 3385SOL     OW11053   0.001   2.720   3.662
 3385SOL    HW111054   0.084   2.775   3.657
 3385SOL    HW211055   7.009   2.690   3.757
 3386SOL     OW11056   6.603   4.605   6.993
 3386SOL    HW111057   6.544   4.686   6.992
 3386SOL    HW211058   6.629   4.584   0.065
 3387SOL     OW11059   5.236   0.994   3.467
 3387SOL    HW111060   5.146   0.957   3.490
 3387SOL    HW211061   5.257   0.976   3.371
 3388SOL     OW11062   4.970   4.176   1.458
 3388SOL    HW111063   5.038   4.122   1.409
 3388SOL    HW211064   4.901   4.209   1.393
 3389SOL     OW11065   6.197   6.213   7.022
 3389SOL    HW111066   6.276   6.160   6.989
 3389SOL    HW211067   6.167   6.176   0.087
 3390SOL     OW11068   4.044   6.418   5.762
 3390SOL    HW111069   4.071   6.364   5.682
 3390SOL    HW211070   4.013   6.509   5.732
 3391SOL     OW11071   5.527   2.314   3.622
 3391SOL    HW111072   5.482   2.268   3.545
 3391SOL    HW211073   5.463   2.378   3.664
 3392SOL     OW11074   3.909   6.879   5.109
 3392SOL    HW111075   4.004   6.905   5.090
 3392SOL    HW211076   3.847   6.949   5.073
 3393SOL     OW11077   5.514   6.914   0.706
 3393SOL    HW111078   5.493   6.861   0.624
 3393SOL    HW211079   5.566   6.996   0.681
 3394SOL     OW11080   3.417   5.024   1.373
 3394SOL    HW111081   3.495   4.987   1.322
 3394SOL    HW211082   3.349   5.060   1.309
 3395SOL     OW11083   4.473   1.103   3.061
 3395SOL    HW111084   4.481   1.198   3.030
 3395SOL    HW211085   4.385   1.090   3.106
 3396SOL     OW11086   5.275   0.687   3.940
 3396SOL    HW111087   5.349   0.644   3.888
 3396SOL    HW211088   5.270   0.645   4.031
 3397SOL     OW11089   2.639   5.825   6.200
 3397SOL    HW111090   2.639   5.725   6.194
 3397SOL    HW211091   2.729   5.856   6.229
 3398SOL     OW11092   0.640   1.457   5.322
 3398SOL    HW111093   0.545   1.434   5.299
 3398SOL    HW211094   0.697   1.376   5.310
 3399SOL     OW11095   0.009   5.080   3.009
 3399SOL    HW111096   6.956   5.084   2.944
 3399SOL    HW211097   0.087   5.033   2.968
 3400SOL     OW11098   5.773   3.537   6.350
 3400SOL    HW111099   5.701   3.603   6.371
 3400SOL    HW211100   5.862   3.582   6.356
 3401SOL     OW11101   6.823   3.693   6.111
 3401SOL    HW111102   6.759   3.764   6.139
 3401SOL    HW211103   6.855   3.712   6.018
 3402SOL     OW11104   6.796   5.115   1.050
 3402SOL    HW111105   6.865   5.052   1.015
 3402SOL    HW211106   6.829   5.209   1.040
 3403SOL     OW11107   4.829   6.031   6.115
 3403SOL    HW111108   4.809   5.933   6.111
 3403SOL    HW211109   4.928   6.045   6.108
 3404SOL     OW11110   5.282   3.131   6.073
 3404SOL    HW111111   5.239   3.190   6.004
 3404SOL    HW211112   5.216   3.109   6.144
 3405SOL     OW11113   5.713   5.690   6.190
 3405SOL    HW111114   5.733   5.596   6.219
 3405SOL    HW211115   5.624   5.693   6.145
 3406SOL     OW11116   2.051   3.424   2.354
 3406SOL    HW111117   2.042   3.511   2.402
 3406SOL    HW211118   2.002   3.428   2.267
 3407SOL     OW11119   2.624   4.440   1.169
 3407SOL    HW111120   2.687   4.426   1.093
 3407SOL    HW211121   2.674   4.474   1.249
 3408SOL     OW11122   4.335   2.275   3.912
 3408SOL    HW111123   4.375   2.361   3.880
 3408SOL    HW211124   4.403   2.223   3.963
 3409SOL     OW11125   4.034   6.588   0.186
 3409SOL    HW111126   4.074   6.668   0.141
 3409SOL    HW211127   4.025   6.514   0.119
 3410SOL     OW11128   5.602   6.702   3.017
 3410SOL    HW111129   5.693   6.744   3.007
 3410SOL    HW211130   5.612   6.604   3.034
 3411SOL     OW11131   7.003   2.594   0.803
 3411SOL    HW111132   6.920   2.568   0.753
 3411SOL    HW211133   6.990   2.683   0.846
 3412SOL     OW11134   5.098   3.162   1.687
 3412SOL    HW111135   5.030   3.152   1.615
 3412SOL    HW211136   5.188   3.137   1.652
 3413SOL     OW11137   6.172   1.574   6.703
 3413SOL    HW111138   6.267   1.586   6.674
 3413SOL    HW211139   6.111   1.616   6.636
 3414SOL     OW11140   3.582   2.785   6.839
 3414SOL    HW111141   3.593   2.749   6.932
 3414SOL    HW211142   3.655   2.851   6.821
 3415SOL     OW11143   2.046   2.355   4.123
 3415SOL    HW111144   2.124   2.416   4.107
 3415SOL    HW211145   1.968   2.386   4.068
 3416SOL     OW11146   6.002   7.014   0.373
 3416SOL    HW111147   6.093   0.017   0.340
 3416SOL    HW211148   6.008   6.981   0.467
 3417SOL     OW11149   0.236   0.014   3.024
 3417SOL    HW111150   0.184   6.969   2.971
 3417SOL    HW211151   0.260   6.997   3.112
 3418SOL     OW11152   3.945   5.249   3.055
 3418SOL    HW111153   3.966   5.250   3.153
 3418SOL    HW211154   3.847   5.263   3.042
 3419SOL     OW11155   3.762   5.644   5.700
 3419SOL    HW111156   3.824   5.719   5.677
 3419SOL    HW211157   3.667   5.675   5.691
 3420SOL     OW11158   4.866   3.116   4.043
 3420SOL    HW111159   4.819   3.035   4.080
 3420SOL    HW211160   4.865   3.189   4.111
 3421SOL     OW11161   5.190   1.629   3.791
 3421SOL    HW111162   5.100   1.594   3.765
 3421SOL    HW211163   5.257   1.554   3.786
 3422SOL     OW11164   2.314   0.199   6.988
 3422SOL    HW111165   2.401   0.190   6.939
 3422SOL    HW211166   2.277   0.109   7.008
 3423SOL     OW11167   0.749   4.533   5.954
 3423SOL    HW111168   0.751   4.472   5.874
 3423SOL    HW211169   0.840   4.572   5.968
 3424SOL     OW11170   4.250   6.671   1.616
 3424SOL    HW111171   4.215   6.741   1.553
 3424SOL    HW211172   4.246   6.582   1.571
 3425SOL     OW11173   4.900   4.487   1.958
 3425SOL    HW111174   4.960   4.412   1.986
 3425SOL    HW211175   4.825   4.451   1.902
 3426SOL     OW11176   5.054   3.452   0.706
 3426SOL    HW111177   5.098   3.414   0.787
 3426SOL    HW211178   5.119   3.450   0.630
 3427SOL     OW11179   1.450   2.547   1.468
 3427SOL    HW111180   1.484   2.640   1.454
 3427SOL    HW211181   1.453   2.497   1.382
 3428SOL     OW11182   5.117   4.982   5.313
 3428SOL    HW111183   5.147   4.996   5.407
 3428SOL    HW211184   5.017   4.990   5.308
 3429SOL     OW11185   0.474   0.905   0.941
 3429SOL    HW111186   0.497   0.887   1.037
 3429SOL    HW211187   0.439   0.821   0.899
 3430SOL     OW11188   2.242   4.350   5.703
 3430SOL    HW111189   2.249   4.267   5.759
 3430SOL    HW211190   2.269   4.429   5.758
 3431SOL     OW11191   2.198   6.488   2.329
 3431SOL    HW111192   2.259   6.559   2.295
 3431SOL    HW211193   2.240   6.398   2.315
 3432SOL     OW11194   2.285   4.998   6.773
 3432SOL    HW111195   2.362   4.964   6.826
 3432SOL    HW211196   2.240   5.073   6.822
 3433SOL     OW11197   2.317   0.786   6.727
 3433SOL    HW111198   2.283   0.741   6.644
 3433SOL    HW211199   2.401   0.741   6.757
 3434SOL     OW11200   2.829   2.134   1.849
 3434SOL    HW111201   2.832   2.217   1.904
 3434SOL    HW211202   2.917   2.120   1.804
 3435SOL     OW11203   2.213   0.581   0.412
 3435SOL    HW111204   2.228   0.674   0.445
 3435SOL    HW211205   2.194   0.583   0.314
 3436SOL     OW11206   4.261   5.421   6.643
 3436SOL    HW111207   4.235   5.482   6.718
 3436SOL    HW211208   4.360   5.404   6.646
 3437SOL     OW11209   1.830   6.592   5.725
 3437SOL    HW111210   1.762   6.547   5.782
 3437SOL    HW211211   1.825   6.690   5.738
 3438SOL     OW11212   0.543   3.557   1.391
 3438SOL    HW111213   0.626   3.604   1.363
 3438SOL    HW211214   0.484   3.620   1.441
 3439SOL     OW11215   2.478   5.921   2.795
 3439SOL    HW111216   2.551   5.983   2.825
 3439SOL    HW211217   2.485   5.835   2.846
 3440SOL     OW11218   3.748   2.963   4.765
 3440SOL    HW111219   3.657   2.936   4.733
 3440SOL    HW211220   3.755   2.944   4.864
 3441SOL     OW11221   6.853   6.137   6.353
 3441SOL    HW111222   6.794   6.056   6.356
 3441SOL    HW211223   6.843   6.182   6.264
 3442SOL     OW11224   3.439   4.023   1.465
 3442SOL    HW111225   3.345   4.023   1.499
 3442SOL    HW211226   3.456   4.108   1.415
 3443SOL     OW11227   3.246   6.075   2.621
 3443SOL    HW111228   3.156   6.049   2.657
 3443SOL    HW211229   3.263   6.171   2.639
 3444SOL     OW11230   5.106   4.464   1.384
 3444SOL    HW111231   5.112   4.386   1.323
 3444SOL    HW211232   5.082   4.433   1.476
 3445SOL     OW11233   6.747   4.950   3.927
 3445SOL    HW111234   6.678   4.923   3.860
 3445SOL    HW211235   6.752   5.050   3.932
 3446SOL     OW11236   5.584   0.381   1.846
 3446SOL    HW111237   5.634   0.425   1.771
 3446SOL    HW211238   5.486   0.393   1.833
 3447SOL     OW11239   5.397   0.208   0.105
 3447SOL    HW111240   5.402   0.301   0.144
 3447SOL    HW211241   5.410   0.213   0.006
 3448SOL     OW11242   1.665   6.622   5.482
 3448SOL    HW111243   1.740   6.591   5.423
 3448SOL    HW211244   1.700   6.635   5.575
 3449SOL     OW11245   5.934   5.392   4.886
 3449SOL    HW111246   5.994   5.452   4.939
 3449SOL    HW211247   5.879   5.337   4.949
 3450SOL     OW11248   1.360   0.052   6.625
 3450SOL    HW111249   1.449   0.098   6.620
 3450SOL    HW211250   1.355   7.005   6.553
 3451SOL     OW11251   1.503   5.906   0.308
 3451SOL    HW111252   1.530   5.947   0.395
 3451SOL    HW211253   1.527   5.808   0.309
 3452SOL     OW11254   5.866   0.634   5.720
 3452SOL    HW111255   5.789   0.630   5.656
 3452SOL    HW211256   5.873   0.546   5.767
 3453SOL     OW11257   5.379   6.723   6.065
 3453SOL    HW111258   5.444   6.727   5.989
 3453SOL    HW211259   5.372   6.629   6.098
 3454SOL     OW11260   1.763   2.622   2.694
 3454SOL    HW111261   1.715   2.644   2.609
 3454SOL    HW211262   1.817   2.701   2.723
 3455SOL     OW11263   1.642   2.335   4.548
 3455SOL    HW111264   1.610   2.369   4.636
 3455SOL    HW211265   1.722   2.388   4.519
 3456SOL     OW11266   4.411   4.559   2.086
 3456SOL    HW111267   4.456   4.472   2.106
 3456SOL    HW211268   4.318   4.542   2.053
 3457SOL     OW11269   3.887   5.181   4.814
 3457SOL    HW111270   3.928   5.252   4.872
 3457SOL    HW211271   3.948   5.163   4.736
 3458SOL     OW11272   4.413   2.216   2.616
 3458SOL    HW111273   4.433   2.119   2.608
 3458SOL    HW211274   4.315   2.232   2.601
 3459SOL     OW11275   4.444   1.494   3.193
 3459SOL    HW111276   4.492   1.411   3.221
 3459SOL    HW211277   4.502   1.547   3.131
 3460SOL     OW11278   3.588   1.819   5.781
 3460SOL    HW111279   3.506   1.806   5.838
 3460SOL    HW211280   3.659   1.863   5.836
 3461SOL     OW11281   5.455   5.035   0.024
 3461SOL    HW111282   5.431   4.949   7.002
 3461SOL    HW211283   5.384   5.103   0.008
 3462SOL     OW11284   2.004   3.632   6.332
 3462SOL    HW111285   1.955   3.715   6.360
 3462SOL    HW211286   2.056   3.597   6.409
 3463SOL     OW11287   6.948   3.996   0.816
 3463SOL    HW111288   6.926   4.021   0.910
 3463SOL    HW211289   0.025   3.988   0.806
 3464SOL     OW11290   0.286   4.683   6.477
 3464SOL    HW111291   0.305   4.598   6.427
 3464SOL    HW211292   0.318   4.761   6.423
 3465SOL     OW11293   2.381   1.683   1.453
 3465SOL    HW111294   2.377   1.780   1.478
 3465SOL    HW211295   2.295   1.639   1.481
 3466SOL     OW11296   6.787   5.111   6.113
 3466SOL    HW111297   6.863   5.102   6.177
 3466SOL    HW211298   6.769   5.023   6.070
 3467SOL     OW11299   2.250   2.088   6.477
 3467SOL    HW111300   2.331   2.094   6.419
 3467SOL    HW211301   2.207   1.998   6.463
 3468SOL     OW11302   2.629   5.741   3.516
 3468SOL    HW111303   2.719   5.698   3.526
 3468SOL    HW211304   2.561   5.687   3.567
 3469SOL     OW11305   6.792   2.285   4.034
 3469SOL    HW111306   6.739   2.365   4.060
 3469SOL    HW211307   6.848   2.255   4.111
 3470SOL     OW11308   0.739   5.248   1.364
 3470SOL    HW111309   0.641   5.229   1.367
 3470SOL    HW211310   0.780   5.199   1.287
 3471SOL     OW11311   4.352   5.727   5.284
 3471SOL    HW111312   4.324   5.814   5.243
 3471SOL    HW211313   4.282   5.697   5.350
 3472SOL     OW11314   2.204   1.261   4.286
 3472SOL    HW111315   2.171   1.176   4.327
 3472SOL    HW211316   2.131   1.304   4.234
 3473SOL     OW11317   5.423   1.621   5.700
 3473SOL    HW111318   5.407   1.523   5.701
 3473SOL    HW211319   5.464   1.649   5.787
 3474SOL     OW11320   3.300   4.935   2.222
 3474SOL    HW111321   3.390   4.942   2.265
 3474SOL    HW211322   3.240   4.880   2.280
 3475SOL     OW11323   0.960   6.743   4.108
 3475SOL    HW111324   1.048   6.785   4.086
 3475SOL    HW211325   0.946   6.663   4.050
 3476SOL     OW11326   4.314   0.930   4.846
 3476SOL    HW111327   4.232   0.987   4.847
 3476SOL    HW211328   4.361   0.936   4.934
 3477SOL     OW11329   3.752   5.755   0.722
 3477SOL    HW111330   3.746   5.770   0.821
 3477SOL    HW211331   3.664   5.721   0.688
 3478SOL     OW11332   2.882   6.161   5.721
 3478SOL    HW111333   2.923   6.193   5.636
 3478SOL    HW211334   2.955   6.137   5.785
 3479SOL     OW11335   0.630   0.399   2.768
 3479SOL    HW111336   0.566   0.322   2.760
 3479SOL    HW211337   0.578   0.484   2.776
 3480SOL     OW11338   6.954   1.519   3.929
 3480SOL    HW111339   6.870   1.533   3.981
 3480SOL    HW211340   0.010   1.543   3.985
 3481SOL     OW11341   3.297   6.841   6.486
 3481SOL    HW111342   3.321   6.764   6.545
 3481SOL    HW211343   3.198   6.853   6.487
 3482SOL     OW11344   6.083   1.851   1.633
 3482SOL    HW111345   6.101   1.902   1.717
 3482SOL    HW211346   6.163   1.796   1.609
 3483SOL     OW11347   2.571   0.175   1.356
 3483SOL    HW111348   2.564   0.097   1.418
 3483SOL    HW211349   2.484   0.224   1.353
 3484SOL     OW11350   3.106   3.174   3.578
 3484SOL    HW111351   3.101   3.169   3.478
 3484SOL    HW211352   3.138   3.087   3.614
 3485SOL     OW11353   2.132   1.831   4.892
 3485SOL    HW111354   2.130   1.919   4.939
 3485SOL    HW211355   2.214   1.826   4.835
 3486SOL     OW11356   3.944   1.204   1.542
 3486SOL    HW111357   3.866   1.224   1.602
 3486SOL    HW211358   3.945   1.107   1.520
 3487SOL     OW11359   5.761   1.812   6.565
 3487SOL    HW111360   5.706   1.767   6.494
 3487SOL    HW211361   5.702   1.868   6.622
 3488SOL     OW11362   6.455   3.359   4.452
 3488SOL    HW111363   6.422   3.373   4.358
 3488SOL    HW211364   6.503   3.271   4.457
 3489SOL     OW11365   3.172   6.718   0.524
 3489SOL    HW111366   3.088   6.765   0.497
 3489SOL    HW211367   3.150   6.627   0.558
 3490SOL     OW11368   5.119   4.275   0.206
 3490SOL    HW111369   5.100   4.179   0.184
 3490SOL    HW211370   5.105   4.290   0.304
 3491SOL     OW11371   6.981   2.737   5.468
 3491SOL    HW111372   6.912   2.779   5.526
 3491SOL    HW211373   0.035   2.706   5.524
 3492SOL     OW11374   0.653   5.725   6.753
 3492SOL    HW111375   0.729   5.772   6.706
 3492SOL    HW211376   0.607   5.789   6.814
 3493SOL     OW11377   5.987   4.923   1.058
 3493SOL    HW111378   5.993   4.980   1.140
 3493SOL    HW211379   6.015   4.976   0.978
 3494SOL     OW11380   3.997   6.928   1.052
 3494SOL    HW111381   3.914   6.892   1.093
 3494SOL    HW211382   4.029   6.867   0.980
 3495SOL     OW11383   4.144   5.224   2.204
 3495SOL    HW111384   4.061   5.176   2.176
 3495SOL    HW211385   4.218   5.158   2.218
 3496SOL     OW11386   1.481   3.235   1.144
 3496SOL    HW111387   1.530   3.317   1.174
 3496SOL    HW211388   1.435   3.193   1.222
 3497SOL     OW11389   4.679   0.650   3.137
 3497SOL    HW111390   4.666   0.654   3.236
 3497SOL    HW211391   4.672   0.742   3.098
 3498SOL     OW11392   3.002   1.522   0.990
 3498SOL    HW111393   3.054   1.602   0.960
 3498SOL    HW211394   2.984   1.528   1.088
 3499SOL     OW11395   6.987   3.712   4.084
 3499SOL    HW111396   0.041   3.739   4.144
 3499SOL    HW211397   7.014   3.725   3.989
 3500SOL     OW11398   6.646   3.871   6.213
 3500SOL    HW111399   6.653   3.961   6.256
 3500SOL    HW211400   6.562   3.866   6.159
 3501SOL     OW11401   1.079   4.947   5.232
 3501SOL    HW111402   1.081   4.890   5.314
 3501SOL    HW211403   1.160   5.005   5.229
 3502SOL     OW11404   0.439   1.802   1.396
 3502SOL    HW111405   0.511   1.734   1.399
 3502SOL    HW211406   0.440   1.849   1.308
 3503SOL     OW11407   4.618   5.619   5.901
 3503SOL    HW111408   4.713   5.601   5.928
 3503SOL    HW211409   4.566   5.534   5.906
 3504SOL     OW11410   2.983   3.799   1.279
 3504SOL    HW111411   2.940   3.733   1.340
 3504SOL    HW211412   2.943   3.890   1.293
 3505SOL     OW11413   5.288   6.164   5.179
 3505SOL    HW111414   5.363   6.229   5.189
 3505SOL    HW211415   5.322   6.071   5.190
 3506SOL     OW11416   4.229   5.459   4.309
 3506SOL    HW111417   4.274   5.548   4.311
 3506SOL    HW211418   4.174   5.448   4.392
 3507SOL     OW11419   1.160   0.358   6.202
 3507SOL    HW111420   1.124   0.384   6.292
 3507SOL    HW211421   1.252   0.320   6.213
 3508SOL     OW11422   5.369   2.712   0.221
 3508SOL    HW111423   5.446   2.704   0.283
 3508SOL    HW211424   5.361   2.629   0.166
 3509SOL     OW11425   5.998   6.232   6.760
 3509SOL    HW111426   5.950   6.212   6.846
 3509SOL    HW211427   5.964   6.318   6.722
 3510SOL     OW11428   1.885   2.189   1.551
 3510SOL    HW111429   1.796   2.145   1.544
 3510SOL    HW211430   1.880   2.281   1.511
 3511SOL     OW11431   1.438   3.228   6.781
 3511SOL    HW111432   1.460   3.181   6.696
 3511SOL    HW211433   1.376   3.171   6.836
 3512SOL     OW11434   1.528   3.478   0.605
 3512SOL    HW111435   1.589   3.459   0.682
 3512SOL    HW211436   1.524   3.576   0.589
 3513SOL     OW11437   6.244   4.253   0.920
 3513SOL    HW111438   6.234   4.166   0.870
 3513SOL    HW211439   6.260   4.327   0.854
 3514SOL     OW11440   0.562   6.790   1.158
 3514SOL    HW111441   0.497   6.746   1.220
 3514SOL    HW211442   0.655   6.761   1.181
 3515SOL     OW11443   3.035   5.932   2.711
 3515SOL    HW111444   2.938   5.916   2.729
 3515SOL    HW211445   3.070   5.859   2.652
 3516SOL     OW11446   3.542   0.862   0.908
 3516SOL    HW111447   3.481   0.790   0.874
 3516SOL    HW211448   3.612   0.821   0.966
 3517SOL     OW11449   0.771   1.517   0.576
 3517SOL    HW111450   0.715   1.469   0.507
 3517SOL    HW211451   0.867   1.496   0.560
 3518SOL     OW11452   4.867   3.568   6.659
 3518SOL    HW111453   4.817   3.653   6.642
 3518SOL    HW211454   4.921   3.545   6.579
 3519SOL     OW11455   0.670   6.849   6.931
 3519SOL    HW111456   0.726   6.923   6.892
 3519SOL    HW211457   0.729   6.788   6.984
 3520SOL     OW11458   3.904   4.452   1.107
 3520SOL    HW111459   3.866   4.458   1.014
 3520SOL    HW211460   3.999   4.483   1.106
 3521SOL     OW11461   5.522   2.732   1.730
 3521SOL    HW111462   5.515   2.661   1.801
 3521SOL    HW211463   5.434   2.780   1.723
 3522SOL     OW11464   2.727   4.892   1.568
 3522SOL    HW111465   2.703   4.853   1.657
 3522SOL    HW211466   2.822   4.922   1.570
 3523SOL     OW11467   3.015   4.657   5.392
 3523SOL    HW111468   2.962   4.607   5.324
 3523SOL    HW211469   3.052   4.740   5.351
 3524SOL     OW11470   2.532   0.123   1.007
 3524SOL    HW111471   2.482   0.207   0.985
 3524SOL    HW211472   2.590   0.139   1.087
 3525SOL     OW11473   0.330   2.704   1.740
 3525SOL    HW111474   0.411   2.761   1.730
 3525SOL    HW211475   0.320   2.645   1.659
 3526SOL     OW11476   0.607   0.737   3.101
 3526SOL    HW111477   0.691   0.728   3.048
 3526SOL    HW211478   0.562   0.823   3.077
 3527SOL     OW11479   5.403   2.877   6.411
 3527SOL    HW111480   5.471   2.896   6.341
 3527SOL    HW211481   5.332   2.947   6.409
 3528SOL     OW11482   0.807   5.718   3.285
 3528SOL    HW111483   0.728   5.771   3.256
 3528SOL    HW211484   0.776   5.632   3.327
 3529SOL     OW11485   4.853   0.281   5.546
 3529SOL    HW111486   4.848   0.225   5.463
 3529SOL    HW211487   4.761   0.311   5.572
 3530SOL     OW11488   2.683   5.388   2.394
 3530SOL    HW111489   2.633   5.467   2.358
 3530SOL    HW211490   2.687   5.394   2.494
 3531SOL     OW11491   5.408   4.361   0.463
 3531SOL    HW111492   5.321   4.313   0.471
 3531SOL    HW211493   5.446   4.347   0.372
 3532SOL     OW11494   2.573   0.703   6.763
 3532SOL    HW111495   2.635   0.749   6.826
 3532SOL    HW211496   2.549   0.612   6.799
 3533SOL     OW11497   0.854   1.784   3.158
 3533SOL    HW111498   0.834   1.758   3.253
 3533SOL    HW211499   0.903   1.872   3.157
 3534SOL     OW11500   5.561   1.584   5.171
 3534SOL    HW111501   5.633   1.629   5.118
 3534SOL    HW211502   5.597   1.560   5.261
 3535SOL     OW11503   6.336   5.515   6.499
 3535SOL    HW111504   6.264   5.449   6.479
 3535SOL    HW211505   6.420   5.489   6.450
 3536SOL     OW11506   2.152   3.275   2.960
 3536SOL    HW111507   2.248   3.251   2.949
 3536SOL    HW211508   2.143   3.375   2.963
 3537SOL     OW11509   2.336   5.652   0.580
 3537SOL    HW111510   2.417   5.711   0.584
 3537SOL    HW211511   2.365   5.556   0.578
 3538SOL     OW11512   3.125   6.679   3.220
 3538SOL    HW111513   3.187   6.611   3.258
 3538SOL    HW211514   3.114   6.755   3.284
 3539SOL     OW11515   5.631   4.849   5.873
 3539SOL    HW111516   5.585   4.832   5.961
 3539SOL    HW211517   5.722   4.888   5.891
 3540SOL     OW11518   2.127   2.963   6.861
 3540SOL    HW111519   2.202   2.973   6.927
 3540SOL    HW211520   2.164   2.959   6.769
 3541SOL     OW11521   2.570   3.171   0.798
 3541SOL    HW111522   2.636   3.109   0.756
 3541SOL    HW211523   2.573   3.161   0.897
 3542SOL     OW11524   5.589   2.944   0.014
 3542SOL    HW111525   5.548   2.899   6.957
 3542SOL    HW211526   5.688   2.926   0.015
 3543SOL     OW11527   1.581   3.396   3.183
 3543SOL    HW111528   1.660   3.399   3.244
 3543SOL    HW211529   1.571   3.303   3.146
 3544SOL     OW11530   3.250   3.991   6.509
 3544SOL    HW111531   3.199   4.032   6.433
 3544SOL    HW211532   3.188   3.975   6.586
 3545SOL     OW11533   3.484   5.709   0.679
 3545SOL    HW111534   3.399   5.761   0.674
 3545SOL    HW211535   3.466   5.620   0.721
 3546SOL     OW11536   6.519   3.480   2.938
 3546SOL    HW111537   6.549   3.544   2.867
 3546SOL    HW211538   6.598   3.433   2.977
 3547SOL     OW11539   0.136   3.208   5.159
 3547SOL    HW111540   0.079   3.145   5.212
 3547SOL    HW211541   0.193   3.155   5.096
 3548SOL     OW11542   4.903   2.129   6.181
 3548SOL    HW111543   4.838   2.192   6.139
 3548SOL    HW211544   4.901   2.041   6.133
 3549SOL     OW11545   2.255   5.903   6.589
 3549SOL    HW111546   2.259   5.812   6.548
 3549SOL    HW211547   2.181   5.905   6.657
 3550SOL     OW11548   5.042   2.054   4.796
 3550SOL    HW111549   4.985   1.988   4.748
 3550SOL    HW211550   5.075   2.014   4.881
 3551SOL     OW11551   3.809   2.844   5.832
 3551SOL    HW111552   3.788   2.782   5.756
 3551SOL    HW211553   3.729   2.901   5.851
 3552SOL     OW11554   6.556   5.734   1.575
 3552SOL    HW111555   6.503   5.657   1.610
 3552SOL    HW211556   6.652   5.721   1.598
 3553SOL     OW11557   4.088   6.272   5.991
 3553SOL    HW111558   4.134   6.348   6.036
 3553SOL    HW211559   4.061   6.298   5.898
 3554SOL     OW11560   3.996   3.700   0.752
 3554SOL    HW111561   4.026   3.790   0.783
 3554SOL    HW211562   4.074   3.650   0.715
 3555SOL     OW11563   1.668   2.224   3.973
 3555SOL    HW111564   1.630   2.256   3.886
 3555SOL    HW211565   1.732   2.149   3.955
 3556SOL     OW11566   3.695   1.110   5.036
 3556SOL    HW111567   3.596   1.102   5.040
 3556SOL    HW211568   3.722   1.160   4.953
 3557SOL     OW11569   0.255   0.486   2.850
 3557SOL    HW111570   0.287   0.403   2.803
 3557SOL    HW211571   0.156   0.481   2.861
 3558SOL     OW11572   2.943   6.296   0.168
 3558SOL    HW111573   2.902   6.294   0.259
 3558SOL    HW211574   2.878   6.334   0.102
 3559SOL     OW11575   3.696   6.516   4.475
 3559SOL    HW111576   3.713   6.486   4.568
 3559SOL    HW211577   3.597   6.528   4.461
 3560SOL     OW11578   1.966   5.415   4.862
 3560SOL    HW111579   1.890   5.371   4.909
 3560SOL    HW211580   2.039   5.348   4.849
 3561SOL     OW11581   5.216   4.753   4.879
 3561SOL    HW111582   5.152   4.818   4.839
 3561SOL    HW211583   5.309   4.779   4.854
 3562SOL     OW11584   2.559   1.541   4.548
 3562SOL    HW111585   2.619   1.463   4.565
 3562SOL    HW211586   2.469   1.509   4.520
 3563SOL     OW11587   5.956   2.162   5.648
 3563SOL    HW111588   5.871   2.212   5.655
 3563SOL    HW211589   5.948   2.074   5.696
 3564SOL     OW11590   0.329   4.416   2.923
 3564SOL    HW111591   0.230   4.408   2.933
 3564SOL    HW211592   0.359   4.506   2.954
 3565SOL     OW11593   3.272   4.984   3.215
 3565SOL    HW111594   3.354   4.963   3.162
 3565SOL    HW211595   3.212   5.044   3.162
 3566SOL     OW11596   6.613   1.412   5.212
 3566SOL    HW111597   6.651   1.401   5.303
 3566SOL    HW211598   6.597   1.322   5.171
 3567SOL     OW11599   0.657   3.703   6.799
 3567SOL    HW111600   0.692   3.797   6.801
 3567SOL    HW211601   0.566   3.702   6.758
 3568SOL     OW11602   0.011   3.892   5.557
 3568SOL    HW111603   6.961   3.823   5.559
 3568SOL    HW211604   0.052   3.900   5.648
 3569SOL     OW11605   2.744   1.598   5.807
 3569SOL    HW111606   2.810   1.673   5.799
 3569SOL    HW211607   2.688   1.612   5.889
 3570SOL     OW11608   5.686   0.560   4.660
 3570SOL    HW111609   5.692   0.650   4.702
 3570SOL    HW211610   5.726   0.563   4.568
 3571SOL     OW11611   6.598   5.728   6.761
 3571SOL    HW111612   6.676   5.731   6.698
 3571SOL    HW211613   6.556   5.638   6.757
 3572SOL     OW11614   5.654   3.780   3.835
 3572SOL    HW111615   5.633   3.697   3.784
 3572SOL    HW211616   5.588   3.851   3.813
 3573SOL     OW11617   0.789   4.486   4.543
 3573SOL    HW111618   0.759   4.581   4.552
 3573SOL    HW211619   0.879   4.484   4.499
 3574SOL     OW11620   0.567   4.919   0.479
 3574SOL    HW111621   0.486   4.971   0.455
 3574SOL    HW211622   0.560   4.827   0.442
 3575SOL     OW11623   6.249   5.190   3.160
 3575SOL    HW111624   6.227   5.099   3.125
 3575SOL    HW211625   6.165   5.238   3.186
 3576SOL     OW11626   1.581   1.197   6.084
 3576SOL    HW111627   1.504   1.184   6.021
 3576SOL    HW211628   1.644   1.120   6.076
 3577SOL     OW11629   1.271   2.379   6.599
 3577SOL    HW111630   1.212   2.456   6.625
 3577SOL    HW211631   1.267   2.309   6.671
 3578SOL     OW11632   3.794   3.869   6.785
 3578SOL    HW111633   3.760   3.952   6.740
 3578SOL    HW211634   3.894   3.868   6.782
 3579SOL     OW11635   6.792   3.936   5.097
 3579SOL    HW111636   6.713   3.990   5.068
 3579SOL    HW211637   6.809   3.864   5.030
 3580SOL     OW11638   5.574   2.247   1.527
 3580SOL    HW111639   5.557   2.184   1.451
 3580SOL    HW211640   5.644   2.313   1.501
 3581SOL     OW11641   6.755   0.254   3.411
 3581SOL    HW111642   6.818   0.315   3.364
 3581SOL    HW211643   6.805   0.196   3.474
 3582SOL     OW11644   0.969   1.720   5.609
 3582SOL    HW111645   1.026   1.648   5.647
 3582SOL    HW211646   1.015   1.808   5.618
 3583SOL     OW11647   1.042   4.389   0.122
 3583SOL    HW111648   1.130   4.344   0.107
 3583SOL    HW211649   1.002   4.356   0.207
 3584SOL     OW11650   5.993   6.463   6.065
 3584SOL    HW111651   6.009   6.374   6.108
 3584SOL    HW211652   6.035   6.464   5.975
 3585SOL     OW11653   3.889   5.058   5.063
 3585SOL    HW111654   3.870   5.093   4.971
 3585SOL    HW211655   3.804   5.052   5.114
 3586SOL     OW11656   5.997   3.002   5.314
 3586SOL    HW111657   6.010   3.056   5.397
 3586SOL    HW211658   5.905   3.017   5.278
 3587SOL     OW11659   2.996   6.483   1.248
 3587SOL    HW111660   2.911   6.510   1.202
 3587SOL    HW211661   2.992   6.509   1.344
 3588SOL     OW11662   1.290   2.125   5.215
 3588SOL    HW111663   1.222   2.065   5.257
 3588SOL    HW211664   1.253   2.165   5.131
 3589SOL     OW11665   3.361   0.737   4.285
 3589SOL    HW111666   3.296   0.807   4.314
 3589SOL    HW211667   3.424   0.775   4.217
 3590SOL     OW11668   0.602   4.507   6.515
 3590SOL    HW111669   0.639   4.577   6.454
 3590SOL    HW211670   0.639   4.418   6.489
 3591SOL     OW11671   5.650   2.972   6.558
 3591SOL    HW111672   5.660   3.024   6.643
 3591SOL    HW211673   5.606   2.884   6.578
 3592SOL     OW11674   5.167   2.894   3.394
 3592SOL    HW111675   5.216   2.904   3.307
 3592SOL    HW211676   5.186   2.805   3.433
 3593SOL     OW11677   2.689   6.364   4.358
 3593SOL    HW111678   2.750   6.386   4.434
 3593SOL    HW211679   2.695   6.435   4.289
 3594SOL     OW11680   3.255   0.977   3.380
 3594SOL    HW111681   3.290   0.914   3.450
 3594SOL    HW211682   3.168   0.942   3.345
 3595SOL     OW11683   2.551   6.248   4.864
 3595SOL    HW111684   2.463   6.289   4.841
 3595SOL    HW211685   2.574   6.270   4.958
 3596SOL     OW11686   6.203   1.348   2.788
 3596SOL    HW111687   6.173   1.300   2.705
 3596SOL    HW211688   6.297   1.380   2.775
 3597SOL     OW11689   3.369   6.279   4.440
 3597SOL    HW111690   3.322   6.191   4.448
 3597SOL    HW211691   3.411   6.287   4.349
 3598SOL     OW11692   0.746   0.710   5.422
 3598SOL    HW111693   0.694   0.640   5.471
 3598SOL    HW211694   0.688   0.750   5.350
 3599SOL     OW11695   1.065   1.982   5.664
 3599SOL    HW111696   1.108   1.940   5.744
 3599SOL    HW211697   1.051   2.080   5.680
 3600SOL     OW11698   6.874   3.000   0.308
 3600SOL    HW111699   6.785   2.978   0.347
 3600SOL    HW211700   6.946   2.952   0.358
 3601SOL     OW11701   6.935   4.285   0.543
 3601SOL    HW111702   7.004   4.215   0.526
 3601SOL    HW211703   6.844   4.247   0.527
 3602SOL     OW11704   2.139   1.040   0.498
 3602SOL    HW111705   2.075   1.116   0.485
 3602SOL    HW211706   2.087   0.955   0.506
 3603SOL     OW11707   3.855   5.641   4.318
 3603SOL    HW111708   3.918   5.606   4.249
 3603SOL    HW211709   3.872   5.738   4.333
 3604SOL     OW11710   6.884   3.327   2.835
 3604SOL    HW111711   6.854   3.402   2.776
 3604SOL    HW211712   6.976   3.346   2.868
 3605SOL     OW11713   6.431   4.262   5.964
 3605SOL    HW111714   6.456   4.259   5.867
 3605SOL    HW211715   6.500   4.314   6.014
 3606SOL     OW11716   0.204   4.899   6.222
 3606SOL    HW111717   0.301   4.912   6.243
 3606SOL    HW211718   0.180   4.802   6.231
 3607SOL     OW11719   5.226   0.310   0.468
 3607SOL    HW111720   5.279   0.289   0.551
 3607SOL    HW211721   5.214   0.227   0.414
 3608SOL     OW11722   6.594   1.757   1.877
 3608SOL    HW111723   6.656   1.718   1.944
 3608SOL    HW211724   6.515   1.798   1.923
 3609SOL     OW11725   6.353   0.926   4.115
 3609SOL    HW111726   6.384   0.924   4.210
 3609SOL    HW211727   6.356   1.020   4.081
 3610SOL     OW11728   0.857   0.845   5.091
 3610SOL    HW111729   0.939   0.900   5.102
 3610SOL    HW211730   0.841   0.827   4.994
 3611SOL     OW11731   3.901   5.120   5.342
 3611SOL    HW111732   3.953   5.150   5.262
 3611SOL    HW211733   3.961   5.068   5.403
 3612SOL     OW11734   0.572   6.664   5.998
 3612SOL    HW111735   0.505   6.714   5.945
 3612SOL    HW211736   0.657   6.717   6.004
 3613SOL     OW11737   5.191   4.801   0.907
 3613SOL    HW111738   5.112   4.739   0.908
 3613SOL    HW211739   5.242   4.790   0.992
 3614SOL     OW11740   3.703   3.390   4.044
 3614SOL    HW111741   3.721   3.488   4.055
 3614SOL    HW211742   3.709   3.367   3.947
 3615SOL     OW11743   5.944   6.191   6.114
 3615SOL    HW111744   5.915   6.204   6.019
 3615SOL    HW211745   5.866   6.208   6.175
 3616SOL     OW11746   6.156   2.254   6.532
 3616SOL    HW111747   6.146   2.179   6.466
 3616SOL    HW211748   6.087   2.245   6.604
 3617SOL     OW11749   5.662   1.712   6.161
 3617SOL    HW111750   5.640   1.798   6.207
 3617SOL    HW211751   5.620   1.636   6.210
 3618SOL     OW11752   1.529   2.026   5.153
 3618SOL    HW111753   1.444   2.063   5.191
 3618SOL    HW211754   1.575   1.971   5.222
 3619SOL     OW11755   6.457   1.717   3.701
 3619SOL    HW111756   6.555   1.737   3.704
 3619SOL    HW211757   6.405   1.800   3.720
 3620SOL     OW11758   6.003   5.812   6.186
 3620SOL    HW111759   5.996   5.905   6.224
 3620SOL    HW211760   5.914   5.767   6.192
 3621SOL     OW11761   2.781   2.268   6.586
 3621SOL    HW111762   2.821   2.358   6.569
 3621SOL    HW211763   2.828   2.200   6.529
 3622SOL     OW11764   1.761   1.498   3.361
 3622SOL    HW111765   1.844   1.516   3.414
 3622SOL    HW211766   1.785   1.450   3.277
 3623SOL     OW11767   6.007   5.238   3.774
 3623SOL    HW111768   6.046   5.242   3.866
 3623SOL    HW211769   6.026   5.324   3.726
 3624SOL     OW11770   2.258   5.693   2.395
 3624SOL    HW111771   2.160   5.681   2.411
 3624SOL    HW211772   2.274   5.712   2.298
 3625SOL     OW11773   6.250   3.169   6.425
 3625SOL    HW111774   6.269   3.244   6.489
 3625SOL    HW211775   6.168   3.191   6.373
 3626SOL     OW11776   2.209   3.912   5.772
 3626SOL    HW111777   2.308   3.910   5.780
 3626SOL    HW211778   2.183   3.975   5.699
 3627SOL     OW11779   3.910   3.669   3.378
 3627SOL    HW111780   3.958   3.592   3.420
 3627SOL    HW211781   3.848   3.709   3.445
 3628SOL     OW11782   1.961   6.687   1.980
 3628SOL    HW111783   1.966   6.620   2.054
 3628SOL    HW211784   2.012   6.769   2.007
 3629SOL     OW11785   6.441   2.524   4.799
 3629SOL    HW111786   6.356   2.499   4.846
 3629SOL    HW211787   6.518   2.481   4.845
 3630SOL     OW11788   5.732   2.901   3.849
 3630SOL    HW111789   5.793   2.863   3.918
 3630SOL    HW211790   5.729   2.840   3.770
 3631SOL     OW11791   1.666   0.312   3.918
 3631SOL    HW111792   1.669   0.233   3.980
 3631SOL    HW211793   1.580   0.309   3.866
 3632SOL     OW11794   5.516   0.570   0.742
 3632SOL    HW111795   5.567   0.579   0.828
 3632SOL    HW211796   5.471   0.657   0.720
 3633SOL     OW11797   2.987   2.190   6.196
 3633SOL    HW111798   2.967   2.287   6.202
 3633SOL    HW211799   2.940   2.151   6.116
 3634SOL     OW11800   0.559   5.572   5.290
 3634SOL    HW111801   0.616   5.644   5.331
 3634SOL    HW211802   0.589   5.556   5.196
 3635SOL     OW11803   3.477   0.302   5.011
 3635SOL    HW111804   3.557   0.354   5.040
 3635SOL    HW211805   3.398   0.326   5.068
 3636SOL     OW11806   0.890   6.383   5.782
 3636SOL    HW111807   0.792   6.376   5.797
 3636SOL    HW211808   0.931   6.292   5.787
 3637SOL     OW11809   6.268   1.952   1.128
 3637SOL    HW111810   6.247   2.013   1.205
 3637SOL    HW211811   6.277   2.006   1.044
 3638SOL     OW11812   6.706   4.926   4.244
 3638SOL    HW111813   6.631   4.992   4.241
 3638SOL    HW211814   6.734   4.903   4.152
 3639SOL     OW11815   4.136   3.898   0.851
 3639SOL    HW111816   4.137   3.990   0.892
 3639SOL    HW211817   4.228   3.860   0.853
 3640SOL     OW11818   3.544   6.654   6.679
 3640SOL    HW111819   3.579   6.748   6.676
 3640SOL    HW211820   3.570   6.606   6.596
 3641SOL     OW11821   4.448   2.482   4.904
 3641SOL    HW111822   4.530   2.468   4.959
 3641SOL    HW211823   4.372   2.507   4.963
 3642SOL     OW11824   5.228   1.763   5.877
 3642SOL    HW111825   5.246   1.830   5.949
 3642SOL    HW211826   5.310   1.752   5.821
 3643SOL     OW11827   2.594   5.870   4.830
 3643SOL    HW111828   2.566   5.893   4.737
 3643SOL    HW211829   2.515   5.839   4.883
 3644SOL     OW11830   0.185   1.294   1.685
 3644SOL    HW111831   0.273   1.248   1.682
 3644SOL    HW211832   0.141   1.277   1.773
 3645SOL     OW11833   5.303   0.880   4.153
 3645SOL    HW111834   5.237   0.955   4.150
 3645SOL    HW211835   5.303   0.832   4.065
 3646SOL     OW11836   6.987   5.029   6.265
 3646SOL    HW111837   6.979   5.019   6.364
 3646SOL    HW211838   0.059   5.012   6.237
 3647SOL     OW11839   1.964   4.163   0.677
 3647SOL    HW111840   1.915   4.182   0.592
 3647SOL    HW211841   2.054   4.125   0.655
 3648SOL     OW11842   3.375   5.954   2.844
 3648SOL    HW111843   3.300   5.893   2.869
 3648SOL    HW211844   3.342   6.023   2.780
 3649SOL     OW11845   4.415   3.005   1.475
 3649SOL    HW111846   4.449   2.912   1.469
 3649SOL    HW211847   4.465   3.054   1.546
 3650SOL     OW11848   6.995   5.606   1.008
 3650SOL    HW111849   6.949   5.694   0.992
 3650SOL    HW211850   6.997   5.554   0.923
 3651SOL     OW11851   0.269   5.560   2.816
 3651SOL    HW111852   0.317   5.473   2.815
 3651SOL    HW211853   0.218   5.569   2.902
 3652SOL     OW11854   5.231   5.910   3.463
 3652SOL    HW111855   5.249   5.940   3.557
 3652SOL    HW211856   5.150   5.957   3.428
 3653SOL     OW11857   6.686   0.893   3.699
 3653SOL    HW111858   6.641   0.886   3.788
 3653SOL    HW211859   6.778   0.853   3.705
 3654SOL     OW11860   1.981   6.988   6.877
 3654SOL    HW111861   1.956   0.023   6.954
 3654SOL    HW211862   1.979   6.892   6.905
 3655SOL     OW11863   1.291   7.022   3.810
 3655SOL    HW111864   1.290   6.961   3.731
 3655SOL    HW211865   1.268   0.092   3.780
 3656SOL     OW11866   1.307   2.973   1.782
 3656SOL    HW111867   1.275   2.887   1.820
 3656SOL    HW211868   1.289   2.976   1.684
 3657SOL     OW11869   4.889   5.684   5.923
 3657SOL    HW111870   4.865   5.764   5.868
 3657SOL    HW211871   4.872   5.703   6.020
 3658SOL     OW11872   1.220   5.452   3.843
 3658SOL    HW111873   1.148   5.392   3.807
 3658SOL    HW211874   1.267   5.406   3.918
 3659SOL     OW11875   3.159   3.499   5.888
 3659SOL    HW111876   3.178   3.451   5.803
 3659SOL    HW211877   3.230   3.478   5.955
 3660SOL     OW11878   5.011   6.398   2.030
 3660SOL    HW111879   5.052   6.460   2.096
 3660SOL    HW211880   5.079   6.330   2.001
 3661SOL     OW11881   4.778   2.013   6.416
 3661SOL    HW111882   4.798   2.052   6.506
 3661SOL    HW211883   4.820   2.069   6.345
 3662SOL     OW11884   3.682   0.873   3.766
 3662SOL    HW111885   3.592   0.860   3.809
 3662SOL    HW211886   3.691   0.810   3.688
 3663SOL     OW11887   1.553   1.372   0.238
 3663SOL    HW111888   1.470   1.417   0.273
 3663SOL    HW211889   1.602   1.330   0.314
 3664SOL     OW11890   4.926   2.436   1.577
 3664SOL    HW111891   4.991   2.511   1.567
 3664SOL    HW211892   4.888   2.413   1.487
 3665SOL     OW11893   0.644   6.159   5.574
 3665SOL    HW111894   0.664   6.234   5.637
 3665SOL    HW211895   0.557   6.117   5.598
 3666SOL     OW11896   2.031   3.873   3.077
 3666SOL    HW111897   2.008   3.796   3.137
 3666SOL    HW211898   1.954   3.937   3.074
 3667SOL     OW11899   6.551   0.378   0.338
 3667SOL    HW111900   6.574   0.351   0.431
 3667SOL    HW211901   6.571   0.303   0.275
 3668SOL     OW11902   1.373   0.190   1.829
 3668SOL    HW111903   1.288   0.142   1.849
 3668SOL    HW211904   1.391   0.188   1.731
 3669SOL     OW11905   6.283   1.193   4.784
 3669SOL    HW111906   6.251   1.101   4.807
 3669SOL    HW211907   6.219   1.261   4.819
 3670SOL     OW11908   2.080   4.921   0.600
 3670SOL    HW111909   2.075   4.972   0.515
 3670SOL    HW211910   1.994   4.872   0.614
 3671SOL     OW11911   6.103   0.510   3.621
 3671SOL    HW111912   6.071   0.507   3.526
 3671SOL    HW211913   6.153   0.426   3.642
 3672SOL     OW11914   5.635   1.658   1.198
 3672SOL    HW111915   5.635   1.559   1.195
 3672SOL    HW211916   5.662   1.689   1.290
 3673SOL     OW11917   3.455   0.762   5.868
 3673SOL    HW111918   3.420   0.854   5.882
 3673SOL    HW211919   3.401   0.716   5.797
 3674SOL     OW11920   0.423   0.701   5.581
 3674SOL    HW111921   0.418   0.797   5.552
 3674SOL    HW211922   0.358   0.647   5.528
 3675SOL     OW11923   1.895   3.066   5.187
 3675SOL    HW111924   1.860   3.158   5.205
 3675SOL    HW211925   1.994   3.066   5.198
 3676SOL     OW11926   4.334   4.742   4.489
 3676SOL    HW111927   4.266   4.754   4.416
 3676SOL    HW211928   4.303   4.790   4.571
 3677SOL     OW11929   1.207   6.398   2.952
 3677SOL    HW111930   1.210   6.315   2.895
 3677SOL    HW211931   1.233   6.477   2.896
 3678SOL     OW11932   1.076   3.076   4.034
 3678SOL    HW111933   1.029   2.991   4.055
 3678SOL    HW211934   1.075   3.135   4.115
 3679SOL     OW11935   1.015   0.966   3.038
 3679SOL    HW111936   1.105   0.983   3.079
 3679SOL    HW211937   0.944   1.002   3.098
 3680SOL     OW11938   5.854   2.729   3.213
 3680SOL    HW111939   5.761   2.701   3.187
 3680SOL    HW211940   5.898   2.655   3.264
 3681SOL     OW11941   0.351   0.320   5.097
 3681SOL    HW111942   0.412   0.390   5.060
 3681SOL    HW211943   0.405   0.245   5.134
 3682SOL     OW11944   6.499   2.553   6.139
 3682SOL    HW111945   6.433   2.480   6.149
 3682SOL    HW211946   6.512   2.600   6.226
 3683SOL     OW11947   0.286   0.411   4.650
 3683SOL    HW111948   0.381   0.404   4.679
 3683SOL    HW211949   0.226   0.399   4.729
 3684SOL     OW11950   2.110   3.835   0.406
 3684SOL    HW111951   2.018   3.874   0.416
 3684SOL    HW211952   2.133   3.783   0.489
 3685SOL     OW11953   6.486   6.110   6.169
 3685SOL    HW111954   6.527   6.019   6.163
 3685SOL    HW211955   6.388   6.103   6.147
 3686SOL     OW11956   6.335   5.346   3.473
 3686SOL    HW111957   6.259   5.293   3.510
 3686SOL    HW211958   6.399   5.286   3.426
 3687SOL     OW11959   3.119   5.885   5.527
 3687SOL    HW111960   3.213   5.898   5.495
 3687SOL    HW211961   3.087   5.968   5.573
 3688SOL     OW11962   1.711   3.819   6.896
 3688SOL    HW111963   1.651   3.775   6.963
 3688SOL    HW211964   1.777   3.751   6.862
 3689SOL     OW11965   1.426   0.579   6.197
 3689SOL    HW111966   1.469   0.585   6.107
 3689SOL    HW211967   1.412   0.483   6.221
 3690SOL     OW11968   3.743   0.069   6.241
 3690SOL    HW111969   3.705   0.125   6.167
 3690SOL    HW211970   3.838   0.046   6.220
 3691SOL     OW11971   2.255   2.640   0.292
 3691SOL    HW111972   2.230   2.588   0.374
 3691SOL    HW211973   2.200   2.723   0.287
 3692SOL     OW11974   0.949   6.273   4.965
 3692SOL    HW111975   0.858   6.279   4.924
 3692SOL    HW211976   0.960   6.346   5.033
 3693SOL     OW11977   2.150   2.613   2.464
 3693SOL    HW111978   2.180   2.670   2.541
 3693SOL    HW211979   2.204   2.636   2.383
 3694SOL     OW11980   1.240   5.862   2.356
 3694SOL    HW111981   1.261   5.860   2.258
 3694SOL    HW211982   1.273   5.777   2.398
 3695SOL     OW11983   0.085   2.641   2.536
 3695SOL    HW111984   0.147   2.575   2.579
 3695SOL    HW211985   0.096   2.637   2.437
 3696SOL     OW11986   4.067   5.606   5.357
 3696SOL    HW111987   4.054   5.516   5.398
 3696SOL    HW211988   4.032   5.605   5.263
 3697SOL     OW11989   0.458   5.507   3.701
 3697SOL    HW111990   0.450   5.580   3.769
 3697SOL    HW211991   0.375   5.503   3.645
 3698SOL     OW11992   3.475   6.318   4.685
 3698SOL    HW111993   3.403   6.372   4.730
 3698SOL    HW211994   3.446   6.295   4.592
 3699SOL     OW11995   6.610   3.656   2.766
 3699SOL    HW111996   6.635   3.736   2.713
 3699SOL    HW211997   6.567   3.588   2.707
 3700SOL     OW11998   6.702   0.891   4.358
 3700SOL    HW111999   6.734   0.978   4.321
 3700SOL    HW212000   6.747   0.816   4.310
 3701SOL     OW12001   0.762   0.846   3.582
 3701SOL    HW112002   0.761   0.833   3.483
 3701SOL    HW212003   0.794   0.938   3.603
 3702SOL     OW12004   4.250   0.351   2.327
 3702SOL    HW112005   4.321   0.346   2.398
 3702SOL    HW212006   4.235   0.261   2.288
 3703SOL     OW12007   4.740   2.863   6.345
 3703SOL    HW112008   4.682   2.819   6.414
 3703SOL    HW212009   4.797   2.794   6.300
 3704SOL     OW12010   3.056   0.247   1.147
 3704SOL    HW112011   3.045   0.188   1.067
 3704SOL    HW212012   2.981   0.232   1.211
 3705SOL     OW12013   4.859   6.282   4.101
 3705SOL    HW112014   4.929   6.304   4.033
 3705SOL    HW212015   4.817   6.366   4.134
 3706SOL     OW12016   0.643   3.416   4.705
 3706SOL    HW112017   0.565   3.394   4.646
 3706SOL    HW212018   0.623   3.387   4.799
 3707SOL     OW12019   5.602   3.955   5.183
 3707SOL    HW112020   5.629   3.880   5.123
 3707SOL    HW212021   5.682   3.984   5.237
 3708SOL     OW12022   5.997   0.945   6.501
 3708SOL    HW112023   5.962   0.930   6.593
 3708SOL    HW212024   6.058   0.870   6.476
 3709SOL     OW12025   3.639   0.819   0.182
 3709SOL    HW112026   3.549   0.788   0.212
 3709SOL    HW212027   3.669   0.894   0.241
 3710SOL     OW12028   6.401   5.952   0.615
 3710SOL    HW112029   6.325   5.946   0.551
 3710SOL    HW212030   6.440   6.044   0.613
 3711SOL     OW12031   6.866   6.180   1.974
 3711SOL    HW112032   6.884   6.103   1.913
 3711SOL    HW212033   6.951   6.207   2.020
 3712SOL     OW12034   6.624   6.173   6.851
 3712SOL    HW112035   6.673   6.094   6.887
 3712SOL    HW212036   6.648   6.186   6.755
 3713SOL     OW12037   1.299   6.348   4.365
 3713SOL    HW112038   1.320   6.256   4.398
 3713SOL    HW212039   1.290   6.410   4.443
 3714SOL     OW12040   4.511   5.910   5.000
 3714SOL    HW112041   4.594   5.941   5.046
 3714SOL    HW212042   4.511   5.810   4.996
 3715SOL     OW12043   6.195   4.171   4.046
 3715SOL    HW112044   6.253   4.097   4.081
 3715SOL    HW212045   6.108   4.134   4.014
 3716SOL     OW12046   6.301   0.214   5.115
 3716SOL    HW112047   6.215   0.219   5.064
 3716SOL    HW212048   6.356   0.139   5.080
 3717SOL     OW12049   6.114   4.953   6.255
 3717SOL    HW112050   6.030   5.003   6.276
 3717SOL    HW212051   6.188   5.019   6.239
 3718SOL     OW12052   2.448   6.916   5.269
 3718SOL    HW112053   2.536   6.877   5.242
 3718SOL    HW212054   2.393   6.846   5.313
 3719SOL     OW12055   5.046   4.442   0.690
 3719SOL    HW112056   5.106   4.462   0.767
 3719SOL    HW212057   5.033   4.524   0.635
 3720SOL     OW12058   5.517   2.298   5.977
 3720SOL    HW112059   5.524   2.213   5.926
 3720SOL    HW212060   5.427   2.339   5.962
 3721SOL     OW12061   5.095   4.662   0.518
 3721SOL    HW112062   5.184   4.701   0.492
 3721SOL    HW212063   5.026   4.687   0.450
 3722SOL     OW12064   0.119   0.185   2.548
 3722SOL    HW112065   0.119   0.116   2.475
 3722SOL    HW212066   0.071   0.149   2.627
 3723SOL     OW12067   6.532   6.161   1.808
 3723SOL    HW112068   6.573   6.192   1.893
 3723SOL    HW212069   6.604   6.139   1.742
 3724SOL     OW12070   2.446   5.285   6.603
 3724SOL    HW112071   2.452   5.385   6.606
 3724SOL    HW212072   2.512   5.250   6.537
 3725SOL     OW12073   5.024   6.354   0.229
 3725SOL    HW112074   5.006   6.430   0.167
 3725SOL    HW212075   5.123   6.342   0.239
 3726SOL     OW12076   6.413   4.844   0.872
 3726SOL    HW112077   6.360   4.786   0.934
 3726SOL    HW212078   6.414   4.938   0.907
 3727SOL     OW12079   6.992   3.274   5.822
 3727SOL    HW112080   6.901   3.303   5.793
 3727SOL    HW212081   6.991   3.250   5.919
 3728SOL     OW12082   1.929   3.993   0.024
 3728SOL    HW112083   1.973   3.912   0.063
 3728SOL    HW212084   1.881   3.967   6.963
 3729SOL     OW12085   1.343   2.825   3.663
 3729SOL    HW112086   1.300   2.794   3.748
 3729SOL    HW212087   1.441   2.809   3.666
 3730SOL     OW12088   3.058   5.851   6.751
 3730SOL    HW112089   3.114   5.838   6.832
 3730SOL    HW212090   3.036   5.762   6.711
 3731SOL     OW12091   4.662   0.036   0.387
 3731SOL    HW112092   4.709   0.016   0.301
 3731SOL    HW212093   4.627   6.974   0.427
 3732SOL     OW12094   1.703   2.933   0.142
 3732SOL    HW112095   1.606   2.955   0.153
 3732SOL    HW212096   1.712   2.848   0.090
 3733SOL     OW12097   1.433   3.791   1.175
 3733SOL    HW112098   1.425   3.890   1.172
 3733SOL    HW212099   1.493   3.763   1.250
 3734SOL     OW12100   4.140   1.675   2.064
 3734SOL    HW112101   4.086   1.757   2.082
 3734SOL    HW212102   4.083   1.606   2.019
 3735SOL     OW12103   1.629   1.650   3.600
 3735SOL    HW112104   1.690   1.719   3.562
 3735SOL    HW212105   1.651   1.561   3.561
 3736SOL     OW12106   0.150   3.237   0.924
 3736SOL    HW112107   0.056   3.205   0.912
 3736SOL    HW212108   0.211   3.158   0.929
 3737SOL     OW12109   5.641   0.101   2.968
 3737SOL    HW112110   5.724   0.045   2.966
 3737SOL    HW212111   5.564   0.046   2.999
 3738SOL     OW12112   6.519   6.357   3.195
 3738SOL    HW112113   6.601   6.410   3.173
 3738SOL    HW212114   6.450   6.417   3.235
 3739SOL     OW12115   1.762   4.516   1.915
 3739SOL    HW112116   1.739   4.421   1.935
 3739SOL    HW212117   1.826   4.519   1.838
 3740SOL     OW12118   4.738   0.350   0.174
 3740SOL    HW112119   4.745   0.262   0.127
 3740SOL    HW212120   4.720   0.333   0.271
 3741SOL     OW12121   4.521   3.190   1.672
 3741SOL    HW112122   4.433   3.228   1.701
 3741SOL    HW212123   4.555   3.128   1.742
 3742SOL     OW12124   2.824   1.877   5.471
 3742SOL    HW112125   2.871   1.887   5.384
 3742SOL    HW212126   2.739   1.930   5.469
 3743SOL     OW12127   5.521   4.366   1.143
 3743SOL    HW112128   5.448   4.302   1.119
 3743SOL    HW212129   5.598   4.352   1.081
 3744SOL     OW12130   0.593   5.751   2.988
 3744SOL    HW112131   0.499   5.779   3.005
 3744SOL    HW212132   0.636   5.815   2.924
 3745SOL     OW12133   3.420   5.554   2.187
 3745SOL    HW112134   3.443   5.539   2.283
 3745SOL    HW212135   3.473   5.631   2.151
 3746SOL     OW12136   4.397   1.517   2.522
 3746SOL    HW112137   4.379   1.591   2.459
 3746SOL    HW212138   4.341   1.438   2.498
 3747SOL     OW12139   3.398   0.356   5.975
 3747SOL    HW112140   3.398   0.325   5.880
 3747SOL    HW212141   3.401   0.456   5.977
 3748SOL     OW12142   4.960   0.740   1.692
 3748SOL    HW112143   5.047   0.692   1.705
 3748SOL    HW212144   4.895   0.680   1.645
 3749SOL     OW12145   1.234   6.589   3.956
 3749SOL    HW112146   1.246   6.685   3.982
 3749SOL    HW212147   1.253   6.578   3.858
 3750SOL     OW12148   2.304   4.443   0.144
 3750SOL    HW112149   2.392   4.489   0.135
 3750SOL    HW212150   2.316   4.361   0.200
 3751SOL     OW12151   6.406   3.858   2.266
 3751SOL    HW112152   6.323   3.807   2.246
 3751SOL    HW212153   6.383   3.954   2.284
 3752SOL     OW12154   5.117   0.684   5.233
 3752SOL    HW112155   5.038   0.740   5.208
 3752SOL    HW212156   5.104   0.590   5.200
 3753SOL     OW12157   6.121   0.285   4.917
 3753SOL    HW112158   6.072   0.263   4.833
 3753SOL    HW212159   6.199   0.344   4.897
 3754SOL     OW12160   2.334   0.649   1.934
 3754SOL    HW112161   2.284   0.686   1.856
 3754SOL    HW212162   2.286   0.672   2.018
 3755SOL     OW12163   3.582   5.768   5.078
 3755SOL    HW112164   3.628   5.791   4.992
 3755SOL    HW212165   3.558   5.671   5.078
 3756SOL     OW12166   3.240   5.420   6.475
 3756SOL    HW112167   3.160   5.375   6.513
 3756SOL    HW212168   3.277   5.484   6.542
 3757SOL     OW12169   6.286   5.238   1.787
 3757SOL    HW112170   6.379   5.205   1.770
 3757SOL    HW212171   6.223   5.195   1.722
 3758SOL     OW12172   2.110   1.205   4.639
 3758SOL    HW112173   2.178   1.142   4.603
 3758SOL    HW212174   2.152   1.266   4.706
 3759SOL     OW12175   4.176   0.883   5.366
 3759SOL    HW112176   4.255   0.828   5.336
 3759SOL    HW212177   4.162   0.959   5.302
 3760SOL     OW12178   0.026   0.107   3.190
 3760SOL    HW112179   0.097   0.060   3.137
 3760SOL    HW212180   0.016   0.063   3.279
 3761SOL     OW12181   6.639   1.292   4.379
 3761SOL    HW112182   6.582   1.339   4.447
 3761SOL    HW212183   6.589   1.282   4.294
 3762SOL     OW12184   1.394   4.200   2.536
 3762SOL    HW112185   1.299   4.230   2.549
 3762SOL    HW212186   1.426   4.155   2.619
 3763SOL     OW12187   6.076   3.953   0.319
 3763SOL    HW112188   6.019   4.035   0.324
 3763SOL    HW212189   6.162   3.969   0.367
 3764SOL     OW12190   1.847   0.631   2.863
 3764SOL    HW112191   1.898   0.552   2.830
 3764SOL    HW212192   1.752   0.605   2.882
 3765SOL     OW12193   5.911   1.874   1.395
 3765SOL    HW112194   5.974   1.867   1.473
 3765SOL    HW212195   5.950   1.828   1.316
 3766SOL     OW12196   1.940   2.221   4.317
 3766SOL    HW112197   2.002   2.264   4.251
 3766SOL    HW212198   1.976   2.131   4.342
 3767SOL     OW12199   3.539   4.576   6.244
 3767SOL    HW112200   3.593   4.577   6.328
 3767SOL    HW212201   3.457   4.632   6.257
 3768SOL     OW12202   1.396   0.867   4.424
 3768SOL    HW112203   1.373   0.780   4.380
 3768SOL    HW212204   1.344   0.876   4.509
 3769SOL     OW12205   5.762   5.763   5.442
 3769SOL    HW112206   5.833   5.825   5.474
 3769SOL    HW212207   5.745   5.778   5.345
 3770SOL     OW12208   1.196   1.244   6.867
 3770SOL    HW112209   1.285   1.277   6.901
 3770SOL    HW212210   1.181   1.279   6.774
 3771SOL     OW12211   5.830   4.337   6.957
 3771SOL    HW112212   5.868   4.375   6.872
 3771SOL    HW212213   5.889   4.361   0.011
 3772SOL     OW12214   1.369   7.012   0.352
 3772SOL    HW112215   1.346   0.042   0.270
 3772SOL    HW212216   1.467   7.020   0.369
 3773SOL     OW12217   5.597   3.633   5.605
 3773SOL    HW112218   5.654   3.671   5.532
 3773SOL    HW212219   5.580   3.536   5.586
 3774SOL     OW12220   5.823   4.699   1.748
 3774SOL    HW112221   5.894   4.640   1.787
 3774SOL    HW212222   5.736   4.681   1.795
 3775SOL     OW12223   3.960   4.969   3.342
 3775SOL    HW112224   3.875   4.961   3.289
 3775SOL    HW212225   3.972   4.887   3.398
 3776SOL     OW12226   3.790   2.984   6.517
 3776SOL    HW112227   3.889   2.992   6.517
 3776SOL    HW212228   3.764   2.893   6.486
 3777SOL     OW12229   2.604   6.004   3.593
 3777SOL    HW112230   2.594   5.910   3.562
 3777SOL    HW212231   2.566   6.014   3.685
 3778SOL     OW12232   1.952   6.325   3.805
 3778SOL    HW112233   1.878   6.265   3.775
 3778SOL    HW212234   1.990   6.290   3.890
 3779SOL     OW12235   0.175   5.051   0.597
 3779SOL    HW112236   0.219   4.961   0.605
 3779SOL    HW212237   0.183   5.099   0.684
 3780SOL     OW12238   0.758   3.052   3.407
 3780SOL    HW112239   0.718   3.044   3.499
 3780SOL    HW212240   0.790   3.145   3.392
 3781SOL     OW12241   0.678   6.733   4.691
 3781SOL    HW112242   0.586   6.715   4.724
 3781SOL    HW212243   0.681   6.720   4.592
 3782SOL     OW12244   3.768   6.448   2.414
 3782SOL    HW112245   3.789   6.532   2.464
 3782SOL    HW212246   3.751   6.374   2.479
 3783SOL     OW12247   6.098   5.041   4.962
 3783SOL    HW112248   6.065   4.975   5.030
 3783SOL    HW212249   6.035   5.043   4.885
 3784SOL     OW12250   5.517   2.573   2.198
 3784SOL    HW112251   5.563   2.635   2.262
 3784SOL    HW212252   5.552   2.480   2.211
 3785SOL     OW12253   0.698   3.130   5.528
 3785SOL    HW112254   0.761   3.179   5.589
 3785SOL    HW212255   0.620   3.189   5.506
 3786SOL     OW12256   2.205   2.997   2.849
 3786SOL    HW112257   2.203   3.020   2.751
 3786SOL    HW212258   2.135   3.050   2.897
 3787SOL     OW12259   5.292   0.163   3.076
 3787SOL    HW112260   5.265   0.233   3.141
 3787SOL    HW212261   5.275   0.196   2.983
 3788SOL     OW12262   6.148   4.583   5.395
 3788SOL    HW112263   6.151   4.683   5.406
 3788SOL    HW212264   6.186   4.539   5.475
 3789SOL     OW12265   6.942   3.742   2.642
 3789SOL    HW112266   6.921   3.836   2.618
 3789SOL    HW212267   6.924   3.682   2.565
 3790SOL     OW12268   1.265   5.782   6.479
 3790SOL    HW112269   1.342   5.836   6.445
 3790SOL    HW212270   1.298   5.714   6.544
 3791SOL     OW12271   5.383   1.797   0.235
 3791SOL    HW112272   5.325   1.871   0.267
 3791SOL    HW212273   5.327   1.726   0.194
 3792SOL     OW12274   1.125   1.523   4.317
 3792SOL    HW112275   1.146   1.614   4.354
 3792SOL    HW212276   1.119   1.458   4.393
 3793SOL     OW12277   5.802   6.296   1.304
 3793SOL    HW112278   5.760   6.365   1.244
 3793SOL    HW212279   5.887   6.333   1.342
 3794SOL     OW12280   2.054   3.097   1.554
 3794SOL    HW112281   2.145   3.130   1.580
 3794SOL    HW212282   2.001   3.173   1.515
 3795SOL     OW12283   3.068   5.451   1.037
 3795SOL    HW112284   3.087   5.461   1.135
 3795SOL    HW212285   2.973   5.476   1.019
 3796SOL     OW12286   4.094   2.122   1.222
 3796SOL    HW112287   4.120   2.153   1.314
 3796SOL    HW212288   4.169   2.139   1.158
 3797SOL     OW12289   0.852   4.008   3.643
 3797SOL    HW112290   0.934   4.033   3.694
 3797SOL    HW212291   0.858   3.911   3.618
 3798SOL     OW12292   3.260   6.336   2.694
 3798SOL    HW112293   3.195   6.405   2.661
 3798SOL    HW212294   3.295   6.363   2.784
 3799SOL     OW12295   6.965   2.616   3.940
 3799SOL    HW112296   7.004   2.605   4.031
 3799SOL    HW212297   6.927   2.528   3.909
 3800SOL     OW12298   5.191   2.164   3.631
 3800SOL    HW112299   5.210   2.077   3.586
 3800SOL    HW212300   5.224   2.160   3.726
 3801SOL     OW12301   5.222   0.140   1.747
 3801SOL    HW112302   5.300   0.121   1.688
 3801SOL    HW212303   5.204   0.061   1.806
 3802SOL     OW12304   7.015   1.680   2.457
 3802SOL    HW112305   6.936   1.632   2.420
 3802SOL    HW212306   6.985   1.764   2.502
 3803SOL     OW12307   4.135   3.625   4.164
 3803SOL    HW112308   4.083   3.639   4.080
 3803SOL    HW212309   4.172   3.532   4.166
 3804SOL     OW12310   3.452   1.928   3.854
 3804SOL    HW112311   3.404   1.841   3.839
 3804SOL    HW212312   3.512   1.919   3.934
 3805SOL     OW12313   2.033   2.543   1.602
 3805SOL    HW112314   2.019   2.640   1.583
 3805SOL    HW212315   2.131   2.524   1.607
 3806SOL     OW12316   3.904   3.613   6.316
 3806SOL    HW112317   3.880   3.682   6.247
 3806SOL    HW212318   3.958   3.656   6.389
 3807SOL     OW12319   1.966   4.393   4.011
 3807SOL    HW112320   2.045   4.332   4.005
 3807SOL    HW212321   1.886   4.348   3.971
 3808SOL     OW12322   4.682   0.525   6.054
 3808SOL    HW112323   4.744   0.577   6.112
 3808SOL    HW212324   4.616   0.588   6.012
 3809SOL     OW12325   5.839   2.143   2.169
 3809SOL    HW112326   5.885   2.055   2.183
 3809SOL    HW212327   5.825   2.188   2.257
 3810SOL     OW12328   6.886   2.286   3.541
 3810SOL    HW112329   6.940   2.232   3.477
 3810SOL    HW212330   6.884   2.240   3.630
 3811SOL     OW12331   0.058   6.001   3.950
 3811SOL    HW112332   0.009   6.087   3.937
 3811SOL    HW212333   0.112   5.980   3.868
 3812SOL     OW12334   3.388   5.075   6.210
 3812SOL    HW112335   3.403   5.094   6.113
 3812SOL    HW212336   3.444   4.997   6.238
 3813SOL     OW12337   5.749   3.912   0.733
 3813SOL    HW112338   5.779   3.817   0.744
 3813SOL    HW212339   5.752   3.936   0.636
 3814SOL     OW12340   6.994   0.013   3.819
 3814SOL    HW112341   0.062   0.005   3.777
 3814SOL    HW212342   7.000   0.066   3.903
 3815SOL     OW12343   4.162   2.396   0.975
 3815SOL    HW112344   4.163   2.436   1.067
 3815SOL    HW212345   4.218   2.314   0.974
 3816SOL     OW12346   0.971   5.740   5.343
 3816SOL    HW112347   1.042   5.675   5.315
 3816SOL    HW212348   0.891   5.690   5.377
 3817SOL     OW12349   4.837   3.270   1.842
 3817SOL    HW112350   4.922   3.252   1.793
 3817SOL    HW212351   4.803   3.185   1.882
 3818SOL     OW12352   0.210   0.421   0.816
 3818SOL    HW112353   0.152   0.370   0.753
 3818SOL    HW212354   0.155   0.461   0.889
 3819SOL     OW12355   6.338   4.441   2.424
 3819SOL    HW112356   6.316   4.464   2.329
 3819SOL    HW212357   6.320   4.519   2.483
 3820SOL     OW12358   6.025   6.530   3.699
 3820SOL    HW112359   5.987   6.462   3.637
 3820SOL    HW212360   5.961   6.606   3.709
 3821SOL     OW12361   1.100   1.105   1.169
 3821SOL    HW112362   1.062   1.156   1.092
 3821SOL    HW212363   1.092   1.007   1.151
 3822SOL     OW12364   2.306   0.220   6.325
 3822SOL    HW112365   2.240   0.285   6.361
 3822SOL    HW212366   2.258   0.148   6.275
 3823SOL     OW12367   4.431   4.192   6.398
 3823SOL    HW112368   4.528   4.211   6.409
 3823SOL    HW212369   4.378   4.274   6.418
 3824SOL     OW12370   0.308   2.511   1.040
 3824SOL    HW112371   0.214   2.542   1.051
 3824SOL    HW212372   0.323   2.429   1.096
 3825SOL     OW12373   0.767   4.086   0.824
 3825SOL    HW112374   0.707   4.122   0.753
 3825SOL    HW212375   0.768   3.986   0.819
 3826SOL     OW12376   6.727   3.165   1.605
 3826SOL    HW112377   6.654   3.145   1.670
 3826SOL    HW212378   6.797   3.221   1.650
 3827SOL     OW12379   0.236   0.642   1.311
 3827SOL    HW112380   0.305   0.569   1.299
 3827SOL    HW212381   0.263   0.721   1.256
 3828SOL     OW12382   3.815   3.703   4.583
 3828SOL    HW112383   3.810   3.802   4.596
 3828SOL    HW212384   3.910   3.672   4.594
 3829SOL     OW12385   0.623   5.148   1.861
 3829SOL    HW112386   0.720   5.171   1.864
 3829SOL    HW212387   0.569   5.233   1.862
 3830SOL     OW12388   0.564   1.588   5.613
 3830SOL    HW112389   0.531   1.672   5.571
 3830SOL    HW212390   0.498   1.514   5.594
 3831SOL     OW12391   4.479   2.426   2.773
 3831SOL    HW112392   4.446   2.390   2.860
 3831SOL    HW212393   4.457   2.362   2.700
 3832SOL     OW12394   6.749   0.535   2.695
 3832SOL    HW112395   6.688   0.458   2.675
 3832SOL    HW212396   6.695   0.612   2.728
 3833SOL     OW12397   1.202   6.637   6.182
 3833SOL    HW112398   1.134   6.596   6.122
 3833SOL    HW212399   1.167   6.723   6.219
 3834SOL     OW12400   3.813   4.118   1.196
 3834SOL    HW112401   3.878   4.176   1.246
 3834SOL    HW212402   3.720   4.151   1.211
 3835SOL     OW12403   3.917   6.192   5.138
 3835SOL    HW112404   3.998   6.223   5.089
 3835SOL    HW212405   3.836   6.238   5.101
 3836SOL     OW12406   0.063   5.158   5.889
 3836SOL    HW112407   0.005   5.078   5.872
 3836SOL    HW212408   0.030   5.206   5.970
 3837SOL     OW12409   4.963   5.491   5.476
 3837SOL    HW112410   5.013   5.431   5.414
 3837SOL    HW212411   4.998   5.479   5.569
 3838SOL     OW12412   1.232   2.196   3.419
 3838SOL    HW112413   1.202   2.231   3.331
 3838SOL    HW212414   1.213   2.263   3.490
 3839SOL     OW12415   4.891   1.413   3.070
 3839SOL    HW112416   4.872   1.485   3.002
 3839SOL    HW212417   4.946   1.341   3.027
 3840SOL     OW12418   3.423   1.989   6.645
 3840SOL    HW112419   3.471   1.973   6.559
 3840SOL    HW212420   3.384   1.903   6.678
 3841SOL     OW12421   0.995   4.132   4.683
 3841SOL    HW112422   0.948   4.045   4.664
 3841SOL    HW212423   1.046   4.160   4.602
 3842SOL     OW12424   2.527   2.519   3.741
 3842SOL    HW112425   2.598   2.556   3.800
 3842SOL    HW212426   2.437   2.548   3.775
 3843SOL     OW12427   5.199   3.221   1.924
 3843SOL    HW112428   5.159   3.202   1.834
 3843SOL    HW212429   5.290   3.179   1.930
 3844SOL     OW12430   1.209   3.416   6.345
 3844SOL    HW112431   1.110   3.425   6.338
 3844SOL    HW212432   1.236   3.413   6.442
 3845SOL     OW12433   2.417   5.638   6.059
 3845SOL    HW112434   2.515   5.627   6.043
 3845SOL    HW212435   2.402   5.663   6.155
 3846SOL     OW12436   0.916   3.931   3.941
 3846SOL    HW112437   0.896   4.021   3.979
 3846SOL    HW212438   1.015   3.914   3.947
 3847SOL     OW12439   5.307   2.919   4.278
 3847SOL    HW112440   5.379   2.931   4.209
 3847SOL    HW212441   5.242   2.995   4.272
 3848SOL     OW12442   5.016   3.872   2.543
 3848SOL    HW112443   5.015   3.868   2.643
 3848SOL    HW212444   4.932   3.918   2.511
 3849SOL     OW12445   1.381   0.941   5.882
 3849SOL    HW112446   1.328   0.909   5.804
 3849SOL    HW212447   1.394   1.040   5.876
 3850SOL     OW12448   2.889   3.265   1.941
 3850SOL    HW112449   2.835   3.246   1.859
 3850SOL    HW212450   2.841   3.232   2.022
 3851SOL     OW12451   0.001   4.558   3.231
 3851SOL    HW112452   0.015   4.651   3.264
 3851SOL    HW212453   0.087   4.507   3.238
 3852SOL     OW12454   3.141   5.936   3.691
 3852SOL    HW112455   3.233   5.975   3.690
 3852SOL    HW212456   3.116   5.913   3.786
 3853SOL     OW12457   1.098   3.094   3.293
 3853SOL    HW112458   1.104   3.178   3.347
 3853SOL    HW212459   1.173   3.033   3.318
 3854SOL     OW12460   0.995   2.251   2.448
 3854SOL    HW112461   1.027   2.209   2.363
 3854SOL    HW212462   1.071   2.256   2.513
 3855SOL     OW12463   4.690   6.208   6.679
 3855SOL    HW112464   4.676   6.144   6.603
 3855SOL    HW212465   4.634   6.181   6.757
 3856SOL     OW12466   0.683   0.904   6.063
 3856SOL    HW112467   0.669   0.891   6.161
 3856SOL    HW212468   0.602   0.945   6.022
 3857SOL     OW12469   0.657   6.343   6.972
 3857SOL    HW112470   0.635   6.440   6.963
 3857SOL    HW212471   0.724   6.317   6.903
 3858SOL     OW12472   3.460   1.558   6.165
 3858SOL    HW112473   3.422   1.489   6.103
 3858SOL    HW212474   3.501   1.512   6.244
 3859SOL     OW12475   6.084   1.033   1.684
 3859SOL    HW112476   6.151   1.100   1.650
 3859SOL    HW212477   6.020   1.079   1.746
 3860SOL     OW12478   1.878   1.280   4.515
 3860SOL    HW112479   1.809   1.306   4.582
 3860SOL    HW212480   1.960   1.249   4.563
 3861SOL     OW12481   4.181   5.218   4.163
 3861SOL    HW112482   4.197   5.308   4.203
 3861SOL    HW212483   4.182   5.149   4.235
 3862SOL     OW12484   0.489   1.059   4.613
 3862SOL    HW112485   0.390   1.060   4.597
 3862SOL    HW212486   0.521   1.152   4.631
 3863SOL     OW12487   6.171   2.142   6.994
 3863SOL    HW112488   6.233   2.063   6.994
 3863SOL    HW212489   6.128   2.150   0.062
 3864SOL     OW12490   2.269   0.635   5.466
 3864SOL    HW112491   2.291   0.657   5.370
 3864SOL    HW212492   2.176   0.599   5.471
 3865SOL     OW12493   4.252   0.871   1.067
 3865SOL    HW112494   4.235   0.935   1.143
 3865SOL    HW212495   4.212   0.782   1.090
 3866SOL     OW12496   4.152   0.505   0.578
 3866SOL    HW112497   4.236   0.538   0.534
 3866SOL    HW212498   4.137   0.555   0.663
 3867SOL     OW12499   0.827   4.694   3.596
 3867SOL    HW112500   0.767   4.656   3.666
 3867SOL    HW212501   0.892   4.756   3.639
 3868SOL     OW12502   3.429   0.350   0.366
 3868SOL    HW112503   3.528   0.358   0.363
 3868SOL    HW212504   3.391   0.365   0.275
 3869SOL     OW12505   6.192   2.794   4.631
 3869SOL    HW112506   6.249   2.757   4.557
 3869SOL    HW212507   6.250   2.844   4.695
 3870SOL     OW12508   6.951   6.703   0.714
 3870SOL    HW112509   6.860   6.704   0.673
 3870SOL    HW212510   7.018   6.737   0.648
 3871SOL     OW12511   3.524   0.781   3.259
 3871SOL    HW112512   3.425   0.766   3.270
 3871SOL    HW212513   3.552   0.751   3.167
 3872SOL     OW12514   2.980   3.184   4.561
 3872SOL    HW112515   3.000   3.124   4.484
 3872SOL    HW212516   3.056   3.181   4.626
 3873SOL     OW12517   5.896   3.882   1.362
 3873SOL    HW112518   5.902   3.843   1.454
 3873SOL    HW212519   5.808   3.857   1.321
 3874SOL     OW12520   4.422   6.146   0.516
 3874SOL    HW112521   4.326   6.169   0.530
 3874SOL    HW212522   4.480   6.205   0.572
 3875SOL     OW12523   2.187   3.175   2.352
 3875SOL    HW112524   2.268   3.227   2.324
 3875SOL    HW212525   2.118   3.238   2.387
 3876SOL     OW12526   3.710   4.978   0.687
 3876SOL    HW112527   3.777   5.000   0.758
 3876SOL    HW212528   3.752   4.919   0.619
 3877SOL     OW12529   5.806   2.407   1.499
 3877SOL    HW112530   5.900   2.372   1.496
 3877SOL    HW212531   5.805   2.502   1.469
 3878SOL     OW12532   4.085   6.331   4.941
 3878SOL    HW112533   3.995   6.309   4.903
 3878SOL    HW212534   4.073   6.396   5.017
 3879SOL     OW12535   6.097   5.468   0.978
 3879SOL    HW112536   6.193   5.466   0.950
 3879SOL    HW212537   6.045   5.521   0.911
 3880SOL     OW12538   5.181   4.164   4.468
 3880SOL    HW112539   5.267   4.185   4.515
 3880SOL    HW212540   5.147   4.246   4.423
 3881SOL     OW12541   0.834   3.453   1.757
 3881SOL    HW112542   0.830   3.432   1.854
 3881SOL    HW212543   0.746   3.432   1.714
 3882SOL     OW12544   1.294   1.663   5.844
 3882SOL    HW112545   1.377   1.611   5.866
 3882SOL    HW212546   1.215   1.603   5.850
 3883SOL     OW12547   3.968   1.226   2.298
 3883SOL    HW112548   4.047   1.255   2.352
 3883SOL    HW212549   3.885   1.269   2.333
 3884SOL     OW12550   0.949   5.842   2.182
 3884SOL    HW112551   0.870   5.865   2.239
 3884SOL    HW212552   0.925   5.856   2.086
 3885SOL     OW12553   6.060   5.949   2.535
 3885SOL    HW112554   6.040   6.027   2.475
 3885SOL    HW212555   6.153   5.957   2.571
 3886SOL     OW12556   5.264   5.736   5.006
 3886SOL    HW112557   5.183   5.694   5.045
 3886SOL    HW212558   5.342   5.674   5.014
 3887SOL     OW12559   1.120   0.686   6.758
 3887SOL    HW112560   1.028   0.702   6.794
 3887SOL    HW212561   1.159   0.772   6.726
 3888SOL     OW12562   6.940   0.907   4.934
 3888SOL    HW112563   7.005   0.834   4.912
 3888SOL    HW212564   6.960   0.942   5.026
 3889SOL     OW12565   0.158   4.241   0.098
 3889SOL    HW112566   0.106   4.256   0.014
 3889SOL    HW212567   0.249   4.280   0.087
 3890SOL     OW12568   6.516   4.959   3.063
 3890SOL    HW112569   6.583   4.888   3.085
 3890SOL    HW212570   6.432   4.942   3.115
 3891SOL     OW12571   5.480   3.725   4.083
 3891SOL    HW112572   5.485   3.735   4.183
 3891SOL    HW212573   5.569   3.744   4.043
 3892SOL     OW12574   7.013   1.468   1.552
 3892SOL    HW112575   0.020   1.506   1.464
 3892SOL    HW212576   0.027   1.376   1.562
 3893SOL     OW12577   4.296   3.950   7.022
 3893SOL    HW112578   4.310   3.933   0.097
 3893SOL    HW212579   4.385   3.950   6.976
 3894SOL     OW12580   4.472   1.084   0.684
 3894SOL    HW112581   4.487   0.997   0.637
 3894SOL    HW212582   4.482   1.071   0.782
 3895SOL     OW12583   1.747   0.945   5.210
 3895SOL    HW112584   1.833   0.987   5.240
 3895SOL    HW212585   1.737   0.958   5.112
 3896SOL     OW12586   0.309   1.281   5.352
 3896SOL    HW112587   0.272   1.359   5.302
 3896SOL    HW212588   0.278   1.196   5.309
 3897SOL     OW12589   3.441   5.675   2.645
 3897SOL    HW112590   3.404   5.726   2.567
 3897SOL    HW212591   3.383   5.691   2.725
 3898SOL     OW12592   2.298   3.467   5.819
 3898SOL    HW112593   2.320   3.396   5.886
 3898SOL    HW212594   2.381   3.494   5.770
 3899SOL     OW12595   4.330   6.512   5.379
 3899SOL    HW112596   4.282   6.558   5.305
 3899SOL    HW212597   4.412   6.564   5.403
 3900SOL     OW12598   5.041   2.789   3.640
 3900SOL    HW112599   5.128   2.811   3.683
 3900SOL    HW212600   5.057   2.736   3.557
 3901SOL     OW12601   2.763   0.014   5.162
 3901SOL    HW112602   2.724   7.007   5.075
 3901SOL    HW212603   2.755   6.962   5.228
 3902SOL     OW12604   5.658   3.436   1.553
 3902SOL    HW112605   5.647   3.403   1.647
 3902SOL    HW212606   5.578   3.410   1.499
 3903SOL     OW12607   3.877   6.160   6.117
 3903SOL    HW112608   3.833   6.220   6.185
 3903SOL    HW212609   3.938   6.214   6.059
 3904SOL     OW12610   3.030   1.593   5.338
 3904SOL    HW112611   2.943   1.641   5.328
 3904SOL    HW212612   3.022   1.501   5.300
 3905SOL     OW12613   0.377   6.963   6.601
 3905SOL    HW112614   0.451   6.909   6.561
 3905SOL    HW212615   0.374   0.030   6.557
 3906SOL     OW12616   5.475   5.601   6.106
 3906SOL    HW112617   5.422   5.597   6.191
 3906SOL    HW212618   5.433   5.542   6.038
 3907SOL     OW12619   5.844   0.652   3.681
 3907SOL    HW112620   5.836   0.743   3.722
 3907SOL    HW212621   5.931   0.611   3.708
 3908SOL     OW12622   1.377   2.402   0.310
 3908SOL    HW112623   1.417   2.314   0.285
 3908SOL    HW212624   1.441   2.475   0.288
 3909SOL     OW12625   6.719   5.982   5.130
 3909SOL    HW112626   6.770   5.987   5.216
 3909SOL    HW212627   6.784   5.970   5.055
 3910SOL     OW12628   3.621   2.961   2.215
 3910SOL    HW112629   3.636   3.059   2.228
 3910SOL    HW212630   3.694   2.922   2.159
 3911SOL     OW12631   4.995   1.856   6.413
 3911SOL    HW112632   5.062   1.926   6.389
 3911SOL    HW212633   4.905   1.897   6.421
 3912SOL     OW12634   4.088   0.618   5.728
 3912SOL    HW112635   4.069   0.703   5.679
 3912SOL    HW212636   4.165   0.571   5.684
 3913SOL     OW12637   1.809   0.199   5.978
 3913SOL    HW112638   1.791   0.246   6.065
 3913SOL    HW212639   1.861   0.115   5.995
 3914SOL     OW12640   3.747   0.813   1.072
 3914SOL    HW112641   3.736   0.845   1.167
 3914SOL    HW212642   3.811   0.873   1.025
 3915SOL     OW12643   3.873   5.123   2.350
 3915SOL    HW112644   3.837   5.215   2.335
 3915SOL    HW212645   3.864   5.069   2.266
 3916SOL     OW12646   1.664   6.535   4.029
 3916SOL    HW112647   1.614   6.467   3.975
 3916SOL    HW212648   1.607   6.566   4.105
 3917SOL     OW12649   6.446   5.642   0.375
 3917SOL    HW112650   6.351   5.669   0.358
 3917SOL    HW212651   6.506   5.719   0.355
 3918SOL     OW12652   4.815   6.220   1.625
 3918SOL    HW112653   4.765   6.217   1.711
 3918SOL    HW212654   4.796   6.307   1.579
 3919SOL     OW12655   2.248   6.725   6.430
 3919SOL    HW112656   2.186   6.761   6.500
 3919SOL    HW212657   2.216   6.636   6.399
 3920SOL     OW12658   3.358   2.848   0.883
 3920SOL    HW112659   3.352   2.748   0.888
 3920SOL    HW212660   3.437   2.879   0.935
 3921SOL     OW12661   6.980   2.983   1.438
 3921SOL    HW112662   0.007   3.057   1.393
 3921SOL    HW212663   0.015   2.902   1.442
 3922SOL     OW12664   5.813   4.059   2.015
 3922SOL    HW112665   5.740   4.000   1.981
 3922SOL    HW212666   5.784   4.104   2.099
 3923SOL     OW12667   6.697   1.689   6.742
 3923SOL    HW112668   6.793   1.709   6.762
 3923SOL    HW212669   6.652   1.772   6.710
 3924SOL     OW12670   0.566   4.864   3.631
 3924SOL    HW112671   0.493   4.798   3.611
 3924SOL    HW212672   0.645   4.817   3.668
 3925SOL     OW12673   3.275   5.292   1.012
 3925SOL    HW112674   3.189   5.341   1.002
 3925SOL    HW212675   3.298   5.246   0.926
 3926SOL     OW12676   6.730   5.914   2.826
 3926SOL    HW112677   6.690   5.837   2.876
 3926SOL    HW212678   6.778   5.974   2.890
 3927SOL     OW12679   6.355   3.065   3.640
 3927SOL    HW112680   6.338   3.095   3.546
 3927SOL    HW212681   6.395   3.141   3.693
 3928SOL     OW12682   3.486   6.063   5.624
 3928SOL    HW112683   3.564   6.002   5.636
 3928SOL    HW212684   3.468   6.111   5.710
 3929SOL     OW12685   6.890   1.173   5.857
 3929SOL    HW112686   6.903   1.272   5.856
 3929SOL    HW212687   6.976   1.128   5.833
 3930SOL     OW12688   2.325   1.900   3.567
 3930SOL    HW112689   2.418   1.931   3.545
 3930SOL    HW212690   2.288   1.849   3.489
 3931SOL     OW12691   1.647   1.264   1.896
 3931SOL    HW112692   1.660   1.362   1.911
 3931SOL    HW212693   1.716   1.231   1.832
 3932SOL     OW12694   1.475   4.029   2.780
 3932SOL    HW112695   1.403   3.960   2.779
 3932SOL    HW212696   1.553   3.996   2.833
 3933SOL     OW12697   1.837   6.384   0.221
 3933SOL    HW112698   1.854   6.351   0.128
 3933SOL    HW212699   1.857   6.311   0.286
 3934SOL     OW12700   0.088   1.144   0.856
 3934SOL    HW112701   0.060   1.224   0.803
 3934SOL    HW212702   0.182   1.119   0.834
 3935SOL     OW12703   2.732   0.026   6.584
 3935SOL    HW112704   2.812   0.046   6.641
 3935SOL    HW212705   2.699   0.111   6.543
 3936SOL     OW12706   0.045   5.157   5.461
 3936SOL    HW112707   0.127   5.184   5.511
 3936SOL    HW212708   0.071   5.106   5.379
 3937SOL     OW12709   6.609   0.779   2.736
 3937SOL    HW112710   6.624   0.869   2.694
 3937SOL    HW212711   6.512   0.754   2.729
 3938SOL     OW12712   0.357   1.480   4.200
 3938SOL    HW112713   0.434   1.521   4.249
 3938SOL    HW212714   0.381   1.388   4.170
 3939SOL     OW12715   2.331   1.564   2.113
 3939SOL    HW112716   2.420   1.608   2.103
 3939SOL    HW212717   2.263   1.631   2.142
 3940SOL     OW12718   4.436   5.085   2.096
 3940SOL    HW112719   4.482   5.009   2.141
 3940SOL    HW212720   4.495   5.165   2.097
 3941SOL     OW12721   4.776   2.530   6.281
 3941SOL    HW112722   4.868   2.516   6.243
 3941SOL    HW212723   4.773   2.499   6.376
 3942SOL     OW12724   0.033   0.494   6.756
 3942SOL    HW112725   6.983   0.429   6.731
 3942SOL    HW212726   0.081   0.460   6.837
 3943SOL     OW12727   0.059   3.946   3.104
 3943SOL    HW112728   0.046   3.880   3.030
 3943SOL    HW212729   6.999   3.952   3.160
 3944SOL     OW12730   5.187   3.223   5.092
 3944SOL    HW112731   5.126   3.218   5.014
 3944SOL    HW212732   5.183   3.138   5.144
 3945SOL     OW12733   0.811   1.826   1.223
 3945SOL    HW112734   0.735   1.765   1.201
 3945SOL    HW212735   0.841   1.810   1.317
 3946SOL     OW12736   5.842   5.965   6.427
 3946SOL    HW112737   5.836   5.869   6.451
 3946SOL    HW212738   5.783   5.984   6.348
 3947SOL     OW12739   5.905   5.612   0.807
 3947SOL    HW112740   5.985   5.673   0.800
 3947SOL    HW212741   5.822   5.666   0.794
 3948SOL     OW12742   1.060   5.863   1.537
 3948SOL    HW112743   1.131   5.876   1.468
 3948SOL    HW212744   1.082   5.783   1.593
 3949SOL     OW12745   5.556   0.374   2.980
 3949SOL    HW112746   5.590   0.283   2.959
 3949SOL    HW212747   5.626   0.426   3.029
 3950SOL     OW12748   1.833   3.994   1.420
 3950SOL    HW112749   1.820   3.997   1.321
 3950SOL    HW212750   1.929   3.972   1.441
 3951SOL     OW12751   6.289   6.664   0.406
 3951SOL    HW112752   6.207   6.687   0.458
 3951SOL    HW212753   6.270   6.675   0.308
 3952SOL     OW12754   6.287   3.344   2.508
 3952SOL    HW112755   6.368   3.286   2.507
 3952SOL    HW212756   6.306   3.429   2.459
 3953SOL     OW12757   3.893   4.708   1.553
 3953SOL    HW112758   3.981   4.672   1.522
 3953SOL    HW212759   3.822   4.687   1.485
 3954SOL     OW12760   4.673   5.044   4.867
 3954SOL    HW112761   4.621   5.013   4.947
 3954SOL    HW212762   4.613   5.048   4.787
 3955SOL     OW12763   3.106   5.128   6.274
 3955SOL    HW112764   3.039   5.075   6.222
 3955SOL    HW212765   3.198   5.105   6.242
 3956SOL     OW12766   6.962   0.859   3.697
 3956SOL    HW112767   6.992   0.949   3.666
 3956SOL    HW212768   0.015   0.813   3.744
 3957SOL     OW12769   4.519   5.965   3.709
 3957SOL    HW112770   4.432   5.958   3.757
 3957SOL    HW212771   4.548   5.874   3.679
 3958SOL     OW12772   5.702   0.346   5.131
 3958SOL    HW112773   5.695   0.376   5.226
 3958SOL    HW212774   5.639   0.400   5.074
 3959SOL     OW12775   4.084   6.283   0.909
 3959SOL    HW112776   4.176   6.272   0.871
 3959SOL    HW212777   4.031   6.200   0.894
 3960SOL     OW12778   4.529   1.494   6.802
 3960SOL    HW112779   4.497   1.576   6.754
 3960SOL    HW212780   4.450   1.445   6.839
 3961SOL     OW12781   5.060   2.356   2.801
 3961SOL    HW112782   4.976   2.406   2.823
 3961SOL    HW212783   5.037   2.270   2.756
 3962SOL     OW12784   2.575   4.577   0.128
 3962SOL    HW112785   2.603   4.521   0.206
 3962SOL    HW212786   2.654   4.598   0.072
 3963SOL     OW12787   4.513   4.911   4.161
 3963SOL    HW112788   4.548   4.820   4.137
 3963SOL    HW212789   4.506   4.966   4.078
 3964SOL     OW12790   4.051   5.136   3.571
 3964SOL    HW112791   3.982   5.151   3.640
 3964SOL    HW212792   4.018   5.068   3.505
 3965SOL     OW12793   5.021   3.122   6.202
 3965SOL    HW112794   4.934   3.120   6.250
 3965SOL    HW212795   5.039   3.215   6.168
 3966SOL     OW12796   5.014   5.809   0.308
 3966SOL    HW112797   5.063   5.889   0.341
 3966SOL    HW212798   4.987   5.752   0.386
 3967SOL     OW12799   1.569   3.824   2.092
 3967SOL    HW112800   1.645   3.781   2.044
 3967SOL    HW212801   1.597   3.846   2.185
 3968SOL     OW12802   5.181   0.608   1.190
 3968SOL    HW112803   5.100   0.553   1.209
 3968SOL    HW212804   5.155   0.686   1.133
 3969SOL     OW12805   1.312   3.968   2.426
 3969SOL    HW112806   1.346   3.878   2.456
 3969SOL    HW212807   1.364   4.040   2.472
 3970SOL     OW12808   6.031   6.117   3.683
 3970SOL    HW112809   6.085   6.123   3.767
 3970SOL    HW212810   6.061   6.039   3.629
 3971SOL     OW12811   2.413   4.727   2.275
 3971SOL    HW112812   2.430   4.778   2.191
 3971SOL    HW212813   2.344   4.774   2.330
 3972SOL     OW12814   1.174   5.137   0.638
 3972SOL    HW112815   1.249   5.203   0.641
 3972SOL    HW212816   1.151   5.109   0.731
 3973SOL     OW12817   1.817   5.251   6.581
 3973SOL    HW112818   1.891   5.188   6.558
 3973SOL    HW212819   1.742   5.239   6.515
 3974SOL     OW12820   1.931   1.145   4.085
 3974SOL    HW112821   1.898   1.121   4.177
 3974SOL    HW212822   1.856   1.134   4.020
 3975SOL     OW12823   5.718   0.765   5.125
 3975SOL    HW112824   5.791   0.705   5.158
 3975SOL    HW212825   5.700   0.836   5.194
 3976SOL     OW12826   1.861   6.454   1.778
 3976SOL    HW112827   1.903   6.420   1.862
 3976SOL    HW212828   1.785   6.515   1.802
 3977SOL     OW12829   2.535   4.126   5.605
 3977SOL    HW112830   2.480   4.147   5.524
 3977SOL    HW212831   2.632   4.135   5.583
 3978SOL     OW12832   5.535   5.363   5.030
 3978SOL    HW112833   5.617   5.313   5.057
 3978SOL    HW212834   5.520   5.352   4.931
 3979SOL     OW12835   3.291   6.373   0.781
 3979SOL    HW112836   3.313   6.398   0.875
 3979SOL    HW212837   3.228   6.295   0.781
 3980SOL     OW12838   6.877   5.367   0.408
 3980SOL    HW112839   6.972   5.339   0.426
 3980SOL    HW212840   6.844   5.320   0.326
 3981SOL     OW12841   2.127   0.568   0.091
 3981SOL    HW112842   2.126   0.591   7.017
 3981SOL    HW212843   2.036   0.583   0.130
 3982SOL     OW12844   1.950   0.436   4.107
 3982SOL    HW112845   1.940   0.431   4.206
 3982SOL    HW212846   1.865   0.467   4.067
 3983SOL     OW12847   5.513   4.736   4.395
 3983SOL    HW112848   5.539   4.829   4.420
 3983SOL    HW212849   5.455   4.697   4.467
 3984SOL     OW12850   6.517   1.450   2.938
 3984SOL    HW112851   6.502   1.452   3.037
 3984SOL    HW212852   6.519   1.356   2.906
 3985SOL     OW12853   3.236   4.489   6.720
 3985SOL    HW112854   3.273   4.431   6.647
 3985SOL    HW212855   3.194   4.433   6.790
 3986SOL     OW12856   6.300   2.356   3.131
 3986SOL    HW112857   6.292   2.447   3.092
 3986SOL    HW212858   6.287   2.360   3.230
 3987SOL     OW12859   3.150   5.514   3.752
 3987SOL    HW112860   3.069   5.505   3.693
 3987SOL    HW212861   3.180   5.424   3.781
 3988SOL     OW12862   4.049   4.102   0.196
 3988SOL    HW112863   4.023   4.100   0.099
 3988SOL    HW212864   4.133   4.049   0.209
 3989SOL     OW12865   6.882   2.563   6.803
 3989SOL    HW112866   6.794   2.537   6.842
 3989SOL    HW212867   6.869   2.628   6.728
 3990SOL     OW12868   5.294   2.455   2.857
 3990SOL    HW112869   5.354   2.382   2.890
 3990SOL    HW212870   5.205   2.416   2.833
 3991SOL     OW12871   5.896   1.056   2.337
 3991SOL    HW112872   5.852   1.108   2.411
 3991SOL    HW212873   5.943   1.119   2.276
 3992SOL     OW12874   3.913   2.664   0.203
 3992SOL    HW112875   3.995   2.712   0.232
 3992SOL    HW212876   3.858   2.641   0.284
 3993SOL     OW12877   1.478   1.654   2.543
 3993SOL    HW112878   1.506   1.697   2.457
 3993SOL    HW212879   1.512   1.560   2.546
 3994SOL     OW12880   0.983   0.494   5.770
 3994SOL    HW112881   0.891   0.529   5.787
 3994SOL    HW212882   1.037   0.499   5.855
 3995SOL     OW12883   2.042   3.684   5.539
 3995SOL    HW112884   1.981   3.742   5.486
 3995SOL    HW212885   2.020   3.692   5.636
 3996SOL     OW12886   1.184   0.486   4.324
 3996SOL    HW112887   1.158   0.390   4.308
 3996SOL    HW212888   1.233   0.493   4.410
 3997SOL     OW12889   5.044   1.192   4.443
 3997SOL    HW112890   5.105   1.244   4.383
 3997SOL    HW212891   4.954   1.184   4.399
 3998SOL     OW12892   4.314   1.132   4.486
 3998SOL    HW112893   4.364   1.070   4.426
 3998SOL    HW212894   4.359   1.221   4.487
 3999SOL     OW12895   5.929   3.092   3.811
 3999SOL    HW112896   5.861   3.045   3.867
 3999SOL    HW212897   6.006   3.031   3.793
 4000SOL     OW12898   3.157   5.892   3.412
 4000SOL    HW112899   3.120   5.963   3.472
 4000SOL    HW212900   3.159   5.805   3.461
 4001SOL     OW12901   2.884   2.214   3.777
 4001SOL    HW112902   2.921   2.271   3.704
 4001SOL    HW212903   2.822   2.146   3.739
 4002SOL     OW12904   3.019   3.404   0.645
 4002SOL    HW112905   3.078   3.327   0.620
 4002SOL    HW212906   3.024   3.419   0.744
 4003SOL     OW12907   3.090   6.566   3.785
 4003SOL    HW112908   3.175   6.524   3.754
 4003SOL    HW212909   3.034   6.589   3.705
 4004SOL     OW12910   4.991   1.693   4.506
 4004SOL    HW112911   4.945   1.678   4.594
 4004SOL    HW212912   4.964   1.781   4.469
 4005SOL     OW12913   4.558   5.354   0.470
 4005SOL    HW112914   4.556   5.391   0.563
 4005SOL    HW212915   4.608   5.267   0.469
 4006SOL     OW12916   4.060   5.039   2.833
 4006SOL    HW112917   4.028   5.126   2.870
 4006SOL    HW212918   4.156   5.025   2.859
 4007SOL     OW12919   0.666   2.266   0.935
 4007SOL    HW112920   0.579   2.249   0.888
 4007SOL    HW212921   0.739   2.278   0.868
 4008SOL     OW12922   3.240   2.131   3.963
 4008SOL    HW112923   3.324   2.077   3.959
 4008SOL    HW212924   3.182   2.108   3.886
 4009SOL     OW12925   5.193   3.680   1.120
 4009SOL    HW112926   5.254   3.751   1.154
 4009SOL    HW212927   5.189   3.605   1.187
 4010SOL     OW12928   2.849   3.402   1.435
 4010SOL    HW112929   2.753   3.419   1.415
 4010SOL    HW212930   2.898   3.489   1.444
 4011SOL     OW12931   0.620   0.758   2.495
 4011SOL    HW112932   0.694   0.691   2.492
 4011SOL    HW212933   0.658   0.850   2.480
 4012SOL     OW12934   4.904   5.431   1.588
 4012SOL    HW112935   4.821   5.484   1.601
 4012SOL    HW212936   4.978   5.471   1.641
 4013SOL     OW12937   2.400   0.762   5.201
 4013SOL    HW112938   2.340   0.703   5.147
 4013SOL    HW212939   2.354   0.849   5.220
 4014SOL     OW12940   4.755   6.350   2.197
 4014SOL    HW112941   4.703   6.366   2.113
 4014SOL    HW212942   4.852   6.350   2.177
 4015SOL     OW12943   5.239   4.976   5.938
 4015SOL    HW112944   5.209   5.053   5.994
 4015SOL    HW212945   5.289   4.910   5.994
 4016SOL     OW12946   2.564   6.054   6.542
 4016SOL    HW112947   2.615   6.047   6.456
 4016SOL    HW212948   2.473   6.092   6.525
 4017SOL     OW12949   0.092   5.836   0.369
 4017SOL    HW112950   0.177   5.851   0.420
 4017SOL    HW212951   0.030   5.779   0.423
 4018SOL     OW12952   4.824   6.358   2.859
 4018SOL    HW112953   4.885   6.284   2.887
 4018SOL    HW212954   4.878   6.438   2.834
 4019SOL     OW12955   5.706   3.295   2.879
 4019SOL    HW112956   5.737   3.388   2.858
 4019SOL    HW212957   5.763   3.256   2.951
 4020SOL     OW12958   4.733   2.055   5.563
 4020SOL    HW112959   4.683   2.086   5.481
 4020SOL    HW212960   4.707   1.960   5.583
 4021SOL     OW12961   3.920   4.703   6.302
 4021SOL    HW112962   3.852   4.637   6.334
 4021SOL    HW212963   3.913   4.787   6.356
 4022SOL     OW12964   4.868   0.659   0.039
 4022SOL    HW112965   4.950   0.606   0.062
 4022SOL    HW212966   4.838   0.709   0.120
 4023SOL     OW12967   6.010   1.843   4.515
 4023SOL    HW112968   5.942   1.873   4.582
 4023SOL    HW212969   6.062   1.766   4.554
 4024SOL     OW12970   3.656   6.250   3.393
 4024SOL    HW112971   3.719   6.239   3.316
 4024SOL    HW212972   3.597   6.169   3.398
 4025SOL     OW12973   0.598   5.964   4.098
 4025SOL    HW112974   0.553   5.903   4.162
 4025SOL    HW212975   0.628   6.047   4.146
 4026SOL     OW12976   5.754   5.335   4.229
 4026SOL    HW112977   5.707   5.380   4.305
 4026SOL    HW212978   5.818   5.267   4.265
 4027SOL     OW12979   3.760   4.290   1.754
 4027SOL    HW112980   3.843   4.333   1.720
 4027SOL    HW212981   3.682   4.351   1.737
 4028SOL     OW12982   1.186   2.217   4.213
 4028SOL    HW112983   1.144   2.186   4.128
 4028SOL    HW212984   1.210   2.137   4.269
 4029SOL     OW12985   2.519   4.323   6.436
 4029SOL    HW112986   2.483   4.308   6.344
 4029SOL    HW212987   2.614   4.293   6.440
 4030SOL     OW12988   1.001   2.226   5.791
 4030SOL    HW112989   0.932   2.213   5.863
 4030SOL    HW212990   1.091   2.239   5.834
 4031SOL     OW12991   4.978   5.337   3.478
 4031SOL    HW112992   5.009   5.417   3.428
 4031SOL    HW212993   4.898   5.297   3.432
 4032SOL     OW12994   6.403   6.878   3.373
 4032SOL    HW112995   6.315   6.906   3.333
 4032SOL    HW212996   6.475   6.941   3.342
 4033SOL     OW12997   3.381   3.245   3.551
 4033SOL    HW112998   3.418   3.176   3.488
 4033SOL    HW212999   3.291   3.217   3.582
 4034SOL     OW13000   5.856   1.312   5.344
 4034SOL    HW113001   5.858   1.308   5.244
 4034SOL    HW213002   5.770   1.353   5.374
 4035SOL     OW13003   6.770   3.771   0.817
 4035SOL    HW113004   6.792   3.862   0.781
 4035SOL    HW213005   6.855   3.725   0.845
 4036SOL     OW13006   5.781   6.736   2.192
 4036SOL    HW113007   5.695   6.777   2.221
 4036SOL    HW213008   5.805   6.661   2.254
 4037SOL     OW13009   1.975   2.746   7.007
 4037SOL    HW113010   2.004   2.821   6.947
 4037SOL    HW213011   1.880   2.723   6.988
 4038SOL     OW13012   4.712   4.717   2.156
 4038SOL    HW113013   4.720   4.811   2.124
 4038SOL    HW213014   4.794   4.666   2.130
 4039SOL     OW13015   4.869   5.492   0.794
 4039SOL    HW113016   4.870   5.534   0.885
 4039SOL    HW213017   4.806   5.414   0.794
 4040SOL     OW13018   2.875   6.664   0.278
 4040SOL    HW113019   2.812   6.741   0.278
 4040SOL    HW213020   2.947   6.680   0.210
 4041SOL     OW13021   1.584   5.823   2.418
 4041SOL    HW113022   1.507   5.765   2.390
 4041SOL    HW213023   1.598   5.895   2.350
 4042SOL     OW13024   6.469   5.076   2.275
 4042SOL    HW113025   6.502   5.118   2.190
 4042SOL    HW213026   6.544   5.071   2.341
 4043SOL     OW13027   5.272   1.937   3.521
 4043SOL    HW113028   5.293   1.899   3.431
 4043SOL    HW213029   5.300   1.873   3.592
 4044SOL     OW13030   6.289   0.527   4.495
 4044SOL    HW113031   6.236   0.612   4.501
 4044SOL    HW213032   6.370   0.542   4.438
 4045SOL     OW13033   2.980   4.258   6.218
 4045SOL    HW113034   3.057   4.195   6.211
 4045SOL    HW213035   3.014   4.349   6.240
 4046SOL     OW13036   0.843   1.687   2.432
 4046SOL    HW113037   0.808   1.774   2.396
 4046SOL    HW213038   0.852   1.622   2.357
 4047SOL     OW13039   3.054   3.697   0.898
 4047SOL    HW113040   3.114   3.645   0.838
 4047SOL    HW213041   2.971   3.722   0.848
 4048SOL     OW13042   5.384   0.815   1.667
 4048SOL    HW113043   5.469   0.867   1.659
 4048SOL    HW213044   5.308   0.870   1.633
 4049SOL     OW13045   6.415   6.510   6.486
 4049SOL    HW113046   6.423   6.425   6.434
 4049SOL    HW213047   6.391   6.489   6.581
 4050SOL     OW13048   1.765   6.589   6.666
 4050SOL    HW113049   1.831   6.537   6.613
 4050SOL    HW213050   1.743   6.674   6.618
 4051SOL     OW13051   2.755   4.100   0.179
 4051SOL    HW113052   2.768   4.072   0.274
 4051SOL    HW213053   2.661   4.132   0.166
 4052SOL     OW13054   0.811   0.481   1.155
 4052SOL    HW113055   0.788   0.458   1.250
 4052SOL    HW213056   0.795   0.402   1.096
 4053SOL     OW13057   2.899   4.853   3.838
 4053SOL    HW113058   2.894   4.946   3.875
 4053SOL    HW213059   2.937   4.792   3.908
 4054SOL     OW13060   2.584   2.800   0.688
 4054SOL    HW113061   2.492   2.838   0.701
 4054SOL    HW213062   2.652   2.871   0.706
 4055SOL     OW13063   2.259   2.833   6.053
 4055SOL    HW113064   2.246   2.913   5.994
 4055SOL    HW213065   2.219   2.752   6.009
 4056SOL     OW13066   4.068   3.227   6.802
 4056SOL    HW113067   4.006   3.275   6.740
 4056SOL    HW213068   4.145   3.286   6.825
 4057SOL     OW13069   5.253   3.609   0.408
 4057SOL    HW113070   5.218   3.516   0.417
 4057SOL    HW213071   5.338   3.607   0.356
 4058SOL     OW13072   2.373   1.336   4.488
 4058SOL    HW113073   2.450   1.274   4.494
 4058SOL    HW213074   2.312   1.308   4.414
 4059SOL     OW13075   1.800   1.876   3.506
 4059SOL    HW113076   1.816   1.942   3.580
 4059SOL    HW213077   1.887   1.851   3.465
 4060SOL     OW13078   3.789   5.175   4.445
 4060SOL    HW113079   3.826   5.200   4.534
 4060SOL    HW213080   3.690   5.176   4.448
 4061SOL     OW13081   3.309   4.629   1.650
 4061SOL    HW113082   3.309   4.529   1.656
 4061SOL    HW213083   3.368   4.666   1.722
 4062SOL     OW13084   4.239   1.484   2.895
 4062SOL    HW113085   4.237   1.387   2.869
 4062SOL    HW213086   4.319   1.527   2.853
 4063SOL     OW13087   4.050   6.824   6.045
 4063SOL    HW113088   3.974   6.759   6.037
 4063SOL    HW213089   4.106   6.799   6.124
 4064SOL     OW13090   1.871   0.437   2.532
 4064SOL    HW113091   1.831   0.528   2.542
 4064SOL    HW213092   1.865   0.407   2.437
 4065SOL     OW13093   0.279   0.119   1.145
 4065SOL    HW113094   0.314   0.140   1.236
 4065SOL    HW213095   0.197   0.174   1.127
 4066SOL     OW13096   5.402   4.396   1.681
 4066SOL    HW113097   5.367   4.378   1.590
 4066SOL    HW213098   5.460   4.320   1.711
 4067SOL     OW13099   5.023   1.788   3.467
 4067SOL    HW113100   5.090   1.859   3.488
 4067SOL    HW213101   5.067   1.714   3.416
 4068SOL     OW13102   4.833   0.300   5.133
 4068SOL    HW113103   4.741   0.290   5.095
 4068SOL    HW213104   4.846   0.233   5.207
 4069SOL     OW13105   4.843   4.387   0.981
 4069SOL    HW113106   4.887   4.460   1.033
 4069SOL    HW213107   4.803   4.320   1.043
 4070SOL     OW13108   1.809   3.465   2.667
 4070SOL    HW113109   1.871   3.529   2.622
 4070SOL    HW213110   1.781   3.395   2.601
 4071SOL     OW13111   1.265   0.808   5.038
 4071SOL    HW113112   1.260   0.772   5.131
 4071SOL    HW213113   1.247   0.734   4.972
 4072SOL     OW13114   1.889   6.480   4.296
 4072SOL    HW113115   1.881   6.501   4.198
 4072SOL    HW213116   1.982   6.500   4.326
 4073SOL     OW13117   1.992   5.748   6.076
 4073SOL    HW113118   1.939   5.772   6.157
 4073SOL    HW213119   2.061   5.818   6.059
 4074SOL     OW13120   0.224   1.751   1.591
 4074SOL    HW113121   0.268   1.754   1.501
 4074SOL    HW213122   0.135   1.797   1.586
 4075SOL     OW13123   4.271   1.931   2.369
 4075SOL    HW113124   4.339   1.978   2.426
 4075SOL    HW213125   4.307   1.919   2.277
 4076SOL     OW13126   2.234   3.886   5.333
 4076SOL    HW113127   2.272   3.812   5.389
 4076SOL    HW213128   2.298   3.908   5.260
 4077SOL     OW13129   2.877   6.541   0.518
 4077SOL    HW113130   2.940   6.468   0.546
 4077SOL    HW213131   2.897   6.566   0.424
 4078SOL     OW13132   6.340   4.571   1.945
 4078SOL    HW113133   6.311   4.578   2.040
 4078SOL    HW213134   6.394   4.652   1.920
 4079SOL     OW13135   0.878   1.179   3.379
 4079SOL    HW113136   0.862   1.109   3.310
 4079SOL    HW213137   0.924   1.258   3.338
 4080SOL     OW13138   2.856   4.005   0.429
 4080SOL    HW113139   2.895   4.076   0.487
 4080SOL    HW213140   2.898   3.917   0.452
 4081SOL     OW13141   2.368   1.521   4.972
 4081SOL    HW113142   2.324   1.582   5.037
 4081SOL    HW213143   2.457   1.558   4.947
 4082SOL     OW13144   0.988   2.127   6.078
 4082SOL    HW113145   1.072   2.165   6.039
 4082SOL    HW213146   0.954   2.187   6.150
 4083SOL     OW13147   6.323   4.593   3.204
 4083SOL    HW113148   6.360   4.556   3.290
 4083SOL    HW213149   6.270   4.523   3.158
 4084SOL     OW13150   4.769   2.625   3.089
 4084SOL    HW113151   4.868   2.617   3.101
 4084SOL    HW213152   4.741   2.720   3.105
 4085SOL     OW13153   2.418   5.438   1.228
 4085SOL    HW113154   2.504   5.488   1.238
 4085SOL    HW213155   2.385   5.410   1.318
 4086SOL     OW13156   6.963   5.551   0.028
 4086SOL    HW113157   6.875   5.543   0.074
 4086SOL    HW213158   0.011   5.501   0.080
 4087SOL     OW13159   2.910   0.079   2.909
 4087SOL    HW113160   2.975   0.124   2.848
 4087SOL    HW213161   2.829   0.136   2.921
 4088SOL     OW13162   6.710   0.793   5.489
 4088SOL    HW113163   6.699   0.694   5.490
 4088SOL    HW213164   6.623   0.837   5.470
 4089SOL     OW13165   6.853   6.104   4.332
 4089SOL    HW113166   6.856   6.161   4.250
 4089SOL    HW213167   6.886   6.012   4.310
 4090SOL     OW13168   2.106   6.660   4.674
 4090SOL    HW113169   2.043   6.672   4.750
 4090SOL    HW213170   2.194   6.703   4.696
 4091SOL     OW13171   1.031   5.051   1.033
 4091SOL    HW113172   0.951   4.996   1.053
 4091SOL    HW213173   1.109   4.991   1.013
 4092SOL     OW13174   4.806   2.939   4.766
 4092SOL    HW113175   4.790   3.015   4.703
 4092SOL    HW213176   4.737   2.869   4.752
 4093SOL     OW13177   6.218   5.272   2.280
 4093SOL    HW113178   6.281   5.195   2.279
 4093SOL    HW213179   6.209   5.309   2.188
 4094SOL     OW13180   0.378   4.885   6.876
 4094SOL    HW113181   0.360   4.873   6.974
 4094SOL    HW213182   0.461   4.835   6.851
 4095SOL     OW13183   0.242   3.512   6.907
 4095SOL    HW113184   0.272   3.432   6.856
 4095SOL    HW213185   0.147   3.501   6.936
 4096SOL     OW13186   2.227   1.360   6.650
 4096SOL    HW113187   2.192   1.271   6.621
 4096SOL    HW213188   2.157   1.430   6.636
 4097SOL     OW13189   6.958   4.339   5.327
 4097SOL    HW113190   6.915   4.275   5.390
 4097SOL    HW213191   7.005   4.289   5.255
 4098SOL     OW13192   1.881   3.642   1.684
 4098SOL    HW113193   1.970   3.681   1.659
 4098SOL    HW213194   1.814   3.715   1.694
 4099SOL     OW13195   4.478   4.813   6.828
 4099SOL    HW113196   4.418   4.881   6.869
 4099SOL    HW213197   4.569   4.853   6.815
 4100SOL     OW13198   1.156   1.313   3.551
 4100SOL    HW113199   1.241   1.304   3.499
 4100SOL    HW213200   1.128   1.223   3.584
 4101SOL     OW13201   6.738   0.897   6.690
 4101SOL    HW113202   6.638   0.899   6.694
 4101SOL    HW213203   6.769   0.935   6.602
 4102SOL     OW13204   1.892   0.650   0.194
 4102SOL    HW113205   1.907   0.749   0.199
 4102SOL    HW213206   1.803   0.632   0.153
 4103SOL     OW13207   0.354   6.472   2.316
 4103SOL    HW113208   0.262   6.452   2.283
 4103SOL    HW213209   0.421   6.446   2.246
 4104SOL     OW13210   0.271   5.767   3.083
 4104SOL    HW113211   0.250   5.710   3.162
 4104SOL    HW213212   0.188   5.779   3.028
 4105SOL     OW13213   4.655   1.464   1.617
 4105SOL    HW113214   4.567   1.494   1.653
 4105SOL    HW213215   4.674   1.372   1.651
 4106SOL     OW13216   0.140   2.162   3.767
 4106SOL    HW113217   0.181   2.088   3.820
 4106SOL    HW213218   0.041   2.149   3.761
 4107SOL     OW13219   0.307   6.200   6.237
 4107SOL    HW113220   0.339   6.290   6.207
 4107SOL    HW213221   0.357   6.129   6.188
 4108SOL     OW13222   0.486   5.137   4.167
 4108SOL    HW113223   0.408   5.185   4.127
 4108SOL    HW213224   0.564   5.200   4.174
 4109SOL     OW13225   6.027   5.767   3.194
 4109SOL    HW113226   5.991   5.688   3.144
 4109SOL    HW213227   6.064   5.834   3.129
 4110SOL     OW13228   4.798   2.876   6.839
 4110SOL    HW113229   4.746   2.939   6.781
 4110SOL    HW213230   4.807   2.917   6.930
 4111SOL     OW13231   6.783   5.423   6.611
 4111SOL    HW113232   6.780   5.404   6.709
 4111SOL    HW213233   6.831   5.348   6.564
 4112SOL     OW13234   4.606   6.284   4.723
 4112SOL    HW113235   4.548   6.206   4.746
 4112SOL    HW213236   4.642   6.325   4.807
 4113SOL     OW13237   4.481   4.825   4.776
 4113SOL    HW113238   4.578   4.805   4.781
 4113SOL    HW213239   4.428   4.750   4.816
 4114SOL     OW13240   6.176   1.774   3.322
 4114SOL    HW113241   6.264   1.747   3.361
 4114SOL    HW213242   6.136   1.697   3.273
 4115SOL     OW13243   2.658   5.347   3.465
 4115SOL    HW113244   2.750   5.351   3.425
 4115SOL    HW213245   2.591   5.373   3.396
 4116SOL     OW13246   5.507   2.257   3.296
 4116SOL    HW113247   5.583   2.198   3.268
 4116SOL    HW213248   5.425   2.202   3.312
 4117SOL     OW13249   1.467   1.985   2.411
 4117SOL    HW113250   1.367   1.987   2.422
 4117SOL    HW213251   1.494   1.897   2.372
 4118SOL     OW13252   6.400   6.467   6.810
 4118SOL    HW113253   6.318   6.455   6.755
 4118SOL    HW213254   6.426   6.380   6.851
 4119SOL     OW13255   2.871   0.824   3.450
 4119SOL    HW113256   2.922   0.872   3.378
 4119SOL    HW213257   2.773   0.828   3.429
 4120SOL     OW13258   3.193   1.260   6.592
 4120SOL    HW113259   3.151   1.254   6.501
 4120SOL    HW213260   3.224   1.353   6.608
 4121SOL     OW13261   6.841   6.659   2.596
 4121SOL    HW113262   6.849   6.736   2.660
 4121SOL    HW213263   6.812   6.577   2.646
 4122SOL     OW13264   0.149   5.442   4.517
 4122SOL    HW113265   0.065   5.446   4.571
 4122SOL    HW213266   0.219   5.392   4.568
 4123SOL     OW13267   3.809   4.853   4.078
 4123SOL    HW113268   3.874   4.853   4.002
 4123SOL    HW213269   3.858   4.853   4.165
 4124SOL     OW13270   6.757   6.224   0.984
 4124SOL    HW113271   6.737   6.322   0.972
 4124SOL    HW213272   6.811   6.212   1.068
 4125SOL     OW13273   5.033   2.567   2.568
 4125SOL    HW113274   4.958   2.595   2.508
 4125SOL    HW213275   5.000   2.568   2.663
 4126SOL     OW13276   1.380   2.786   2.000
 4126SOL    HW113277   1.310   2.793   2.070
 4126SOL    HW213278   1.350   2.724   1.928
 4127SOL     OW13279   3.934   2.166   4.091
 4127SOL    HW113280   3.993   2.152   4.011
 4127SOL    HW213281   3.991   2.187   4.170
 4128SOL     OW13282   0.458   2.956   1.774
 4128SOL    HW113283   0.410   3.042   1.792
 4128SOL    HW213284   0.488   2.916   1.860
 4129SOL     OW13285   3.530   2.570   0.780
 4129SOL    HW113286   3.434   2.568   0.808
 4129SOL    HW213287   3.557   2.664   0.759
 4130SOL     OW13288   6.341   2.848   1.136
 4130SOL    HW113289   6.437   2.844   1.164
 4130SOL    HW213290   6.304   2.937   1.160
 4131SOL     OW13291   5.892   0.568   2.651
 4131SOL    HW113292   5.935   0.551   2.562
 4131SOL    HW213293   5.830   0.493   2.673
 4132SOL     OW13294   6.422   4.328   4.431
 4132SOL    HW113295   6.428   4.228   4.433
 4132SOL    HW213296   6.513   4.366   4.415
 4133SOL     OW13297   5.438   6.328   1.318
 4133SOL    HW113298   5.419   6.231   1.327
 4133SOL    HW213299   5.382   6.367   1.245
 4134SOL     OW13300   2.385   3.802   1.433
 4134SOL    HW113301   2.341   3.714   1.455
 4134SOL    HW213302   2.468   3.786   1.381
 4135SOL     OW13303   0.527   2.038   2.116
 4135SOL    HW113304   0.626   2.039   2.129
 4135SOL    HW213305   0.506   1.995   2.029
 4136SOL     OW13306   0.449   3.845   1.148
 4136SOL    HW113307   0.468   3.929   1.198
 4136SOL    HW213308   0.529   3.786   1.149
 4137SOL     OW13309   1.944   2.712   0.606
 4137SOL    HW113310   1.962   2.771   0.527
 4137SOL    HW213311   1.934   2.768   0.688
 4138SOL     OW13312   4.306   5.447   0.855
 4138SOL    HW113313   4.368   5.501   0.798
 4138SOL    HW213314   4.289   5.359   0.811
 4139SOL     OW13315   1.482   2.163   3.125
 4139SOL    HW113316   1.543   2.145   3.203
 4139SOL    HW213317   1.459   2.076   3.081
 4140SOL     OW13318   2.940   2.217   4.043
 4140SOL    HW113319   2.935   2.210   3.943
 4140SOL    HW213320   2.862   2.269   4.076
 4141SOL     OW13321   4.511   6.922   6.714
 4141SOL    HW113322   4.442   6.986   6.680
 4141SOL    HW213323   4.589   6.973   6.750
 4142SOL     OW13324   6.403   3.970   1.845
 4142SOL    HW113325   6.361   4.051   1.803
 4142SOL    HW213326   6.386   3.971   1.944
 4143SOL     OW13327   5.932   3.380   0.590
 4143SOL    HW113328   5.976   3.469   0.575
 4143SOL    HW213329   5.974   3.335   0.669
 4144SOL     OW13330   5.242   1.460   0.993
 4144SOL    HW113331   5.164   1.491   0.939
 4144SOL    HW213332   5.324   1.509   0.963
 4145SOL     OW13333   0.880   6.111   0.895
 4145SOL    HW113334   0.875   6.011   0.893
 4145SOL    HW213335   0.795   6.149   0.860
 4146SOL     OW13336   5.903   6.711   3.988
 4146SOL    HW113337   5.971   6.737   4.057
 4146SOL    HW213338   5.918   6.766   3.906
 4147SOL     OW13339   5.533   4.550   5.836
 4147SOL    HW113340   5.622   4.511   5.814
 4147SOL    HW213341   5.545   4.633   5.890
 4148SOL     OW13342   3.149   6.964   5.739
 4148SOL    HW113343   3.104   6.999   5.820
 4148SOL    HW213344   3.226   6.906   5.766
 4149SOL     OW13345   1.467   2.887   1.227
 4149SOL    HW113346   1.496   2.865   1.135
 4149SOL    HW213347   1.435   2.981   1.231
 4150SOL     OW13348   6.304   3.064   5.647
 4150SOL    HW113349   6.297   2.967   5.670
 4150SOL    HW213350   6.372   3.107   5.707
 4151SOL     OW13351   2.251   7.015   4.667
 4151SOL    HW113352   2.309   0.015   4.588
 4151SOL    HW213353   2.242   0.073   4.725
 4152SOL     OW13354   3.772   5.386   2.046
 4152SOL    HW113355   3.733   5.455   1.985
 4152SOL    HW213356   3.717   5.302   2.041
 4153SOL     OW13357   6.339   4.860   1.303
 4153SOL    HW113358   6.300   4.809   1.226
 4153SOL    HW213359   6.424   4.905   1.273
 4154SOL     OW13360   0.106   5.812   3.378
 4154SOL    HW113361   0.033   5.746   3.396
 4154SOL    HW213362   0.072   5.885   3.319
 4155SOL     OW13363   6.752   1.872   1.465
 4155SOL    HW113364   6.766   1.796   1.401
 4155SOL    HW213365   6.740   1.957   1.414
 4156SOL     OW13366   6.810   5.074   5.170
 4156SOL    HW113367   6.850   5.143   5.230
 4156SOL    HW213368   6.729   5.036   5.213
 4157SOL     OW13369   6.373   6.455   2.452
 4157SOL    HW113370   6.378   6.428   2.548
 4157SOL    HW213371   6.279   6.485   2.432
 4158SOL     OW13372   2.095   2.328   1.310
 4158SOL    HW113373   2.108   2.378   1.395
 4158SOL    HW213374   2.153   2.246   1.310
 4159SOL     OW13375   2.873   1.980   2.717
 4159SOL    HW113376   2.799   1.913   2.716
 4159SOL    HW213377   2.836   2.072   2.719
 4160SOL     OW13378   6.290   0.110   6.708
 4160SOL    HW113379   6.200   0.125   6.748
 4160SOL    HW213380   6.346   0.191   6.721
 4161SOL     OW13381   1.910   2.008   1.134
 4161SOL    HW113382   1.841   1.977   1.069
 4161SOL    HW213383   1.928   2.105   1.122
 4162SOL     OW13384   6.548   5.675   1.046
 4162SOL    HW113385   6.582   5.683   1.140
 4162SOL    HW213386   6.580   5.589   1.006
 4163SOL     OW13387   5.658   0.925   2.787
 4163SOL    HW113388   5.650   1.024   2.796
 4163SOL    HW213389   5.622   0.896   2.699
 4164SOL     OW13390   0.145   6.827   5.561
 4164SOL    HW113391   0.231   6.778   5.576
 4164SOL    HW213392   0.105   6.853   5.649
 4165SOL     OW13393   4.252   0.094   5.984
 4165SOL    HW113394   4.237   0.059   6.076
 4165SOL    HW213395   4.217   0.187   5.977
 4166SOL     OW13396   6.562   0.952   1.866
 4166SOL    HW113397   6.544   0.979   1.961
 4166SOL    HW213398   6.479   0.913   1.827
 4167SOL     OW13399   2.419   4.543   5.864
 4167SOL    HW113400   2.466   4.515   5.948
 4167SOL    HW213401   2.482   4.596   5.807
 4168SOL     OW13402   0.208   4.372   0.371
 4168SOL    HW113403   0.161   4.460   0.367
 4168SOL    HW213404   0.200   4.326   0.282
 4169SOL     OW13405   5.884   4.368   5.364
 4169SOL    HW113406   5.789   4.343   5.345
 4169SOL    HW213407   5.888   4.466   5.383
 4170SOL     OW13408   4.843   3.186   4.622
 4170SOL    HW113409   4.874   3.109   4.567
 4170SOL    HW213410   4.815   3.261   4.561
 4171SOL     OW13411   1.218   4.723   1.362
 4171SOL    HW113412   1.182   4.697   1.451
 4171SOL    HW213413   1.239   4.640   1.309
 4172SOL     OW13414   2.771   3.358   0.773
 4172SOL    HW113415   2.832   3.402   0.707
 4172SOL    HW213416   2.773   3.259   0.760
 4173SOL     OW13417   4.516   2.892   5.622
 4173SOL    HW113418   4.550   2.803   5.649
 4173SOL    HW213419   4.423   2.905   5.657
 4174SOL     OW13420   4.749   0.509   2.918
 4174SOL    HW113421   4.728   0.548   2.828
 4174SOL    HW213422   4.711   0.568   2.990
 4175SOL     OW13423   1.550   4.674   5.618
 4175SOL    HW113424   1.572   4.765   5.582
 4175SOL    HW213425   1.536   4.681   5.717
 4176SOL     OW13426   4.752   6.210   0.909
 4176SOL    HW113427   4.725   6.303   0.883
 4176SOL    HW213428   4.786   6.210   1.002
 4177SOL     OW13429   5.459   4.791   4.682
 4177SOL    HW113430   5.460   4.883   4.722
 4177SOL    HW213431   5.527   4.733   4.727
 4178SOL     OW13432   4.564   6.795   2.767
 4178SOL    HW113433   4.594   6.753   2.853
 4178SOL    HW213434   4.480   6.847   2.784
 4179SOL     OW13435   5.508   4.013   3.692
 4179SOL    HW113436   5.494   4.094   3.749
 4179SOL    HW213437   5.426   3.995   3.639
 4180SOL     OW13438   5.379   3.431   0.849
 4180SOL    HW113439   5.376   3.521   0.805
 4180SOL    HW213440   5.348   3.361   0.784
 4181SOL     OW13441   5.139   0.713   6.735
 4181SOL    HW113442   5.210   0.676   6.795
 4181SOL    HW213443   5.181   0.765   6.661
 4182SOL     OW13444   0.294   5.233   3.708
 4182SOL    HW113445   0.364   5.192   3.649
 4182SOL    HW213446   0.310   5.331   3.715
 4183SOL     OW13447   2.456   0.519   0.857
 4183SOL    HW113448   2.461   0.487   0.762
 4183SOL    HW213449   2.546   0.554   0.885
 4184SOL     OW13450   3.825   6.958   2.081
 4184SOL    HW113451   3.924   6.963   2.075
 4184SOL    HW213452   3.787   0.028   2.085
 4185SOL     OW13453   0.527   4.178   3.057
 4185SOL    HW113454   0.483   4.198   2.969
 4185SOL    HW213455   0.564   4.263   3.095
 4186SOL     OW13456   2.247   5.650   6.459
 4186SOL    HW113457   2.340   5.614   6.449
 4186SOL    HW213458   2.186   5.604   6.393
 4187SOL     OW13459   2.723   3.514   0.164
 4187SOL    HW113460   2.795   3.565   0.117
 4187SOL    HW213461   2.689   3.568   0.241
 4188SOL     OW13462   5.446   0.052   5.239
 4188SOL    HW113463   5.402   0.047   5.329
 4188SOL    HW213464   5.437   0.145   5.203
 4189SOL     OW13465   3.701   4.972   3.582
 4189SOL    HW113466   3.709   4.960   3.681
 4189SOL    HW213467   3.694   5.069   3.560
 4190SOL     OW13468   0.457   6.692   0.942
 4190SOL    HW113469   0.506   6.727   1.022
 4190SOL    HW213470   0.359   6.699   0.957
 4191SOL     OW13471   5.422   4.211   5.741
 4191SOL    HW113472   5.492   4.189   5.809
 4191SOL    HW213473   5.452   4.182   5.651
 4192SOL     OW13474   1.605   1.143   1.539
 4192SOL    HW113475   1.555   1.228   1.525
 4192SOL    HW213476   1.676   1.157   1.608
 4193SOL     OW13477   5.417   0.447   0.241
 4193SOL    HW113478   5.319   0.462   0.251
 4193SOL    HW213479   5.466   0.533   0.253
 4194SOL     OW13480   4.809   6.821   4.474
 4194SOL    HW113481   4.770   6.754   4.537
 4194SOL    HW213482   4.863   6.888   4.526
 4195SOL     OW13483   4.167   5.794   1.757
 4195SOL    HW113484   4.105   5.764   1.684
 4195SOL    HW213485   4.186   5.717   1.817
 4196SOL     OW13486   0.233   2.649   3.237
 4196SOL    HW113487   0.176   2.572   3.207
 4196SOL    HW213488   0.328   2.619   3.245
 4197SOL     OW13489   4.166   5.584   5.656
 4197SOL    HW113490   4.144   5.651   5.585
 4197SOL    HW213491   4.232   5.624   5.720
 4198SOL     OW13492   6.768   1.584   2.364
 4198SOL    HW113493   6.719   1.664   2.400
 4198SOL    HW213494   6.717   1.501   2.385
 4199SOL     OW13495   1.067   2.614   5.318
 4199SOL    HW113496   1.008   2.678   5.367
 4199SOL    HW213497   1.067   2.636   5.221
 4200SOL     OW13498   3.011   0.384   5.748
 4200SOL    HW113499   2.926   0.379   5.695
 4200SOL    HW213500   3.068   0.305   5.726
 4201SOL     OW13501   6.264   6.764   3.020
 4201SOL    HW113502   6.281   6.858   2.992
 4201SOL    HW213503   6.177   6.733   2.983
 4202SOL     OW13504   3.008   5.558   6.735
 4202SOL    HW113505   2.939   5.485   6.731
 4202SOL    HW213506   3.088   5.531   6.682
 4203SOL     OW13507   4.983   4.482   0.080
 4203SOL    HW113508   5.043   4.408   0.110
 4203SOL    HW213509   4.889   4.461   0.104
 4204SOL     OW13510   3.988   3.378   5.444
 4204SOL    HW113511   4.027   3.460   5.402
 4204SOL    HW213512   3.995   3.385   5.544
 4205SOL     OW13513   3.932   5.759   4.757
 4205SOL    HW113514   3.842   5.781   4.796
 4205SOL    HW213515   3.994   5.836   4.770
 4206SOL     OW13516   6.577   1.921   4.728
 4206SOL    HW113517   6.640   1.862   4.677
 4206SOL    HW213518   6.498   1.867   4.759
 4207SOL     OW13519   2.301   2.862   1.497
 4207SOL    HW113520   2.309   2.865   1.597
 4207SOL    HW213521   2.208   2.836   1.472
 4208SOL     OW13522   0.493   3.970   6.071
 4208SOL    HW113523   0.485   3.871   6.062
 4208SOL    HW213524   0.478   4.013   5.982
 4209SOL     OW13525   6.640   6.262   2.659
 4209SOL    HW113526   6.658   6.198   2.734
 4209SOL    HW213527   6.622   6.353   2.696
 4210SOL     OW13528   4.126   3.523   2.977
 4210SOL    HW113529   4.209   3.517   3.032
 4210SOL    HW213530   4.103   3.619   2.961
 4211SOL     OW13531   3.612   1.802   5.525
 4211SOL    HW113532   3.602   1.800   5.624
 4211SOL    HW213533   3.546   1.868   5.486
 4212SOL     OW13534   6.725   1.775   3.667
 4212SOL    HW113535   6.688   1.859   3.629
 4212SOL    HW213536   6.760   1.718   3.592
 4213SOL     OW13537   2.705   6.861   3.060
 4213SOL    HW113538   2.663   6.786   3.111
 4213SOL    HW213539   2.633   6.913   3.013
 4214SOL     OW13540   0.325   5.885   4.808
 4214SOL    HW113541   0.252   5.834   4.763
 4214SOL    HW213542   0.344   5.844   4.897
 4215SOL     OW13543   4.852   6.842   5.297
 4215SOL    HW113544   4.857   6.746   5.323
 4215SOL    HW213545   4.890   6.855   5.206
 4216SOL     OW13546   1.345   0.920   2.039
 4216SOL    HW113547   1.347   0.886   2.133
 4216SOL    HW213548   1.437   0.949   2.012
 4217SOL     OW13549   1.222   0.678   2.009
 4217SOL    HW113550   1.165   0.644   1.934
 4217SOL    HW213551   1.259   0.768   1.985
 4218SOL     OW13552   3.629   0.318   1.289
 4218SOL    HW113553   3.606   0.273   1.375
 4218SOL    HW213554   3.551   0.311   1.226
 4219SOL     OW13555   4.658   6.104   4.176
 4219SOL    HW113556   4.670   6.009   4.147
 4219SOL    HW213557   4.746   6.152   4.171
 4220SOL     OW13558   5.798   3.589   2.436
 4220SOL    HW113559   5.737   3.529   2.489
 4220SOL    HW213560   5.800   3.559   2.341
 4221SOL     OW13561   6.219   4.464   5.999
 4221SOL    HW113562   6.302   4.410   5.986
 4221SOL    HW213563   6.142   4.402   6.015
 4222SOL     OW13564   6.500   0.820   3.131
 4222SOL    HW113565   6.511   0.792   3.227
 4222SOL    HW213566   6.581   0.794   3.079
 4223SOL     OW13567   4.194   3.491   0.729
 4223SOL    HW113568   4.175   3.446   0.642
 4223SOL    HW213569   4.290   3.478   0.753
 4224SOL     OW13570   5.409   5.051   4.835
 4224SOL    HW113571   5.394   5.034   4.933
 4224SOL    HW213572   5.328   5.094   4.796
 4225SOL     OW13573   1.809   2.367   5.229
 4225SOL    HW113574   1.897   2.348   5.186
 4225SOL    HW213575   1.815   2.452   5.280
 4226SOL     OW13576   1.148   5.657   3.675
 4226SOL    HW113577   1.176   5.739   3.724
 4226SOL    HW213578   1.182   5.576   3.723
 4227SOL     OW13579   4.747   6.148   1.881
 4227SOL    HW113580   4.832   6.110   1.919
 4227SOL    HW213581   4.668   6.109   1.928
 4228SOL     OW13582   0.061   6.309   5.682
 4228SOL    HW113583   0.007   6.392   5.690
 4228SOL    HW213584   0.037   6.261   5.597
 4229SOL     OW13585   4.384   5.397   5.596
 4229SOL    HW113586   4.467   5.445   5.628
 4229SOL    HW213587   4.303   5.450   5.624
 4230SOL     OW13588   1.699   6.413   3.434
 4230SOL    HW113589   1.737   6.505   3.421
 4230SOL    HW213590   1.709   6.361   3.350
 4231SOL     OW13591   5.064   0.522   5.789
 4231SOL    HW113592   5.121   0.441   5.799
 4231SOL    HW213593   4.970   0.501   5.816
 4232SOL     OW13594   1.618   4.459   3.723
 4232SOL    HW113595   1.661   4.521   3.788
 4232SOL    HW213596   1.620   4.498   3.632
 4233SOL     OW13597   6.934   1.390   4.820
 4233SOL    HW113598   6.994   1.440   4.758
 4233SOL    HW213599   6.970   1.297   4.832
 4234SOL     OW13600   2.305   5.312   5.201
 4234SOL    HW113601   2.269   5.404   5.188
 4234SOL    HW213602   2.321   5.270   5.111
 4235SOL     OW13603   0.228   4.590   5.903
 4235SOL    HW113604   0.289   4.511   5.904
 4235SOL    HW213605   0.133   4.558   5.910
 4236SOL     OW13606   6.424   4.211   1.999
 4236SOL    HW113607   6.482   4.275   1.949
 4236SOL    HW213608   6.329   4.242   1.996
 4237SOL     OW13609   6.863   4.427   3.674
 4237SOL    HW113610   6.861   4.526   3.685
 4237SOL    HW213611   6.910   4.403   3.589
 4238SOL     OW13612   1.500   6.707   2.614
 4238SOL    HW113613   1.508   6.670   2.521
 4238SOL    HW213614   1.583   6.758   2.637
 4239SOL     OW13615   4.583   1.668   3.012
 4239SOL    HW113616   4.504   1.728   3.028
 4239SOL    HW213617   4.573   1.623   2.923
 4240SOL     OW13618   2.051   5.658   0.508
 4240SOL    HW113619   2.149   5.670   0.524
 4240SOL    HW213620   2.023   5.569   0.545
 4241SOL     OW13621   5.373   0.827   0.401
 4241SOL    HW113622   5.424   0.900   0.355
 4241SOL    HW213623   5.396   0.827   0.498
 4242SOL     OW13624   3.193   2.128   4.249
 4242SOL    HW113625   3.113   2.068   4.245
 4242SOL    HW213626   3.224   2.150   4.156
 4243SOL     OW13627   5.617   1.804   2.730
 4243SOL    HW113628   5.589   1.733   2.665
 4243SOL    HW213629   5.545   1.872   2.738
 4244SOL     OW13630   4.003   4.221   1.383
 4244SOL    HW113631   3.982   4.287   1.455
 4244SOL    HW213632   4.010   4.129   1.422
 4245SOL     OW13633   6.229   2.030   6.384
 4245SOL    HW113634   6.255   1.975   6.305
 4245SOL    HW213635   6.295   2.016   6.458
 4246SOL     OW13636   6.364   4.133   3.163
 4246SOL    HW113637   6.359   4.113   3.261
 4246SOL    HW213638   6.322   4.221   3.145
 4247SOL     OW13639   1.925   6.636   3.731
 4247SOL    HW113640   1.867   6.704   3.775
 4247SOL    HW213641   2.021   6.653   3.754
 4248SOL     OW13642   2.941   1.635   4.223
 4248SOL    HW113643   2.980   1.683   4.301
 4248SOL    HW213644   2.925   1.539   4.248
 4249SOL     OW13645   6.393   2.886   5.171
 4249SOL    HW113646   6.382   2.886   5.071
 4249SOL    HW213647   6.490   2.894   5.194
 4250SOL     OW13648   0.233   4.399   3.228
 4250SOL    HW113649   0.272   4.384   3.319
 4250SOL    HW213650   0.241   4.315   3.174
 4251SOL     OW13651   5.431   4.568   0.955
 4251SOL    HW113652   5.419   4.653   1.007
 4251SOL    HW213653   5.509   4.518   0.991
 4252SOL     OW13654   6.307   6.740   5.630
 4252SOL    HW113655   6.335   6.809   5.564
 4252SOL    HW213656   6.213   6.711   5.611
 4253SOL     OW13657   2.779   6.962   1.233
 4253SOL    HW113658   2.728   6.877   1.219
 4253SOL    HW213659   2.721   0.006   1.280
 4254SOL     OW13660   1.131   2.590   2.303
 4254SOL    HW113661   1.184   2.675   2.306
 4254SOL    HW213662   1.188   2.514   2.332
 4255SOL     OW13663   5.483   3.158   3.532
 4255SOL    HW113664   5.492   3.167   3.433
 4255SOL    HW213665   5.572   3.174   3.575
 4256SOL     OW13666   1.543   6.518   0.824
 4256SOL    HW113667   1.559   6.426   0.861
 4256SOL    HW213668   1.531   6.512   0.725
 4257SOL     OW13669   3.379   0.360   4.593
 4257SOL    HW113670   3.363   0.448   4.637
 4257SOL    HW213671   3.293   0.328   4.553
 4258SOL     OW13672   6.050   6.352   1.395
 4258SOL    HW113673   6.036   6.396   1.484
 4258SOL    HW213674   6.127   6.395   1.348
 4259SOL     OW13675   2.806   0.544   6.725
 4259SOL    HW113676   2.834   0.570   6.818
 4259SOL    HW213677   2.732   0.604   6.694
 4260SOL     OW13678   5.112   6.906   5.669
 4260SOL    HW113679   5.102   6.943   5.577
 4260SOL    HW213680   5.022   6.888   5.707
 4261SOL     OW13681   1.880   0.855   1.711
 4261SOL    HW113682   1.973   0.819   1.703
 4261SOL    HW213683   1.819   0.782   1.742
 4262SOL     OW13684   0.681   4.705   6.325
 4262SOL    HW113685   0.649   4.654   6.246
 4262SOL    HW213686   0.774   4.740   6.308
 4263SOL     OW13687   2.872   6.601   3.013
 4263SOL    HW113688   2.808   6.543   3.063
 4263SOL    HW213689   2.965   6.584   3.045
 4264SOL     OW13690   0.141   2.243   2.547
 4264SOL    HW113691   0.116   2.220   2.641
 4264SOL    HW213692   0.176   2.161   2.501
 4265SOL     OW13693   5.526   1.381   0.646
 4265SOL    HW113694   5.472   1.305   0.609
 4265SOL    HW213695   5.510   1.388   0.744
 4266SOL     OW13696   2.020   5.413   0.619
 4266SOL    HW113697   1.992   5.416   0.715
 4266SOL    HW213698   2.091   5.343   0.608
 4267SOL     OW13699   1.779   3.493   5.458
 4267SOL    HW113700   1.859   3.552   5.460
 4267SOL    HW213701   1.700   3.544   5.424
 4268SOL     OW13702   1.604   6.508   5.844
 4268SOL    HW113703   1.533   6.449   5.806
 4268SOL    HW213704   1.574   6.603   5.839
 4269SOL     OW13705   2.150   0.999   1.201
 4269SOL    HW113706   2.187   1.059   1.272
 4269SOL    HW213707   2.130   1.053   1.119
 4270SOL     OW13708   3.307   3.005   4.537
 4270SOL    HW113709   3.242   3.024   4.464
 4270SOL    HW213710   3.263   3.022   4.626
 4271SOL     OW13711   0.615   1.337   6.442
 4271SOL    HW113712   0.624   1.417   6.501
 4271SOL    HW213713   0.540   1.350   6.377
 4272SOL     OW13714   0.951   4.583   5.056
 4272SOL    HW113715   1.009   4.520   5.005
 4272SOL    HW213716   0.991   4.675   5.054
 4273SOL     OW13717   4.823   5.993   4.940
 4273SOL    HW113718   4.916   6.029   4.948
 4273SOL    HW213719   4.825   5.903   4.896
 4274SOL     OW13720   1.721   6.743   2.188
 4274SOL    HW113721   1.818   6.737   2.212
 4274SOL    HW213722   1.684   6.650   2.176
 4275SOL     OW13723   6.678   1.852   5.250
 4275SOL    HW113724   6.705   1.916   5.178
 4275SOL    HW213725   6.616   1.898   5.314
 4276SOL     OW13726   1.318   4.511   3.963
 4276SOL    HW113727   1.301   4.480   4.057
 4276SOL    HW213728   1.366   4.598   3.965
 4277SOL     OW13729   6.165   4.575   4.159
 4277SOL    HW113730   6.260   4.605   4.152
 4277SOL    HW213731   6.157   4.508   4.233
 4278SOL     OW13732   6.876   0.722   4.557
 4278SOL    HW113733   6.825   0.787   4.501
 4278SOL    HW213734   6.841   0.723   4.650
 4279SOL     OW13735   3.565   0.059   5.713
 4279SOL    HW113736   3.507   7.002   5.694
 4279SOL    HW213737   3.507   0.141   5.717
 4280SOL     OW13738   5.021   1.064   5.154
 4280SOL    HW113739   5.016   1.045   5.252
 4280SOL    HW213740   5.071   0.991   5.108
 4281SOL     OW13741   2.376   4.764   4.569
 4281SOL    HW113742   2.433   4.684   4.591
 4281SOL    HW213743   2.365   4.820   4.651
 4282SOL     OW13744   3.100   2.527   0.671
 4282SOL    HW113745   3.187   2.488   0.640
 4282SOL    HW213746   3.051   2.565   0.592
 4283SOL     OW13747   1.961   1.058   3.658
 4283SOL    HW113748   1.864   1.045   3.673
 4283SOL    HW213749   2.013   1.023   3.736
 4284SOL     OW13750   4.803   5.843   1.830
 4284SOL    HW113751   4.822   5.797   1.743
 4284SOL    HW213752   4.749   5.925   1.812
 4285SOL     OW13753   0.639   0.558   5.676
 4285SOL    HW113754   0.555   0.612   5.665
 4285SOL    HW213755   0.697   0.601   5.746
 4286SOL     OW13756   5.053   5.921   6.683
 4286SOL    HW113757   5.137   5.867   6.674
 4286SOL    HW213758   4.974   5.860   6.680
 4287SOL     OW13759   5.552   1.207   6.195
 4287SOL    HW113760   5.472   1.192   6.253
 4287SOL    HW213761   5.561   1.131   6.131
 4288SOL     OW13762   1.039   5.862   3.361
 4288SOL    HW113763   0.956   5.820   3.325
 4288SOL    HW213764   1.108   5.791   3.377
 4289SOL     OW13765   6.174   3.283   1.033
 4289SOL    HW113766   6.190   3.195   1.078
 4289SOL    HW213767   6.215   3.356   1.087
 4290SOL     OW13768   3.009   6.467   2.327
 4290SOL    HW113769   3.057   6.520   2.258
 4290SOL    HW213770   3.028   6.369   2.313
 4291SOL     OW13771   4.521   3.661   1.684
 4291SOL    HW113772   4.476   3.749   1.702
 4291SOL    HW213773   4.456   3.598   1.643
 4292SOL     OW13774   6.558   4.494   6.100
 4292SOL    HW113775   6.550   4.592   6.082
 4292SOL    HW213776   6.581   4.479   6.196
 4293SOL     OW13777   0.256   2.984   0.412
 4293SOL    HW113778   0.272   3.075   0.449
 4293SOL    HW213779   0.341   2.947   0.375
 4294SOL     OW13780   3.406   2.809   0.219
 4294SOL    HW113781   3.393   2.893   0.271
 4294SOL    HW213782   3.328   2.795   0.157
 4295SOL     OW13783   3.859   6.214   4.818
 4295SOL    HW113784   3.932   6.147   4.805
 4295SOL    HW213785   3.775   6.181   4.777
 4296SOL     OW13786   3.728   1.158   0.283
 4296SOL    HW113787   3.631   1.162   0.259
 4296SOL    HW213788   3.780   1.125   0.205
 4297SOL     OW13789   5.324   0.639   6.059
 4297SOL    HW113790   5.328   0.565   5.992
 4297SOL    HW213791   5.239   0.634   6.110
 4298SOL     OW13792   2.879   5.324   6.326
 4298SOL    HW113793   2.950   5.276   6.377
 4298SOL    HW213794   2.904   5.330   6.229
 4299SOL     OW13795   0.413   3.057   0.107
 4299SOL    HW113796   0.314   3.067   0.110
 4299SOL    HW213797   0.437   2.960   0.098
 4300SOL     OW13798   3.879   1.089   0.064
 4300SOL    HW113799   3.909   1.011   0.009
 4300SOL    HW213800   3.816   1.145   0.010
 4301SOL     OW13801   3.054   1.236   0.645
 4301SOL    HW113802   3.051   1.211   0.548
 4301SOL    HW213803   3.048   1.335   0.654
 4302SOL     OW13804   0.861   6.671   5.432
 4302SOL    HW113805   0.811   6.757   5.421
 4302SOL    HW213806   0.813   6.597   5.386
 4303SOL     OW13807   5.995   4.809   3.916
 4303SOL    HW113808   5.940   4.877   3.965
 4303SOL    HW213809   6.091   4.839   3.914
 4304SOL     OW13810   3.047   3.451   4.249
 4304SOL    HW113811   3.012   3.510   4.176
 4304SOL    HW213812   3.022   3.488   4.338
 4305SOL     OW13813   5.881   1.288   4.107
 4305SOL    HW113814   5.852   1.197   4.138
 4305SOL    HW213815   5.802   1.337   4.070
 4306SOL     OW13816   6.571   3.620   6.736
 4306SOL    HW113817   6.528   3.602   6.824
 4306SOL    HW213818   6.529   3.702   6.695
 4307SOL     OW13819   5.126   3.885   6.186
 4307SOL    HW113820   5.213   3.934   6.195
 4307SOL    HW213821   5.133   3.819   6.111
 4308SOL     OW13822   5.640   5.419   6.518
 4308SOL    HW113823   5.665   5.513   6.495
 4308SOL    HW213824   5.722   5.363   6.525
 4309SOL     OW13825   1.268   0.889   0.527
 4309SOL    HW113826   1.274   0.930   0.618
 4309SOL    HW213827   1.191   0.825   0.525
 4310SOL     OW13828   2.238   2.468   3.092
 4310SOL    HW113829   2.176   2.546   3.084
 4310SOL    HW213830   2.251   2.426   3.003
 4311SOL     OW13831   1.430   5.771   3.265
 4311SOL    HW113832   1.416   5.766   3.364
 4311SOL    HW213833   1.527   5.780   3.245
 4312SOL     OW13834   1.363   5.321   1.071
 4312SOL    HW113835   1.434   5.388   1.048
 4312SOL    HW213836   1.406   5.232   1.085
 4313SOL     OW13837   5.148   1.289   1.712
 4313SOL    HW113838   5.059   1.276   1.756
 4313SOL    HW213839   5.190   1.373   1.747
 4314SOL     OW13840   5.971   1.893   4.057
 4314SOL    HW113841   5.903   1.844   4.002
 4314SOL    HW213842   5.943   1.989   4.066
 4315SOL     OW13843   2.674   0.525   1.948
 4315SOL    HW113844   2.587   0.478   1.955
 4315SOL    HW213845   2.711   0.542   2.039
 4316SOL     OW13846   5.290   0.113   0.917
 4316SOL    HW113847   5.351   0.034   0.930
 4316SOL    HW213848   5.262   0.148   1.006
 4317SOL     OW13849   3.922   1.226   4.554
 4317SOL    HW113850   3.992   1.298   4.562
 4317SOL    HW213851   3.966   1.141   4.523
 4318SOL     OW13852   1.291   2.990   3.465
 4318SOL    HW113853   1.294   2.942   3.553
 4318SOL    HW213854   1.348   3.072   3.470
 4319SOL     OW13855   2.224   3.214   0.481
 4319SOL    HW113856   2.126   3.199   0.495
 4319SOL    HW213857   2.244   3.209   0.383
 4320SOL     OW13858   0.378   5.951   1.828
 4320SOL    HW113859   0.344   6.045   1.828
 4320SOL    HW213860   0.314   5.892   1.877
 4321SOL     OW13861   6.779   0.171   4.117
 4321SOL    HW113862   6.754   0.081   4.152
 4321SOL    HW213863   6.874   0.169   4.085
 4322SOL     OW13864   5.973   2.058   6.329
 4322SOL    HW113865   6.073   2.064   6.336
 4322SOL    HW213866   5.934   2.043   6.419
 4323SOL     OW13867   5.135   4.015   1.310
 4323SOL    HW113868   5.087   3.988   1.227
 4323SOL    HW213869   5.234   4.011   1.294
 4324SOL     OW13870   6.000   4.142   6.394
 4324SOL    HW113871   5.987   4.136   6.493
 4324SOL    HW213872   5.931   4.203   6.355
 4325SOL     OW13873   1.868   0.568   0.464
 4325SOL    HW113874   1.890   0.472   0.482
 4325SOL    HW213875   1.860   0.582   0.365
 4326SOL     OW13876   5.786   2.891   4.777
 4326SOL    HW113877   5.786   2.990   4.759
 4326SOL    HW213878   5.868   2.850   4.737
 4327SOL     OW13879   5.668   5.194   2.269
 4327SOL    HW113880   5.570   5.180   2.282
 4327SOL    HW213881   5.697   5.273   2.322
 4328SOL     OW13882   4.160   3.764   5.826
 4328SOL    HW113883   4.193   3.847   5.780
 4328SOL    HW213884   4.099   3.713   5.764
 4329SOL     OW13885   3.865   1.502   6.535
 4329SOL    HW113886   3.846   1.597   6.561
 4329SOL    HW213887   3.858   1.493   6.436
 4330SOL     OW13888   2.757   0.389   5.038
 4330SOL    HW113889   2.808   0.314   5.080
 4330SOL    HW213890   2.777   0.475   5.085
 4331SOL     OW13891   4.464   3.144   0.885
 4331SOL    HW113892   4.497   3.053   0.861
 4331SOL    HW213893   4.439   3.146   0.982
 4332SOL     OW13894   5.219   4.776   2.053
 4332SOL    HW113895   5.254   4.682   2.050
 4332SOL    HW213896   5.176   4.792   2.142
 4333SOL     OW13897   4.524   0.768   5.563
 4333SOL    HW113898   4.581   0.847   5.585
 4333SOL    HW213899   4.569   0.685   5.595
 4334SOL     OW13900   1.925   2.072   2.648
 4334SOL    HW113901   1.840   2.110   2.611
 4334SOL    HW213902   2.001   2.095   2.587
 4335SOL     OW13903   3.158   3.963   3.504
 4335SOL    HW113904   3.094   3.891   3.531
 4335SOL    HW213905   3.180   4.019   3.584
 4336SOL     OW13906   1.239   6.785   5.636
 4336SOL    HW113907   1.175   6.712   5.659
 4336SOL    HW213908   1.292   6.759   5.555
 4337SOL     OW13909   1.165   4.402   0.473
 4337SOL    HW113910   1.225   4.385   0.552
 4337SOL    HW213911   1.145   4.499   0.467
 4338SOL     OW13912   5.158   5.682   4.311
 4338SOL    HW113913   5.094   5.705   4.238
 4338SOL    HW213914   5.248   5.718   4.289
 4339SOL     OW13915   6.166   3.918   5.034
 4339SOL    HW113916   6.227   3.963   4.969
 4339SOL    HW213917   6.089   3.878   4.985
 4340SOL     OW13918   6.010   4.483   2.555
 4340SOL    HW113919   6.017   4.385   2.573
 4340SOL    HW213920   6.090   4.529   2.594
 4341SOL     OW13921   0.824   5.450   2.107
 4341SOL    HW113922   0.787   5.510   2.036
 4341SOL    HW213923   0.749   5.408   2.158
 4342SOL     OW13924   6.810   3.932   3.903
 4342SOL    HW113925   6.859   4.001   3.851
 4342SOL    HW213926   6.808   3.846   3.852
 4343SOL     OW13927   2.526   6.433   5.863
 4343SOL    HW113928   2.539   6.520   5.909
 4343SOL    HW213929   2.582   6.363   5.908
 4344SOL     OW13930   1.952   5.243   3.094
 4344SOL    HW113931   2.036   5.278   3.136
 4344SOL    HW213932   1.879   5.239   3.162
 4345SOL     OW13933   1.802   3.008   5.522
 4345SOL    HW113934   1.750   3.037   5.441
 4345SOL    HW213935   1.884   2.959   5.493
 4346SOL     OW13936   1.939   2.998   1.840
 4346SOL    HW113937   1.993   3.018   1.923
 4346SOL    HW213938   1.942   3.077   1.779
 4347SOL     OW13939   5.844   6.984   2.774
 4347SOL    HW113940   5.825   7.004   2.679
 4347SOL    HW213941   5.884   0.042   2.818
 4348SOL     OW13942   0.404   3.438   2.396
 4348SOL    HW113943   0.355   3.351   2.400
 4348SOL    HW213944   0.364   3.496   2.325
 4349SOL     OW13945   6.596   2.017   2.504
 4349SOL    HW113946   6.578   1.919   2.514
 4349SOL    HW213947   6.640   2.051   2.588
 4350SOL     OW13948   5.042   2.500   4.176
 4350SOL    HW113949   5.033   2.445   4.259
 4350SOL    HW213950   5.137   2.530   4.167
 4351SOL     OW13951   1.850   6.511   0.981
 4351SOL    HW113952   1.779   6.440   0.974
 4351SOL    HW213953   1.939   6.468   0.992
 4352SOL     OW13954   1.241   2.106   2.220
 4352SOL    HW113955   1.228   2.031   2.284
 4352SOL    HW213956   1.293   2.179   2.264
 4353SOL     OW13957   3.442   4.490   0.293
 4353SOL    HW113958   3.477   4.476   0.386
 4353SOL    HW213959   3.507   4.450   0.228
 4354SOL     OW13960   2.555   6.629   5.128
 4354SOL    HW113961   2.613   6.569   5.183
 4354SOL    HW213962   2.482   6.666   5.185
 4355SOL     OW13963   3.221   0.738   2.322
 4355SOL    HW113964   3.217   0.835   2.343
 4355SOL    HW213965   3.170   0.718   2.239
 4356SOL     OW13966   4.621   4.144   1.628
 4356SOL    HW113967   4.558   4.148   1.706
 4356SOL    HW213968   4.715   4.158   1.660
 4357SOL     OW13969   5.981   0.515   6.848
 4357SOL    HW113970   6.015   0.444   6.785
 4357SOL    HW213971   5.918   0.575   6.799
 4358SOL     OW13972   6.888   5.648   0.454
 4358SOL    HW113973   6.880   5.705   0.373
 4358SOL    HW213974   6.901   5.552   0.426
 4359SOL     OW13975   1.342   1.984   5.598
 4359SOL    HW113976   1.271   1.931   5.643
 4359SOL    HW213977   1.324   1.987   5.499
 4360SOL     OW13978   1.474   2.725   2.834
 4360SOL    HW113979   1.460   2.822   2.854
 4360SOL    HW213980   1.569   2.709   2.809
 4361SOL     OW13981   2.872   3.007   1.716
 4361SOL    HW113982   2.895   3.081   1.653
 4361SOL    HW213983   2.955   2.973   1.760
 4362SOL     OW13984   6.238   3.886   3.761
 4362SOL    HW113985   6.140   3.902   3.746
 4362SOL    HW213986   6.291   3.961   3.721
 4363SOL     OW13987   5.717   2.651   6.929
 4363SOL    HW113988   5.741   2.733   6.981
 4363SOL    HW213989   5.644   2.673   6.864
 4364SOL     OW13990   3.257   3.656   5.304
 4364SOL    HW113991   3.246   3.644   5.205
 4364SOL    HW213992   3.167   3.670   5.346
 4365SOL     OW13993   2.069   2.626   1.971
 4365SOL    HW113994   2.009   2.608   2.049
 4365SOL    HW213995   2.035   2.576   1.891
 4366SOL     OW13996   5.731   6.240   0.288
 4366SOL    HW113997   5.741   6.182   0.206
 4366SOL    HW213998   5.640   6.225   0.328
 4367SOL     OW13999   1.929   5.068   5.092
 4367SOL    HW114000   1.965   4.986   5.137
 4367SOL    HW214001   1.933   5.145   5.157
 4368SOL     OW14002   3.750   5.201   1.519
 4368SOL    HW114003   3.748   5.110   1.560
 4368SOL    HW214004   3.832   5.249   1.550
 4369SOL     OW14005   3.885   5.496   3.354
 4369SOL    HW114006   3.832   5.447   3.422
 4369SOL    HW214007   3.913   5.585   3.391
 4370SOL     OW14008   4.807   4.587   2.934
 4370SOL    HW114009   4.880   4.564   2.998
 4370SOL    HW214010   4.726   4.532   2.955
 4371SOL     OW14011   6.728   0.922   1.186
 4371SOL    HW114012   6.668   0.895   1.111
 4371SOL    HW214013   6.714   1.018   1.208
 4372SOL     OW14014   4.543   1.045   3.408
 4372SOL    HW114015   4.459   1.044   3.353
 4372SOL    HW214016   4.620   1.017   3.351
 4373SOL     OW14017   0.262   2.310   6.330
 4373SOL    HW114018   0.303   2.394   6.366
 4373SOL    HW214019   0.204   2.269   6.400
 4374SOL     OW14020   0.818   1.648   1.814
 4374SOL    HW114021   0.773   1.737   1.814
 4374SOL    HW214022   0.874   1.639   1.731
 4375SOL     OW14023   3.354   0.276   4.017
 4375SOL    HW114024   3.349   0.372   4.045
 4375SOL    HW214025   3.450   0.249   4.009
 4376SOL     OW14026   6.712   6.551   3.132
 4376SOL    HW114027   6.656   6.612   3.076
 4376SOL    HW214028   6.720   6.588   3.225
 4377SOL     OW14029   5.743   4.021   6.928
 4377SOL    HW114030   5.735   4.118   6.954
 4377SOL    HW214031   5.651   3.981   6.924
 4378SOL     OW14032   1.836   1.433   2.631
 4378SOL    HW114033   1.856   1.529   2.611
 4378SOL    HW214034   1.914   1.377   2.602
 4379SOL     OW14035   2.162   1.128   2.896
 4379SOL    HW114036   2.162   1.031   2.920
 4379SOL    HW214037   2.246   1.170   2.929
 4380SOL     OW14038   1.597   0.094   2.238
 4380SOL    HW114039   1.694   0.080   2.217
 4380SOL    HW214040   1.559   0.165   2.179
 4381SOL     OW14041   0.501   6.195   5.120
 4381SOL    HW114042   0.520   6.257   5.044
 4381SOL    HW214043   0.426   6.133   5.095
 4382SOL     OW14044   0.596   3.489   5.763
 4382SOL    HW114045   0.582   3.580   5.803
 4382SOL    HW214046   0.513   3.462   5.713
 4383SOL     OW14047   0.142   3.670   6.143
 4383SOL    HW114048   0.102   3.678   6.052
 4383SOL    HW214049   0.180   3.758   6.172
 4384SOL     OW14050   6.074   0.620   4.230
 4384SOL    HW114051   6.085   0.698   4.168
 4384SOL    HW214052   6.140   0.549   4.205
 4385SOL     OW14053   4.659   2.473   5.108
 4385SOL    HW114054   4.723   2.419   5.163
 4385SOL    HW214055   4.710   2.538   5.053
 4386SOL     OW14056   1.660   3.885   5.245
 4386SOL    HW114057   1.674   3.792   5.209
 4386SOL    HW214058   1.566   3.913   5.228
 4387SOL     OW14059   6.728   1.954   1.721
 4387SOL    HW114060   6.656   1.900   1.764
 4387SOL    HW214061   6.735   1.930   1.624
 4388SOL     OW14062   3.852   2.105   6.065
 4388SOL    HW114063   3.939   2.141   6.100
 4388SOL    HW214064   3.870   2.045   5.987
 4389SOL     OW14065   6.867   3.921   0.572
 4389SOL    HW114066   6.897   3.951   0.662
 4389SOL    HW214067   6.945   3.918   0.509
 4390SOL     OW14068   4.391   7.012   1.605
 4390SOL    HW114069   4.354   0.056   1.670
 4390SOL    HW214070   4.486   6.992   1.628
 4391SOL     OW14071   2.990   4.897   0.317
 4391SOL    HW114072   3.049   4.959   0.266
 4391SOL    HW214073   3.043   4.854   0.391
 4392SOL     OW14074   1.192   2.237   4.992
 4392SOL    HW114075   1.126   2.311   5.005
 4392SOL    HW214076   1.259   2.263   4.923
 4393SOL     OW14077   6.246   0.669   1.674
 4393SOL    HW114078   6.155   0.661   1.715
 4393SOL    HW214079   6.313   0.682   1.747
 4394SOL     OW14080   0.330   5.983   2.451
 4394SOL    HW114081   0.300   5.893   2.481
 4394SOL    HW214082   0.261   6.023   2.390
 4395SOL     OW14083   1.887   0.550   1.883
 4395SOL    HW114084   1.819   0.564   1.811
 4395SOL    HW214085   1.888   0.454   1.909
 4396SOL     OW14086   1.719   1.447   3.907
 4396SOL    HW114087   1.725   1.546   3.900
 4396SOL    HW214088   1.765   1.405   3.830
 4397SOL     OW14089   1.733   2.783   4.607
 4397SOL    HW114090   1.780   2.717   4.548
 4397SOL    HW214091   1.666   2.735   4.664
 4398SOL     OW14092   1.647   3.254   6.213
 4398SOL    HW114093   1.568   3.210   6.169
 4398SOL    HW214094   1.615   3.311   6.288
 4399SOL     OW14095   3.395   6.317   2.454
 4399SOL    HW114096   3.364   6.308   2.549
 4399SOL    HW214097   3.385   6.412   2.425
 4400SOL     OW14098   2.007   6.969   3.783
 4400SOL    HW114099   2.044   6.997   3.695
 4400SOL    HW214100   1.923   6.916   3.769
 4401SOL     OW14101   3.669   6.833   5.386
 4401SOL    HW114102   3.699   6.893   5.460
 4401SOL    HW214103   3.607   6.883   5.325
 4402SOL     OW14104   1.036   6.713   2.687
 4402SOL    HW114105   1.084   6.633   2.725
 4402SOL    HW214106   1.098   6.764   2.628
 4403SOL     OW14107   1.077   6.965   0.433
 4403SOL    HW114108   1.170   6.999   0.419
 4403SOL    HW214109   1.077   6.896   0.505
 4404SOL     OW14110   0.781   6.443   5.324
 4404SOL    HW114111   0.838   6.450   5.241
 4404SOL    HW214112   0.688   6.418   5.298
 4405SOL     OW14113   1.940   4.972   2.487
 4405SOL    HW114114   1.923   4.880   2.522
 4405SOL    HW214115   1.883   4.989   2.407
 4406SOL     OW14116   6.606   2.821   0.433
 4406SOL    HW114117   6.577   2.870   0.515
 4406SOL    HW214118   6.541   2.839   0.359
 4407SOL     OW14119   0.099   5.105   1.711
 4407SOL    HW114120   0.022   5.056   1.751
 4407SOL    HW214121   0.179   5.045   1.706
 4408SOL     OW14122   1.889   6.691   6.927
 4408SOL    HW114123   1.981   6.660   6.950
 4408SOL    HW214124   1.856   6.639   6.847
 4409SOL     OW14125   4.260   1.325   1.539
 4409SOL    HW114126   4.293   1.333   1.634
 4409SOL    HW214127   4.161   1.319   1.539
 4410SOL     OW14128   0.282   5.774   6.951
 4410SOL    HW114129   0.381   5.787   6.957
 4410SOL    HW214130   0.236   5.832   7.018
 4411SOL     OW14131   3.384   4.633   5.550
 4411SOL    HW114132   3.359   4.720   5.507
 4411SOL    HW214133   3.398   4.563   5.479
 4412SOL     OW14134   4.506   6.328   4.224
 4412SOL    HW114135   4.556   6.241   4.220
 4412SOL    HW214136   4.569   6.404   4.207
 4413SOL     OW14137   5.578   5.500   3.444
 4413SOL    HW114138   5.504   5.534   3.502
 4413SOL    HW214139   5.570   5.401   3.434
 4414SOL     OW14140   3.785   6.005   1.052
 4414SOL    HW114141   3.737   5.918   1.063
 4414SOL    HW214142   3.823   6.011   0.960
 4415SOL     OW14143   4.211   3.053   0.176
 4415SOL    HW114144   4.283   3.085   0.116
 4415SOL    HW214145   4.122   3.079   0.139
 4416SOL     OW14146   4.363   1.477   3.672
 4416SOL    HW114147   4.450   1.427   3.669
 4416SOL    HW214148   4.292   1.422   3.629
 4417SOL     OW14149   5.580   3.585   3.677
 4417SOL    HW114150   5.527   3.523   3.734
 4417SOL    HW214151   5.549   3.578   3.582
 4418SOL     OW14152   6.329   2.246   2.884
 4418SOL    HW114153   6.342   2.287   2.974
 4418SOL    HW214154   6.251   2.289   2.839
 4419SOL     OW14155   6.520   0.098   5.723
 4419SOL    HW114156   6.421   0.093   5.736
 4419SOL    HW214157   6.561   0.010   5.747
 4420SOL     OW14158   3.931   1.446   1.452
 4420SOL    HW114159   3.922   1.347   1.465
 4420SOL    HW214160   3.918   1.493   1.539
 4421SOL     OW14161   2.391   1.944   5.243
 4421SOL    HW114162   2.438   1.940   5.154
 4421SOL    HW214163   2.373   1.851   5.275
 4422SOL     OW14164   1.455   4.403   0.084
 4422SOL    HW114165   1.393   4.481   0.098
 4422SOL    HW214166   1.401   4.322   0.060
 4423SOL     OW14167   0.140   4.225   6.171
 4423SOL    HW114168   0.238   4.242   6.184
 4423SOL    HW214169   0.122   4.208   6.074
 4424SOL     OW14170   5.499   6.443   4.537
 4424SOL    HW114171   5.586   6.461   4.582
 4424SOL    HW214172   5.433   6.409   4.604
 4425SOL     OW14173   1.754   5.224   1.046
 4425SOL    HW114174   1.730   5.266   1.133
 4425SOL    HW214175   1.823   5.280   1.000
 4426SOL     OW14176   0.527   1.424   3.895
 4426SOL    HW114177   0.625   1.448   3.896
 4426SOL    HW214178   0.473   1.506   3.917
 4427SOL     OW14179   4.651   6.096   2.713
 4427SOL    HW114180   4.575   6.031   2.713
 4427SOL    HW214181   4.623   6.180   2.665
 4428SOL     OW14182   4.085   0.539   4.321
 4428SOL    HW114183   3.986   0.554   4.332
 4428SOL    HW214184   4.125   0.615   4.270
 4429SOL     OW14185   2.696   6.301   2.443
 4429SOL    HW114186   2.665   6.387   2.402
 4429SOL    HW214187   2.746   6.247   2.375
 4430SOL     OW14188   4.876   4.809   5.083
 4430SOL    HW114189   4.956   4.755   5.112
 4430SOL    HW214190   4.858   4.792   4.986
 4431SOL     OW14191   3.013   0.914   3.235
 4431SOL    HW114192   3.022   0.851   3.158
 4431SOL    HW214193   2.974   1.000   3.203
 4432SOL     OW14194   2.405   3.634   6.570
 4432SOL    HW114195   2.424   3.644   6.472
 4432SOL    HW214196   2.489   3.651   6.622
 4433SOL     OW14197   7.018   2.972   4.398
 4433SOL    HW114198   7.006   2.888   4.451
 4433SOL    HW214199   0.028   2.949   4.306
 4434SOL     OW14200   5.393   1.843   3.270
 4434SOL    HW114201   5.348   1.849   3.180
 4434SOL    HW214202   5.461   1.769   3.268
 4435SOL     OW14203   4.346   3.629   1.255
 4435SOL    HW114204   4.253   3.602   1.228
 4435SOL    HW214205   4.391   3.553   1.302
 4436SOL     OW14206   4.184   1.035   1.251
 4436SOL    HW114207   4.179   0.993   1.342
 4436SOL    HW214208   4.115   1.106   1.243
 4437SOL     OW14209   0.910   3.211   2.720
 4437SOL    HW114210   0.891   3.275   2.645
 4437SOL    HW214211   0.825   3.172   2.753
 4438SOL     OW14212   4.832   6.877   5.910
 4438SOL    HW114213   4.796   6.883   5.817
 4438SOL    HW214214   4.816   6.786   5.947
 4439SOL     OW14215   0.464   5.035   2.409
 4439SOL    HW114216   0.555   5.047   2.368
 4439SOL    HW214217   0.468   4.964   2.479
 4440SOL     OW14218   2.499   5.429   0.520
 4440SOL    HW114219   2.555   5.509   0.498
 4440SOL    HW214220   2.501   5.364   0.444
 4441SOL     OW14221   6.854   1.125   0.994
 4441SOL    HW114222   6.945   1.114   0.953
 4441SOL    HW214223   6.861   1.182   1.076
 4442SOL     OW14224   1.393   5.762   4.985
 4442SOL    HW114225   1.375   5.664   4.976
 4442SOL    HW214226   1.389   5.789   5.081
 4443SOL     OW14227   0.818   4.048   5.723
 4443SOL    HW114228   0.887   4.076   5.790
 4443SOL    HW214229   0.771   3.967   5.755
 4444SOL     OW14230   4.376   3.199   0.009
 4444SOL    HW114231   4.471   3.222   7.009
 4444SOL    HW214232   4.314   3.261   6.983
 4445SOL     OW14233   1.286   6.326   6.863
 4445SOL    HW114234   1.188   6.305   6.871
 4445SOL    HW214235   1.311   6.392   6.934
 4446SOL     OW14236   5.845   1.913   0.238
 4446SOL    HW114237   5.768   1.877   0.186
 4446SOL    HW214238   5.880   1.996   0.194
 4447SOL     OW14239   6.094   4.049   4.667
 4447SOL    HW114240   6.084   4.080   4.572
 4447SOL    HW214241   6.109   3.950   4.668
 4448SOL     OW14242   2.857   6.324   0.822
 4448SOL    HW114243   2.941   6.366   0.856
 4448SOL    HW214244   2.856   6.227   0.846
 4449SOL     OW14245   4.985   0.908   5.681
 4449SOL    HW114246   5.032   0.847   5.617
 4449SOL    HW214247   4.944   0.984   5.631
 4450SOL     OW14248   3.173   1.720   0.098
 4450SOL    HW114249   3.078   1.748   0.108
 4450SOL    HW214250   3.229   1.801   0.081
 4451SOL     OW14251   4.944   5.073   4.997
 4451SOL    HW114252   4.896   5.155   5.027
 4451SOL    HW214253   4.920   4.996   5.057
 4452SOL     OW14254   6.289   5.176   4.429
 4452SOL    HW114255   6.254   5.124   4.351
 4452SOL    HW214256   6.373   5.223   4.402
 4453SOL     OW14257   0.941   2.734   1.818
 4453SOL    HW114258   0.991   2.780   1.891
 4453SOL    HW214259   1.006   2.692   1.754
 4454SOL     OW14260   1.174   1.595   0.006
 4454SOL    HW114261   1.272   1.607   0.022
 4454SOL    HW214262   1.134   1.543   0.081
 4455SOL     OW14263   5.498   5.998   5.817
 4455SOL    HW114264   5.401   5.998   5.792
 4455SOL    HW214265   5.548   5.935   5.757
 4456SOL     OW14266   2.276   5.731   3.061
 4456SOL    HW114267   2.375   5.745   3.055
 4456SOL    HW214268   2.238   5.728   2.969
 4457SOL     OW14269   2.662   1.973   4.004
 4457SOL    HW114270   2.663   1.881   4.042
 4457SOL    HW214271   2.697   1.971   3.910
 4458SOL     OW14272   2.717   3.662   1.717
 4458SOL    HW114273   2.656   3.732   1.755
 4458SOL    HW214274   2.773   3.623   1.790
 4459SOL     OW14275   3.540   1.838   4.119
 4459SOL    HW114276   3.626   1.868   4.078
 4459SOL    HW214277   3.508   1.908   4.184
 4460SOL     OW14278   1.368   2.822   6.582
 4460SOL    HW114279   1.416   2.889   6.527
 4460SOL    HW214280   1.364   2.735   6.533
 4461SOL     OW14281   1.967   0.783   0.559
 4461SOL    HW114282   1.994   0.772   0.655
 4461SOL    HW214283   1.950   0.693   0.519
 4462SOL     OW14284   5.699   4.269   1.830
 4462SOL    HW114285   5.713   4.264   1.731
 4462SOL    HW214286   5.756   4.201   1.875
 4463SOL     OW14287   4.901   0.904   1.265
 4463SOL    HW114288   4.901   0.892   1.365
 4463SOL    HW214289   4.972   0.970   1.240
 4464SOL     OW14290   0.160   6.534   0.556
 4464SOL    HW114291   0.109   6.568   0.477
 4464SOL    HW214292   0.257   6.527   0.533
 4465SOL     OW14293   2.399   5.241   6.876
 4465SOL    HW114294   2.426   5.269   6.784
 4465SOL    HW214295   2.425   5.312   6.941
 4466SOL     OW14296   1.213   1.728   2.615
 4466SOL    HW114297   1.310   1.704   2.617
 4466SOL    HW214298   1.176   1.726   2.708
 4467SOL     OW14299   2.500   5.378   3.687
 4467SOL    HW114300   2.415   5.329   3.671
 4467SOL    HW214301   2.555   5.377   3.604
 4468SOL     OW14302   1.325   4.489   1.226
 4468SOL    HW114303   1.270   4.406   1.211
 4468SOL    HW214304   1.371   4.514   1.140
 4469SOL     OW14305   3.419   1.066   1.257
 4469SOL    HW114306   3.374   0.977   1.249
 4469SOL    HW214307   3.356   1.138   1.226
 4470SOL     OW14308   0.869   1.570   2.154
 4470SOL    HW114309   0.922   1.532   2.078
 4470SOL    HW214310   0.798   1.505   2.181
 4471SOL     OW14311   1.772   2.501   6.899
 4471SOL    HW114312   1.728   2.476   6.813
 4471SOL    HW214313   1.788   2.418   6.953
 4472SOL     OW14314   0.795   1.627   0.833
 4472SOL    HW114315   0.802   1.716   0.789
 4472SOL    HW214316   0.797   1.555   0.763
 4473SOL     OW14317   5.248   2.781   4.012
 4473SOL    HW114318   5.280   2.852   4.074
 4473SOL    HW214319   5.153   2.799   3.986
 4474SOL     OW14320   3.143   6.589   2.102
 4474SOL    HW114321   3.140   6.684   2.070
 4474SOL    HW214322   3.122   6.527   2.026
 4475SOL     OW14323   1.250   3.745   1.639
 4475SOL    HW114324   1.152   3.739   1.658
 4475SOL    HW214325   1.267   3.723   1.543
 4476SOL     OW14326   6.136   0.804   4.045
 4476SOL    HW114327   6.148   0.761   3.955
 4476SOL    HW214328   6.225   0.835   4.079
 4477SOL     OW14329   1.715   0.487   5.157
 4477SOL    HW114330   1.707   0.393   5.122
 4477SOL    HW214331   1.741   0.484   5.254
 4478SOL     OW14332   1.818   0.306   2.008
 4478SOL    HW114333   1.860   0.222   1.973
 4478SOL    HW214334   1.732   0.323   1.960
 4479SOL     OW14335   1.248   1.878   1.275
 4479SOL    HW114336   1.250   1.968   1.232
 4479SOL    HW214337   1.307   1.816   1.225
 4480SOL     OW14338   0.569   4.860   5.219
 4480SOL    HW114339   0.548   4.861   5.121
 4480SOL    HW214340   0.522   4.936   5.264
 4481SOL     OW14341   2.400   5.121   5.022
 4481SOL    HW114342   2.456   5.063   5.080
 4481SOL    HW214343   2.458   5.186   4.973
 4482SOL     OW14344   2.186   2.720   5.596
 4482SOL    HW114345   2.281   2.749   5.581
 4482SOL    HW214346   2.125   2.772   5.536
 4483SOL     OW14347   0.322   2.510   1.927
 4483SOL    HW114348   0.262   2.572   1.876
 4483SOL    HW214349   0.368   2.449   1.864
 4484SOL     OW14350   2.511   2.555   0.083
 4484SOL    HW114351   2.603   2.594   0.089
 4484SOL    HW214352   2.478   2.533   0.175
 4485SOL     OW14353   4.954   2.570   5.200
 4485SOL    HW114354   4.953   2.471   5.212
 4485SOL    HW214355   5.011   2.593   5.121
 4486SOL     OW14356   6.225   5.272   5.025
 4486SOL    HW114357   6.311   5.272   4.974
 4486SOL    HW214358   6.167   5.197   4.994
 4487SOL     OW14359   2.813   3.167   0.535
 4487SOL    HW114360   2.900   3.168   0.487
 4487SOL    HW214361   2.738   3.166   0.468
 4488SOL     OW14362   0.911   3.759   4.967
 4488SOL    HW114363   0.994   3.710   4.939
 4488SOL    HW214364   0.841   3.750   4.895
 4489SOL     OW14365   4.527   5.387   5.105
 4489SOL    HW114366   4.626   5.402   5.106
 4489SOL    HW214367   4.506   5.295   5.139
 4490SOL     OW14368   5.239   1.527   1.788
 4490SOL    HW114369   5.294   1.511   1.870
 4490SOL    HW214370   5.254   1.621   1.755
 4491SOL     OW14371   0.552   3.545   3.450
 4491SOL    HW114372   0.574   3.513   3.358
 4491SOL    HW214373   0.598   3.486   3.517
 4492SOL     OW14374   6.067   3.238   1.817
 4492SOL    HW114375   6.055   3.229   1.916
 4492SOL    HW214376   6.118   3.322   1.797
 4493SOL     OW14377   5.059   6.287   5.287
 4493SOL    HW114378   5.149   6.246   5.272
 4493SOL    HW214379   5.007   6.231   5.351
 4494SOL     OW14380   1.226   0.800   6.106
 4494SOL    HW114381   1.247   0.705   6.131
 4494SOL    HW214382   1.278   0.825   6.024
 4495SOL     OW14383   4.575   7.005   3.068
 4495SOL    HW114384   4.576   6.943   3.146
 4495SOL    HW214385   4.492   0.038   3.070
 4496SOL     OW14386   5.277   5.978   0.635
 4496SOL    HW114387   5.295   6.066   0.679
 4496SOL    HW214388   5.206   5.930   0.686
 4497SOL     OW14389   4.112   2.338   6.568
 4497SOL    HW114390   4.188   2.395   6.600
 4497SOL    HW214391   4.145   2.276   6.496
 4498SOL     OW14392   6.730   4.799   6.424
 4498SOL    HW114393   6.649   4.772   6.476
 4498SOL    HW214394   6.791   4.720   6.413
 4499SOL     OW14395   6.644   2.549   3.506
 4499SOL    HW114396   6.601   2.569   3.418
 4499SOL    HW214397   6.694   2.630   3.537
 4500SOL     OW14398   3.933   4.227   6.580
 4500SOL    HW114399   4.018   4.263   6.619
 4500SOL    HW214400   3.942   4.128   6.567
 4501SOL     OW14401   6.547   2.815   3.016
 4501SOL    HW114402   6.632   2.794   3.065
 4501SOL    HW214403   6.545   2.764   2.930
 4502SOL     OW14404   1.560   3.669   0.063
 4502SOL    HW114405   1.497   3.594   0.044
 4502SOL    HW214406   1.611   3.648   0.147
 4503SOL     OW14407   3.200   6.950   2.289
 4503SOL    HW114408   3.268   7.020   2.309
 4503SOL    HW214409   3.197   6.883   2.363
 4504SOL     OW14410   6.143   2.042   4.361
 4504SOL    HW114411   6.091   1.975   4.414
 4504SOL    HW214412   6.100   2.132   4.370
 4505SOL     OW14413   6.488   4.700   1.637
 4505SOL    HW114414   6.515   4.736   1.548
 4505SOL    HW214415   6.506   4.601   1.641
 4506SOL     OW14416   5.037   2.594   3.083
 4506SOL    HW114417   5.093   2.662   3.034
 4506SOL    HW214418   5.095   2.539   3.143
 4507SOL     OW14419   0.206   3.281   3.589
 4507SOL    HW114420   0.259   3.272   3.674
 4507SOL    HW214421   0.211   3.376   3.557
 4508SOL     OW14422   1.218   5.001   0.105
 4508SOL    HW114423   1.194   5.059   0.182
 4508SOL    HW214424   1.287   4.934   0.133
 4509SOL     OW14425   4.640   1.834   3.271
 4509SOL    HW114426   4.722   1.779   3.250
 4509SOL    HW214427   4.559   1.787   3.236
 4510SOL     OW14428   4.519   0.986   4.653
 4510SOL    HW114429   4.439   1.002   4.711
 4510SOL    HW214430   4.547   1.073   4.612
 4511SOL     OW14431   5.951   3.540   0.183
 4511SOL    HW114432   5.951   3.444   0.211
 4511SOL    HW214433   6.008   3.592   0.246
 4512SOL     OW14434   3.800   1.882   6.255
 4512SOL    HW114435   3.731   1.828   6.207
 4512SOL    HW214436   3.823   1.963   6.201
 4513SOL     OW14437   1.019   6.061   6.237
 4513SOL    HW114438   1.014   6.025   6.330
 4513SOL    HW214439   1.071   6.146   6.237
 4514SOL     OW14440   3.821   2.657   6.672
 4514SOL    HW114441   3.729   2.662   6.711
 4514SOL    HW214442   3.835   2.567   6.631
 4515SOL     OW14443   5.392   1.988   5.325
 4515SOL    HW114444   5.313   1.949   5.371
 4515SOL    HW214445   5.476   1.948   5.361
 4516SOL     OW14446   2.445   0.341   5.447
 4516SOL    HW114447   2.497   0.424   5.425
 4516SOL    HW214448   2.378   0.362   5.519
 4517SOL     OW14449   4.805   6.763   6.581
 4517SOL    HW114450   4.775   6.741   6.674
 4517SOL    HW214451   4.792   6.861   6.563
 4518SOL     OW14452   0.549   6.793   1.735
 4518SOL    HW114453   0.634   6.800   1.787
 4518SOL    HW214454   0.471   6.811   1.796
 4519SOL     OW14455   4.992   6.622   0.130
 4519SOL    HW114456   5.016   6.619   0.033
 4519SOL    HW214457   4.892   6.623   0.139
 4520SOL     OW14458   4.364   5.684   5.807
 4520SOL    HW114459   4.322   5.702   5.896
 4520SOL    HW214460   4.463   5.674   5.819
 4521SOL     OW14461   4.676   2.318   4.457
 4521SOL    HW114462   4.619   2.262   4.516
 4521SOL    HW214463   4.638   2.410   4.450
 4522SOL     OW14464   5.679   4.268   2.472
 4522SOL    HW114465   5.596   4.236   2.518
 4522SOL    HW214466   5.759   4.238   2.523
 4523SOL     OW14467   1.606   4.015   6.744
 4523SOL    HW114468   1.665   3.943   6.782
 4523SOL    HW214469   1.545   4.048   6.816
 4524SOL     OW14470   6.001   3.257   2.405
 4524SOL    HW114471   5.988   3.355   2.390
 4524SOL    HW214472   5.973   3.233   2.497
 4525SOL     OW14473   3.206   1.980   6.054
 4525SOL    HW114474   3.250   1.998   6.142
 4525SOL    HW214475   3.263   1.919   6.000
 4526SOL     OW14476   0.006   0.728   6.634
 4526SOL    HW114477   0.003   0.635   6.670
 4526SOL    HW214478   0.004   0.793   6.710
 4527SOL     OW14479   6.555   6.715   2.982
 4527SOL    HW114480   6.609   6.791   2.946
 4527SOL    HW214481   6.479   6.752   3.037
 4528SOL     OW14482   4.383   0.990   6.439
 4528SOL    HW114483   4.330   0.934   6.503
 4528SOL    HW214484   4.477   0.997   6.471
 4529SOL     OW14485   2.937   1.362   6.121
 4529SOL    HW114486   2.980   1.418   6.050
 4529SOL    HW214487   2.981   1.273   6.125
 4530SOL     OW14488   2.077   5.755   3.764
 4530SOL    HW114489   2.119   5.665   3.757
 4530SOL    HW214490   2.000   5.752   3.827
 4531SOL     OW14491   0.936   3.718   6.336
 4531SOL    HW114492   1.023   3.754   6.300
 4531SOL    HW214493   0.923   3.624   6.306
 4532SOL     OW14494   5.850   0.463   2.946
 4532SOL    HW114495   5.850   0.556   2.908
 4532SOL    HW214496   5.833   0.467   3.044
 4533SOL     OW14497   1.683   1.277   2.779
 4533SOL    HW114498   1.708   1.356   2.724
 4533SOL    HW214499   1.629   1.213   2.724
 4534SOL     OW14500   4.602   2.128   5.330
 4534SOL    HW114501   4.675   2.118   5.263
 4534SOL    HW214502   4.549   2.210   5.311
 4535SOL     OW14503   3.674   1.068   1.313
 4535SOL    HW114504   3.711   0.980   1.345
 4535SOL    HW214505   3.578   1.057   1.286
 4536SOL     OW14506   3.338   1.426   4.863
 4536SOL    HW114507   3.305   1.456   4.773
 4536SOL    HW214508   3.290   1.476   4.934
 4537SOL     OW14509   4.159   3.330   2.045
 4537SOL    HW114510   4.242   3.294   2.004
 4537SOL    HW214511   4.130   3.412   1.996
 4538SOL     OW14512   2.376   0.938   2.213
 4538SOL    HW114513   2.474   0.949   2.231
 4538SOL    HW214514   2.323   0.985   2.284
 4539SOL     OW14515   2.392   5.755   4.190
 4539SOL    HW114516   2.327   5.694   4.235
 4539SOL    HW214517   2.391   5.737   4.091
 4540SOL     OW14518   2.296   1.370   0.681
 4540SOL    HW114519   2.379   1.316   0.688
 4540SOL    HW214520   2.261   1.389   0.773
 4541SOL     OW14521   5.072   0.972   6.909
 4541SOL    HW114522   5.097   0.889   6.860
 4541SOL    HW214523   5.089   0.959   7.007
 4542SOL     OW14524   6.682   1.570   1.683
 4542SOL    HW114525   6.775   1.603   1.667
 4542SOL    HW214526   6.634   1.633   1.744
 4543SOL     OW14527   4.947   2.004   0.781
 4543SOL    HW114528   5.036   2.001   0.736
 4543SOL    HW214529   4.925   2.098   0.807
 4544SOL     OW14530   4.109   4.913   0.576
 4544SOL    HW114531   4.076   4.995   0.531
 4544SOL    HW214532   4.096   4.922   0.675
 4545SOL     OW14533   0.398   3.537   5.392
 4545SOL    HW114534   0.339   3.535   5.311
 4545SOL    HW214535   0.487   3.575   5.366
 4546SOL     OW14536   2.881   0.136   4.882
 4546SOL    HW114537   2.872   0.191   4.799
 4546SOL    HW214538   2.887   0.039   4.857
 4547SOL     OW14539   6.182   1.089   0.106
 4547SOL    HW114540   6.204   1.184   0.083
 4547SOL    HW214541   6.259   1.030   0.082
 4548SOL     OW14542   2.864   2.298   3.158
 4548SOL    HW114543   2.778   2.302   3.108
 4548SOL    HW214544   2.891   2.390   3.185
 4549SOL     OW14545   5.136   3.986   2.237
 4549SOL    HW114546   5.179   3.899   2.261
 4549SOL    HW214547   5.037   3.979   2.247
 4550SOL     OW14548   1.347   4.009   3.639
 4550SOL    HW114549   1.369   4.105   3.656
 4550SOL    HW214550   1.428   3.952   3.652
 4551SOL     OW14551   0.690   3.982   5.190
 4551SOL    HW114552   0.787   3.959   5.198
 4551SOL    HW214553   0.639   3.901   5.160
 4552SOL     OW14554   5.641   2.270   1.196
 4552SOL    HW114555   5.711   2.199   1.202
 4552SOL    HW214556   5.645   2.327   1.278
 4553SOL     OW14557   5.265   4.563   6.491
 4553SOL    HW114558   5.305   4.484   6.444
 4553SOL    HW214559   5.233   4.536   6.581
 4554SOL     OW14560   0.418   0.123   1.840
 4554SOL    HW114561   0.348   0.052   1.843
 4554SOL    HW214562   0.381   0.207   1.880
 4555SOL     OW14563   1.716   1.316   6.467
 4555SOL    HW114564   1.628   1.270   6.475
 4555SOL    HW214565   1.730   1.345   6.372
 4556SOL     OW14566   5.940   3.293   5.114
 4556SOL    HW114567   5.942   3.387   5.079
 4556SOL    HW214568   5.970   3.291   5.209
 4557SOL     OW14569   6.125   4.787   4.370
 4557SOL    HW114570   6.080   4.788   4.460
 4557SOL    HW214571   6.085   4.714   4.314
 4558SOL     OW14572   6.823   3.432   4.935
 4558SOL    HW114573   6.795   3.354   4.991
 4558SOL    HW214574   6.815   3.408   4.838
 4559SOL     OW14575   0.093   3.477   2.616
 4559SOL    HW114576   0.118   3.389   2.576
 4559SOL    HW214577   0.061   3.463   2.710
 4560SOL     OW14578   6.242   4.637   2.599
 4560SOL    HW114579   6.233   4.733   2.573
 4560SOL    HW214580   6.284   4.631   2.689
 4561SOL     OW14581   3.601   1.330   3.721
 4561SOL    HW114582   3.509   1.366   3.708
 4561SOL    HW214583   3.668   1.399   3.693
 4562SOL     OW14584   1.648   0.271   0.266
 4562SOL    HW114585   1.589   0.343   0.301
 4562SOL    HW214586   1.661   0.283   0.168
 4563SOL     OW14587   6.393   3.507   0.896
 4563SOL    HW114588   6.364   3.512   0.992
 4563SOL    HW214589   6.481   3.458   0.891
 4564SOL     OW14590   0.236   4.979   2.222
 4564SOL    HW114591   0.320   4.986   2.276
 4564SOL    HW214592   0.180   4.904   2.258
 4565SOL     OW14593   1.398   1.286   4.563
 4565SOL    HW114594   1.427   1.237   4.481
 4565SOL    HW214595   1.312   1.334   4.545
 4566SOL     OW14596   0.408   3.129   1.122
 4566SOL    HW114597   0.488   3.076   1.149
 4566SOL    HW214598   0.383   3.107   1.028
 4567SOL     OW14599   6.946   0.865   6.883
 4567SOL    HW114600   6.920   0.811   6.963
 4567SOL    HW214601   6.864   0.891   6.831
 4568SOL     OW14602   0.978   4.260   5.271
 4568SOL    HW114603   1.013   4.233   5.361
 4568SOL    HW214604   1.007   4.193   5.203
 4569SOL     OW14605   2.899   0.365   3.055
 4569SOL    HW114606   2.994   0.350   3.083
 4569SOL    HW214607   2.895   0.438   2.988
 4570SOL     OW14608   6.170   6.539   1.973
 4570SOL    HW114609   6.260   6.574   1.999
 4570SOL    HW214610   6.179   6.480   1.893
 4571SOL     OW14611   4.484   2.817   6.733
 4571SOL    HW114612   4.417   2.746   6.710
 4571SOL    HW214613   4.477   2.838   6.830
 4572SOL     OW14614   1.974   1.261   6.350
 4572SOL    HW114615   2.036   1.329   6.389
 4572SOL    HW214616   1.903   1.307   6.298
 4573SOL     OW14617   0.646   0.015   0.400
 4573SOL    HW114618   0.576   6.968   0.382
 4573SOL    HW214619   0.680   0.052   0.313
 4574SOL     OW14620   5.563   4.303   6.987
 4574SOL    HW114621   5.504   4.332   6.912
 4574SOL    HW214622   5.655   4.341   6.975
 4575SOL     OW14623   5.940   0.526   4.776
 4575SOL    HW114624   5.846   0.515   4.744
 4575SOL    HW214625   5.993   0.445   4.753
 4576SOL     OW14626   2.505   4.711   5.525
 4576SOL    HW114627   2.438   4.701   5.451
 4576SOL    HW214628   2.538   4.620   5.552
 4577SOL     OW14629   2.005   2.660   3.125
 4577SOL    HW114630   2.056   2.738   3.088
 4577SOL    HW214631   2.013   2.660   3.225
 4578SOL     OW14632   0.974   1.203   4.298
 4578SOL    HW114633   0.920   1.284   4.277
 4578SOL    HW214634   0.934   1.123   4.252
 4579SOL     OW14635   4.216   1.183   1.981
 4579SOL    HW114636   4.274   1.196   2.062
 4579SOL    HW214637   4.131   1.234   1.993
 4580SOL     OW14638   5.547   3.974   0.908
 4580SOL    HW114639   5.628   3.959   0.852
 4580SOL    HW214640   5.477   4.021   0.853
 4581SOL     OW14641   2.534   5.951   2.425
 4581SOL    HW114642   2.480   6.009   2.486
 4581SOL    HW214643   2.524   5.984   2.331
 4582SOL     OW14644   4.994   1.240   3.389
 4582SOL    HW114645   4.931   1.314   3.412
 4582SOL    HW214646   4.983   1.165   3.453
 4583SOL     OW14647   2.896   1.158   6.442
 4583SOL    HW114648   2.906   1.242   6.495
 4583SOL    HW214649   2.880   1.180   6.346
 4584SOL     OW14650   1.916   6.198   5.350
 4584SOL    HW114651   2.015   6.193   5.338
 4584SOL    HW214652   1.893   6.189   5.447
 4585SOL     OW14653   1.770   4.257   3.438
 4585SOL    HW114654   1.712   4.177   3.422
 4585SOL    HW214655   1.714   4.340   3.440
 4586SOL     OW14656   4.868   4.060   6.905
 4586SOL    HW114657   4.771   4.051   6.886
 4586SOL    HW214658   4.915   3.975   6.882
 4587SOL     OW14659   3.913   3.521   4.339
 4587SOL    HW114660   3.945   3.561   4.253
 4587SOL    HW214661   3.968   3.440   4.361
 4588SOL     OW14662   3.352   3.002   6.208
 4588SOL    HW114663   3.382   2.911   6.178
 4588SOL    HW214664   3.278   2.993   6.274
 4589SOL     OW14665   5.450   6.660   1.737
 4589SOL    HW114666   5.498   6.576   1.761
 4589SOL    HW214667   5.513   6.737   1.740
 4590SOL     OW14668   3.882   5.663   1.737
 4590SOL    HW114669   3.909   5.657   1.641
 4590SOL    HW214670   3.886   5.759   1.767
 4591SOL     OW14671   1.466   0.494   5.021
 4591SOL    HW114672   1.470   0.559   4.944
 4591SOL    HW214673   1.544   0.509   5.081
 4592SOL     OW14674   3.088   1.613   3.537
 4592SOL    HW114675   3.074   1.519   3.568
 4592SOL    HW214676   3.185   1.630   3.524
 4593SOL     OW14677   6.055   6.175   2.138
 4593SOL    HW114678   5.971   6.129   2.167
 4593SOL    HW214679   6.114   6.190   2.217
 4594SOL     OW14680   3.573   0.418   3.123
 4594SOL    HW114681   3.523   0.418   3.209
 4594SOL    HW214682   3.509   0.430   3.047
 4595SOL     OW14683   4.782   3.142   5.603
 4595SOL    HW114684   4.686   3.114   5.612
 4595SOL    HW214685   4.817   3.110   5.515
 4596SOL     OW14686   6.550   0.332   2.619
 4596SOL    HW114687   6.596   0.257   2.572
 4596SOL    HW214688   6.481   0.371   2.558
 4597SOL     OW14689   2.740   5.552   6.401
 4597SOL    HW114690   2.786   5.464   6.393
 4597SOL    HW214691   2.724   5.573   6.497
 4598SOL     OW14692   1.741   5.713   1.337
 4598SOL    HW114693   1.643   5.713   1.318
 4598SOL    HW214694   1.757   5.695   1.434
 4599SOL     OW14695   1.421   4.278   1.840
 4599SOL    HW114696   1.520   4.281   1.857
 4599SOL    HW214697   1.398   4.192   1.793
 4600SOL     OW14698   0.562   0.114   5.113
 4600SOL    HW114699   0.512   0.027   5.113
 4600SOL    HW214700   0.637   0.109   5.047
 4601SOL     OW14701   0.951   1.845   5.210
 4601SOL    HW114702   0.880   1.806   5.270
 4601SOL    HW214703   0.943   1.806   5.119
 4602SOL     OW14704   3.014   6.863   6.456
 4602SOL    HW114705   2.944   6.924   6.419
 4602SOL    HW214706   2.991   6.768   6.433
 4603SOL     OW14707   3.196   6.107   0.835
 4603SOL    HW114708   3.256   6.124   0.913
 4603SOL    HW214709   3.248   6.060   0.763
 4604SOL     OW14710   5.122   7.014   6.311
 4604SOL    HW114711   5.085   0.084   6.305
 4604SOL    HW214712   5.080   6.966   6.389
 4605SOL     OW14713   2.511   0.153   2.068
 4605SOL    HW114714   2.498   0.103   1.982
 4605SOL    HW214715   2.511   0.251   2.049
 4606SOL     OW14716   6.229   6.993   2.611
 4606SOL    HW114717   6.161   6.922   2.630
 4606SOL    HW214718   6.320   6.952   2.606
 4607SOL     OW14719   2.070   3.540   2.987
 4607SOL    HW114720   1.994   3.479   2.966
 4607SOL    HW214721   2.071   3.615   2.921
 4608SOL     OW14722   0.229   3.851   3.338
 4608SOL    HW114723   0.184   3.880   3.254
 4608SOL    HW214724   0.162   3.813   3.401
 4609SOL     OW14725   4.871   5.137   0.027
 4609SOL    HW114726   4.891   5.233   0.047
 4609SOL    HW214727   4.940   5.079   0.071
 4610SOL     OW14728   4.743   1.850   0.022
 4610SOL    HW114729   4.655   1.834   6.999
 4610SOL    HW214730   4.816   1.803   6.995
 4611SOL     OW14731   0.810   0.688   5.863
 4611SOL    HW114732   0.901   0.726   5.878
 4611SOL    HW214733   0.741   0.749   5.903
 4612SOL     OW14734   2.881   6.901   1.909
 4612SOL    HW114735   2.832   6.984   1.935
 4612SOL    HW214736   2.977   6.908   1.936
 4613SOL     OW14737   1.269   5.646   3.089
 4613SOL    HW114738   1.330   5.685   3.158
 4613SOL    HW214739   1.318   5.637   3.003
 4614SOL     OW14740   6.123   3.314   3.860
 4614SOL    HW114741   6.113   3.406   3.823
 4614SOL    HW214742   6.064   3.251   3.810
 4615SOL     OW14743   1.261   0.656   1.229
 4615SOL    HW114744   1.279   0.599   1.149
 4615SOL    HW214745   1.309   0.619   1.309
 4616SOL     OW14746   5.968   2.467   3.890
 4616SOL    HW114747   5.872   2.466   3.864
 4616SOL    HW214748   6.023   2.499   3.812
 4617SOL     OW14749   1.919   2.143   2.006
 4617SOL    HW114750   1.839   2.189   1.967
 4617SOL    HW214751   1.953   2.195   2.084
 4618SOL     OW14752   2.257   3.092   5.941
 4618SOL    HW114753   2.266   3.106   5.843
 4618SOL    HW214754   2.304   3.165   5.990
 4619SOL     OW14755   3.532   6.516   4.052
 4619SOL    HW114756   3.573   6.585   4.112
 4619SOL    HW214757   3.470   6.561   3.988
 4620SOL     OW14758   0.747   4.633   1.266
 4620SOL    HW114759   0.755   4.586   1.353
 4620SOL    HW214760   0.816   4.598   1.202
 4621SOL     OW14761   5.293   1.063   2.609
 4621SOL    HW114762   5.245   1.121   2.543
 4621SOL    HW214763   5.238   0.981   2.627
 4622SOL     OW14764   3.877   4.852   1.091
 4622SOL    HW114765   3.788   4.806   1.094
 4622SOL    HW214766   3.878   4.927   1.157
 4623SOL     OW14767   3.437   5.197   0.802
 4623SOL    HW114768   3.485   5.270   0.753
 4623SOL    HW214769   3.389   5.139   0.737
 4624SOL     OW14770   3.359   1.215   3.551
 4624SOL    HW114771   3.342   1.264   3.465
 4624SOL    HW214772   3.438   1.155   3.540
 4625SOL     OW14773   2.224   5.323   1.937
 4625SOL    HW114774   2.184   5.318   2.028
 4625SOL    HW214775   2.302   5.260   1.931
 4626SOL     OW14776   3.973   4.567   1.784
 4626SOL    HW114777   4.020   4.629   1.847
 4626SOL    HW214778   3.928   4.620   1.712
 4627SOL     OW14779   0.709   5.953   5.011
 4627SOL    HW114780   0.652   6.011   5.070
 4627SOL    HW214781   0.800   5.993   5.003
 4628SOL     OW14782   4.753   4.711   4.737
 4628SOL    HW114783   4.794   4.625   4.767
 4628SOL    HW214784   4.791   4.737   4.648
 4629SOL     OW14785   2.429   4.944   6.103
 4629SOL    HW114786   2.482   4.897   6.174
 4629SOL    HW214787   2.433   5.043   6.118
 4630SOL     OW14788   2.415   5.007   2.550
 4630SOL    HW114789   2.346   5.049   2.490
 4630SOL    HW214790   2.380   5.004   2.643
 4631SOL     OW14791   0.752   6.600   3.834
 4631SOL    HW114792   0.782   6.563   3.746
 4631SOL    HW214793   0.824   6.587   3.902
 4632SOL     OW14794   2.195   4.993   3.253
 4632SOL    HW114795   2.173   4.922   3.185
 4632SOL    HW214796   2.112   5.019   3.302
 4633SOL     OW14797   5.326   1.206   4.908
 4633SOL    HW114798   5.340   1.285   4.968
 4633SOL    HW214799   5.309   1.125   4.964
 4634SOL     OW14800   2.536   3.821   5.328
 4634SOL    HW114801   2.465   3.794   5.393
 4634SOL    HW214802   2.502   3.894   5.270
 4635SOL     OW14803   4.364   4.450   1.736
 4635SOL    HW114804   4.360   4.353   1.758
 4635SOL    HW214805   4.445   4.491   1.777
 4636SOL     OW14806   1.841   4.800   0.611
 4636SOL    HW114807   1.789   4.862   0.670
 4636SOL    HW214808   1.795   4.793   0.522
 4637SOL     OW14809   0.850   6.684   0.624
 4637SOL    HW114810   0.917   6.673   0.550
 4637SOL    HW214811   0.760   6.656   0.592
 4638SOL     OW14812   3.615   5.998   6.455
 4638SOL    HW114813   3.595   6.007   6.552
 4638SOL    HW214814   3.684   5.927   6.441
 4639SOL     OW14815   2.618   2.573   6.305
 4639SOL    HW114816   2.578   2.497   6.356
 4639SOL    HW214817   2.545   2.631   6.269
 4640SOL     OW14818   5.968   2.982   4.209
 4640SOL    HW114819   5.940   2.909   4.272
 4640SOL    HW214820   5.898   3.052   4.205
 4641SOL     OW14821   2.085   0.557   3.791
 4641SOL    HW114822   2.100   0.627   3.721
 4641SOL    HW214823   2.000   0.507   3.770
 4642SOL     OW14824   1.330   0.010   2.968
 4642SOL    HW114825   1.422   7.006   2.997
 4642SOL    HW214826   1.321   7.020   2.869
 4643SOL     OW14827   6.563   2.534   1.050
 4643SOL    HW114828   6.465   2.520   1.034
 4643SOL    HW214829   6.582   2.631   1.056
 4644SOL     OW14830   0.373   0.970   5.468
 4644SOL    HW114831   0.286   1.000   5.507
 4644SOL    HW214832   0.358   0.938   5.375
 4645SOL     OW14833   1.502   1.077   4.297
 4645SOL    HW114834   1.477   1.001   4.357
 4645SOL    HW214835   1.419   1.117   4.259
 4646SOL     OW14836   2.323   4.767   4.108
 4646SOL    HW114837   2.254   4.704   4.072
 4646SOL    HW214838   2.414   4.728   4.093
 4647SOL     OW14839   1.236   0.269   2.979
 4647SOL    HW114840   1.291   0.185   2.976
 4647SOL    HW214841   1.152   0.252   3.030
 4648SOL     OW14842   2.562   0.827   4.299
 4648SOL    HW114843   2.616   0.862   4.375
 4648SOL    HW214844   2.526   0.737   4.322
 4649SOL     OW14845   5.931   0.622   1.212
 4649SOL    HW114846   5.999   0.679   1.166
 4649SOL    HW214847   5.843   0.670   1.214
 4650SOL     OW14848   4.355   5.414   1.645
 4650SOL    HW114849   4.304   5.496   1.620
 4650SOL    HW214850   4.319   5.378   1.732
 4651SOL     OW14851   5.822   3.878   6.525
 4651SOL    HW114852   5.773   3.798   6.560
 4651SOL    HW214853   5.899   3.899   6.585
 4652SOL     OW14854   6.140   6.486   5.085
 4652SOL    HW114855   6.174   6.403   5.040
 4652SOL    HW214856   6.137   6.471   5.184
 4653SOL     OW14857   5.059   5.812   0.701
 4653SOL    HW114858   4.991   5.884   0.687
 4653SOL    HW214859   5.037   5.733   0.644
 4654SOL     OW14860   0.583   6.546   5.582
 4654SOL    HW114861   0.633   6.496   5.653
 4654SOL    HW214862   0.623   6.526   5.493
 4655SOL     OW14863   4.863   3.995   2.222
 4655SOL    HW114864   4.792   4.031   2.162
 4655SOL    HW214865   4.853   3.896   2.230
 4656SOL     OW14866   0.734   0.437   1.430
 4656SOL    HW114867   0.661   0.434   1.498
 4656SOL    HW214868   0.821   0.416   1.475
 4657SOL     OW14869   4.848   5.724   2.260
 4657SOL    HW114870   4.853   5.702   2.163
 4657SOL    HW214871   4.787   5.802   2.274
 4658SOL     OW14872   2.763   2.449   5.876
 4658SOL    HW114873   2.663   2.456   5.873
 4658SOL    HW214874   2.797   2.425   5.785
 4659SOL     OW14875   2.812   4.478   0.554
 4659SOL    HW114876   2.897   4.438   0.587
 4659SOL    HW214877   2.746   4.482   0.629
 4660SOL     OW14878   1.286   6.307   4.078
 4660SOL    HW114879   1.309   6.388   4.024
 4660SOL    HW214880   1.262   6.335   4.171
 4661SOL     OW14881   1.935   4.154   5.650
 4661SOL    HW114882   1.882   4.226   5.606
 4661SOL    HW214883   2.017   4.134   5.596
 4662SOL     OW14884   3.175   0.172   5.603
 4662SOL    HW114885   3.186   0.175   5.504
 4662SOL    HW214886   3.191   0.079   5.635
 4663SOL     OW14887   0.480   0.301   0.238
 4663SOL    HW114888   0.561   0.245   0.258
 4663SOL    HW214889   0.505   0.375   0.176
 4664SOL     OW14890   0.231   0.431   0.326
 4664SOL    HW114891   0.286   0.350   0.311
 4664SOL    HW214892   0.149   0.427   0.269
 4665SOL     OW14893   2.434   0.077   5.762
 4665SOL    HW114894   2.474   7.014   5.795
 4665SOL    HW214895   2.435   0.079   5.662
 4666SOL     OW14896   2.228   2.222   6.745
 4666SOL    HW114897   2.262   2.191   6.656
 4666SOL    HW214898   2.198   2.317   6.738
 4667SOL     OW14899   6.835   4.252   1.984
 4667SOL    HW114900   6.773   4.174   1.973
 4667SOL    HW214901   6.850   4.295   1.895
 4668SOL     OW14902   4.665   1.505   4.910
 4668SOL    HW114903   4.596   1.577   4.899
 4668SOL    HW214904   4.670   1.479   5.007
 4669SOL     OW14905   5.612   0.299   6.498
 4669SOL    HW114906   5.554   0.267   6.573
 4669SOL    HW214907   5.555   0.323   6.420
 4670SOL     OW14908   1.005   2.957   6.884
 4670SOL    HW114909   0.990   2.948   6.785
 4670SOL    HW214910   0.954   2.886   6.932
 4671SOL     OW14911   1.104   3.142   0.060
 4671SOL    HW114912   1.110   3.101   6.992
 4671SOL    HW214913   1.151   3.230   0.061
 4672SOL     OW14914   3.887   4.798   5.989
 4672SOL    HW114915   3.797   4.761   5.968
 4672SOL    HW214916   3.907   4.784   6.087
 4673SOL     OW14917   5.221   0.062   0.254
 4673SOL    HW114918   5.163   0.023   0.182
 4673SOL    HW214919   5.289   0.123   0.212
 4674SOL     OW14920   5.498   1.571   0.937
 4674SOL    HW114921   5.522   1.640   0.869
 4674SOL    HW214922   5.579   1.549   0.991
 4675SOL     OW14923   3.458   0.497   6.894
 4675SOL    HW114924   3.388   0.460   6.832
 4675SOL    HW214925   3.429   0.587   6.927
 4676SOL     OW14926   0.096   6.966   4.932
 4676SOL    HW114927   0.130   0.037   4.923
 4676SOL    HW214928   0.130   6.926   5.017
 4677SOL     OW14929   2.869   0.143   6.942
 4677SOL    HW114930   2.936   0.125   6.870
 4677SOL    HW214931   2.917   0.178   0.001
 4678SOL     OW14932   2.098   5.231   2.164
 4678SOL    HW114933   2.136   5.315   2.203
 4678SOL    HW214934   2.162   5.155   2.180
 4679SOL     OW14935   3.593   1.352   6.631
 4679SOL    HW114936   3.669   1.406   6.668
 4679SOL    HW214937   3.528   1.332   6.704
 4680SOL     OW14938   2.397   6.194   1.629
 4680SOL    HW114939   2.492   6.178   1.605
 4680SOL    HW214940   2.392   6.228   1.723
 4681SOL     OW14941   6.216   6.042   4.761
 4681SOL    HW114942   6.118   6.025   4.766
 4681SOL    HW214943   6.265   5.974   4.815
 4682SOL     OW14944   4.731   5.087   6.631
 4682SOL    HW114945   4.826   5.089   6.598
 4682SOL    HW214946   4.724   5.023   6.707
 4683SOL     OW14947   5.023   4.486   2.256
 4683SOL    HW114948   4.997   4.402   2.303
 4683SOL    HW214949   5.008   4.564   2.317
 4684SOL     OW14950   0.093   2.452   4.406
 4684SOL    HW114951   0.181   2.468   4.452
 4684SOL    HW214952   0.099   2.484   4.312
 4685SOL     OW14953   0.178   5.182   4.202
 4685SOL    HW114954   0.164   5.150   4.296
 4685SOL    HW214955   0.109   5.141   4.142
 4686SOL     OW14956   5.104   6.035   0.414
 4686SOL    HW114957   5.160   6.043   0.497
 4686SOL    HW214958   5.132   6.105   0.348
 4687SOL     OW14959   6.593   4.737   5.260
 4687SOL    HW114960   6.530   4.783   5.322
 4687SOL    HW214961   6.640   4.663   5.308
 4688SOL     OW14962   0.025   2.405   6.216
 4688SOL    HW114963   0.039   2.498   6.249
 4688SOL    HW214964   0.099   2.346   6.250
 4689SOL     OW14965   5.483   0.417   6.276
 4689SOL    HW114966   5.383   0.421   6.273
 4689SOL    HW214967   5.516   0.473   6.352
 4690SOL     OW14968   0.958   1.350   6.986
 4690SOL    HW114969   1.012   1.266   6.988
 4690SOL    HW214970   0.978   1.401   6.903
 4691SOL     OW14971   3.141   3.716   2.146
 4691SOL    HW114972   3.095   3.628   2.145
 4691SOL    HW214973   3.240   3.702   2.152
 4692SOL     OW14974   6.894   5.259   2.294
 4692SOL    HW114975   6.941   5.223   2.213
 4692SOL    HW214976   6.959   5.313   2.348
 4693SOL     OW14977   0.706   1.059   4.201
 4693SOL    HW114978   0.735   1.103   4.116
 4693SOL    HW214979   0.623   1.006   4.184
 4694SOL     OW14980   2.791   0.639   6.965
 4694SOL    HW114981   2.729   0.592   0.005
 4694SOL    HW214982   2.875   0.663   7.013
 4695SOL     OW14983   3.207   3.316   2.102
 4695SOL    HW114984   3.215   3.270   2.013
 4695SOL    HW214985   3.295   3.354   2.128
 4696SOL     OW14986   1.162   4.742   6.415
 4696SOL    HW114987   1.152   4.706   6.508
 4696SOL    HW214988   1.252   4.717   6.379
 4697SOL     OW14989   1.672   3.388   0.864
 4697SOL    HW114990   1.606   3.452   0.905
 4697SOL    HW214991   1.696   3.318   0.931
 4698SOL     OW14992   4.634   5.011   2.675
 4698SOL    HW114993   4.577   4.939   2.638
 4698SOL    HW214994   4.713   5.026   2.615
 4699SOL     OW14995   1.118   0.143   2.550
 4699SOL    HW114996   1.032   0.120   2.596
 4699SOL    HW214997   1.177   0.062   2.548
 4700SOL     OW14998   5.426   1.272   1.662
 4700SOL    HW114999   5.327   1.283   1.674
 4700SOL    HW215000   5.474   1.329   1.728
 4701SOL     OW15001   1.075   1.630   0.301
 4701SOL    HW115002   1.095   1.714   0.252
 4701SOL    HW215003   1.028   1.651   0.387
 4702SOL     OW15004   5.031   4.659   6.391
 4702SOL    HW115005   5.028   4.759   6.384
 4702SOL    HW215006   5.126   4.630   6.402
 4703SOL     OW15007   0.518   2.405   2.411
 4703SOL    HW115008   0.585   2.337   2.440
 4703SOL    HW215009   0.562   2.495   2.406
 4704SOL     OW15010   6.979   6.527   0.923
 4704SOL    HW115011   6.916   6.550   0.997
 4704SOL    HW215012   6.965   6.590   0.846
 4705SOL     OW15013   3.340   3.519   2.808
 4705SOL    HW115014   3.321   3.593   2.745
 4705SOL    HW215015   3.433   3.529   2.844
 4706SOL     OW15016   4.123   6.739   6.603
 4706SOL    HW115017   4.221   6.722   6.586
 4706SOL    HW215018   4.089   6.672   6.669
 4707SOL     OW15019   2.102   6.011   0.708
 4707SOL    HW115020   2.118   5.920   0.746
 4707SOL    HW215021   2.176   6.034   0.645
 4708SOL     OW15022   1.981   2.964   0.740
 4708SOL    HW115023   1.959   3.051   0.696
 4708SOL    HW215024   2.017   2.981   0.832
 4709SOL     OW15025   4.017   5.385   5.058
 4709SOL    HW115026   3.921   5.398   5.035
 4709SOL    HW215027   4.026   5.310   5.124
 4710SOL     OW15028   4.000   1.333   5.923
 4710SOL    HW115029   3.902   1.326   5.903
 4710SOL    HW215030   4.021   1.275   6.002
 4711SOL     OW15031   4.540   0.748   2.805
 4711SOL    HW115032   4.602   0.672   2.784
 4711SOL    HW215033   4.450   0.711   2.828
 4712SOL     OW15034   2.448   4.761   0.479
 4712SOL    HW115035   2.546   4.757   0.501
 4712SOL    HW215036   2.395   4.748   0.562
 4713SOL     OW15037   2.634   3.935   0.829
 4713SOL    HW115038   2.685   3.851   0.841
 4713SOL    HW215039   2.696   4.009   0.801
 4714SOL     OW15040   2.525   1.991   0.155
 4714SOL    HW115041   2.547   1.926   0.227
 4714SOL    HW215042   2.571   1.964   0.070
 4715SOL     OW15043   6.372   3.701   1.781
 4715SOL    HW115044   6.380   3.799   1.800
 4715SOL    HW215045   6.425   3.678   1.700
 4716SOL     OW15046   3.667   5.468   6.190
 4716SOL    HW115047   3.747   5.477   6.251
 4716SOL    HW215048   3.594   5.420   6.238
 4717SOL     OW15049   1.243   6.045   3.198
 4717SOL    HW115050   1.240   5.952   3.232
 4717SOL    HW215051   1.153   6.071   3.162
 4718SOL     OW15052   5.552   1.682   6.424
 4718SOL    HW115053   5.557   1.583   6.410
 4718SOL    HW215054   5.457   1.707   6.445
 4719SOL     OW15055   5.151   3.046   2.645
 4719SOL    HW115056   5.137   3.065   2.742
 4719SOL    HW215057   5.242   3.079   2.618
 4720SOL     OW15058   3.186   6.447   5.518
 4720SOL    HW115059   3.207   6.545   5.513
 4720SOL    HW215060   3.190   6.407   5.427
 4721SOL     OW15061   6.636   2.294   1.838
 4721SOL    HW115062   6.706   2.229   1.867
 4721SOL    HW215063   6.546   2.250   1.840
 4722SOL     OW15064   1.321   5.957   6.732
 4722SOL    HW115065   1.337   5.887   6.662
 4722SOL    HW215066   1.378   5.936   6.812
 4723SOL     OW15067   1.731   5.217   5.349
 4723SOL    HW115068   1.745   5.159   5.430
 4723SOL    HW215069   1.819   5.250   5.317
 4724SOL     OW15070   4.674   6.398   2.494
 4724SOL    HW115071   4.615   6.479   2.493
 4724SOL    HW215072   4.720   6.389   2.406
 4725SOL     OW15073   5.319   6.299   2.944
 4725SOL    HW115074   5.335   6.352   3.027
 4725SOL    HW215075   5.390   6.229   2.934
 4726SOL     OW15076   1.637   3.400   6.827
 4726SOL    HW115077   1.725   3.354   6.835
 4726SOL    HW215078   1.567   3.333   6.800
 4727SOL     OW15079   6.961   6.362   6.792
 4727SOL    HW115080   6.986   6.292   6.725
 4727SOL    HW215081   6.868   6.394   6.774
 4728SOL     OW15082   4.947   1.851   1.301
 4728SOL    HW115083   4.918   1.844   1.396
 4728SOL    HW215084   4.876   1.811   1.242
 4729SOL     OW15085   2.458   1.081   2.687
 4729SOL    HW115086   2.472   1.132   2.603
 4729SOL    HW215087   2.369   1.105   2.726
 4730SOL     OW15088   2.220   6.220   5.329
 4730SOL    HW115089   2.295   6.178   5.381
 4730SOL    HW215090   2.250   6.239   5.236
 4731SOL     OW15091   5.084   0.225   6.599
 4731SOL    HW115092   5.090   0.317   6.636
 4731SOL    HW215093   5.024   0.224   6.519
 4732SOL     OW15094   6.736   3.086   6.546
 4732SOL    HW115095   6.791   3.041   6.617
 4732SOL    HW215096   6.781   3.076   6.457
 4733SOL     OW15097   0.790   3.728   3.593
 4733SOL    HW115098   0.717   3.767   3.536
 4733SOL    HW215099   0.750   3.663   3.658
 4734SOL     OW15100   5.238   3.466   6.763
 4734SOL    HW115101   5.203   3.399   6.698
 4734SOL    HW215102   5.161   3.510   6.810
 4735SOL     OW15103   0.708   5.104   3.804
 4735SOL    HW115104   0.729   5.192   3.762
 4735SOL    HW215105   0.664   5.045   3.736
 4736SOL     OW15106   0.405   1.671   6.842
 4736SOL    HW115107   0.483   1.719   6.883
 4736SOL    HW215108   0.409   1.680   6.742
 4737SOL     OW15109   1.622   5.336   2.367
 4737SOL    HW115110   1.565   5.272   2.315
 4737SOL    HW215111   1.718   5.306   2.362
 4738SOL     OW15112   0.389   5.964   2.869
 4738SOL    HW115113   0.394   5.966   2.769
 4738SOL    HW215114   0.302   5.924   2.897
 4739SOL     OW15115   4.066   7.011   2.479
 4739SOL    HW115116   4.021   0.062   2.529
 4739SOL    HW215117   4.138   6.972   2.536
 4740SOL     OW15118   6.913   1.240   2.436
 4740SOL    HW115119   7.004   1.279   2.423
 4740SOL    HW215120   6.903   1.159   2.377
 4741SOL     OW15121   3.387   2.385   1.723
 4741SOL    HW115122   3.476   2.383   1.770
 4741SOL    HW215123   3.376   2.302   1.669
 4742SOL     OW15124   1.847   6.900   6.442
 4742SOL    HW115125   1.848   6.997   6.422
 4742SOL    HW215126   1.910   6.851   6.382
 4743SOL     OW15127   1.996   3.660   2.517
 4743SOL    HW115128   2.012   3.731   2.448
 4743SOL    HW215129   2.025   3.694   2.606
 4744SOL     OW15130   2.120   5.079   0.373
 4744SOL    HW115131   2.149   5.036   0.288
 4744SOL    HW215132   2.070   5.164   0.352
 4745SOL     OW15133   3.272   3.934   0.224
 4745SOL    HW115134   3.244   3.844   0.259
 4745SOL    HW215135   3.197   3.999   0.236
 4746SOL     OW15136   4.138   6.028   4.007
 4746SOL    HW115137   4.052   5.989   4.043
 4746SOL    HW215138   4.179   6.086   4.077
 4747SOL     OW15139   1.172   3.444   0.728
 4747SOL    HW115140   1.241   3.395   0.781
 4747SOL    HW215141   1.207   3.534   0.703
 4748SOL     OW15142   1.369   6.915   1.694
 4748SOL    HW115143   1.374   6.996   1.751
 4748SOL    HW215144   1.430   6.925   1.616
 4749SOL     OW15145   2.141   6.946   5.967
 4749SOL    HW115146   2.157   6.948   5.868
 4749SOL    HW215147   2.186   6.866   6.006
 4750SOL     OW15148   6.408   4.045   5.390
 4750SOL    HW115149   6.497   4.079   5.361
 4750SOL    HW215150   6.378   4.095   5.471
 4751SOL     OW15151   4.807   2.394   3.245
 4751SOL    HW115152   4.851   2.314   3.203
 4751SOL    HW215153   4.786   2.461   3.174
 4752SOL     OW15154   4.540   0.662   0.350
 4752SOL    HW115155   4.500   0.577   0.385
 4752SOL    HW215156   4.524   0.667   0.251
 4753SOL     OW15157   1.177   6.887   4.576
 4753SOL    HW115158   1.089   6.877   4.529
 4753SOL    HW215159   1.226   6.800   4.573
 4754SOL     OW15160   4.756   3.864   5.231
 4754SOL    HW115161   4.716   3.776   5.204
 4754SOL    HW215162   4.763   3.867   5.331
 4755SOL     OW15163   2.315   0.281   1.280
 4755SOL    HW115164   2.291   0.191   1.316
 4755SOL    HW215165   2.291   0.286   1.183
 4756SOL     OW15166   6.977   3.990   6.088
 4756SOL    HW115167   0.036   3.943   6.054
 4756SOL    HW215168   6.989   4.015   6.184
 4757SOL     OW15169   1.526   2.786   1.465
 4757SOL    HW115170   1.580   2.849   1.520
 4757SOL    HW215171   1.498   2.831   1.380
 4758SOL     OW15172   1.385   6.642   3.225
 4758SOL    HW115173   1.402   6.547   3.250
 4758SOL    HW215174   1.469   6.696   3.240
 4759SOL     OW15175   0.520   6.156   0.102
 4759SOL    HW115176   0.435   6.201   0.132
 4759SOL    HW215177   0.559   6.205   0.025
 4760SOL     OW15178   1.069   0.201   0.537
 4760SOL    HW115179   1.016   0.194   0.621
 4760SOL    HW215180   1.067   0.114   0.488
 4761SOL     OW15181   1.058   0.543   0.342
 4761SOL    HW115182   1.103   0.455   0.357
 4761SOL    HW215183   1.119   0.603   0.291
 4762SOL     OW15184   1.504   5.746   2.058
 4762SOL    HW115185   1.552   5.832   2.075
 4762SOL    HW215186   1.416   5.746   2.105
 4763SOL     OW15187   4.763   6.671   2.261
 4763SOL    HW115188   4.781   6.599   2.193
 4763SOL    HW215189   4.679   6.720   2.237
 4764SOL     OW15190   4.582   3.481   5.392
 4764SOL    HW115191   4.621   3.536   5.319
 4764SOL    HW215192   4.484   3.500   5.400
 4765SOL     OW15193   3.653   0.835   6.442
 4765SOL    HW115194   3.605   0.921   6.457
 4765SOL    HW215195   3.589   0.758   6.447
 4766SOL     OW15196   6.299   6.233   4.565
 4766SOL    HW115197   6.278   6.150   4.617
 4766SOL    HW215198   6.300   6.211   4.467
 4767SOL     OW15199   2.665   5.590   5.105
 4767SOL    HW115200   2.593   5.581   5.036
 4767SOL    HW215201   2.634   5.648   5.180
 4768SOL     OW15202   4.631   3.459   6.132
 4768SOL    HW115203   4.622   3.370   6.088
 4768SOL    HW215204   4.586   3.529   6.076
 4769SOL     OW15205   3.353   6.081   0.459
 4769SOL    HW115206   3.317   6.172   0.479
 4769SOL    HW215207   3.322   6.052   0.368
 4770SOL     OW15208   0.029   2.445   4.698
 4770SOL    HW115209   0.034   2.457   4.599
 4770SOL    HW215210   6.967   2.487   4.733
 4771SOL     OW15211   2.489   6.553   4.866
 4771SOL    HW115212   2.489   6.600   4.954
 4771SOL    HW215213   2.571   6.579   4.814
 4772SOL     OW15214   3.172   5.350   0.656
 4772SOL    HW115215   3.147   5.271   0.711
 4772SOL    HW215216   3.209   5.422   0.716
 4773SOL     OW15217   1.120   6.053   4.507
 4773SOL    HW115218   1.219   6.049   4.494
 4773SOL    HW215219   1.095   5.994   4.584
 4774SOL     OW15220   1.656   4.031   0.841
 4774SOL    HW115221   1.649   4.068   0.748
 4774SOL    HW215222   1.724   4.083   0.892
 4775SOL     OW15223   4.637   6.975   5.072
 4775SOL    HW115224   4.656   7.022   4.985
 4775SOL    HW215225   4.685   6.887   5.074
 4776SOL     OW15226   1.250   1.067   4.980
 4776SOL    HW115227   1.242   0.967   4.980
 4776SOL    HW215228   1.291   1.098   4.894
 4777SOL     OW15229   1.804   5.882   0.894
 4777SOL    HW115230   1.818   5.856   0.798
 4777SOL    HW215231   1.735   5.954   0.900
 4778SOL     OW15232   0.898   2.842   4.612
 4778SOL    HW115233   0.831   2.771   4.588
 4778SOL    HW215234   0.987   2.799   4.628
 4779SOL     OW15235   6.010   6.347   4.318
 4779SOL    HW115236   5.967   6.378   4.234
 4779SOL    HW215237   6.088   6.288   4.296
 4780SOL     OW15238   5.796   2.668   5.586
 4780SOL    HW115239   5.805   2.630   5.678
 4780SOL    HW215240   5.704   2.651   5.551
 4781SOL     OW15241   2.633   5.616   2.635
 4781SOL    HW115242   2.630   5.566   2.721
 4781SOL    HW215243   2.705   5.686   2.640
 4782SOL     OW15244   6.238   5.844   6.068
 4782SOL    HW115245   6.225   5.810   5.975
 4782SOL    HW215246   6.152   5.838   6.118
 4783SOL     OW15247   6.027   3.907   0.045
 4783SOL    HW115248   6.005   3.954   0.131
 4783SOL    HW215249   5.945   3.903   7.010
 4784SOL     OW15250   6.131   1.713   5.903
 4784SOL    HW115251   6.169   1.632   5.858
 4784SOL    HW215252   6.052   1.687   5.958
 4785SOL     OW15253   0.150   6.745   2.927
 4785SOL    HW115254   0.179   6.778   2.837
 4785SOL    HW215255   0.224   6.690   2.967
 4786SOL     OW15256   2.676   0.469   0.121
 4786SOL    HW115257   2.765   0.449   0.162
 4786SOL    HW215258   2.604   0.435   0.181
 4787SOL     OW15259   3.828   1.918   4.519
 4787SOL    HW115260   3.859   1.878   4.433
 4787SOL    HW215261   3.864   1.866   4.596
 4788SOL     OW15262   5.993   5.773   0.599
 4788SOL    HW115263   5.895   5.759   0.587
 4788SOL    HW215264   6.013   5.788   0.696
 4789SOL     OW15265   4.972   1.631   1.850
 4789SOL    HW115266   4.897   1.565   1.853
 4789SOL    HW215267   5.041   1.600   1.785
 4790SOL     OW15268   5.335   1.639   5.361
 4790SOL    HW115269   5.350   1.593   5.274
 4790SOL    HW215270   5.328   1.571   5.434
 4791SOL     OW15271   0.618   2.671   1.032
 4791SOL    HW115272   0.649   2.589   1.080
 4791SOL    HW215273   0.522   2.659   1.004
 4792SOL     OW15274   1.866   4.471   4.424
 4792SOL    HW115275   1.951   4.418   4.426
 4792SOL    HW215276   1.836   4.489   4.518
 4793SOL     OW15277   0.976   3.568   5.937
 4793SOL    HW115278   1.059   3.519   5.962
 4793SOL    HW215279   0.954   3.550   5.841
 4794SOL     OW15280   4.508   0.307   4.148
 4794SOL    HW115281   4.415   0.285   4.118
 4794SOL    HW215282   4.560   0.345   4.071
 4795SOL     OW15283   0.015   1.738   4.591
 4795SOL    HW115284   0.053   1.700   4.506
 4795SOL    HW215285   7.008   1.832   4.574
 4796SOL     OW15286   3.749   0.779   6.107
 4796SOL    HW115287   3.657   0.746   6.127
 4796SOL    HW215288   3.745   0.847   6.033
 4797SOL     OW15289   0.307   5.397   4.287
 4797SOL    HW115290   0.257   5.320   4.249
 4797SOL    HW215291   0.248   5.449   4.349
 4798SOL     OW15292   5.913   4.914   5.900
 4798SOL    HW115293   5.925   4.996   5.956
 4798SOL    HW215294   5.971   4.841   5.935
 4799SOL     OW15295   4.062   1.520   0.416
 4799SOL    HW115296   3.993   1.467   0.366
 4799SOL    HW215297   4.138   1.542   0.354
 4800SOL     OW15298   1.947   4.646   6.697
 4800SOL    HW115299   1.889   4.646   6.779
 4800SOL    HW215300   1.964   4.552   6.668
 4801SOL     OW15301   4.135   2.730   0.595
 4801SOL    HW115302   4.084   2.811   0.623
 4801SOL    HW215303   4.138   2.725   0.495
 4802SOL     OW15304   6.844   6.446   1.862
 4802SOL    HW115305   6.824   6.429   1.766
 4802SOL    HW215306   6.846   6.359   1.912
 4803SOL     OW15307   5.558   4.927   0.956
 4803SOL    HW115308   5.541   4.836   0.920
 4803SOL    HW215309   5.648   4.959   0.926
 4804SOL     OW15310   5.624   1.163   0.928
 4804SOL    HW115311   5.570   1.143   0.846
 4804SOL    HW215312   5.660   1.077   0.966
 4805SOL     OW15313   6.557   1.093   2.129
 4805SOL    HW115314   6.475   1.076   2.184
 4805SOL    HW215315   6.565   1.190   2.111
 4806SOL     OW15316   1.177   4.007   3.079
 4806SOL    HW115317   1.238   4.008   3.159
 4806SOL    HW215318   1.131   4.095   3.071
 4807SOL     OW15319   1.756   2.916   6.799
 4807SOL    HW115320   1.794   2.995   6.848
 4807SOL    HW215321   1.710   2.947   6.716
 4808SOL     OW15322   3.790   5.449   0.801
 4808SOL    HW115323   3.783   5.548   0.790
 4808SOL    HW215324   3.763   5.404   0.716
 4809SOL     OW15325   3.571   4.459   1.707
 4809SOL    HW115326   3.487   4.406   1.706
 4809SOL    HW215327   3.554   4.548   1.750
 4810SOL     OW15328   1.163   4.129   4.452
 4810SOL    HW115329   1.225   4.052   4.437
 4810SOL    HW215330   1.137   4.168   4.364
 4811SOL     OW15331   3.659   4.081   4.693
 4811SOL    HW115332   3.669   4.013   4.765
 4811SOL    HW215333   3.724   4.062   4.619
 4812SOL     OW15334   0.529   6.865   2.175
 4812SOL    HW115335   0.618   6.855   2.129
 4812SOL    HW215336   0.521   6.957   2.212
 4813SOL     OW15337   5.666   1.979   6.348
 4813SOL    HW115338   5.756   2.020   6.334
 4813SOL    HW215339   5.652   1.962   6.446
 4814SOL     OW15340   0.025   3.593   2.368
 4814SOL    HW115341   0.050   3.540   2.450
 4814SOL    HW215342   6.949   3.609   2.368
 4815SOL     OW15343   5.139   4.888   2.700
 4815SOL    HW115344   5.042   4.902   2.686
 4815SOL    HW215345   5.159   4.889   2.798
 4816SOL     OW15346   2.317   6.850   1.552
 4816SOL    HW115347   2.348   6.818   1.641
 4816SOL    HW215348   2.312   6.773   1.488
 4817SOL     OW15349   3.735   1.281   1.687
 4817SOL    HW115350   3.676   1.240   1.757
 4817SOL    HW215351   3.744   1.379   1.704
 4818SOL     OW15352   1.675   0.718   4.230
 4818SOL    HW115353   1.719   0.670   4.154
 4818SOL    HW215354   1.576   0.705   4.225
 4819SOL     OW15355   3.152   2.005   1.374
 4819SOL    HW115356   3.221   1.999   1.301
 4819SOL    HW215357   3.090   1.927   1.367
 4820SOL     OW15358   6.472   3.302   1.185
 4820SOL    HW115359   6.424   3.384   1.217
 4820SOL    HW215360   6.568   3.308   1.210
 4821SOL     OW15361   6.396   5.542   1.678
 4821SOL    HW115362   6.337   5.545   1.597
 4821SOL    HW215363   6.355   5.484   1.748
 4822SOL     OW15364   1.756   3.317   3.537
 4822SOL    HW115365   1.744   3.279   3.445
 4822SOL    HW215366   1.706   3.261   3.603
 4823SOL     OW15367   0.153   0.232   3.621
 4823SOL    HW115368   0.159   0.329   3.596
 4823SOL    HW215369   0.242   0.189   3.607
 4824SOL     OW15370   5.409   1.994   4.108
 4824SOL    HW115371   5.323   1.943   4.106
 4824SOL    HW215372   5.460   1.976   4.024
 4825SOL     OW15373   2.085   2.772   4.354
 4825SOL    HW115374   2.082   2.677   4.382
 4825SOL    HW215375   2.118   2.829   4.429
 4826SOL     OW15376   0.185   6.916   0.972
 4826SOL    HW115377   0.199   6.825   1.011
 4826SOL    HW215378   0.214   6.986   1.037
 4827SOL     OW15379   5.446   1.142   2.047
 4827SOL    HW115380   5.534   1.132   2.093
 4827SOL    HW215381   5.416   1.053   2.014
 4828SOL     OW15382   5.904   3.828   1.632
 4828SOL    HW115383   5.917   3.760   1.704
 4828SOL    HW215384   5.980   3.892   1.633
 4829SOL     OW15385   3.614   6.843   6.094
 4829SOL    HW115386   3.668   6.922   6.068
 4829SOL    HW215387   3.537   6.872   6.152
 4830SOL     OW15388   5.099   5.440   4.149
 4830SOL    HW115389   5.007   5.442   4.110
 4830SOL    HW215390   5.106   5.511   4.219
 4831SOL     OW15391   6.600   5.048   5.882
 4831SOL    HW115392   6.699   5.037   5.886
 4831SOL    HW215393   6.565   5.005   5.798
 4832SOL     OW15394   3.283   2.392   6.446
 4832SOL    HW115395   3.279   2.381   6.347
 4832SOL    HW215396   3.371   2.360   6.480
 4833SOL     OW15397   4.739   2.126   2.954
 4833SOL    HW115398   4.656   2.175   2.979
 4833SOL    HW215399   4.811   2.147   3.020
 4834SOL     OW15400   3.902   0.185   0.491
 4834SOL    HW115401   3.930   0.201   0.585
 4834SOL    HW215402   3.961   0.114   0.451
 4835SOL     OW15403   1.709   0.024   6.782
 4835SOL    HW115404   1.679   7.011   6.870
 4835SOL    HW215405   1.799   7.007   6.759
 4836SOL     OW15406   4.220   2.349   3.604
 4836SOL    HW115407   4.214   2.249   3.611
 4836SOL    HW215408   4.132   2.389   3.626
 4837SOL     OW15409   3.736   2.930   1.780
 4837SOL    HW115410   3.663   2.865   1.763
 4837SOL    HW215411   3.766   2.923   1.875
 4838SOL     OW15412   2.687   4.972   2.438
 4838SOL    HW115413   2.595   4.980   2.476
 4838SOL    HW215414   2.715   4.876   2.438
 4839SOL     OW15415   0.670   3.780   5.835
 4839SOL    HW115416   0.726   3.775   5.918
 4839SOL    HW215417   0.584   3.827   5.855
 4840SOL     OW15418   6.861   0.470   6.097
 4840SOL    HW115419   6.944   0.458   6.151
 4840SOL    HW215420   6.878   0.439   6.003
 4841SOL     OW15421   3.207   5.552   1.979
 4841SOL    HW115422   3.266   5.529   2.056
 4841SOL    HW215423   3.169   5.469   1.939
 4842SOL     OW15424   3.332   4.874   1.958
 4842SOL    HW115425   3.327   4.901   2.054
 4842SOL    HW215426   3.369   4.781   1.950
 4843SOL     OW15427   6.191   4.170   0.576
 4843SOL    HW115428   6.204   4.099   0.646
 4843SOL    HW215429   6.095   4.197   0.574
 4844SOL     OW15430   7.009   3.675   6.706
 4844SOL    HW115431   6.915   3.650   6.686
 4844SOL    HW215432   0.044   3.659   6.625
 4845SOL     OW15433   6.721   5.468   4.354
 4845SOL    HW115434   6.781   5.393   4.380
 4845SOL    HW215435   6.756   5.554   4.391
 4846SOL     OW15436   6.599   3.403   1.423
 4846SOL    HW115437   6.649   3.356   1.495
 4846SOL    HW215438   6.659   3.468   1.377
 4847SOL     OW15439   3.327   1.797   5.874
 4847SOL    HW115440   3.256   1.736   5.910
 4847SOL    HW215441   3.301   1.829   5.783
 4848SOL     OW15442   1.895   0.954   4.613
 4848SOL    HW115443   1.915   1.006   4.529
 4848SOL    HW215444   1.955   0.986   4.686
 4849SOL     OW15445   1.269   0.449   0.061
 4849SOL    HW115446   1.234   0.535   0.099
 4849SOL    HW215447   1.276   0.381   0.133
 4850SOL     OW15448   4.084   0.602   1.915
 4850SOL    HW115449   4.057   0.694   1.944
 4850SOL    HW215450   4.016   0.566   1.851
 4851SOL     OW15451   3.670   5.922   5.303
 4851SOL    HW115452   3.666   5.987   5.228
 4851SOL    HW215453   3.619   5.839   5.279
 4852SOL     OW15454   0.856   6.980   6.316
 4852SOL    HW115455   0.840   0.016   6.237
 4852SOL    HW215456   0.777   6.920   6.329
 4853SOL     OW15457   3.269   0.996   2.389
 4853SOL    HW115458   3.323   1.028   2.312
 4853SOL    HW215459   3.183   1.046   2.394
 4854SOL     OW15460   4.937   6.085   2.733
 4854SOL    HW115461   4.838   6.091   2.723
 4854SOL    HW215462   4.972   6.009   2.679
 4855SOL     OW15463   5.938   2.671   2.367
 4855SOL    HW115464   5.890   2.620   2.295
 4855SOL    HW215465   5.876   2.684   2.445
 4856SOL     OW15466   1.661   3.936   2.606
 4856SOL    HW115467   1.655   3.871   2.682
 4856SOL    HW215468   1.611   4.019   2.629
 4857SOL     OW15469   1.766   2.152   5.460
 4857SOL    HW115470   1.692   2.123   5.521
 4857SOL    HW215471   1.727   2.202   5.383
 4858SOL     OW15472   1.808   1.094   4.329
 4858SOL    HW115473   1.845   1.168   4.385
 4858SOL    HW215474   1.710   1.086   4.346
 4859SOL     OW15475   0.907   0.331   4.072
 4859SOL    HW115476   0.984   0.275   4.101
 4859SOL    HW215477   0.931   0.381   3.988
 4860SOL     OW15478   3.373   4.890   2.651
 4860SOL    HW115479   3.445   4.846   2.597
 4860SOL    HW215480   3.398   4.985   2.669
 4861SOL     OW15481   4.731   5.528   0.275
 4861SOL    HW115482   4.711   5.614   0.322
 4861SOL    HW215483   4.693   5.452   0.327
 4862SOL     OW15484   2.112   5.001   3.589
 4862SOL    HW115485   2.061   5.036   3.511
 4862SOL    HW215486   2.053   4.998   3.670
 4863SOL     OW15487   5.594   4.786   0.658
 4863SOL    HW115488   5.567   4.844   0.581
 4863SOL    HW215489   5.521   4.722   0.679
 4864SOL     OW15490   3.124   1.138   4.078
 4864SOL    HW115491   3.162   1.229   4.096
 4864SOL    HW215492   3.194   1.069   4.095
 4865SOL     OW15493   1.735   0.737   5.409
 4865SOL    HW115494   1.714   0.792   5.329
 4865SOL    HW215495   1.693   0.778   5.490
 4866SOL     OW15496   5.978   3.599   0.939
 4866SOL    HW115497   5.955   3.665   1.011
 4866SOL    HW215498   6.070   3.563   0.956
 4867SOL     OW15499   4.435   5.932   2.711
 4867SOL    HW115500   4.391   5.920   2.622
 4867SOL    HW215501   4.392   5.872   2.778
 4868SOL     OW15502   6.562   4.731   2.524
 4868SOL    HW115503   6.577   4.669   2.601
 4868SOL    HW215504   6.497   4.802   2.550
 4869SOL     OW15505   1.772   1.550   0.578
 4869SOL    HW115506   1.794   1.635   0.626
 4869SOL    HW215507   1.856   1.506   0.547
 4870SOL     OW15508   0.476   6.323   1.098
 4870SOL    HW115509   0.498   6.234   1.137
 4870SOL    HW215510   0.545   6.348   1.029
 4871SOL     OW15511   0.691   0.579   3.731
 4871SOL    HW115512   0.738   0.660   3.694
 4871SOL    HW215513   0.613   0.557   3.672
 4872SOL     OW15514   6.405   0.522   3.433
 4872SOL    HW115515   6.491   0.516   3.383
 4872SOL    HW215516   6.398   0.612   3.477
 4873SOL     OW15517   6.516   5.742   4.433
 4873SOL    HW115518   6.536   5.805   4.358
 4873SOL    HW215519   6.431   5.693   4.413
 4874SOL     OW15520   4.968   3.154   2.388
 4874SOL    HW115521   4.984   3.135   2.291
 4874SOL    HW215522   5.026   3.094   2.444
 4875SOL     OW15523   5.841   1.222   0.342
 4875SOL    HW115524   5.859   1.193   0.248
 4875SOL    HW215525   5.927   1.254   0.384
 4876SOL     OW15526   6.983   1.126   3.553
 4876SOL    HW115527   6.914   1.126   3.481
 4876SOL    HW215528   6.947   1.170   3.635
 4877SOL     OW15529   0.469   2.016   5.313
 4877SOL    HW115530   0.381   1.977   5.285
 4877SOL    HW215531   0.454   2.108   5.350
 4878SOL     OW15532   6.230   1.262   2.045
 4878SOL    HW115533   6.306   1.316   2.081
 4878SOL    HW215534   6.219   1.280   1.948
 4879SOL     OW15535   4.431   2.169   1.856
 4879SOL    HW115536   4.442   2.074   1.886
 4879SOL    HW215537   4.435   2.230   1.935
 4880SOL     OW15538   6.103   3.644   6.991
 4880SOL    HW115539   6.075   3.577   0.037
 4880SOL    HW215540   6.086   3.737   0.003
 4881SOL     OW15541   1.698   1.225   0.075
 4881SOL    HW115542   1.734   1.238   7.005
 4881SOL    HW215543   1.635   1.299   0.097
 4882SOL     OW15544   4.222   1.373   5.647
 4882SOL    HW115545   4.264   1.331   5.728
 4882SOL    HW215546   4.292   1.424   5.597
 4883SOL     OW15547   4.606   4.121   0.660
 4883SOL    HW115548   4.639   4.192   0.722
 4883SOL    HW215549   4.637   4.032   0.692
 4884SOL     OW15550   3.008   5.359   1.582
 4884SOL    HW115551   2.990   5.261   1.586
 4884SOL    HW215552   2.925   5.407   1.554
 4885SOL     OW15553   2.067   4.794   1.026
 4885SOL    HW115554   2.017   4.872   1.063
 4885SOL    HW215555   2.092   4.732   1.100
 4886SOL     OW15556   2.988   6.562   1.503
 4886SOL    HW115557   3.045   6.617   1.564
 4886SOL    HW215558   2.939   6.493   1.556
 4887SOL     OW15559   0.076   6.482   1.704
 4887SOL    HW115560   0.104   6.445   1.615
 4887SOL    HW215561   7.006   6.520   1.697
 4888SOL     OW15562   2.966   0.061   3.257
 4888SOL    HW115563   3.020   0.126   3.311
 4888SOL    HW215564   3.026   0.010   3.196
 4889SOL     OW15565   6.587   2.290   5.187
 4889SOL    HW115566   6.530   2.269   5.266
 4889SOL    HW215567   6.681   2.265   5.205
 4890SOL     OW15568   6.873   1.651   5.285
 4890SOL    HW115569   6.871   1.589   5.207
 4890SOL    HW215570   6.795   1.713   5.280
 4891SOL     OW15571   2.693   5.667   0.122
 4891SOL    HW115572   2.758   5.734   0.083
 4891SOL    HW215573   2.709   5.658   0.220
 4892SOL     OW15574   4.704   5.835   2.499
 4892SOL    HW115575   4.626   5.773   2.491
 4892SOL    HW215576   4.772   5.794   2.559
 4893SOL     OW15577   6.288   3.561   2.006
 4893SOL    HW115578   6.315   3.621   1.932
 4893SOL    HW215579   6.247   3.615   2.080
 4894SOL     OW15580   3.564   0.666   2.949
 4894SOL    HW115581   3.478   0.636   2.991
 4894SOL    HW215582   3.615   0.586   2.916
 4895SOL     OW15583   0.643   4.606   3.800
 4895SOL    HW115584   0.571   4.643   3.859
 4895SOL    HW215585   0.635   4.506   3.796
 4896SOL     OW15586   2.588   4.579   2.420
 4896SOL    HW115587   2.665   4.644   2.422
 4896SOL    HW215588   2.515   4.616   2.362
 4897SOL     OW15589   2.132   5.755   5.338
 4897SOL    HW115590   2.087   5.837   5.301
 4897SOL    HW215591   2.230   5.771   5.344
 4898SOL     OW15592   3.846   1.323   4.938
 4898SOL    HW115593   3.780   1.374   4.993
 4898SOL    HW215594   3.826   1.336   4.841
 4899SOL     OW15595   6.245   4.852   3.116
 4899SOL    HW115596   6.296   4.780   3.164
 4899SOL    HW215597   6.156   4.865   3.160
 4900SOL     OW15598   3.357   5.910   5.434
 4900SOL    HW115599   3.365   5.905   5.334
 4900SOL    HW215600   3.400   5.995   5.466
 4901SOL     OW15601   2.180   1.605   5.504
 4901SOL    HW115602   2.084   1.581   5.489
 4901SOL    HW215603   2.218   1.545   5.574
 4902SOL     OW15604   1.026   1.331   4.759
 4902SOL    HW115605   1.037   1.397   4.834
 4902SOL    HW215606   0.984   1.247   4.795
 4903SOL     OW15607   4.676   5.755   0.387
 4903SOL    HW115608   4.605   5.812   0.345
 4903SOL    HW215609   4.691   5.785   0.481
 4904SOL     OW15610   2.059   0.475   5.121
 4904SOL    HW115611   2.136   0.414   5.135
 4904SOL    HW215612   1.976   0.421   5.108
 4905SOL     OW15613   2.701   0.899   3.807
 4905SOL    HW115614   2.605   0.877   3.794
 4905SOL    HW215615   2.752   0.814   3.825
 4906SOL     OW15616   4.481   2.354   6.100
 4906SOL    HW115617   4.454   2.448   6.122
 4906SOL    HW215618   4.578   2.352   6.077
 4907SOL     OW15619   4.829   0.548   1.546
 4907SOL    HW115620   4.835   0.510   1.638
 4907SOL    HW215621   4.892   0.499   1.486
 4908SOL     OW15622   5.236   6.662   0.233
 4908SOL    HW115623   5.242   6.727   0.309
 4908SOL    HW215624   5.143   6.662   0.197
 4909SOL     OW15625   6.972   5.415   3.331
 4909SOL    HW115626   6.943   5.428   3.237
 4909SOL    HW215627   0.025   5.350   3.334
 4910SOL     OW15628   5.398   0.345   4.395
 4910SOL    HW115629   5.302   0.371   4.407
 4910SOL    HW215630   5.418   0.266   4.453
 4911SOL     OW15631   1.739   3.718   2.999
 4911SOL    HW115632   1.728   3.810   2.960
 4911SOL    HW215633   1.782   3.726   3.089
 4912SOL     OW15634   5.543   1.770   5.907
 4912SOL    HW115635   5.594   1.854   5.890
 4912SOL    HW215636   5.565   1.736   5.999
 4913SOL     OW15637   4.377   3.631   5.711
 4913SOL    HW115638   4.290   3.660   5.751
 4913SOL    HW215639   4.363   3.607   5.615
 4914SOL     OW15640   4.154   6.692   5.224
 4914SOL    HW115641   4.172   6.723   5.131
 4914SOL    HW215642   4.174   6.767   5.288
 4915SOL     OW15643   2.909   6.364   5.045
 4915SOL    HW115644   2.934   6.270   5.019
 4915SOL    HW215645   2.835   6.396   4.987
 4916SOL     OW15646   0.497   0.938   3.671
 4916SOL    HW115647   0.581   0.892   3.642
 4916SOL    HW215648   0.511   1.037   3.671
 4917SOL     OW15649   3.549   5.503   1.051
 4917SOL    HW115650   3.560   5.406   1.071
 4917SOL    HW215651   3.497   5.547   1.125
 4918SOL     OW15652   5.883   6.579   1.729
 4918SOL    HW115653   5.886   6.622   1.820
 4918SOL    HW215654   5.809   6.620   1.676
 4919SOL     OW15655   3.509   2.898   2.527
 4919SOL    HW115656   3.544   2.911   2.434
 4919SOL    HW215657   3.584   2.870   2.587
 4920SOL     OW15658   5.547   0.147   4.662
 4920SOL    HW115659   5.468   0.131   4.722
 4920SOL    HW215660   5.571   0.063   4.615
 4921SOL     OW15661   1.598   5.367   7.009
 4921SOL    HW115662   1.619   5.316   6.926
 4921SOL    HW215663   1.673   5.430   0.008
 4922SOL     OW15664   3.176   2.187   4.512
 4922SOL    HW115665   3.189   2.191   4.413
 4922SOL    HW215666   3.248   2.131   4.553
 4923SOL     OW15667   2.612   1.064   2.307
 4923SOL    HW115668   2.646   1.106   2.222
 4923SOL    HW215669   2.690   1.030   2.360
 4924SOL     OW15670   3.235   1.517   4.613
 4924SOL    HW115671   3.277   1.581   4.549
 4924SOL    HW215672   3.137   1.535   4.620
 4925SOL     OW15673   5.180   0.681   2.525
 4925SOL    HW115674   5.219   0.617   2.591
 4925SOL    HW215675   5.254   0.731   2.480
 4926SOL     OW15676   5.379   1.574   2.013
 4926SOL    HW115677   5.451   1.528   1.960
 4926SOL    HW215678   5.421   1.641   2.075
 4927SOL     OW15679   2.796   3.209   5.746
 4927SOL    HW115680   2.819   3.125   5.696
 4927SOL    HW215681   2.813   3.194   5.844
 4928SOL     OW15682   1.341   0.414   6.518
 4928SOL    HW115683   1.391   0.416   6.604
 4928SOL    HW215684   1.246   0.440   6.534
 4929SOL     OW15685   6.533   0.377   4.099
 4929SOL    HW115686   6.562   0.404   4.008
 4929SOL    HW215687   6.532   0.277   4.106
 4930SOL     OW15688   5.897   0.252   2.766
 4930SOL    HW115689   5.897   0.329   2.830
 4930SOL    HW215690   5.808   0.244   2.723
 4931SOL     OW15691   6.516   6.460   1.411
 4931SOL    HW115692   6.544   6.383   1.354
 4931SOL    HW215693   6.459   6.427   1.487
 4932SOL     OW15694   3.891   3.429   3.092
 4932SOL    HW115695   3.976   3.452   3.045
 4932SOL    HW215696   3.852   3.512   3.133
 4933SOL     OW15697   2.404   6.688   2.306
 4933SOL    HW115698   2.358   6.705   2.393
 4933SOL    HW215699   2.412   6.774   2.255
 4934SOL     OW15700   3.508   6.090   3.020
 4934SOL    HW115701   3.453   6.138   3.088
 4934SOL    HW215702   3.449   6.048   2.952
 4935SOL     OW15703   1.857   1.983   6.076
 4935SOL    HW115704   1.870   2.016   6.169
 4935SOL    HW215705   1.879   2.056   6.011
 4936SOL     OW15706   2.852   4.758   0.987
 4936SOL    HW115707   2.946   4.726   0.975
 4936SOL    HW215708   2.829   4.822   0.913
 4937SOL     OW15709   5.153   2.848   5.606
 4937SOL    HW115710   5.153   2.872   5.703
 4937SOL    HW215711   5.115   2.756   5.595
 4938SOL     OW15712   2.668   5.770   5.745
 4938SOL    HW115713   2.743   5.705   5.752
 4938SOL    HW215714   2.581   5.721   5.735
 4939SOL     OW15715   5.318   2.153   5.068
 4939SOL    HW115716   5.404   2.102   5.063
 4939SOL    HW215717   5.260   2.128   4.990
 4940SOL     OW15718   1.357   1.067   4.722
 4940SOL    HW115719   1.350   1.142   4.656
 4940SOL    HW215720   1.452   1.035   4.725
 4941SOL     OW15721   3.866   2.438   6.553
 4941SOL    HW115722   3.964   2.423   6.543
 4941SOL    HW215723   3.820   2.412   6.468
 4942SOL     OW15724   4.967   3.404   5.654
 4942SOL    HW115725   4.991   3.365   5.565
 4942SOL    HW215726   4.930   3.332   5.713
 4943SOL     OW15727   3.583   2.948   1.026
 4943SOL    HW115728   3.665   2.892   1.039
 4943SOL    HW215729   3.602   3.020   0.959
 4944SOL     OW15730   1.929   3.979   2.684
 4944SOL    HW115731   1.979   4.047   2.632
 4944SOL    HW215732   1.831   3.990   2.669
 4945SOL     OW15733   1.112   1.065   3.728
 4945SOL    HW115734   1.056   0.987   3.754
 4945SOL    HW215735   1.179   1.084   3.801
 4946SOL     OW15736   0.793   2.993   1.810
 4946SOL    HW115737   0.822   2.897   1.809
 4946SOL    HW215738   0.694   2.998   1.800
 4947SOL     OW15739   1.537   6.773   0.963
 4947SOL    HW115740   1.533   6.688   0.910
 4947SOL    HW215741   1.510   6.850   0.905
 4948SOL     OW15742   2.803   0.437   2.432
 4948SOL    HW115743   2.707   0.463   2.442
 4948SOL    HW215744   2.854   0.469   2.512
 4949SOL     OW15745   4.827   0.712   5.467
 4949SOL    HW115746   4.920   0.734   5.497
 4949SOL    HW215747   4.782   0.657   5.538
 4950SOL     OW15748   2.926   5.491   3.619
 4950SOL    HW115749   2.863   5.558   3.659
 4950SOL    HW215750   2.904   5.478   3.523
 4951SOL     OW15751   5.620   1.290   4.935
 4951SOL    HW115752   5.564   1.310   5.016
 4951SOL    HW215753   5.646   1.193   4.935
 4952SOL     OW15754   0.506   0.809   4.738
 4952SOL    HW115755   0.457   0.877   4.684
 4952SOL    HW215756   0.442   0.742   4.774
 4953SOL     OW15757   2.257   5.981   2.081
 4953SOL    HW115758   2.239   5.884   2.096
 4953SOL    HW215759   2.218   6.010   1.994
 4954SOL     OW15760   4.139   4.317   6.744
 4954SOL    HW115761   4.153   4.414   6.722
 4954SOL    HW215762   4.181   4.297   6.833
 4955SOL     OW15763   1.451   6.208   6.699
 4955SOL    HW115764   1.377   6.248   6.753
 4955SOL    HW215765   1.413   6.142   6.634
 4956SOL     OW15766   3.294   0.093   5.032
 4956SOL    HW115767   3.296   0.090   4.932
 4956SOL    HW215768   3.377   0.138   5.066
 4957SOL     OW15769   6.938   0.858   3.410
 4957SOL    HW115770   0.009   0.881   3.381
 4957SOL    HW215771   6.939   0.834   3.507
 4958SOL     OW15772   0.148   6.275   5.978
 4958SOL    HW115773   0.205   6.194   5.963
 4958SOL    HW215774   0.081   6.282   5.904
 4959SOL     OW15775   0.015   1.326   6.848
 4959SOL    HW115776   0.071   1.243   6.852
 4959SOL    HW215777   0.006   1.365   6.939
 4960SOL     OW15778   3.271   6.338   3.833
 4960SOL    HW115779   3.267   6.335   3.933
 4960SOL    HW215780   3.280   6.245   3.797
 4961SOL     OW15781   5.245   1.270   5.297
 4961SOL    HW115782   5.152   1.260   5.261
 4961SOL    HW215783   5.242   1.319   5.384
 4962SOL     OW15784   5.629   3.141   1.731
 4962SOL    HW115785   5.631   3.107   1.825
 4962SOL    HW215786   5.538   3.129   1.693
 4963SOL     OW15787   6.256   5.781   1.373
 4963SOL    HW115788   6.213   5.792   1.284
 4963SOL    HW215789   6.256   5.868   1.422
 4964SOL     OW15790   3.613   6.475   3.170
 4964SOL    HW115791   3.663   6.451   3.253
 4964SOL    HW215792   3.649   6.421   3.093
 4965SOL     OW15793   0.430   6.992   4.816
 4965SOL    HW115794   0.452   6.898   4.841
 4965SOL    HW215795   0.511   0.027   4.827
 4966SOL     OW15796   2.142   6.548   4.411
 4966SOL    HW115797   2.238   6.518   4.409
 4966SOL    HW215798   2.125   6.600   4.495
 4967SOL     OW15799   4.087   2.979   6.732
 4967SOL    HW115800   4.076   2.969   6.633
 4967SOL    HW215801   4.100   3.075   6.754
 4968SOL     OW15802   5.556   2.739   3.419
 4968SOL    HW115803   5.457   2.731   3.411
 4968SOL    HW215804   5.587   2.818   3.365
 4969SOL     OW15805   1.948   1.035   2.476
 4969SOL    HW115806   1.897   1.012   2.560
 4969SOL    HW215807   1.883   1.061   2.405
 4970SOL     OW15808   1.579   2.672   4.890
 4970SOL    HW115809   1.660   2.729   4.907
 4970SOL    HW215810   1.510   2.690   4.959
 4971SOL     OW15811   6.267   5.866   3.755
 4971SOL    HW115812   6.314   5.947   3.791
 4971SOL    HW215813   6.240   5.883   3.661
 4972SOL     OW15814   2.083   3.326   0.883
 4972SOL    HW115815   2.030   3.287   0.958
 4972SOL    HW215816   2.026   3.389   0.830
 4973SOL     OW15817   6.722   6.932   1.797
 4973SOL    HW115818   6.741   6.984   1.714
 4973SOL    HW215819   6.760   6.840   1.788
 4974SOL     OW15820   6.564   4.594   0.611
 4974SOL    HW115821   6.638   4.593   0.543
 4974SOL    HW215822   6.581   4.666   0.678
 4975SOL     OW15823   6.156   5.713   0.830
 4975SOL    HW115824   6.218   5.680   0.759
 4975SOL    HW215825   6.160   5.813   0.834
 4976SOL     OW15826   2.802   0.270   4.351
 4976SOL    HW115827   2.801   0.356   4.300
 4976SOL    HW215828   2.891   0.225   4.340
 4977SOL     OW15829   5.094   3.884   0.730
 4977SOL    HW115830   5.019   3.824   0.756
 4977SOL    HW215831   5.086   3.971   0.780
 4978SOL     OW15832   0.012   3.518   5.432
 4978SOL    HW115833   6.970   3.461   5.381
 4978SOL    HW215834   0.105   3.498   5.401
 4979SOL     OW15835   6.878   2.216   5.146
 4979SOL    HW115836   6.943   2.160   5.197
 4979SOL    HW215837   6.904   2.312   5.154
 4980SOL     OW15838   4.491   6.754   3.329
 4980SOL    HW115839   4.505   6.661   3.363
 4980SOL    HW215840   4.579   6.802   3.326
 4981SOL     OW15841   4.904   5.916   5.795
 4981SOL    HW115842   4.830   5.915   5.728
 4981SOL    HW215843   4.936   6.010   5.807
 4982SOL     OW15844   2.509   1.332   6.655
 4982SOL    HW115845   2.412   1.351   6.636
 4982SOL    HW215846   2.527   1.235   6.641
 4983SOL     OW15847   4.851   3.451   4.475
 4983SOL    HW115848   4.852   3.532   4.416
 4983SOL    HW215849   4.854   3.480   4.571
 4984SOL     OW15850   5.501   3.273   4.146
 4984SOL    HW115851   5.596   3.246   4.165
 4984SOL    HW215852   5.471   3.230   4.061
 4985SOL     OW15853   6.613   6.528   3.911
 4985SOL    HW115854   6.564   6.441   3.915
 4985SOL    HW215855   6.710   6.511   3.899
 4986SOL     OW15856   6.559   4.556   2.749
 4986SOL    HW115857   6.467   4.575   2.784
 4986SOL    HW215858   6.579   4.459   2.760
 4987SOL     OW15859   0.835   2.095   1.141
 4987SOL    HW115860   0.899   2.143   1.201
 4987SOL    HW215861   0.828   1.999   1.170
 4988SOL     OW15862   0.022   1.548   3.673
 4988SOL    HW115863   0.086   1.473   3.689
 4988SOL    HW215864   6.986   1.560   3.753
 4989SOL     OW15865   5.917   1.296   1.789
 4989SOL    HW115866   5.900   1.383   1.743
 4989SOL    HW215867   5.840   1.234   1.773
 4990SOL     OW15868   1.284   2.086   6.119
 4990SOL    HW115869   1.366   2.030   6.127
 4990SOL    HW215870   1.215   2.054   6.185
 4991SOL     OW15871   0.786   3.118   4.093
 4991SOL    HW115872   0.806   3.093   4.188
 4991SOL    HW215873   0.811   3.042   4.033
 4992SOL     OW15874   4.236   0.784   4.138
 4992SOL    HW115875   4.320   0.822   4.177
 4992SOL    HW215876   4.174   0.859   4.115
 4993SOL     OW15877   2.423   4.486   3.900
 4993SOL    HW115878   2.487   4.526   3.966
 4993SOL    HW215879   2.388   4.557   3.840
 4994SOL     OW15880   1.594   0.292   2.487
 4994SOL    HW115881   1.539   0.368   2.454
 4994SOL    HW215882   1.582   0.213   2.427
 4995SOL     OW15883   0.044   3.507   5.713
 4995SOL    HW115884   0.034   3.414   5.749
 4995SOL    HW215885   0.015   3.508   5.617
 4996SOL     OW15886   1.020   0.395   2.442
 4996SOL    HW115887   1.040   0.452   2.521
 4996SOL    HW215888   1.066   0.306   2.453
 4997SOL     OW15889   6.818   2.177   2.559
 4997SOL    HW115890   6.773   2.158   2.647
 4997SOL    HW215891   6.854   2.270   2.560
 4998SOL     OW15892   1.808   4.277   5.114
 4998SOL    HW115893   1.797   4.324   5.026
 4998SOL    HW215894   1.892   4.309   5.158
 4999SOL     OW15895   4.829   5.727   1.579
 4999SOL    HW115896   4.751   5.676   1.544
 4999SOL    HW215897   4.825   5.821   1.544
 5000SOL     OW15898   1.139   0.646   3.794
 5000SOL    HW115899   1.131   0.685   3.703
 5000SOL    HW215900   1.093   0.558   3.797
 5001SOL     OW15901   1.652   3.795   6.089
 5001SOL    HW115902   1.698   3.871   6.134
 5001SOL    HW215903   1.720   3.734   6.049
 5002SOL     OW15904   1.266   2.771   2.516
 5002SOL    HW115905   1.290   2.853   2.569
 5002SOL    HW215906   1.303   2.690   2.561
 5003SOL     OW15907   1.037   6.781   3.546
 5003SOL    HW115908   1.072   6.727   3.469
 5003SOL    HW215909   1.113   6.831   3.588
 5004SOL     OW15910   2.598   5.953   5.945
 5004SOL    HW115911   2.651   5.899   5.880
 5004SOL    HW215912   2.594   5.906   6.033
 5005SOL     OW15913   3.877   2.145   0.702
 5005SOL    HW115914   3.948   2.213   0.685
 5005SOL    HW215915   3.789   2.192   0.718
 5006SOL     OW15916   5.727   0.046   6.402
 5006SOL    HW115917   5.700   0.054   6.306
 5006SOL    HW215918   5.692   0.125   6.453
 5007SOL     OW15919   2.676   0.322   6.059
 5007SOL    HW115920   2.602   0.310   5.993
 5007SOL    HW215921   2.749   0.377   6.018
 5008SOL     OW15922   6.218   0.728   3.743
 5008SOL    HW115923   6.188   0.644   3.696
 5008SOL    HW215924   6.297   0.707   3.800
 5009SOL     OW15925   1.439   5.756   1.589
 5009SOL    HW115926   1.397   5.844   1.610
 5009SOL    HW215927   1.456   5.750   1.491
 5010SOL     OW15928   3.467   3.653   4.002
 5010SOL    HW115929   3.473   3.753   4.001
 5010SOL    HW215930   3.385   3.624   4.050
 5011SOL     OW15931   2.104   3.264   1.927
 5011SOL    HW115932   2.117   3.193   1.996
 5011SOL    HW215933   2.161   3.343   1.948
 5012SOL     OW15934   5.928   2.836   6.396
 5012SOL    HW115935   5.853   2.896   6.368
 5012SOL    HW215936   5.987   2.884   6.460
 5013SOL     OW15937   4.873   0.761   6.765
 5013SOL    HW115938   4.853   0.749   6.863
 5013SOL    HW215939   4.972   0.764   6.751
 5014SOL     OW15940   6.363   5.569   0.641
 5014SOL    HW115941   6.424   5.576   0.562
 5014SOL    HW215942   6.271   5.545   0.610
 5015SOL     OW15943   4.037   1.724   3.747
 5015SOL    HW115944   3.994   1.699   3.660
 5015SOL    HW215945   4.102   1.799   3.731
 5016SOL     OW15946   2.200   1.081   2.382
 5016SOL    HW115947   2.105   1.065   2.409
 5016SOL    HW215948   2.208   1.170   2.337
 5017SOL     OW15949   2.397   2.532   0.886
 5017SOL    HW115950   2.495   2.523   0.868
 5017SOL    HW215951   2.348   2.543   0.800
 5018SOL     OW15952   0.781   4.525   1.740
 5018SOL    HW115953   0.713   4.595   1.761
 5018SOL    HW215954   0.847   4.519   1.815
 5019SOL     OW15955   2.174   4.573   0.410
 5019SOL    HW115956   2.256   4.599   0.359
 5019SOL    HW215957   2.114   4.518   0.351
 5020SOL     OW15958   5.702   6.538   5.098
 5020SOL    HW115959   5.708   6.617   5.159
 5020SOL    HW215960   5.767   6.549   5.023
 5021SOL     OW15961   0.934   4.018   6.204
 5021SOL    HW115962   1.011   3.967   6.244
 5021SOL    HW215963   0.856   4.014   6.266
 5022SOL     OW15964   1.562   0.172   0.762
 5022SOL    HW115965   1.661   0.159   0.761
 5022SOL    HW215966   1.541   0.269   0.775
 5023SOL     OW15967   6.273   3.114   0.562
 5023SOL    HW115968   6.284   3.153   0.471
 5023SOL    HW215969   6.255   3.186   0.628
 5024SOL     OW15970   0.140   4.341   2.628
 5024SOL    HW115971   0.098   4.375   2.712
 5024SOL    HW215972   0.175   4.249   2.643
 5025SOL     OW15973   4.710   2.017   2.229
 5025SOL    HW115974   4.730   2.090   2.163
 5025SOL    HW215975   4.787   2.006   2.291
 5026SOL     OW15976   6.206   6.132   6.035
 5026SOL    HW115977   6.113   6.162   6.055
 5026SOL    HW215978   6.210   6.032   6.033
 5027SOL     OW15979   0.970   6.544   3.066
 5027SOL    HW115980   1.023   6.479   3.013
 5027SOL    HW215981   0.912   6.598   3.004
 5028SOL     OW15982   0.191   5.765   1.905
 5028SOL    HW115983   0.209   5.683   1.959
 5028SOL    HW215984   0.121   5.745   1.836
 5029SOL     OW15985   6.861   2.904   3.065
 5029SOL    HW115986   6.907   2.951   2.989
 5029SOL    HW215987   6.920   2.906   3.146
 5030SOL     OW15988   0.402   0.632   0.066
 5030SOL    HW115989   0.497   0.645   0.040
 5030SOL    HW215990   0.390   0.655   0.163
 5031SOL     OW15991   6.344   1.293   4.529
 5031SOL    HW115992   6.352   1.392   4.539
 5031SOL    HW215993   6.314   1.253   4.616
 5032SOL     OW15994   0.997   4.447   0.786
 5032SOL    HW115995   1.095   4.447   0.806
 5032SOL    HW215996   0.976   4.525   0.726
 5033SOL     OW15997   2.366   5.310   5.631
 5033SOL    HW115998   2.408   5.331   5.719
 5033SOL    HW215999   2.295   5.377   5.611
 5034SOL     OW16000   6.954   3.712   1.481
 5034SOL    HW116001   6.904   3.657   1.548
 5034SOL    HW216002   0.024   3.675   1.469
 5035SOL     OW16003   5.628   4.718   1.170
 5035SOL    HW116004   5.585   4.808   1.161
 5035SOL    HW216005   5.599   4.676   1.256
 5036SOL     OW16006   0.766   5.960   6.237
 5036SOL    HW116007   0.732   6.003   6.320
 5036SOL    HW216008   0.857   5.996   6.216
 5037SOL     OW16009   4.677   2.271   3.441
 5037SOL    HW116010   4.723   2.344   3.391
 5037SOL    HW216011   4.656   2.302   3.534
 5038SOL     OW16012   2.003   5.924   5.673
 5038SOL    HW116013   2.050   5.838   5.652
 5038SOL    HW216014   1.912   5.924   5.630
 5039SOL     OW16015   1.769   3.598   5.163
 5039SOL    HW116016   1.720   3.512   5.171
 5039SOL    HW216017   1.768   3.628   5.068
 5040SOL     OW16018   2.619   3.644   6.741
 5040SOL    HW116019   2.665   3.555   6.731
 5040SOL    HW216020   2.562   3.642   6.824
 5041SOL     OW16021   0.704   3.706   1.153
 5041SOL    HW116022   0.744   3.663   1.072
 5041SOL    HW216023   0.755   3.677   1.234
 5042SOL     OW16024   6.902   2.961   6.741
 5042SOL    HW116025   6.985   2.991   6.788
 5042SOL    HW216026   6.834   2.932   6.809
 5043SOL     OW16027   3.437   1.363   5.218
 5043SOL    HW116028   3.510   1.375   5.151
 5043SOL    HW216029   3.476   1.351   5.309
 5044SOL     OW16030   6.245   6.308   3.553
 5044SOL    HW116031   6.199   6.260   3.479
 5044SOL    HW216032   6.262   6.245   3.629
 5045SOL     OW16033   4.985   3.431   0.175
 5045SOL    HW116034   4.991   3.516   0.227
 5045SOL    HW216035   4.972   3.452   0.078
 5046SOL     OW16036   3.701   2.954   5.042
 5046SOL    HW116037   3.648   3.031   5.076
 5046SOL    HW216038   3.732   2.898   5.118
 5047SOL     OW16039   6.082   1.568   2.391
 5047SOL    HW116040   6.021   1.496   2.425
 5047SOL    HW216041   6.116   1.622   2.468
 5048SOL     OW16042   6.824   2.105   1.904
 5048SOL    HW116043   6.784   2.061   1.824
 5048SOL    HW216044   6.822   2.041   1.981
 5049SOL     OW16045   6.394   1.027   2.988
 5049SOL    HW116046   6.334   1.080   3.048
 5049SOL    HW216047   6.416   0.940   3.032
 5050SOL     OW16048   0.355   1.407   1.963
 5050SOL    HW116049   0.366   1.506   1.974
 5050SOL    HW216050   0.259   1.383   1.976
 5051SOL     OW16051   3.364   3.818   0.759
 5051SOL    HW116052   3.316   3.820   0.671
 5051SOL    HW216053   3.323   3.748   0.817
 5052SOL     OW16054   3.190   4.442   0.404
 5052SOL    HW116055   3.107   4.439   0.348
 5052SOL    HW216056   3.270   4.449   0.344
 5053SOL     OW16057   2.149   3.811   2.125
 5053SOL    HW116058   2.232   3.758   2.143
 5053SOL    HW216059   2.174   3.905   2.100
 5054SOL     OW16060   3.844   5.965   5.514
 5054SOL    HW116061   3.920   6.013   5.470
 5054SOL    HW216062   3.771   5.950   5.447
 5055SOL     OW16063   0.418   1.766   4.954
 5055SOL    HW116064   0.336   1.759   5.011
 5055SOL    HW216065   0.494   1.801   5.009
 5056SOL     OW16066   6.922   4.113   6.486
 5056SOL    HW116067   7.013   4.126   6.528
 5056SOL    HW216068   6.907   4.015   6.471
 5057SOL     OW16069   1.053   5.159   3.302
 5057SOL    HW116070   0.982   5.227   3.319
 5057SOL    HW216071   1.051   5.131   3.206
 5058SOL     OW16072   3.702   3.927   6.348
 5058SOL    HW116073   3.696   4.002   6.414
 5058SOL    HW216074   3.627   3.862   6.364
 5059SOL     OW16075   4.719   2.774   5.027
 5059SOL    HW116076   4.684   2.768   4.934
 5059SOL    HW216077   4.818   2.764   5.027
 5060SOL     OW16078   6.797   3.333   4.689
 5060SOL    HW116079   6.760   3.241   4.698
 5060SOL    HW216080   6.722   3.398   4.673
 5061SOL     OW16081   3.004   3.197   4.126
 5061SOL    HW116082   2.958   3.229   4.044
 5061SOL    HW216083   3.018   3.274   4.189
 5062SOL     OW16084   5.104   1.777   3.127
 5062SOL    HW116085   5.022   1.760   3.072
 5062SOL    HW216086   5.184   1.779   3.067
 5063SOL     OW16087   1.047   6.706   1.760
 5063SOL    HW116088   1.145   6.715   1.780
 5063SOL    HW216089   0.997   6.779   1.807
 5064SOL     OW16090   4.491   5.224   1.017
 5064SOL    HW116091   4.567   5.162   0.999
 5064SOL    HW216092   4.407   5.172   1.026
 5065SOL     OW16093   1.497   0.698   3.335
 5065SOL    HW116094   1.477   0.748   3.250
 5065SOL    HW216095   1.469   0.603   3.325
 5066SOL     OW16096   2.346   4.070   1.789
 5066SOL    HW116097   2.260   4.035   1.753
 5066SOL    HW216098   2.333   4.098   1.884
 5067SOL     OW16099   4.159   2.306   2.102
 5067SOL    HW116100   4.255   2.315   2.130
 5067SOL    HW216101   4.146   2.349   2.013
 5068SOL     OW16102   3.259   5.699   0.321
 5068SOL    HW116103   3.276   5.780   0.265
 5068SOL    HW216104   3.195   5.722   0.395
 5069SOL     OW16105   2.257   3.151   5.643
 5069SOL    HW116106   2.208   3.067   5.621
 5069SOL    HW216107   2.303   3.185   5.561
 5070SOL     OW16108   5.977   4.011   3.732
 5070SOL    HW116109   5.941   4.082   3.671
 5070SOL    HW216110   5.941   4.025   3.824
 5071SOL     OW16111   3.696   1.905   3.502
 5071SOL    HW116112   3.692   1.970   3.578
 5071SOL    HW216113   3.750   1.825   3.529
 5072SOL     OW16114   2.037   1.066   0.857
 5072SOL    HW116115   2.026   1.161   0.886
 5072SOL    HW216116   2.135   1.046   0.847
 5073SOL     OW16117   2.335   6.252   1.913
 5073SOL    HW116118   2.253   6.306   1.894
 5073SOL    HW216119   2.377   6.284   1.998
 5074SOL     OW16120   3.561   1.521   1.644
 5074SOL    HW116121   3.496   1.495   1.572
 5074SOL    HW216122   3.511   1.542   1.728
 5075SOL     OW16123   1.533   2.640   0.260
 5075SOL    HW116124   1.500   2.729   0.291
 5075SOL    HW216125   1.625   2.624   0.296
 5076SOL     OW16126   5.648   0.519   6.972
 5076SOL    HW116127   5.675   0.428   6.941
 5076SOL    HW216128   5.682   0.533   0.043
 5077SOL     OW16129   1.495   3.491   6.318
 5077SOL    HW116130   1.398   3.466   6.313
 5077SOL    HW216131   1.529   3.510   6.227
 5078SOL     OW16132   0.419   1.195   4.223
 5078SOL    HW116133   0.421   1.097   4.243
 5078SOL    HW216134   0.459   1.245   4.300
 5079SOL     OW16135   2.223   1.876   5.636
 5079SOL    HW116136   2.264   1.837   5.554
 5079SOL    HW216137   2.164   1.953   5.611
 5080SOL     OW16138   6.089   5.568   5.758
 5080SOL    HW116139   5.996   5.546   5.730
 5080SOL    HW216140   6.094   5.665   5.782
 5081SOL     OW16141   2.568   4.919   5.165
 5081SOL    HW116142   2.570   4.995   5.230
 5081SOL    HW216143   2.620   4.842   5.202
 5082SOL     OW16144   4.760   6.763   0.200
 5082SOL    HW116145   4.724   6.786   0.110
 5082SOL    HW216146   4.693   6.706   0.249
 5083SOL     OW16147   3.256   0.257   1.552
 5083SOL    HW116148   3.300   0.244   1.641
 5083SOL    HW216149   3.167   0.300   1.565
 5084SOL     OW16150   0.912   5.311   4.848
 5084SOL    HW116151   0.994   5.257   4.865
 5084SOL    HW216152   0.831   5.260   4.879
 5085SOL     OW16153   1.061   2.521   5.811
 5085SOL    HW116154   0.975   2.561   5.782
 5085SOL    HW216155   1.087   2.447   5.749
 5086SOL     OW16156   0.678   4.322   1.960
 5086SOL    HW116157   0.716   4.246   1.907
 5086SOL    HW216158   0.752   4.377   1.998
 5087SOL     OW16159   6.760   5.233   1.933
 5087SOL    HW116160   6.829   5.289   1.887
 5087SOL    HW216161   6.805   5.158   1.981
 5088SOL     OW16162   4.569   6.526   2.957
 5088SOL    HW116163   4.517   6.497   2.877
 5088SOL    HW216164   4.664   6.497   2.948
 5089SOL     OW16165   5.917   4.139   4.050
 5089SOL    HW116166   5.882   4.088   4.128
 5089SOL    HW216167   5.913   4.237   4.070
 5090SOL     OW16168   2.106   0.691   3.260
 5090SOL    HW116169   2.205   0.697   3.254
 5090SOL    HW216170   2.070   0.771   3.308
 5091SOL     OW16171   6.744   0.410   0.779
 5091SOL    HW116172   6.802   0.343   0.733
 5091SOL    HW216173   6.721   0.377   0.871
 5092SOL     OW16174   4.084   3.337   4.074
 5092SOL    HW116175   4.105   3.299   4.164
 5092SOL    HW216176   4.078   3.263   4.008
 5093SOL     OW16177   2.599   1.596   1.790
 5093SOL    HW116178   2.681   1.631   1.746
 5093SOL    HW216179   2.523   1.659   1.773
 5094SOL     OW16180   2.199   6.260   6.802
 5094SOL    HW116181   2.246   6.227   6.720
 5094SOL    HW216182   2.110   6.297   6.776
 5095SOL     OW16183   0.350   1.385   3.103
 5095SOL    HW116184   0.284   1.416   3.171
 5095SOL    HW216185   0.326   1.293   3.072
 5096SOL     OW16186   5.506   4.387   6.469
 5096SOL    HW116187   5.504   4.388   6.369
 5096SOL    HW216188   5.580   4.328   6.501
 5097SOL     OW16189   6.677   0.484   0.063
 5097SOL    HW116190   6.705   0.489   6.990
 5097SOL    HW216191   6.737   0.421   0.112
 5098SOL     OW16192   3.584   2.388   1.332
 5098SOL    HW116193   3.531   2.438   1.400
 5098SOL    HW216194   3.672   2.361   1.371
 5099SOL     OW16195   0.161   6.306   1.485
 5099SOL    HW116196   0.176   6.210   1.510
 5099SOL    HW216197   0.237   6.337   1.429
 5100SOL     OW16198   3.498   5.357   3.319
 5100SOL    HW116199   3.489   5.452   3.349
 5100SOL    HW216200   3.431   5.300   3.367
 5101SOL     OW16201   3.843   0.925   4.371
 5101SOL    HW116202   3.923   0.922   4.432
 5101SOL    HW216203   3.817   1.021   4.355
 5102SOL     OW16204   5.341   5.679   4.612
 5102SOL    HW116205   5.290   5.651   4.531
 5102SOL    HW216206   5.396   5.761   4.591
 5103SOL     OW16207   0.811   1.407   4.211
 5103SOL    HW116208   0.813   1.490   4.267
 5103SOL    HW216209   0.731   1.353   4.236
 5104SOL     OW16210   3.373   5.938   1.934
 5104SOL    HW116211   3.289   5.926   1.988
 5104SOL    HW216212   3.399   6.034   1.933
 5105SOL     OW16213   3.383   3.300   6.498
 5105SOL    HW116214   3.385   3.371   6.568
 5105SOL    HW216215   3.359   3.341   6.410
 5106SOL     OW16216   4.081   1.593   1.267
 5106SOL    HW116217   4.018   1.541   1.324
 5106SOL    HW216218   4.041   1.683   1.246
 5107SOL     OW16219   4.720   2.500   1.028
 5107SOL    HW116220   4.773   2.435   0.972
 5107SOL    HW216221   4.687   2.453   1.110
 5108SOL     OW16222   4.111   4.145   5.445
 5108SOL    HW116223   4.030   4.167   5.391
 5108SOL    HW216224   4.108   4.195   5.532
 5109SOL     OW16225   1.092   2.710   1.002
 5109SOL    HW116226   1.109   2.700   1.100
 5109SOL    HW216227   1.162   2.660   0.951
 5110SOL     OW16228   0.246   0.671   6.331
 5110SOL    HW116229   0.261   0.635   6.423
 5110SOL    HW216230   0.313   0.743   6.311
 5111SOL     OW16231   1.317   6.999   4.276
 5111SOL    HW116232   1.401   6.963   4.234
 5111SOL    HW216233   1.313   6.970   4.371
 5112SOL     OW16234   0.361   0.255   3.023
 5112SOL    HW116235   0.349   0.318   2.947
 5112SOL    HW216236   0.313   0.169   3.003
 5113SOL     OW16237   1.205   5.914   1.246
 5113SOL    HW116238   1.126   5.907   1.185
 5113SOL    HW216239   1.287   5.886   1.197
 5114SOL     OW16240   3.816   6.794   0.206
 5114SOL    HW116241   3.863   6.763   0.123
 5114SOL    HW216242   3.785   6.714   0.258
 5115SOL     OW16243   1.858   3.981   2.112
 5115SOL    HW116244   1.823   3.890   2.137
 5115SOL    HW216245   1.909   3.974   2.026
 5116SOL     OW16246   2.136   6.591   6.963
 5116SOL    HW116247   2.120   6.536   0.023
 5116SOL    HW216248   2.234   6.608   6.953
 5117SOL     OW16249   1.065   3.613   3.981
 5117SOL    HW116250   1.139   3.678   3.998
 5117SOL    HW216251   0.978   3.654   4.010
 5118SOL     OW16252   5.950   6.613   0.182
 5118SOL    HW116253   5.984   6.523   0.213
 5118SOL    HW216254   5.860   6.602   0.141
 5119SOL     OW16255   4.590   1.629   1.318
 5119SOL    HW116256   4.642   1.557   1.364
 5119SOL    HW216257   4.492   1.610   1.327
 5120SOL     OW16258   4.601   6.599   5.130
 5120SOL    HW116259   4.509   6.596   5.092
 5120SOL    HW216260   4.597   6.616   5.228
 5121SOL     OW16261   3.358   3.473   0.219
 5121SOL    HW116262   3.259   3.465   0.227
 5121SOL    HW216263   3.382   3.495   0.124
 5122SOL     OW16264   3.935   6.231   3.220
 5122SOL    HW116265   3.959   6.141   3.255
 5122SOL    HW216266   4.013   6.292   3.227
 5123SOL     OW16267   5.366   2.528   3.676
 5123SOL    HW116268   5.419   2.595   3.728
 5123SOL    HW216269   5.352   2.562   3.583
 5124SOL     OW16270   1.953   6.779   3.444
 5124SOL    HW116271   1.999   6.716   3.506
 5124SOL    HW216272   1.886   6.728   3.389
 5125SOL     OW16273   0.358   2.041   2.636
 5125SOL    HW116274   0.390   2.014   2.545
 5125SOL    HW216275   0.437   2.047   2.698
 5126SOL     OW16276   1.039   6.535   6.891
 5126SOL    HW116277   1.004   6.575   6.806
 5126SOL    HW216278   1.126   6.577   6.913
 5127SOL     OW16279   0.811   5.516   6.752
 5127SOL    HW116280   0.855   5.511   6.841
 5127SOL    HW216281   0.730   5.575   6.758
 5128SOL     OW16282   6.496   6.650   0.874
 5128SOL    HW116283   6.401   6.664   0.899
 5128SOL    HW216284   6.509   6.677   0.778
 5129SOL     OW16285   5.215   6.391   2.453
 5129SOL    HW116286   5.121   6.357   2.456
 5129SOL    HW216287   5.254   6.387   2.545
 5130SOL     OW16288   0.013   5.266   2.698
 5130SOL    HW116289   6.984   5.329   2.756
 5130SOL    HW216290   0.039   5.313   2.614
 5131SOL     OW16291   1.663   3.358   4.493
 5131SOL    HW116292   1.682   3.433   4.555
 5131SOL    HW216293   1.611   3.287   4.541
 5132SOL     OW16294   4.382   2.640   6.211
 5132SOL    HW116295   4.462   2.678   6.165
 5132SOL    HW216296   4.350   2.705   6.280
 5133SOL     OW16297   3.034   4.903   0.648
 5133SOL    HW116298   3.104   4.844   0.609
 5133SOL    HW216299   2.944   4.861   0.636
 5134SOL     OW16300   0.062   2.734   1.795
 5134SOL    HW116301   0.159   2.744   1.817
 5134SOL    HW216302   0.051   2.722   1.697
 5135SOL     OW16303   6.324   2.383   5.432
 5135SOL    HW116304   6.347   2.288   5.413
 5135SOL    HW216305   6.258   2.387   5.508
 5136SOL     OW16306   5.158   0.260   5.862
 5136SOL    HW116307   5.243   0.217   5.830
 5136SOL    HW216308   5.080   0.208   5.829
 5137SOL     OW16309   6.083   3.278   6.245
 5137SOL    HW116310   6.101   3.369   6.206
 5137SOL    HW216311   5.993   3.278   6.289
 5138SOL     OW16312   3.337   2.814   5.894
 5138SOL    HW116313   3.413   2.873   5.866
 5138SOL    HW216314   3.367   2.756   5.970
 5139SOL     OW16315   1.335   7.020   3.409
 5139SOL    HW116316   1.291   7.013   3.319
 5139SOL    HW216317   1.285   0.063   3.466
 5140SOL     OW16318   3.277   1.474   0.240
 5140SOL    HW116319   3.266   1.483   0.339
 5140SOL    HW216320   3.235   1.552   0.195
 5141SOL     OW16321   6.350   3.328   0.400
 5141SOL    HW116322   6.306   3.367   0.481
 5141SOL    HW216323   6.356   3.398   0.328
 5142SOL     OW16324   6.063   1.665   4.180
 5142SOL    HW116325   6.156   1.653   4.143
 5142SOL    HW216326   6.026   1.753   4.150
 5143SOL     OW16327   0.584   4.017   3.741
 5143SOL    HW116328   0.674   4.022   3.697
 5143SOL    HW216329   0.532   3.941   3.703
 5144SOL     OW16330   0.859   6.373   6.173
 5144SOL    HW116331   0.821   6.418   6.254
 5144SOL    HW216332   0.951   6.339   6.194
 5145SOL     OW16333   2.246   5.421   5.967
 5145SOL    HW116334   2.310   5.469   6.027
 5145SOL    HW216335   2.250   5.461   5.875
 5146SOL     OW16336   4.506   3.643   5.959
 5146SOL    HW116337   4.466   3.645   5.868
 5146SOL    HW216338   4.500   3.734   6.000
 5147SOL     OW16339   0.251   4.267   2.031
 5147SOL    HW116340   0.316   4.334   1.996
 5147SOL    HW216341   0.300   4.184   2.059
 5148SOL     OW16342   0.546   6.488   0.812
 5148SOL    HW116343   0.490   6.528   0.885
 5148SOL    HW216344   0.597   6.410   0.848
 5149SOL     OW16345   5.752   6.226   4.401
 5149SOL    HW116346   5.738   6.209   4.499
 5149SOL    HW216347   5.821   6.297   4.389
 5150SOL     OW16348   2.206   4.733   3.507
 5150SOL    HW116349   2.253   4.710   3.422
 5150SOL    HW216350   2.209   4.832   3.521
 5151SOL     OW16351   5.330   1.252   0.506
 5151SOL    HW116352   5.376   1.186   0.447
 5151SOL    HW216353   5.250   1.290   0.459
 5152SOL     OW16354   1.889   4.831   6.210
 5152SOL    HW116355   1.925   4.738   6.219
 5152SOL    HW216356   1.872   4.850   6.113
 5153SOL     OW16357   2.084   0.754   6.291
 5153SOL    HW116358   2.032   0.697   6.355
 5153SOL    HW216359   2.040   0.843   6.282
 5154SOL     OW16360   1.937   2.734   6.626
 5154SOL    HW116361   1.907   2.740   6.531
 5154SOL    HW216362   1.863   2.765   6.686
 5155SOL     OW16363   3.573   6.428   2.208
 5155SOL    HW116364   3.558   6.331   2.193
 5155SOL    HW216365   3.654   6.441   2.266
 5156SOL     OW16366   6.728   3.247   5.723
 5156SOL    HW116367   6.766   3.167   5.675
 5156SOL    HW216368   6.681   3.306   5.658
 5157SOL     OW16369   4.610   2.712   3.960
 5157SOL    HW116370   4.525   2.691   3.912
 5157SOL    HW216371   4.683   2.727   3.892
 5158SOL     OW16372   3.452   1.468   1.398
 5158SOL    HW116373   3.535   1.440   1.350
 5158SOL    HW216374   3.388   1.508   1.332
 5159SOL     OW16375   0.650   3.213   4.967
 5159SOL    HW116376   0.583   3.242   4.898
 5159SOL    HW216377   0.648   3.114   4.976
 5160SOL     OW16378   0.670   3.782   3.930
 5160SOL    HW116379   0.748   3.829   3.891
 5160SOL    HW216380   0.595   3.846   3.943
 5161SOL     OW16381   1.249   3.784   5.052
 5161SOL    HW116382   1.326   3.747   5.001
 5161SOL    HW216383   1.208   3.859   5.000
 5162SOL     OW16384   0.887   5.190   4.225
 5162SOL    HW116385   0.846   5.185   4.316
 5162SOL    HW216386   0.833   5.252   4.168
 5163SOL     OW16387   3.927   5.042   1.310
 5163SOL    HW116388   3.888   5.107   1.376
 5163SOL    HW216389   4.018   5.014   1.341
 5164SOL     OW16390   6.311   2.346   6.109
 5164SOL    HW116391   6.288   2.281   6.181
 5164SOL    HW216392   6.319   2.297   6.022
 5165SOL     OW16393   5.849   4.046   5.274
 5165SOL    HW116394   5.836   4.104   5.193
 5165SOL    HW216395   5.942   4.009   5.273
 5166SOL     OW16396   1.254   5.134   1.776
 5166SOL    HW116397   1.271   5.191   1.856
 5166SOL    HW216398   1.341   5.101   1.739
 5167SOL     OW16399   6.379   0.633   5.649
 5167SOL    HW116400   6.438   0.647   5.728
 5167SOL    HW216401   6.377   0.716   5.593
 5168SOL     OW16402   5.021   2.575   3.463
 5168SOL    HW116403   5.023   2.497   3.526
 5168SOL    HW216404   4.949   2.561   3.395
 5169SOL     OW16405   3.199   2.631   5.657
 5169SOL    HW116406   3.254   2.692   5.713
 5169SOL    HW216407   3.245   2.542   5.649
 5170SOL     OW16408   0.174   3.939   5.785
 5170SOL    HW116409   0.271   3.927   5.764
 5170SOL    HW216410   0.160   4.029   5.826
 5171SOL     OW16411   2.538   5.051   4.512
 5171SOL    HW116412   2.524   5.137   4.464
 5171SOL    HW216413   2.544   4.976   4.446
 5172SOL     OW16414   0.567   2.870   2.036
 5172SOL    HW116415   0.560   2.770   2.045
 5172SOL    HW216416   0.485   2.912   2.076
 5173SOL     OW16417   5.857   4.321   6.265
 5173SOL    HW116418   5.760   4.320   6.242
 5173SOL    HW216419   5.891   4.415   6.261
 5174SOL     OW16420   2.133   4.635   4.567
 5174SOL    HW116421   2.222   4.680   4.563
 5174SOL    HW216422   2.131   4.559   4.501
 5175SOL     OW16423   2.217   4.022   6.736
 5175SOL    HW116424   2.193   4.114   6.766
 5175SOL    HW216425   2.314   4.006   6.754
 5176SOL     OW16426   4.352   3.295   1.134
 5176SOL    HW116427   4.350   3.368   1.066
 5176SOL    HW216428   4.427   3.311   1.199
 5177SOL     OW16429   4.913   0.163   5.777
 5177SOL    HW116430   4.868   0.080   5.810
 5177SOL    HW216431   4.870   0.194   5.692
 5178SOL     OW16432   2.372   2.595   1.225
 5178SOL    HW116433   2.415   2.671   1.177
 5178SOL    HW216434   2.413   2.584   1.315
 5179SOL     OW16435   4.293   5.968   5.163
 5179SOL    HW116436   4.287   6.055   5.212
 5179SOL    HW216437   4.373   5.969   5.103
 5180SOL     OW16438   2.990   2.648   6.270
 5180SOL    HW116439   2.901   2.693   6.262
 5180SOL    HW216440   2.984   2.556   6.233
 5181SOL     OW16441   5.050   1.218   2.940
 5181SOL    HW116442   5.002   1.139   2.903
 5181SOL    HW216443   5.147   1.214   2.915
 5182SOL     OW16444   4.895   5.316   1.347
 5182SOL    HW116445   4.899   5.407   1.307
 5182SOL    HW216446   4.909   5.322   1.446
 5183SOL     OW16447   4.640   0.056   2.156
 5183SOL    HW116448   4.722   0.044   2.213
 5183SOL    HW216449   4.609   0.151   2.162
 5184SOL     OW16450   0.759   1.586   3.658
 5184SOL    HW116451   0.743   1.673   3.705
 5184SOL    HW216452   0.773   1.513   3.726
 5185SOL     OW16453   4.791   6.877   2.988
 5185SOL    HW116454   4.716   6.931   3.027
 5185SOL    HW216455   4.811   6.909   2.896
 5186SOL     OW16456   6.089   3.643   0.527
 5186SOL    HW116457   6.153   3.721   0.522
 5186SOL    HW216458   5.996   3.676   0.516
 5187SOL     OW16459   6.389   1.110   3.493
 5187SOL    HW116460   6.488   1.098   3.499
 5187SOL    HW216461   6.350   1.035   3.440
 5188SOL     OW16462   0.565   4.994   0.754
 5188SOL    HW116463   0.581   5.087   0.722
 5188SOL    HW216464   0.564   4.931   0.676
 5189SOL     OW16465   4.617   5.395   0.809
 5189SOL    HW116466   4.559   5.476   0.800
 5189SOL    HW216467   4.577   5.332   0.876
 5190SOL     OW16468   0.883   2.310   4.307
 5190SOL    HW116469   0.929   2.249   4.242
 5190SOL    HW216470   0.927   2.301   4.397
 5191SOL     OW16471   3.879   0.502   1.752
 5191SOL    HW116472   3.843   0.411   1.731
 5191SOL    HW216473   3.809   0.571   1.734
 5192SOL     OW16474   4.501   5.677   2.353
 5192SOL    HW116475   4.536   5.711   2.266
 5192SOL    HW216476   4.480   5.579   2.345
 5193SOL     OW16477   4.840   4.620   3.955
 5193SOL    HW116478   4.936   4.648   3.960
 5193SOL    HW216479   4.781   4.700   3.955
 5194SOL     OW16480   4.824   0.071   6.108
 5194SOL    HW116481   4.848   0.060   6.204
 5194SOL    HW216482   4.846   7.010   6.058
 5195SOL     OW16483   6.490   6.400   4.697
 5195SOL    HW116484   6.426   6.352   4.636
 5195SOL    HW216485   6.557   6.335   4.732
 5196SOL     OW16486   0.826   3.690   0.708
 5196SOL    HW116487   0.859   3.614   0.653
 5196SOL    HW216488   0.731   3.711   0.684
 5197SOL     OW16489   1.887   6.203   4.322
 5197SOL    HW116490   1.893   6.300   4.295
 5197SOL    HW216491   1.876   6.197   4.421
 5198SOL     OW16492   3.119   0.264   4.501
 5198SOL    HW116493   3.115   0.277   4.402
 5198SOL    HW216494   3.054   0.326   4.546
 5199SOL     OW16495   2.398   6.227   1.002
 5199SOL    HW116496   2.333   6.172   1.054
 5199SOL    HW216497   2.399   6.197   0.906
 5200SOL     OW16498   0.771   2.164   4.863
 5200SOL    HW116499   0.732   2.121   4.782
 5200SOL    HW216500   0.814   2.095   4.921
 5201SOL     OW16501   5.374   5.817   4.312
 5201SOL    HW116502   5.414   5.906   4.337
 5201SOL    HW216503   5.415   5.785   4.227
 5202SOL     OW16504   5.381   3.651   6.343
 5202SOL    HW116505   5.299   3.686   6.389
 5202SOL    HW216506   5.354   3.597   6.264
 5203SOL     OW16507   1.622   0.610   6.461
 5203SOL    HW116508   1.592   0.556   6.383
 5203SOL    HW216509   1.557   0.685   6.477
 5204SOL     OW16510   3.235   6.784   6.806
 5204SOL    HW116511   3.139   6.765   6.785
 5204SOL    HW216512   3.290   6.702   6.791
 5205SOL     OW16513   0.156   5.549   6.858
 5205SOL    HW116514   0.225   5.617   6.882
 5205SOL    HW216515   0.079   5.555   6.922
 5206SOL     OW16516   0.466   5.170   5.801
 5206SOL    HW116517   0.395   5.150   5.868
 5206SOL    HW216518   0.545   5.209   5.847
 5207SOL     OW16519   0.375   0.369   3.988
 5207SOL    HW116520   0.440   0.342   3.917
 5207SOL    HW216521   0.377   0.302   4.062
 5208SOL     OW16522   4.565   2.545   0.201
 5208SOL    HW116523   4.657   2.520   0.168
 5208SOL    HW216524   4.560   2.644   0.212
 5209SOL     OW16525   5.045   0.264   2.463
 5209SOL    HW116526   5.114   0.276   2.534
 5209SOL    HW216527   5.007   0.353   2.438
 5210SOL     OW16528   5.317   4.122   0.798
 5210SOL    HW116529   5.363   4.177   0.728
 5210SOL    HW216530   5.218   4.133   0.790
 5211SOL     OW16531   5.282   1.708   4.576
 5211SOL    HW116532   5.304   1.695   4.673
 5211SOL    HW216533   5.184   1.698   4.562
 5212SOL     OW16534   1.378   2.482   0.580
 5212SOL    HW116535   1.333   2.429   0.508
 5212SOL    HW216536   1.468   2.442   0.599
 5213SOL     OW16537   4.134   3.852   1.889
 5213SOL    HW116538   4.078   3.934   1.878
 5213SOL    HW216539   4.231   3.875   1.880
 5214SOL     OW16540   4.890   4.372   6.069
 5214SOL    HW116541   4.912   4.275   6.061
 5214SOL    HW216542   4.973   4.423   6.088
 5215SOL     OW16543   0.171   3.840   4.238
 5215SOL    HW116544   0.250   3.833   4.176
 5215SOL    HW216545   0.199   3.887   4.322
 5216SOL     OW16546   4.898   5.552   1.211
 5216SOL    HW116547   4.860   5.635   1.252
 5216SOL    HW216548   4.996   5.563   1.196
 5217SOL     OW16549   3.771   5.597   4.574
 5217SOL    HW116550   3.774   5.629   4.479
 5217SOL    HW216551   3.815   5.665   4.633
 5218SOL     OW16552   0.383   1.532   0.841
 5218SOL    HW116553   0.309   1.597   0.827
 5218SOL    HW216554   0.365   1.479   0.924
 5219SOL     OW16555   3.503   1.210   4.790
 5219SOL    HW116556   3.429   1.276   4.800
 5219SOL    HW216557   3.580   1.252   4.741
 5220SOL     OW16558   1.489   5.120   3.031
 5220SOL    HW116559   1.435   5.181   2.973
 5220SOL    HW216560   1.493   5.029   2.989
 5221SOL     OW16561   0.081   0.359   1.748
 5221SOL    HW116562   0.155   0.397   1.693
 5221SOL    HW216563   0.118   0.324   1.834
 5222SOL     OW16564   3.929   5.716   2.317
 5222SOL    HW116565   3.978   5.682   2.237
 5222SOL    HW216566   3.981   5.792   2.358
 5223SOL     OW16567   0.051   2.507   1.193
 5223SOL    HW116568   0.044   2.407   1.197
 5223SOL    HW216569   6.990   2.544   1.152
 5224SOL     OW16570   0.728   2.030   4.289
 5224SOL    HW116571   0.702   2.001   4.381
 5224SOL    HW216572   0.682   2.117   4.267
 5225SOL     OW16573   6.956   1.362   4.250
 5225SOL    HW116574   6.997   1.271   4.247
 5225SOL    HW216575   6.874   1.363   4.193
 5226SOL     OW16576   0.388   5.795   3.351
 5226SOL    HW116577   0.384   5.788   3.251
 5226SOL    HW216578   0.296   5.811   3.387
 5227SOL     OW16579   0.389   3.737   5.991
 5227SOL    HW116580   0.342   3.723   5.904
 5227SOL    HW216581   0.335   3.696   6.065
 5228SOL     OW16582   0.842   2.441   6.983
 5228SOL    HW116583   0.907   2.421   0.034
 5228SOL    HW216584   0.759   2.387   6.996
 5229SOL     OW16585   3.199   6.197   6.366
 5229SOL    HW116586   3.139   6.167   6.292
 5229SOL    HW216587   3.288   6.153   6.357
 5230SOL     OW16588   6.600   0.208   2.882
 5230SOL    HW116589   6.571   0.254   2.798
 5230SOL    HW216590   6.521   0.195   2.941
 5231SOL     OW16591   4.793   1.922   3.569
 5231SOL    HW116592   4.873   1.863   3.586
 5231SOL    HW216593   4.807   1.973   3.484
 5232SOL     OW16594   1.461   4.240   6.118
 5232SOL    HW116595   1.404   4.202   6.191
 5232SOL    HW216596   1.556   4.246   6.149
 5233SOL     OW16597   3.127   0.956   2.002
 5233SOL    HW116598   3.087   0.869   2.030
 5233SOL    HW216599   3.101   1.027   2.067
 5234SOL     OW16600   3.323   3.472   6.686
 5234SOL    HW116601   3.365   3.549   6.637
 5234SOL    HW216602   3.229   3.496   6.712
 5235SOL     OW16603   2.325   2.062   0.428
 5235SOL    HW116604   2.247   2.006   0.399
 5235SOL    HW216605   2.408   2.006   0.426
 5236SOL     OW16606   3.100   4.992   1.868
 5236SOL    HW116607   3.188   4.951   1.892
 5236SOL    HW216608   3.031   4.920   1.857
 5237SOL     OW16609   2.228   1.443   4.741
 5237SOL    HW116610   2.281   1.483   4.817
 5237SOL    HW216611   2.290   1.406   4.673
 5238SOL     OW16612   1.104   4.637   1.622
 5238SOL    HW116613   1.012   4.597   1.621
 5238SOL    HW216614   1.097   4.735   1.637
 5239SOL     OW16615   3.460   3.591   0.985
 5239SOL    HW116616   3.529   3.640   0.931
 5239SOL    HW216617   3.395   3.656   1.022
 5240SOL     OW16618   2.776   2.505   5.368
 5240SOL    HW116619   2.803   2.585   5.314
 5240SOL    HW216620   2.857   2.465   5.410
 5241SOL     OW16621   0.987   5.590   2.256
 5241SOL    HW116622   0.927   5.539   2.195
 5241SOL    HW216623   0.976   5.688   2.238
 5242SOL     OW16624   4.849   0.427   1.798
 5242SOL    HW116625   4.872   0.431   1.895
 5242SOL    HW216626   4.775   0.363   1.783
 5243SOL     OW16627   2.237   6.128   1.427
 5243SOL    HW116628   2.159   6.079   1.468
 5243SOL    HW216629   2.298   6.160   1.500
 5244SOL     OW16630   5.142   3.158   7.000
 5244SOL    HW116631   5.158   3.254   0.001
 5244SOL    HW216632   5.192   3.099   0.041
 5245SOL     OW16633   4.154   3.973   0.583
 5245SOL    HW116634   4.106   3.952   0.668
 5245SOL    HW216635   4.137   3.901   0.516
 5246SOL     OW16636   6.488   2.480   2.254
 5246SOL    HW116637   6.474   2.566   2.303
 5246SOL    HW216638   6.452   2.488   2.161
 5247SOL     OW16639   3.665   1.086   5.486
 5247SOL    HW116640   3.751   1.101   5.436
 5247SOL    HW216641   3.597   1.047   5.425
 5248SOL     OW16642   0.174   1.828   2.690
 5248SOL    HW116643   0.199   1.745   2.641
 5248SOL    HW216644   0.257   1.876   2.720
 5249SOL     OW16645   1.925   5.560   6.476
 5249SOL    HW116646   1.840   5.509   6.482
 5249SOL    HW216647   1.905   5.658   6.477
 5250SOL     OW16648   1.415   6.132   0.197
 5250SOL    HW116649   1.425   6.038   0.230
 5250SOL    HW216650   1.480   6.148   0.123
 5251SOL     OW16651   0.698   4.732   0.852
 5251SOL    HW116652   0.695   4.826   0.820
 5251SOL    HW216653   0.794   4.705   0.867
 5252SOL     OW16654   2.817   6.670   2.304
 5252SOL    HW116655   2.887   6.606   2.337
 5252SOL    HW216656   2.811   6.748   2.367
 5253SOL     OW16657   6.525   4.209   4.743
 5253SOL    HW116658   6.597   4.151   4.706
 5253SOL    HW216659   6.560   4.303   4.752
 5254SOL     OW16660   5.787   0.352   3.647
 5254SOL    HW116661   5.799   0.449   3.666
 5254SOL    HW216662   5.844   0.298   3.708
 5255SOL     OW16663   5.651   2.172   4.676
 5255SOL    HW116664   5.657   2.145   4.772
 5255SOL    HW216665   5.730   2.229   4.653
 5256SOL     OW16666   5.122   1.968   3.888
 5256SOL    HW116667   5.040   1.911   3.882
 5256SOL    HW216668   5.203   1.910   3.897
 5257SOL     OW16669   4.760   6.906   0.882
 5257SOL    HW116670   4.754   6.995   0.837
 5257SOL    HW216671   4.828   6.910   0.955
 5258SOL     OW16672   5.340   1.786   2.979
 5258SOL    HW116673   5.364   1.849   2.906
 5258SOL    HW216674   5.342   1.692   2.945
 5259SOL     OW16675   4.896   5.282   2.768
 5259SOL    HW116676   4.860   5.360   2.820
 5259SOL    HW216677   4.937   5.217   2.831
 5260SOL     OW16678   3.579   5.480   0.300
 5260SOL    HW116679   3.561   5.409   0.231
 5260SOL    HW216680   3.517   5.467   0.377
 5261SOL     OW16681   0.601   4.333   0.241
 5261SOL    HW116682   0.659   4.401   0.196
 5261SOL    HW216683   0.642   4.242   0.229
 5262SOL     OW16684   2.617   0.713   3.384
 5262SOL    HW116685   2.687   0.657   3.340
 5262SOL    HW216686   2.568   0.659   3.452
 5263SOL     OW16687   2.066   1.318   2.552
 5263SOL    HW116688   2.136   1.333   2.482
 5263SOL    HW216689   2.053   1.220   2.566
 5264SOL     OW16690   0.020   2.143   2.173
 5264SOL    HW116691   6.966   2.099   2.125
 5264SOL    HW216692   0.069   2.075   2.226
 5265SOL     OW16693   6.005   2.989   4.574
 5265SOL    HW116694   6.004   3.033   4.484
 5265SOL    HW216695   6.045   2.897   4.566
 5266SOL     OW16696   2.779   6.429   1.084
 5266SOL    HW116697   2.805   6.396   0.993
 5266SOL    HW216698   2.685   6.399   1.105
 5267SOL     OW16699   4.478   2.549   4.481
 5267SOL    HW116700   4.406   2.486   4.509
 5267SOL    HW216701   4.489   2.546   4.381
 5268SOL     OW16702   4.866   0.430   6.777
 5268SOL    HW116703   4.892   0.487   6.699
 5268SOL    HW216704   4.785   0.469   6.821
 5269SOL     OW16705   1.090   6.449   2.315
 5269SOL    HW116706   1.041   6.381   2.259
 5269SOL    HW216707   1.104   6.412   2.407
 5270SOL     OW16708   5.448   1.815   1.668
 5270SOL    HW116709   5.536   1.800   1.712
 5270SOL    HW216710   5.377   1.821   1.739
 5271SOL     OW16711   6.000   4.655   5.691
 5271SOL    HW116712   6.038   4.746   5.673
 5271SOL    HW216713   6.072   4.586   5.678
 5272SOL     OW16714   3.417   5.850   1.153
 5272SOL    HW116715   3.349   5.799   1.101
 5272SOL    HW216716   3.379   5.939   1.179
 5273SOL     OW16717   0.854   3.378   2.530
 5273SOL    HW116718   0.900   3.459   2.492
 5273SOL    HW216719   0.759   3.400   2.550
 5274SOL     OW16720   5.212   6.421   2.725
 5274SOL    HW116721   5.124   6.464   2.745
 5274SOL    HW216722   5.254   6.388   2.810
 5275SOL     OW16723   3.638   1.018   0.697
 5275SOL    HW116724   3.598   0.954   0.762
 5275SOL    HW216725   3.656   1.105   0.743
 5276SOL     OW16726   2.141   0.500   1.644
 5276SOL    HW116727   2.227   0.463   1.609
 5276SOL    HW216728   2.150   0.598   1.660
 5277SOL     OW16729   2.941   1.072   2.745
 5277SOL    HW116730   2.859   1.019   2.723
 5277SOL    HW216731   2.922   1.128   2.826
 5278SOL     OW16732   5.032   5.137   3.667
 5278SOL    HW116733   4.984   5.051   3.646
 5278SOL    HW216734   5.007   5.206   3.599
 5279SOL     OW16735   2.334   5.892   0.963
 5279SOL    HW116736   2.282   5.962   1.012
 5279SOL    HW216737   2.412   5.863   1.019
 5280SOL     OW16738   2.973   6.244   4.706
 5280SOL    HW116739   3.001   6.170   4.646
 5280SOL    HW216740   2.940   6.321   4.652
 5281SOL     OW16741   6.461   2.192   2.230
 5281SOL    HW116742   6.556   2.175   2.254
 5281SOL    HW216743   6.432   2.280   2.269
 5282SOL     OW16744   2.623   1.631   3.832
 5282SOL    HW116745   2.661   1.685   3.757
 5282SOL    HW216746   2.655   1.668   3.920
 5283SOL     OW16747   5.056   6.700   1.729
 5283SOL    HW116748   5.121   6.749   1.672
 5283SOL    HW216749   5.082   6.603   1.735
 5284SOL     OW16750   5.414   4.163   3.021
 5284SOL    HW116751   5.502   4.200   2.992
 5284SOL    HW216752   5.411   4.065   3.004
 5285SOL     OW16753   3.082   4.838   4.079
 5285SOL    HW116754   3.177   4.831   4.107
 5285SOL    HW216755   3.065   4.929   4.040
 5286SOL     OW16756   2.379   4.049   1.365
 5286SOL    HW116757   2.383   3.956   1.402
 5286SOL    HW216758   2.377   4.045   1.265
 5287SOL     OW16759   2.726   1.136   0.632
 5287SOL    HW116760   2.814   1.179   0.650
 5287SOL    HW216761   2.659   1.206   0.608
 5288SOL     OW16762   4.211   0.110   1.319
 5288SOL    HW116763   4.195   0.206   1.298
 5288SOL    HW216764   4.127   0.071   1.358
 5289SOL     OW16765   1.189   5.237   0.239
 5289SOL    HW116766   1.258   5.290   0.189
 5289SOL    HW216767   1.121   5.299   0.278
 5290SOL     OW16768   3.266   5.761   6.897
 5290SOL    HW116769   3.188   5.742   6.958
 5290SOL    HW216770   3.351   5.742   6.946
 5291SOL     OW16771   2.646   5.681   5.398
 5291SOL    HW116772   2.659   5.752   5.467
 5291SOL    HW216773   2.666   5.592   5.438
 5292SOL     OW16774   5.716   3.125   6.802
 5292SOL    HW116775   5.763   3.142   6.889
 5292SOL    HW216776   5.630   3.175   6.800
 5293SOL     OW16777   0.727   0.907   4.856
 5293SOL    HW116778   0.784   0.912   4.774
 5293SOL    HW216779   0.634   0.880   4.831
 5294SOL     OW16780   5.986   3.018   6.748
 5294SOL    HW116781   5.903   3.067   6.775
 5294SOL    HW216782   6.067   3.073   6.769
 5295SOL     OW16783   5.496   1.134   3.161
 5295SOL    HW116784   5.420   1.104   3.103
 5295SOL    HW216785   5.499   1.234   3.164
 5296SOL     OW16786   1.659   4.816   0.006
 5296SOL    HW116787   1.671   4.717   0.012
 5296SOL    HW216788   1.745   4.861   0.029
 5297SOL     OW16789   2.410   2.159   0.852
 5297SOL    HW116790   2.376   2.252   0.865
 5297SOL    HW216791   2.491   2.160   0.794
 5298SOL     OW16792   6.573   5.324   2.106
 5298SOL    HW116793   6.631   5.321   2.025
 5298SOL    HW216794   6.611   5.388   2.173
 5299SOL     OW16795   2.891   0.724   1.574
 5299SOL    HW116796   2.948   0.668   1.515
 5299SOL    HW216797   2.905   0.820   1.554
 5300SOL     OW16798   0.207   5.470   3.198
 5300SOL    HW116799   0.305   5.478   3.178
 5300SOL    HW216800   0.171   5.387   3.154
 5301SOL     OW16801   4.209   1.816   0.246
 5301SOL    HW116802   4.137   1.876   0.280
 5301SOL    HW216803   4.241   1.848   0.157
 5302SOL     OW16804   6.710   4.083   2.363
 5302SOL    HW116805   6.795   4.120   2.400
 5302SOL    HW216806   6.636   4.147   2.381
 5303SOL     OW16807   6.648   4.984   3.615
 5303SOL    HW116808   6.716   5.058   3.616
 5303SOL    HW216809   6.635   4.951   3.522
 5304SOL     OW16810   5.271   2.128   6.068
 5304SOL    HW116811   5.263   2.182   6.152
 5304SOL    HW216812   5.292   2.033   6.092
 5305SOL     OW16813   1.709   0.792   3.780
 5305SOL    HW116814   1.694   0.858   3.853
 5305SOL    HW216815   1.696   0.836   3.692
 5306SOL     OW16816   2.421   6.091   5.499
 5306SOL    HW116817   2.482   6.158   5.458
 5306SOL    HW216818   2.460   5.999   5.489
 5307SOL     OW16819   4.467   6.412   6.294
 5307SOL    HW116820   4.411   6.414   6.377
 5307SOL    HW216821   4.531   6.489   6.295
 5308SOL     OW16822   0.364   0.620   4.099
 5308SOL    HW116823   0.358   0.527   4.062
 5308SOL    HW216824   0.377   0.685   4.023
 5309SOL     OW16825   3.747   3.818   3.585
 5309SOL    HW116826   3.674   3.752   3.571
 5309SOL    HW216827   3.745   3.887   3.512
 5310SOL     OW16828   5.071   2.664   1.532
 5310SOL    HW116829   5.067   2.693   1.627
 5310SOL    HW216830   5.008   2.719   1.477
 5311SOL     OW16831   1.764   5.598   6.797
 5311SOL    HW116832   1.828   5.527   6.827
 5311SOL    HW216833   1.721   5.640   6.876
 5312SOL     OW16834   0.971   4.769   2.398
 5312SOL    HW116835   0.951   4.861   2.364
 5312SOL    HW216836   0.985   4.773   2.497
 5313SOL     OW16837   1.034   6.308   6.525
 5313SOL    HW116838   0.945   6.298   6.481
 5313SOL    HW216839   1.025   6.368   6.605
 5314SOL     OW16840   4.612   5.176   0.066
 5314SOL    HW116841   4.707   5.147   0.054
 5314SOL    HW216842   4.598   5.206   0.160
 5315SOL     OW16843   5.063   4.241   2.011
 5315SOL    HW116844   4.983   4.191   2.043
 5315SOL    HW216845   5.109   4.189   1.939
 5316SOL     OW16846   6.624   5.187   4.498
 5316SOL    HW116847   6.724   5.198   4.502
 5316SOL    HW216848   6.599   5.098   4.535
 5317SOL     OW16849   5.752   1.034   3.146
 5317SOL    HW116850   5.659   1.066   3.132
 5317SOL    HW216851   5.809   1.059   3.067
 5318SOL     OW16852   6.921   2.930   4.834
 5318SOL    HW116853   6.993   2.880   4.785
 5318SOL    HW216854   6.917   2.899   4.928
 5319SOL     OW16855   5.430   6.876   6.876
 5319SOL    HW116856   5.517   6.921   6.893
 5319SOL    HW216857   5.446   6.783   6.844
 5320SOL     OW16858   6.250   3.787   6.352
 5320SOL    HW116859   6.267   3.847   6.274
 5320SOL    HW216860   6.318   3.714   6.353
 5321SOL     OW16861   1.966   4.842   4.564
 5321SOL    HW116862   2.025   4.761   4.571
 5321SOL    HW216863   2.022   4.924   4.563
 5322SOL     OW16864   3.978   6.535   6.763
 5322SOL    HW116865   3.969   6.456   6.702
 5322SOL    HW216866   4.052   6.518   6.829
 5323SOL     OW16867   4.294   2.224   0.584
 5323SOL    HW116868   4.256   2.289   0.519
 5323SOL    HW216869   4.345   2.273   0.655
 5324SOL     OW16870   3.978   2.626   1.542
 5324SOL    HW116871   4.051   2.684   1.578
 5324SOL    HW216872   3.949   2.561   1.613
 5325SOL     OW16873   5.153   6.564   2.186
 5325SOL    HW116874   5.114   6.655   2.202
 5325SOL    HW216875   5.211   6.539   2.264
 5326SOL     OW16876   6.798   5.616   1.586
 5326SOL    HW116877   6.785   5.517   1.594
 5326SOL    HW216878   6.836   5.637   1.496
 5327SOL     OW16879   0.021   0.093   4.630
 5327SOL    HW116880   0.115   0.069   4.653
 5327SOL    HW216881   7.012   0.167   4.690
 5328SOL     OW16882   4.057   3.723   6.520
 5328SOL    HW116883   4.010   3.810   6.503
 5328SOL    HW216884   4.093   3.723   6.613
 5329SOL     OW16885   0.588   4.634   0.407
 5329SOL    HW116886   0.687   4.616   0.409
 5329SOL    HW216887   0.549   4.612   0.497
 5330SOL     OW16888   3.588   3.487   0.634
 5330SOL    HW116889   3.601   3.533   0.722
 5330SOL    HW216890   3.517   3.535   0.582
 5331SOL     OW16891   4.781   1.973   0.556
 5331SOL    HW116892   4.710   1.905   0.575
 5331SOL    HW216893   4.842   1.981   0.635
 5332SOL     OW16894   6.416   5.235   0.543
 5332SOL    HW116895   6.316   5.227   0.543
 5332SOL    HW216896   6.456   5.144   0.531
 5333SOL     OW16897   2.127   1.317   3.327
 5333SOL    HW116898   2.135   1.297   3.424
 5333SOL    HW216899   2.039   1.362   3.309
 5334SOL     OW16900   4.639   4.694   3.484
 5334SOL    HW116901   4.663   4.675   3.389
 5334SOL    HW216902   4.570   4.629   3.515
 5335SOL     OW16903   0.006   4.327   2.161
 5335SOL    HW116904   6.943   4.293   2.122
 5335SOL    HW216905   0.082   4.309   2.098
 5336SOL     OW16906   1.843   1.996   3.941
 5336SOL    HW116907   1.796   1.911   3.964
 5336SOL    HW216908   1.939   1.990   3.967
 5337SOL     OW16909   6.325   3.927   1.160
 5337SOL    HW116910   6.366   3.950   1.072
 5337SOL    HW216911   6.328   4.007   1.220
 5338SOL     OW16912   6.215   3.139   6.836
 5338SOL    HW116913   6.233   3.203   6.911
 5338SOL    HW216914   6.295   3.132   6.778
 5339SOL     OW16915   6.091   2.225   2.519
 5339SOL    HW116916   6.174   2.196   2.471
 5339SOL    HW216917   6.079   2.169   2.601
 5340SOL     OW16918   5.583   2.855   2.025
 5340SOL    HW116919   5.577   2.794   2.104
 5340SOL    HW216920   5.645   2.815   1.957
 5341SOL     OW16921   4.883   4.786   3.613
 5341SOL    HW116922   4.958   4.733   3.655
 5341SOL    HW216923   4.810   4.724   3.586
 5342SOL     OW16924   5.870   6.926   5.622
 5342SOL    HW116925   5.799   6.910   5.554
 5342SOL    HW216926   5.876   6.847   5.683
 5343SOL     OW16927   3.699   3.678   5.534
 5343SOL    HW116928   3.608   3.707   5.564
 5343SOL    HW216929   3.767   3.704   5.603
 5344SOL     OW16930   0.765   1.509   0.077
 5344SOL    HW116931   0.843   1.447   0.086
 5344SOL    HW216932   0.709   1.505   0.160
 5345SOL     OW16933   4.802   1.556   6.868
 5345SOL    HW116934   4.793   1.518   6.776
 5345SOL    HW216935   4.712   1.558   6.912
 5346SOL     OW16936   3.043   5.095   3.973
 5346SOL    HW116937   3.083   5.164   4.033
 5346SOL    HW216938   2.971   5.137   3.918
 5347SOL     OW16939   6.513   2.488   3.784
 5347SOL    HW116940   6.481   2.582   3.789
 5347SOL    HW216941   6.547   2.468   3.692
 5348SOL     OW16942   5.449   1.767   4.382
 5348SOL    HW116943   5.527   1.821   4.413
 5348SOL    HW216944   5.389   1.747   4.460
 5349SOL     OW16945   0.784   2.522   1.896
 5349SOL    HW116946   0.825   2.606   1.858
 5349SOL    HW216947   0.792   2.448   1.829
 5350SOL     OW16948   1.819   6.861   5.721
 5350SOL    HW116949   1.750   6.868   5.650
 5350SOL    HW216950   1.799   6.927   5.794
 5351SOL     OW16951   0.468   5.468   1.384
 5351SOL    HW116952   0.480   5.369   1.381
 5351SOL    HW216953   0.557   5.512   1.393
 5352SOL     OW16954   1.881   3.859   3.540
 5352SOL    HW116955   1.908   3.880   3.446
 5352SOL    HW216956   1.845   3.766   3.544
 5353SOL     OW16957   4.251   5.323   3.663
 5353SOL    HW116958   4.190   5.251   3.632
 5353SOL    HW216959   4.240   5.404   3.605
 5354SOL     OW16960   3.690   5.326   0.519
 5354SOL    HW116961   3.738   5.242   0.495
 5354SOL    HW216962   3.682   5.384   0.438
 5355SOL     OW16963   5.531   5.463   5.309
 5355SOL    HW116964   5.479   5.378   5.300
 5355SOL    HW216965   5.573   5.487   5.222
 5356SOL     OW16966   0.150   4.326   1.611
 5356SOL    HW116967   0.187   4.308   1.519
 5356SOL    HW216968   0.152   4.242   1.665
 5357SOL     OW16969   4.317   4.976   1.746
 5357SOL    HW116970   4.301   4.879   1.727
 5357SOL    HW216971   4.294   5.030   1.665
 5358SOL     OW16972   4.637   1.758   0.261
 5358SOL    HW116973   4.696   1.773   0.182
 5358SOL    HW216974   4.584   1.842   0.280
 5359SOL     OW16975   1.651   1.672   0.223
 5359SOL    HW116976   1.642   1.741   0.295
 5359SOL    HW216977   1.665   1.582   0.265
 5360SOL     OW16978   5.833   4.948   4.108
 5360SOL    HW116979   5.815   4.999   4.192
 5360SOL    HW216980   5.785   4.860   4.112
 5361SOL     OW16981   3.575   6.360   2.772
 5361SOL    HW116982   3.543   6.315   2.856
 5361SOL    HW216983   3.584   6.292   2.699
 5362SOL     OW16984   5.309   6.721   2.017
 5362SOL    HW116985   5.348   6.681   1.934
 5362SOL    HW216986   5.284   6.647   2.080
 5363SOL     OW16987   5.918   6.051   4.801
 5363SOL    HW116988   5.889   6.022   4.892
 5363SOL    HW216989   5.853   6.118   4.764
 5364SOL     OW16990   5.051   0.561   2.762
 5364SOL    HW116991   5.039   0.462   2.764
 5364SOL    HW216992   5.043   0.598   2.854
 5365SOL     OW16993   3.140   3.029   3.946
 5365SOL    HW116994   3.064   3.067   3.998
 5365SOL    HW216995   3.119   3.035   3.848
 5366SOL     OW16996   6.481   0.167   1.589
 5366SOL    HW116997   6.472   0.139   1.684
 5366SOL    HW216998   6.419   0.244   1.571
 5367SOL     OW16999   6.742   6.766   0.541
 5367SOL    HW117000   6.644   6.745   0.542
 5367SOL    HW217001   6.781   6.737   0.454
 5368SOL     OW17002   6.711   5.702   2.535
 5368SOL    HW117003   6.731   5.785   2.483
 5368SOL    HW217004   6.674   5.727   2.625
 5369SOL     OW17005   2.704   4.993   1.932
 5369SOL    HW117006   2.759   4.935   1.872
 5369SOL    HW217007   2.758   5.018   2.013
 5370SOL     OW17008   3.840   3.776   1.552
 5370SOL    HW117009   3.757   3.738   1.512
 5370SOL    HW217010   3.821   3.868   1.587
 5371SOL     OW17011   7.012   5.325   5.040
 5371SOL    HW117012   6.980   5.321   5.134
 5371SOL    HW217013   0.041   5.242   5.018
 5372SOL     OW17014   1.513   0.381   2.733
 5372SOL    HW117015   1.414   0.379   2.715
 5372SOL    HW217016   1.562   0.341   2.655
 5373SOL     OW17017   4.291   6.957   5.488
 5373SOL    HW117018   4.195   6.937   5.469
 5373SOL    HW217019   4.304   0.034   5.495
 5374SOL     OW17020   2.728   5.324   1.280
 5374SOL    HW117021   2.723   5.311   1.379
 5374SOL    HW217022   2.679   5.251   1.234
 5375SOL     OW17023   0.661   6.396   4.978
 5375SOL    HW117024   0.580   6.410   4.921
 5375SOL    HW217025   0.693   6.484   5.012
 5376SOL     OW17026   1.051   1.488   0.615
 5376SOL    HW117027   1.090   1.411   0.665
 5376SOL    HW217028   1.039   1.565   0.678
 5377SOL     OW17029   2.191   0.888   3.027
 5377SOL    HW117030   2.192   0.795   2.990
 5377SOL    HW217031   2.183   0.884   3.127
 5378SOL     OW17032   5.681   0.706   1.218
 5378SOL    HW117033   5.653   0.695   1.313
 5378SOL    HW217034   5.675   0.803   1.193
 5379SOL     OW17035   1.171   3.056   5.943
 5379SOL    HW117036   1.268   3.032   5.936
 5379SOL    HW217037   1.115   2.974   5.934
 5380SOL     OW17038   4.174   6.877   1.451
 5380SOL    HW117039   4.209   6.854   1.360
 5380SOL    HW217040   4.235   6.943   1.495
 5381SOL     OW17041   5.016   6.620   2.832
 5381SOL    HW117042   4.971   6.625   2.921
 5381SOL    HW217043   4.953   6.649   2.760
 5382SOL     OW17044   4.048   1.671   2.979
 5382SOL    HW117045   4.045   1.715   2.889
 5382SOL    HW217046   4.098   1.584   2.971
 5383SOL     OW17047   1.375   2.915   4.157
 5383SOL    HW117048   1.384   2.816   4.147
 5383SOL    HW217049   1.464   2.958   4.139
 5384SOL     OW17050   4.571   5.730   5.456
 5384SOL    HW117051   4.485   5.710   5.409
 5384SOL    HW217052   4.640   5.756   5.389
 5385SOL     OW17053   6.180   2.331   5.653
 5385SOL    HW117054   6.095   2.280   5.648
 5385SOL    HW217055   6.230   2.304   5.736
 5386SOL     OW17056   6.345   3.239   4.016
 5386SOL    HW117057   6.263   3.249   3.959
 5386SOL    HW217058   6.425   3.225   3.958
 5387SOL     OW17059   2.375   0.543   2.272
 5387SOL    HW117060   2.354   0.611   2.201
 5387SOL    HW217061   2.316   0.464   2.260
 5388SOL     OW17062   0.877   6.379   2.766
 5388SOL    HW117063   0.920   6.390   2.676
 5388SOL    HW217064   0.854   6.283   2.780
 5389SOL     OW17065   4.218   1.853   4.460
 5389SOL    HW117066   4.300   1.877   4.513
 5389SOL    HW217067   4.158   1.796   4.516
 5390SOL     OW17068   6.498   3.423   3.601
 5390SOL    HW117069   6.455   3.504   3.641
 5390SOL    HW217070   6.453   3.400   3.515
 5391SOL     OW17071   2.267   1.930   0.132
 5391SOL    HW117072   2.207   1.990   0.080
 5391SOL    HW217073   2.360   1.968   0.134
 5392SOL     OW17074   4.485   1.890   3.688
 5392SOL    HW117075   4.471   1.817   3.621
 5392SOL    HW217076   4.552   1.955   3.653
 5393SOL     OW17077   4.048   0.862   5.602
 5393SOL    HW117078   4.101   0.862   5.518
 5393SOL    HW217079   4.050   0.954   5.642
 5394SOL     OW17080   1.962   0.315   0.507
 5394SOL    HW117081   2.039   0.359   0.553
 5394SOL    HW217082   1.929   0.239   0.562
 5395SOL     OW17083   4.684   2.158   1.487
 5395SOL    HW117084   4.777   2.126   1.505
 5395SOL    HW217085   4.631   2.085   1.444
 5396SOL     OW17086   6.066   5.652   2.592
 5396SOL    HW117087   5.992   5.712   2.560
 5396SOL    HW217088   6.154   5.689   2.563
 5397SOL     OW17089   6.048   1.392   3.003
 5397SOL    HW117090   6.125   1.369   2.943
 5397SOL    HW217091   6.077   1.460   3.070
 5398SOL     OW17092   4.560   2.169   4.046
 5398SOL    HW117093   4.610   2.104   3.987
 5398SOL    HW217094   4.616   2.250   4.060
 5399SOL     OW17095   1.946   0.055   5.469
 5399SOL    HW117096   1.881   0.087   5.538
 5399SOL    HW217097   2.034   0.101   5.482
 5400SOL     OW17098   3.509   3.100   1.239
 5400SOL    HW117099   3.481   3.185   1.194
 5400SOL    HW217100   3.521   3.029   1.170
 5401SOL     OW17101   5.286   4.485   2.560
 5401SOL    HW117102   5.245   4.566   2.519
 5401SOL    HW217103   5.262   4.480   2.657
 5402SOL     OW17104   2.055   0.186   0.917
 5402SOL    HW117105   2.055   0.286   0.919
 5402SOL    HW217106   2.008   0.151   0.998
 5403SOL     OW17107   4.866   3.222   6.940
 5403SOL    HW117108   4.858   3.202   6.843
 5403SOL    HW217109   4.952   3.183   6.974
 5404SOL     OW17110   6.925   0.741   1.055
 5404SOL    HW117111   6.948   0.787   0.970
 5404SOL    HW217112   6.855   0.794   1.103
 5405SOL     OW17113   5.178   5.698   0.102
 5405SOL    HW117114   5.127   5.614   0.084
 5405SOL    HW217115   5.126   5.756   0.165
 5406SOL     OW17116   2.461   0.702   4.622
 5406SOL    HW117117   2.554   0.739   4.620
 5406SOL    HW217118   2.464   0.603   4.608
 5407SOL     OW17119   2.402   0.451   1.497
 5407SOL    HW117120   2.427   0.545   1.475
 5407SOL    HW217121   2.366   0.406   1.415
 5408SOL     OW17122   2.842   2.321   4.312
 5408SOL    HW117123   2.930   2.287   4.279
 5408SOL    HW217124   2.785   2.244   4.341
 5409SOL     OW17125   0.221   2.767   1.298
 5409SOL    HW117126   0.191   2.848   1.247
 5409SOL    HW217127   0.222   2.688   1.238
 5410SOL     OW17128   0.820   2.017   1.539
 5410SOL    HW117129   0.860   2.105   1.516
 5410SOL    HW217130   0.886   1.944   1.519
 5411SOL     OW17131   4.956   5.375   6.680
 5411SOL    HW117132   4.934   5.325   6.597
 5411SOL    HW217133   4.872   5.399   6.728
 5412SOL     OW17134   0.912   1.916   6.430
 5412SOL    HW117135   0.982   1.976   6.390
 5412SOL    HW217136   0.824   1.935   6.386
 5413SOL     OW17137   6.552   0.090   5.383
 5413SOL    HW117138   6.574   0.073   5.286
 5413SOL    HW217139   6.581   0.182   5.408
 5414SOL     OW17140   6.886   4.391   5.720
 5414SOL    HW117141   6.877   4.382   5.819
 5414SOL    HW217142   6.982   4.382   5.694
 5415SOL     OW17143   3.165   0.125   0.586
 5415SOL    HW117144   3.229   0.190   0.626
 5415SOL    HW217145   3.075   0.137   0.626
 5416SOL     OW17146   2.719   4.972   5.546
 5416SOL    HW117147   2.640   5.021   5.511
 5416SOL    HW217148   2.704   4.947   5.642
 5417SOL     OW17149   4.622   5.829   3.463
 5417SOL    HW117150   4.705   5.794   3.420
 5417SOL    HW217151   4.638   5.923   3.493
 5418SOL     OW17152   6.121   4.345   4.349
 5418SOL    HW117153   6.059   4.282   4.396
 5418SOL    HW217154   6.214   4.333   4.383
 5419SOL     OW17155   3.955   0.117   6.762
 5419SOL    HW117156   3.899   0.060   6.821
 5419SOL    HW217157   3.896   0.180   6.711
 5420SOL     OW17158   1.396   1.662   1.119
 5420SOL    HW117159   1.452   1.708   1.050
 5420SOL    HW217160   1.348   1.585   1.077
 5421SOL     OW17161   3.446   5.294   2.113
 5421SOL    HW117162   3.439   5.387   2.149
 5421SOL    HW217163   3.359   5.246   2.125
 5422SOL     OW17164   2.070   5.919   4.116
 5422SOL    HW117165   2.031   5.831   4.142
 5422SOL    HW217166   2.096   5.970   4.197
 5423SOL     OW17167   6.455   6.418   2.185
 5423SOL    HW117168   6.393   6.411   2.263
 5423SOL    HW217169   6.435   6.501   2.133
 5424SOL     OW17170   4.840   4.119   5.122
 5424SOL    HW117171   4.931   4.086   5.094
 5424SOL    HW217172   4.792   4.045   5.170
 5425SOL     OW17173   0.567   3.590   6.355
 5425SOL    HW117174   0.647   3.538   6.385
 5425SOL    HW217175   0.535   3.648   6.430
 5426SOL     OW17176   5.391   5.014   1.971
 5426SOL    HW117177   5.300   5.028   2.008
 5426SOL    HW217178   5.401   4.919   1.942
 5427SOL     OW17179   4.849   2.799   0.089
 5427SOL    HW117180   4.795   2.880   0.066
 5427SOL    HW217181   4.891   2.811   0.179
 5428SOL     OW17182   6.427   5.399   2.908
 5428SOL    HW117183   6.474   5.317   2.940
 5428SOL    HW217184   6.369   5.435   2.980
 5429SOL     OW17185   2.630   0.696   4.070
 5429SOL    HW117186   2.596   0.776   4.118
 5429SOL    HW217187   2.556   0.655   4.017
 5430SOL     OW17188   2.548   3.922   6.329
 5430SOL    HW117189   2.463   3.869   6.336
 5430SOL    HW217190   2.561   3.951   6.234
 5431SOL     OW17191   3.042   5.020   6.557
 5431SOL    HW117192   3.036   5.063   6.467
 5431SOL    HW217193   3.137   4.996   6.576
 5432SOL     OW17194   5.812   5.813   1.400
 5432SOL    HW117195   5.878   5.883   1.372
 5432SOL    HW217196   5.852   5.722   1.386
 5433SOL     OW17197   1.295   0.309   0.846
 5433SOL    HW117198   1.332   0.217   0.861
 5433SOL    HW217199   1.206   0.302   0.801
 5434SOL     OW17200   4.718   1.455   5.486
 5434SOL    HW117201   4.702   1.378   5.548
 5434SOL    HW217202   4.812   1.488   5.497
 5435SOL     OW17203   6.218   3.997   0.787
 5435SOL    HW117204   6.281   3.924   0.813
 5435SOL    HW217205   6.129   3.981   0.830
 5436SOL     OW17206   1.516   5.449   2.599
 5436SOL    HW117207   1.603   5.447   2.649
 5436SOL    HW217208   1.530   5.412   2.507
 5437SOL     OW17209   3.865   5.354   6.985
 5437SOL    HW117210   3.954   5.324   6.952
 5437SOL    HW217211   3.828   5.286   0.025
 5438SOL     OW17212   4.700   4.203   2.856
 5438SOL    HW117213   4.768   4.132   2.871
 5438SOL    HW217214   4.692   4.222   2.758
 5439SOL     OW17215   0.794   4.333   0.937
 5439SOL    HW117216   0.864   4.374   0.879
 5439SOL    HW217217   0.784   4.236   0.914
 5440SOL     OW17218   5.538   6.081   3.390
 5440SOL    HW117219   5.574   6.174   3.400
 5440SOL    HW217220   5.486   6.056   3.472
 5441SOL     OW17221   4.750   2.900   4.133
 5441SOL    HW117222   4.707   2.853   4.056
 5441SOL    HW217223   4.727   2.853   4.218
 5442SOL     OW17224   5.197   6.806   4.625
 5442SOL    HW117225   5.268   6.758   4.574
 5442SOL    HW217226   5.129   6.741   4.659
 5443SOL     OW17227   4.763   6.509   4.872
 5443SOL    HW117228   4.848   6.473   4.909
 5443SOL    HW217229   4.717   6.564   4.942
 5444SOL     OW17230   0.085   0.791   3.946
 5444SOL    HW117231   0.158   0.782   4.014
 5444SOL    HW217232   0.006   0.737   3.976
 5445SOL     OW17233   5.327   5.478   5.911
 5445SOL    HW117234   5.402   5.506   5.851
 5445SOL    HW217235   5.241   5.514   5.874
 5446SOL     OW17236   0.409   4.678   5.639
 5446SOL    HW117237   0.317   4.692   5.604
 5446SOL    HW217238   0.422   4.732   5.722
 5447SOL     OW17239   1.361   1.822   0.573
 5447SOL    HW117240   1.449   1.822   0.526
 5447SOL    HW217241   1.345   1.732   0.614
 5448SOL     OW17242   4.144   5.676   3.747
 5448SOL    HW117243   4.057   5.641   3.712
 5448SOL    HW217244   4.163   5.634   3.836
 5449SOL     OW17245   3.007   1.529   2.089
 5449SOL    HW117246   3.039   1.564   2.177
 5449SOL    HW217247   2.924   1.476   2.103
 5450SOL     OW17248   4.064   6.061   1.765
 5450SOL    HW117249   4.123   6.133   1.729
 5450SOL    HW217250   4.106   5.972   1.746
 5451SOL     OW17251   1.477   0.412   3.346
 5451SOL    HW117252   1.437   0.446   3.261
 5451SOL    HW217253   1.536   0.334   3.327
 5452SOL     OW17254   1.823   4.672   2.131
 5452SOL    HW117255   1.801   4.631   2.042
 5452SOL    HW217256   1.770   4.626   2.203
 5453SOL     OW17257   5.993   4.008   3.357
 5453SOL    HW117258   5.915   4.024   3.297
 5453SOL    HW217259   5.987   3.917   3.398
 5454SOL     OW17260   6.292   5.487   3.133
 5454SOL    HW117261   6.315   5.395   3.163
 5454SOL    HW217262   6.199   5.487   3.096
 5455SOL     OW17263   6.821   1.961   2.127
 5455SOL    HW117264   6.774   2.012   2.199
 5455SOL    HW217265   6.832   1.866   2.155
 5456SOL     OW17266   4.652   1.040   6.418
 5456SOL    HW117267   4.724   0.970   6.417
 5456SOL    HW217268   4.680   1.116   6.476
 5457SOL     OW17269   6.117   2.719   0.700
 5457SOL    HW117270   6.182   2.693   0.629
 5457SOL    HW217271   6.029   2.676   0.682
 5458SOL     OW17272   6.014   4.560   1.366
 5458SOL    HW117273   6.070   4.559   1.283
 5458SOL    HW217274   6.073   4.565   1.446
 5459SOL     OW17275   1.541   4.774   5.871
 5459SOL    HW117276   1.480   4.851   5.890
 5459SOL    HW217277   1.628   4.788   5.919
 5460SOL     OW17278   1.761   0.958   0.528
 5460SOL    HW117279   1.683   0.916   0.482
 5460SOL    HW217280   1.830   0.889   0.548
 5461SOL     OW17281   7.019   1.448   6.128
 5461SOL    HW117282   6.942   1.409   6.180
 5461SOL    HW217283   0.030   1.530   6.175
 5462SOL     OW17284   5.049   6.212   6.616
 5462SOL    HW117285   5.148   6.226   6.614
 5462SOL    HW217286   5.029   6.120   6.651
 5463SOL     OW17287   0.204   2.489   6.654
 5463SOL    HW117288   0.179   2.573   6.606
 5463SOL    HW217289   0.298   2.496   6.687
 5464SOL     OW17290   6.204   6.395   5.357
 5464SOL    HW117291   6.213   6.295   5.360
 5464SOL    HW217292   6.294   6.437   5.368
 5465SOL     OW17293   6.510   6.322   3.551
 5465SOL    HW117294   6.416   6.333   3.519
 5465SOL    HW217295   6.528   6.226   3.571
 5466SOL     OW17296   5.847   2.632   5.323
 5466SOL    HW117297   5.900   2.687   5.259
 5466SOL    HW217298   5.845   2.678   5.412
 5467SOL     OW17299   5.981   3.761   3.417
 5467SOL    HW117300   5.917   3.701   3.369
 5467SOL    HW217301   5.954   3.768   3.513
 5468SOL     OW17302   6.644   2.113   2.760
 5468SOL    HW117303   6.550   2.079   2.756
 5468SOL    HW217304   6.667   2.137   2.855
 5469SOL     OW17305   2.134   0.793   5.678
 5469SOL    HW117306   2.096   0.716   5.625
 5469SOL    HW217307   2.230   0.806   5.654
 5470SOL     OW17308   4.293   5.281   4.909
 5470SOL    HW117309   4.209   5.272   4.962
 5470SOL    HW217310   4.308   5.198   4.856
 5471SOL     OW17311   4.924   6.786   1.983
 5471SOL    HW117312   4.833   6.759   1.953
 5471SOL    HW217313   4.987   6.785   1.905
 5472SOL     OW17314   3.276   1.740   6.243
 5472SOL    HW117315   3.316   1.828   6.268
 5472SOL    HW217316   3.347   1.678   6.209
 5473SOL     OW17317   1.750   4.817   1.352
 5473SOL    HW117318   1.728   4.722   1.328
 5473SOL    HW217319   1.666   4.868   1.365
 5474SOL     OW17320   0.881   5.599   3.661
 5474SOL    HW117321   0.980   5.599   3.645
 5474SOL    HW217322   0.856   5.678   3.717
 5475SOL     OW17323   1.163   1.870   0.054
 5475SOL    HW117324   1.232   1.942   0.046
 5475SOL    HW217325   1.203   1.782   0.029
 5476SOL     OW17326   2.517   6.419   5.410
 5476SOL    HW117327   2.434   6.458   5.450
 5476SOL    HW217328   2.588   6.414   5.480
 5477SOL     OW17329   2.079   4.898   3.968
 5477SOL    HW117330   2.047   4.871   3.877
 5477SOL    HW217331   2.124   4.820   4.012
 5478SOL     OW17332   5.710   4.804   6.278
 5478SOL    HW117333   5.784   4.858   6.317
 5478SOL    HW217334   5.623   4.852   6.292
 5479SOL     OW17335   4.552   1.751   4.868
 5479SOL    HW117336   4.464   1.724   4.829
 5479SOL    HW217337   4.544   1.844   4.906
 5480SOL     OW17338   6.309   4.452   4.879
 5480SOL    HW117339   6.360   4.514   4.938
 5480SOL    HW217340   6.363   4.369   4.862
 5481SOL     OW17341   3.678   1.311   6.261
 5481SOL    HW117342   3.776   1.329   6.269
 5481SOL    HW217343   3.661   1.213   6.275
 5482SOL     OW17344   3.405   3.618   2.254
 5482SOL    HW117345   3.422   3.556   2.331
 5482SOL    HW217346   3.442   3.577   2.170
 5483SOL     OW17347   6.258   3.404   5.706
 5483SOL    HW117348   6.258   3.354   5.793
 5483SOL    HW217349   6.167   3.400   5.665
 5484SOL     OW17350   6.860   6.825   3.996
 5484SOL    HW117351   6.761   6.835   3.988
 5484SOL    HW217352   6.903   6.850   3.910
 5485SOL     OW17353   3.166   0.149   4.745
 5485SOL    HW117354   3.210   0.060   4.736
 5485SOL    HW217355   3.150   0.188   4.654
 5486SOL     OW17356   1.268   0.438   3.537
 5486SOL    HW117357   1.277   0.534   3.565
 5486SOL    HW217358   1.338   0.417   3.469
 5487SOL     OW17359   6.322   4.164   0.127
 5487SOL    HW117360   6.298   4.067   0.123
 5487SOL    HW217361   6.393   4.183   0.059
 5488SOL     OW17362   4.442   2.257   0.252
 5488SOL    HW117363   4.350   2.226   0.276
 5488SOL    HW217364   4.445   2.357   0.252
 5489SOL     OW17365   1.273   4.212   2.219
 5489SOL    HW117366   1.263   4.115   2.197
 5489SOL    HW217367   1.369   4.239   2.211
 5490SOL     OW17368   3.490   0.173   0.565
 5490SOL    HW117369   3.458   0.239   0.497
 5490SOL    HW217370   3.559   0.216   0.624
 5491SOL     OW17371   1.661   4.434   6.757
 5491SOL    HW117372   1.589   4.370   6.731
 5491SOL    HW217373   1.750   4.392   6.743
 5492SOL     OW17374   0.884   1.260   6.099
 5492SOL    HW117375   0.894   1.314   6.016
 5492SOL    HW217376   0.787   1.251   6.122
 5493SOL     OW17377   3.823   3.000   5.438
 5493SOL    HW117378   3.776   3.086   5.419
 5493SOL    HW217379   3.897   3.017   5.504
 5494SOL     OW17380   6.544   3.003   0.674
 5494SOL    HW117381   6.566   3.083   0.619
 5494SOL    HW217382   6.479   3.029   0.746
 5495SOL     OW17383   3.387   3.325   1.026
 5495SOL    HW117384   3.393   3.267   0.944
 5495SOL    HW217385   3.429   3.414   1.007
 5496SOL     OW17386   3.675   6.066   1.762
 5496SOL    HW117387   3.729   5.990   1.799
 5496SOL    HW217388   3.662   6.052   1.664
 5497SOL     OW17389   0.472   1.740   2.878
 5497SOL    HW117390   0.533   1.695   2.812
 5497SOL    HW217391   0.496   1.711   2.971
 5498SOL     OW17392   4.584   1.729   6.595
 5498SOL    HW117393   4.658   1.791   6.623
 5498SOL    HW217394   4.498   1.779   6.594
 5499SOL     OW17395   0.164   0.610   3.282
 5499SOL    HW117396   0.084   0.618   3.223
 5499SOL    HW217397   0.247   0.625   3.227
 5500SOL     OW17398   2.183   5.725   7.012
 5500SOL    HW117399   2.217   5.711   0.083
 5500SOL    HW217400   2.256   5.764   6.956
 5501SOL     OW17401   2.990   0.257   1.981
 5501SOL    HW117402   2.933   0.179   2.006
 5501SOL    HW217403   2.943   0.311   1.910
 5502SOL     OW17404   6.261   4.170   5.577
 5502SOL    HW117405   6.202   4.109   5.630
 5502SOL    HW217406   6.219   4.187   5.488
 5503SOL     OW17407   1.023   5.094   3.031
 5503SOL    HW117408   0.962   5.015   3.020
 5503SOL    HW217409   1.018   5.150   2.948
 5504SOL     OW17410   2.619   1.003   4.725
 5504SOL    HW117411   2.653   0.955   4.806
 5504SOL    HW217412   2.666   0.968   4.644
 5505SOL     OW17413   1.935   5.942   5.249
 5505SOL    HW117414   1.888   5.937   5.161
 5505SOL    HW217415   1.905   6.024   5.299
 5506SOL     OW17416   6.863   0.337   4.704
 5506SOL    HW117417   6.823   0.309   4.617
 5506SOL    HW217418   6.796   0.391   4.755
 5507SOL     OW17419   2.624   6.334   3.012
 5507SOL    HW117420   2.543   6.378   2.974
 5507SOL    HW217421   2.644   6.374   3.102
 5508SOL     OW17422   2.385   1.065   6.819
 5508SOL    HW117423   2.408   0.983   6.767
 5508SOL    HW217424   2.465   1.125   6.824
 5509SOL     OW17425   6.577   5.865   0.362
 5509SOL    HW117426   6.549   5.921   0.439
 5509SOL    HW217427   6.629   5.922   0.297
 5510SOL     OW17428   4.626   6.768   6.974
 5510SOL    HW117429   4.535   6.809   6.977
 5510SOL    HW217430   4.688   6.831   6.926
 5511SOL     OW17431   1.377   0.464   3.104
 5511SOL    HW117432   1.331   0.396   3.047
 5511SOL    HW217433   1.437   0.520   3.047
 5512SOL     OW17434   6.714   2.393   0.479
 5512SOL    HW117435   6.741   2.467   0.540
 5512SOL    HW217436   6.640   2.424   0.419
 5513SOL     OW17437   4.842   4.284   4.877
 5513SOL    HW117438   4.749   4.321   4.871
 5513SOL    HW217439   4.854   4.238   4.965
 5514SOL     OW17440   5.597   5.111   2.814
 5514SOL    HW117441   5.561   5.019   2.800
 5514SOL    HW217442   5.634   5.118   2.907
 5515SOL     OW17443   6.161   3.156   1.440
 5515SOL    HW117444   6.240   3.189   1.492
 5515SOL    HW217445   6.084   3.144   1.503
 5516SOL     OW17446   1.869   2.819   0.350
 5516SOL    HW117447   1.799   2.887   0.327
 5516SOL    HW217448   1.955   2.843   0.305
 5517SOL     OW17449   3.371   1.985   2.183
 5517SOL    HW117450   3.330   2.009   2.096
 5517SOL    HW217451   3.323   2.031   2.257
 5518SOL     OW17452   6.235   5.581   6.243
 5518SOL    HW117453   6.196   5.673   6.237
 5518SOL    HW217454   6.291   5.574   6.325
 5519SOL     OW17455   5.443   3.632   3.143
 5519SOL    HW117456   5.469   3.583   3.060
 5519SOL    HW217457   5.344   3.628   3.154
 5520SOL     OW17458   1.074   4.251   3.124
 5520SOL    HW117459   1.045   4.331   3.071
 5520SOL    HW217460   1.050   4.265   3.220
 5521SOL     OW17461   4.620   5.908   2.142
 5521SOL    HW117462   4.705   5.898   2.090
 5521SOL    HW217463   4.545   5.865   2.091
 5522SOL     OW17464   2.106   3.915   1.416
 5522SOL    HW117465   2.160   3.999   1.410
 5522SOL    HW217466   2.144   3.847   1.353
 5523SOL     OW17467   3.117   6.935   3.110
 5523SOL    HW117468   3.089   6.850   3.157
 5523SOL    HW217469   3.073   6.938   3.020
 5524SOL     OW17470   0.306   6.176   4.735
 5524SOL    HW117471   0.355   6.179   4.648
 5524SOL    HW217472   0.290   6.080   4.760
 5525SOL     OW17473   0.308   4.649   0.362
 5525SOL    HW117474   0.406   4.630   0.360
 5525SOL    HW217475   0.286   4.720   0.296
 5526SOL     OW17476   5.970   3.502   4.312
 5526SOL    HW117477   5.978   3.468   4.218
 5526SOL    HW217478   5.874   3.519   4.333
 5527SOL     OW17479   0.490   3.115   2.437
 5527SOL    HW117480   0.485   3.015   2.434
 5527SOL    HW217481   0.571   3.146   2.389
 5528SOL     OW17482   0.747   2.030   6.010
 5528SOL    HW117483   0.837   2.062   6.042
 5528SOL    HW217484   0.712   1.962   6.075
 5529SOL     OW17485   1.970   0.238   4.362
 5529SOL    HW117486   1.985   0.140   4.347
 5529SOL    HW217487   1.940   0.253   4.456
 5530SOL     OW17488   0.220   1.918   2.051
 5530SOL    HW117489   0.233   1.982   1.976
 5530SOL    HW217490   0.238   1.965   2.138
 5531SOL     OW17491   4.036   3.473   4.605
 5531SOL    HW117492   4.128   3.442   4.582
 5531SOL    HW217493   3.979   3.395   4.631
 5532SOL     OW17494   1.918   1.148   0.619
 5532SOL    HW117495   1.957   1.101   0.698
 5532SOL    HW217496   1.832   1.105   0.593
 5533SOL     OW17497   2.781   0.949   2.474
 5533SOL    HW117498   2.795   0.857   2.437
 5533SOL    HW217499   2.738   0.942   2.565
 5534SOL     OW17500   1.003   2.853   6.624
 5534SOL    HW117501   1.058   2.784   6.577
 5534SOL    HW217502   0.994   2.934   6.565
 5535SOL     OW17503   0.127   3.350   2.915
 5535SOL    HW117504   0.132   3.333   3.014
 5535SOL    HW217505   0.219   3.344   2.876
 5536SOL     OW17506   2.342   0.933   4.071
 5536SOL    HW117507   2.361   0.988   4.152
 5536SOL    HW217508   2.283   0.856   4.095
 5537SOL     OW17509   3.193   0.813   4.684
 5537SOL    HW117510   3.135   0.768   4.752
 5537SOL    HW217511   3.207   0.909   4.710
 5538SOL     OW17512   4.080   0.129   5.164
 5538SOL    HW117513   4.147   0.202   5.157
 5538SOL    HW217514   4.076   0.096   5.259
 5539SOL     OW17515   0.486   2.038   1.143
 5539SOL    HW117516   0.564   2.094   1.116
 5539SOL    HW217517   0.503   1.943   1.117
 5540SOL     OW17518   5.285   2.874   1.780
 5540SOL    HW117519   5.316   2.909   1.868
 5540SOL    HW217520   5.187   2.852   1.786
 5541SOL     OW17521   5.223   3.290   5.849
 5541SOL    HW117522   5.201   3.385   5.832
 5541SOL    HW217523   5.142   3.233   5.833
 5542SOL     OW17524   6.091   5.861   5.778
 5542SOL    HW117525   6.067   5.954   5.807
 5542SOL    HW217526   6.062   5.848   5.684
 5543SOL     OW17527   2.080   5.548   6.252
 5543SOL    HW117528   2.004   5.561   6.316
 5543SOL    HW217529   2.072   5.613   6.177
 5544SOL     OW17530   5.635   5.767   5.691
 5544SOL    HW117531   5.658   5.780   5.594
 5544SOL    HW217532   5.714   5.788   5.748
 5545SOL     OW17533   4.689   0.733   2.453
 5545SOL    HW117534   4.728   0.694   2.369
 5545SOL    HW217535   4.745   0.810   2.482
 5546SOL     OW17536   0.704   6.197   4.278
 5546SOL    HW117537   0.655   6.283   4.294
 5546SOL    HW217538   0.688   6.135   4.355
 5547SOL     OW17539   4.017   1.054   4.849
 5547SOL    HW117540   4.084   1.124   4.822
 5547SOL    HW217541   3.925   1.095   4.849
 5548SOL     OW17542   6.484   3.732   5.482
 5548SOL    HW117543   6.549   3.692   5.417
 5548SOL    HW217544   6.492   3.831   5.481
 5549SOL     OW17545   4.025   3.827   1.152
 5549SOL    HW117546   4.070   3.845   1.064
 5549SOL    HW217547   3.933   3.793   1.136
 5550SOL     OW17548   2.358   4.411   2.404
 5550SOL    HW117549   2.360   4.381   2.309
 5550SOL    HW217550   2.452   4.424   2.437
 5551SOL     OW17551   1.730   6.132   2.543
 5551SOL    HW117552   1.699   6.186   2.621
 5551SOL    HW217553   1.782   6.053   2.575
 5552SOL     OW17554   5.819   0.955   6.711
 5552SOL    HW117555   5.801   0.940   6.808
 5552SOL    HW217556   5.773   1.039   6.681
 5553SOL     OW17557   4.238   6.490   6.120
 5553SOL    HW117558   4.257   6.573   6.068
 5553SOL    HW217559   4.323   6.459   6.164
 5554SOL     OW17560   4.733   2.810   1.309
 5554SOL    HW117561   4.652   2.767   1.348
 5554SOL    HW217562   4.801   2.824   1.381
 5555SOL     OW17563   1.392   3.569   2.122
 5555SOL    HW117564   1.416   3.472   2.121
 5555SOL    HW217565   1.456   3.620   2.063
 5556SOL     OW17566   6.218   1.585   3.797
 5556SOL    HW117567   6.310   1.577   3.757
 5556SOL    HW217568   6.224   1.631   3.885
 5557SOL     OW17569   3.882   5.910   1.880
 5557SOL    HW117570   3.895   5.905   1.979
 5557SOL    HW217571   3.952   5.968   1.840
 5558SOL     OW17572   2.924   3.595   6.479
 5558SOL    HW117573   2.861   3.643   6.418
 5558SOL    HW217574   3.018   3.623   6.458
 5559SOL     OW17575   1.876   0.425   2.253
 5559SOL    HW117576   1.849   0.393   2.163
 5559SOL    HW217577   1.883   0.525   2.252
 5560SOL     OW17578   6.961   5.266   1.321
 5560SOL    HW117579   0.002   5.342   1.338
 5560SOL    HW217580   6.930   5.229   1.409
 5561SOL     OW17581   2.139   1.002   4.367
 5561SOL    HW117582   2.156   0.952   4.452
 5561SOL    HW217583   2.085   0.945   4.305
 5562SOL     OW17584   4.176   2.821   6.962
 5562SOL    HW117585   4.130   2.863   6.884
 5562SOL    HW217586   4.111   2.805   0.013
 5563SOL     OW17587   3.079   5.100   2.813
 5563SOL    HW117588   3.059   5.126   2.908
 5563SOL    HW217589   3.073   5.000   2.804
 5564SOL     OW17590   4.620   0.112   7.021
 5564SOL    HW117591   4.684   0.037   7.004
 5564SOL    HW217592   4.548   0.111   6.952
 5565SOL     OW17593   3.850   2.385   6.273
 5565SOL    HW117594   3.848   2.479   6.239
 5565SOL    HW217595   3.922   2.334   6.226
 5566SOL     OW17596   1.854   4.557   0.147
 5566SOL    HW117597   1.787   4.545   0.073
 5566SOL    HW217598   1.832   4.639   0.199
 5567SOL     OW17599   0.083   3.938   1.310
 5567SOL    HW117600   0.032   3.887   1.379
 5567SOL    HW217601   0.062   3.900   1.219
 5568SOL     OW17602   5.354   1.451   3.989
 5568SOL    HW117603   5.375   1.376   4.053
 5568SOL    HW217604   5.395   1.431   3.900
 5569SOL     OW17605   2.008   1.887   1.957
 5569SOL    HW117606   1.999   1.983   1.982
 5569SOL    HW217607   2.086   1.876   1.895
 5570SOL     OW17608   5.778   3.688   4.050
 5570SOL    HW117609   5.739   3.735   3.970
 5570SOL    HW217610   5.872   3.719   4.064
 5571SOL     OW17611   6.160   5.732   1.828
 5571SOL    HW117612   6.218   5.812   1.844
 5571SOL    HW217613   6.134   5.692   1.915
 5572SOL     OW17614   1.283   4.212   4.991
 5572SOL    HW117615   1.316   4.224   4.897
 5572SOL    HW217616   1.291   4.298   5.041
 5573SOL     OW17617   1.742   5.685   5.326
 5573SOL    HW117618   1.814   5.647   5.268
 5573SOL    HW217619   1.699   5.762   5.279
 5574SOL     OW17620   0.029   2.182   1.657
 5574SOL    HW117621   6.964   2.225   1.635
 5574SOL    HW217622   0.020   2.126   1.739
 5575SOL     OW17623   6.618   1.270   0.931
 5575SOL    HW117624   6.663   1.359   0.942
 5575SOL    HW217625   6.681   1.197   0.953
 5576SOL     OW17626   1.113   4.405   2.092
 5576SOL    HW117627   1.171   4.361   2.159
 5576SOL    HW217628   1.154   4.396   2.001
 5577SOL     OW17629   2.884   2.492   6.803
 5577SOL    HW117630   2.801   2.474   6.856
 5577SOL    HW217631   2.959   2.435   6.839
 5578SOL     OW17632   3.502   3.944   2.041
 5578SOL    HW117633   3.596   3.977   2.052
 5578SOL    HW217634   3.485   3.922   1.946
 5579SOL     OW17635   7.016   3.238   0.429
 5579SOL    HW117636   6.992   3.143   0.409
 5579SOL    HW217637   6.943   3.280   0.483
 5580SOL     OW17638   4.691   2.510   5.532
 5580SOL    HW117639   4.723   2.589   5.480
 5580SOL    HW217640   4.761   2.438   5.531
 5581SOL     OW17641   1.859   0.045   1.972
 5581SOL    HW117642   1.882   0.044   2.069
 5581SOL    HW217643   1.777   7.013   1.957
 5582SOL     OW17644   3.671   4.132   6.542
 5582SOL    HW117645   3.710   4.220   6.568
 5582SOL    HW217646   3.572   4.133   6.556
 5583SOL     OW17647   4.905   1.009   2.872
 5583SOL    HW117648   4.902   0.936   2.803
 5583SOL    HW217649   4.841   0.988   2.946
 5584SOL     OW17650   0.009   4.303   4.773
 5584SOL    HW117651   7.007   4.373   4.840
 5584SOL    HW217652   0.003   4.213   4.815
 5585SOL     OW17653   5.732   5.163   3.068
 5585SOL    HW117654   5.647   5.178   3.117
 5585SOL    HW217655   5.777   5.250   3.051
 5586SOL     OW17656   0.400   3.374   6.262
 5586SOL    HW117657   0.440   3.336   6.179
 5586SOL    HW217658   0.458   3.447   6.297
 5587SOL     OW17659   4.377   6.429   0.651
 5587SOL    HW117660   4.317   6.466   0.722
 5587SOL    HW217661   4.364   6.481   0.567
 5588SOL     OW17662   2.180   5.396   2.930
 5588SOL    HW117663   2.086   5.361   2.928
 5588SOL    HW217664   2.207   5.423   2.838
 5589SOL     OW17665   6.248   3.683   5.632
 5589SOL    HW117666   6.271   3.591   5.662
 5589SOL    HW217667   6.315   3.715   5.565
 5590SOL     OW17668   0.206   6.065   3.714
 5590SOL    HW117669   0.251   6.067   3.625
 5590SOL    HW217670   0.271   6.037   3.784
 5591SOL     OW17671   5.943   2.155   1.464
 5591SOL    HW117672   5.953   2.158   1.564
 5591SOL    HW217673   5.912   2.064   1.437
 5592SOL     OW17674   1.917   5.876   2.975
 5592SOL    HW117675   1.979   5.904   3.050
 5592SOL    HW217676   1.960   5.804   2.922
 5593SOL     OW17677   0.664   2.820   0.557
 5593SOL    HW117678   0.764   2.808   0.557
 5593SOL    HW217679   0.629   2.800   0.466
 5594SOL     OW17680   5.033   0.759   5.913
 5594SOL    HW117681   4.962   0.803   5.857
 5594SOL    HW217682   5.064   0.676   5.867
 5595SOL     OW17683   0.511   1.555   4.765
 5595SOL    HW117684   0.464   1.615   4.829
 5595SOL    HW217685   0.462   1.556   4.677
 5596SOL     OW17686   4.746   0.576   2.663
 5596SOL    HW117687   4.718   0.644   2.595
 5596SOL    HW217688   4.845   0.578   2.673
 5597SOL     OW17689   4.913   2.993   4.435
 5597SOL    HW117690   4.856   2.918   4.402
 5597SOL    HW217691   4.961   3.035   4.358
 5598SOL     OW17692   5.034   3.891   4.210
 5598SOL    HW117693   5.118   3.890   4.155
 5598SOL    HW217694   5.056   3.865   4.304
 5599SOL     OW17695   0.822   2.129   3.323
 5599SOL    HW117696   0.863   2.040   3.341
 5599SOL    HW217697   0.759   2.153   3.397
 5600SOL     OW17698   1.417   1.106   1.790
 5600SOL    HW117699   1.402   1.115   1.692
 5600SOL    HW217700   1.513   1.122   1.811
 5601SOL     OW17701   2.028   0.802   5.942
 5601SOL    HW117702   2.013   0.709   5.974
 5601SOL    HW217703   2.078   0.800   5.855
 5602SOL     OW17704   6.374   1.529   1.276
 5602SOL    HW117705   6.443   1.457   1.269
 5602SOL    HW217706   6.287   1.489   1.303
 5603SOL     OW17707   5.894   2.454   6.329
 5603SOL    HW117708   5.800   2.474   6.301
 5603SOL    HW217709   5.904   2.471   6.427
 5604SOL     OW17710   6.184   1.937   5.018
 5604SOL    HW117711   6.264   1.995   5.037
 5604SOL    HW217712   6.183   1.912   4.922
 5605SOL     OW17713   7.011   1.874   4.962
 5605SOL    HW117714   6.942   1.813   4.923
 5605SOL    HW217715   6.966   1.938   5.025
 5606SOL     OW17716   4.895   6.726   0.471
 5606SOL    HW117717   4.988   6.761   0.464
 5606SOL    HW217718   4.852   6.727   0.381
 5607SOL     OW17719   5.558   1.283   2.847
 5607SOL    HW117720   5.495   1.344   2.897
 5607SOL    HW217721   5.652   1.314   2.861
 5608SOL     OW17722   5.110   0.056   4.257
 5608SOL    HW117723   5.172   0.032   4.332
 5608SOL    HW217724   5.101   7.000   4.196
 5609SOL     OW17725   3.339   6.424   1.049
 5609SOL    HW117726   3.325   6.522   1.060
 5609SOL    HW217727   3.420   6.396   1.101
 5610SOL     OW17728   3.729   6.104   0.665
 5610SOL    HW117729   3.689   6.069   0.580
 5610SOL    HW217730   3.662   6.162   0.711
 5611SOL     OW17731   0.955   6.091   2.814
 5611SOL    HW117732   0.893   6.019   2.785
 5611SOL    HW217733   1.027   6.102   2.745
 5612SOL     OW17734   3.681   2.420   6.857
 5612SOL    HW117735   3.676   2.517   6.880
 5612SOL    HW217736   3.713   2.409   6.763
 5613SOL     OW17737   5.718   3.944   3.538
 5613SOL    HW117738   5.762   4.016   3.484
 5613SOL    HW217739   5.652   3.984   3.602
 5614SOL     OW17740   4.358   1.790   4.234
 5614SOL    HW117741   4.452   1.757   4.243
 5614SOL    HW217742   4.324   1.817   4.325
 5615SOL     OW17743   0.463   1.843   4.418
 5615SOL    HW117744   0.451   1.847   4.518
 5615SOL    HW217745   0.419   1.923   4.377
 5616SOL     OW17746   2.698   2.075   4.846
 5616SOL    HW117747   2.695   2.146   4.776
 5616SOL    HW217748   2.739   1.992   4.807
 5617SOL     OW17749   2.734   6.935   5.882
 5617SOL    HW117750   2.815   6.883   5.907
 5617SOL    HW217751   2.730   7.019   5.935
 5618SOL     OW17752   0.092   4.611   3.845
 5618SOL    HW117753   0.143   4.612   3.931
 5618SOL    HW217754   0.027   4.687   3.844
 5619SOL     OW17755   2.812   3.609   5.800
 5619SOL    HW117756   2.829   3.529   5.859
 5619SOL    HW217757   2.899   3.655   5.780
 5620SOL     OW17758   4.426   3.833   0.904
 5620SOL    HW117759   4.468   3.802   0.989
 5620SOL    HW217760   4.478   3.797   0.826
 5621SOL     OW17761   2.202   1.765   6.942
 5621SOL    HW117762   2.249   1.812   7.017
 5621SOL    HW217763   2.162   1.679   6.977
 5622SOL     OW17764   4.953   0.255   6.360
 5622SOL    HW117765   4.961   0.272   6.262
 5622SOL    HW217766   4.870   0.299   6.395
 5623SOL     OW17767   2.869   5.820   4.778
 5623SOL    HW117768   2.881   5.765   4.861
 5623SOL    HW217769   2.810   5.898   4.799
 5624SOL     OW17770   1.003   4.362   3.675
 5624SOL    HW117771   0.943   4.378   3.754
 5624SOL    HW217772   1.056   4.279   3.690
 5625SOL     OW17773   6.391   1.740   4.860
 5625SOL    HW117774   6.298   1.709   4.881
 5625SOL    HW217775   6.454   1.707   4.931
 5626SOL     OW17776   2.897   6.168   4.352
 5626SOL    HW117777   2.854   6.184   4.263
 5626SOL    HW217778   2.839   6.108   4.407
 5627SOL     OW17779   0.999   5.777   6.420
 5627SOL    HW117780   0.995   5.781   6.321
 5627SOL    HW217781   1.094   5.782   6.451
 5628SOL     OW17782   1.086   2.598   0.584
 5628SOL    HW117783   1.179   2.613   0.550
 5628SOL    HW217784   1.020   2.623   0.514
 5629SOL     OW17785   3.650   4.070   2.745
 5629SOL    HW117786   3.646   4.048   2.842
 5629SOL    HW217787   3.559   4.098   2.714
 5630SOL     OW17788   2.203   4.094   0.379
 5630SOL    HW117789   2.237   4.011   0.335
 5630SOL    HW217790   2.124   4.129   0.330
 5631SOL     OW17791   4.595   1.773   0.637
 5631SOL    HW117792   4.646   1.695   0.602
 5631SOL    HW217793   4.520   1.795   0.574
 5632SOL     OW17794   3.195   2.430   6.148
 5632SOL    HW117795   3.119   2.452   6.087
 5632SOL    HW217796   3.276   2.408   6.093
 5633SOL     OW17797   6.217   3.596   4.059
 5633SOL    HW117798   6.266   3.514   4.090
 5633SOL    HW217799   6.178   3.579   3.969
 5634SOL     OW17800   2.464   5.293   4.378
 5634SOL    HW117801   2.525   5.367   4.408
 5634SOL    HW217802   2.464   5.289   4.278
 5635SOL     OW17803   2.182   4.065   5.540
 5635SOL    HW117804   2.274   4.103   5.549
 5635SOL    HW217805   2.182   3.997   5.467
 5636SOL     OW17806   4.122   6.433   4.455
 5636SOL    HW117807   4.152   6.369   4.525
 5636SOL    HW217808   4.025   6.419   4.437
 5637SOL     OW17809   4.971   6.704   3.326
 5637SOL    HW117810   4.998   6.680   3.419
 5637SOL    HW217811   5.008   6.794   3.303
 5638SOL     OW17812   6.100   3.573   1.478
 5638SOL    HW117813   6.127   3.641   1.410
 5638SOL    HW217814   6.022   3.521   1.443
 5639SOL     OW17815   0.773   1.151   1.355
 5639SOL    HW117816   0.756   1.174   1.451
 5639SOL    HW217817   0.717   1.210   1.297
 5640SOL     OW17818   2.878   0.339   3.965
 5640SOL    HW117819   2.961   0.376   3.923
 5640SOL    HW217820   2.814   0.312   3.894
 5641SOL     OW17821   1.179   5.469   5.601
 5641SOL    HW117822   1.140   5.396   5.545
 5641SOL    HW217823   1.126   5.478   5.685
 5642SOL     OW17824   1.570   6.898   5.582
 5642SOL    HW117825   1.591   6.849   5.498
 5642SOL    HW217826   1.545   6.993   5.560
 5643SOL     OW17827   4.542   2.020   4.937
 5643SOL    HW117828   4.609   2.091   4.917
 5643SOL    HW217829   4.495   2.041   5.023
 5644SOL     OW17830   3.190   0.398   4.897
 5644SOL    HW117831   3.189   0.321   4.834
 5644SOL    HW217832   3.217   0.366   4.989
 5645SOL     OW17833   6.508   4.259   3.844
 5645SOL    HW117834   6.469   4.261   3.935
 5645SOL    HW217835   6.447   4.209   3.782
 5646SOL     OW17836   1.646   5.466   3.305
 5646SOL    HW117837   1.718   5.524   3.342
 5646SOL    HW217838   1.639   5.478   3.206
 5647SOL     OW17839   5.176   6.293   1.135
 5647SOL    HW117840   5.211   6.231   1.064
 5647SOL    HW217841   5.085   6.263   1.163
 5648SOL     OW17842   2.142   5.519   2.661
 5648SOL    HW117843   2.090   5.491   2.580
 5648SOL    HW217844   2.239   5.521   2.638
 5649SOL     OW17845   0.730   6.769   4.241
 5649SOL    HW117846   0.826   6.771   4.215
 5649SOL    HW217847   0.678   6.716   4.173
 5650SOL     OW17848   1.364   4.567   1.604
 5650SOL    HW117849   1.273   4.607   1.598
 5650SOL    HW217850   1.391   4.559   1.700
 5651SOL     OW17851   2.284   1.338   0.407
 5651SOL    HW117852   2.352   1.411   0.396
 5651SOL    HW217853   2.276   1.315   0.504
 5652SOL     OW17854   6.330   5.966   1.117
 5652SOL    HW117855   6.279   5.883   1.141
 5652SOL    HW217856   6.313   5.988   1.021
 5653SOL     OW17857   6.696   6.622   6.434
 5653SOL    HW117858   6.610   6.591   6.474
 5653SOL    HW217859   6.723   6.561   6.360
 5654SOL     OW17860   0.628   5.995   4.480
 5654SOL    HW117861   0.576   5.990   4.566
 5654SOL    HW217862   0.700   5.925   4.482
 5655SOL     OW17863   0.194   2.919   3.929
 5655SOL    HW117864   0.189   2.944   3.832
 5655SOL    HW217865   0.245   2.833   3.938
 5656SOL     OW17866   6.638   4.107   6.510
 5656SOL    HW117867   6.625   4.009   6.523
 5656SOL    HW217868   6.731   4.125   6.476
 5657SOL     OW17869   5.275   3.304   5.525
 5657SOL    HW117870   5.255   3.281   5.620
 5657SOL    HW217871   5.193   3.292   5.469
 5658SOL     OW17872   2.738   3.362   6.346
 5658SOL    HW117873   2.793   3.285   6.314
 5658SOL    HW217874   2.798   3.429   6.390
 5659SOL     OW17875   3.967   3.374   6.482
 5659SOL    HW117876   3.991   3.440   6.411
 5659SOL    HW217877   3.947   3.286   6.441
 5660SOL     OW17878   4.811   6.914   5.635
 5660SOL    HW117879   4.829   6.817   5.621
 5660SOL    HW217880   4.741   6.944   5.570
 5661SOL     OW17881   1.610   6.008   4.548
 5661SOL    HW117882   1.679   6.080   4.559
 5661SOL    HW217883   1.640   5.925   4.596
 5662SOL     OW17884   2.966   6.844   2.888
 5662SOL    HW117885   2.888   6.796   2.927
 5662SOL    HW217886   2.946   6.942   2.883
 5663SOL     OW17887   2.330   1.892   0.834
 5663SOL    HW117888   2.381   1.835   0.769
 5663SOL    HW217889   2.363   1.987   0.828
 5664SOL     OW17890   6.784   3.504   3.916
 5664SOL    HW117891   6.841   3.426   3.887
 5664SOL    HW217892   6.810   3.532   4.008
 5665SOL     OW17893   0.948   0.098   0.797
 5665SOL    HW117894   1.024   0.038   0.820
 5665SOL    HW217895   0.887   0.051   0.732
 5666SOL     OW17896   6.273   0.409   3.882
 5666SOL    HW117897   6.348   0.471   3.857
 5666SOL    HW217898   6.250   0.421   3.978
 5667SOL     OW17899   1.557   5.200   4.746
 5667SOL    HW117900   1.492   5.125   4.734
 5667SOL    HW217901   1.625   5.197   4.673
 5668SOL     OW17902   6.283   3.103   3.348
 5668SOL    HW117903   6.329   3.033   3.294
 5668SOL    HW217904   6.184   3.095   3.336
 5669SOL     OW17905   6.361   4.464   0.693
 5669SOL    HW117906   6.385   4.368   0.680
 5669SOL    HW217907   6.436   4.522   0.662
 5670SOL     OW17908   1.443   3.179   3.887
 5670SOL    HW117909   1.363   3.125   3.858
 5670SOL    HW217910   1.439   3.270   3.845
 5671SOL     OW17911   5.998   6.360   5.518
 5671SOL    HW117912   6.013   6.422   5.595
 5671SOL    HW217913   6.056   6.387   5.441
 5672SOL     OW17914   5.287   4.539   5.699
 5672SOL    HW117915   5.240   4.488   5.772
 5672SOL    HW217916   5.373   4.576   5.735
 5673SOL     OW17917   1.629   6.298   1.048
 5673SOL    HW117918   1.540   6.336   1.074
 5673SOL    HW217919   1.688   6.294   1.129
 5674SOL     OW17920   1.982   4.615   5.051
 5674SOL    HW117921   2.049   4.661   4.993
 5674SOL    HW217922   1.927   4.683   5.099
 5675SOL     OW17923   4.715   2.640   6.725
 5675SOL    HW117924   4.704   2.722   6.781
 5675SOL    HW217925   4.671   2.654   6.636
 5676SOL     OW17926   2.696   1.577   2.359
 5676SOL    HW117927   2.659   1.615   2.275
 5676SOL    HW217928   2.764   1.640   2.398
 5677SOL     OW17929   0.671   0.852   0.729
 5677SOL    HW117930   0.586   0.905   0.731
 5677SOL    HW217931   0.664   0.776   0.793
 5678SOL     OW17932   4.373   1.016   2.705
 5678SOL    HW117933   4.279   0.984   2.696
 5678SOL    HW217934   4.427   0.948   2.755
 5679SOL     OW17935   5.676   1.416   4.006
 5679SOL    HW117936   5.703   1.455   3.918
 5679SOL    HW217937   5.636   1.489   4.063
 5680SOL     OW17938   1.981   5.201   6.246
 5680SOL    HW117939   2.013   5.266   6.315
 5680SOL    HW217940   1.989   5.108   6.282
 5681SOL     OW17941   0.417   3.818   2.328
 5681SOL    HW117942   0.440   3.780   2.238
 5681SOL    HW217943   0.342   3.884   2.318
 5682SOL     OW17944   2.704   5.455   4.388
 5682SOL    HW117945   2.724   5.519   4.314
 5682SOL    HW217946   2.762   5.375   4.379
 5683SOL     OW17947   3.586   2.100   6.367
 5683SOL    HW117948   3.647   2.083   6.289
 5683SOL    HW217949   3.640   2.114   6.449
 5684SOL     OW17950   1.872   3.656   6.005
 5684SOL    HW117951   1.950   3.671   5.943
 5684SOL    HW217952   1.878   3.565   6.044
 5685SOL     OW17953   2.215   2.003   3.068
 5685SOL    HW117954   2.153   1.965   2.999
 5685SOL    HW217955   2.169   2.076   3.118
 5686SOL     OW17956   2.618   1.591   4.969
 5686SOL    HW117957   2.697   1.577   4.910
 5686SOL    HW217958   2.620   1.684   5.007
 5687SOL     OW17959   0.952   6.104   5.726
 5687SOL    HW117960   1.047   6.085   5.701
 5687SOL    HW217961   0.896   6.103   5.643
 5688SOL     OW17962   1.536   2.477   3.055
 5688SOL    HW117963   1.527   2.378   3.068
 5688SOL    HW217964   1.491   2.503   2.969
 5689SOL     OW17965   2.620   0.705   1.737
 5689SOL    HW117966   2.600   0.652   1.819
 5689SOL    HW217967   2.707   0.673   1.698
 5690SOL     OW17968   1.498   5.905   6.937
 5690SOL    HW117969   1.586   5.858   6.930
 5690SOL    HW217970   1.514   5.999   6.967
 5691SOL     OW17971   3.540   0.647   1.974
 5691SOL    HW117972   3.623   0.680   2.019
 5691SOL    HW217973   3.483   0.724   1.948
 5692SOL     OW17974   4.859   4.827   1.105
 5692SOL    HW117975   4.893   4.821   1.011
 5692SOL    HW217976   4.858   4.922   1.134
 5693SOL     OW17977   4.490   0.662   1.733
 5693SOL    HW117978   4.472   0.696   1.826
 5693SOL    HW217979   4.543   0.578   1.738
 5694SOL     OW17980   0.844   0.678   2.342
 5694SOL    HW117981   0.904   0.643   2.413
 5694SOL    HW217982   0.864   0.774   2.325
 5695SOL     OW17983   1.454   1.223   2.963
 5695SOL    HW117984   1.430   1.320   2.964
 5695SOL    HW217985   1.515   1.205   2.886
 5696SOL     OW17986   1.111   6.586   4.289
 5696SOL    HW117987   1.111   6.633   4.201
 5696SOL    HW217988   1.044   6.513   4.288
 5697SOL     OW17989   5.811   2.544   2.167
 5697SOL    HW117990   5.810   2.445   2.153
 5697SOL    HW217991   5.819   2.590   2.078
 5698SOL     OW17992   1.622   4.349   4.628
 5698SOL    HW117993   1.632   4.333   4.529
 5698SOL    HW217994   1.641   4.445   4.648
 5699SOL     OW17995   1.567   2.267   2.770
 5699SOL    HW117996   1.548   2.347   2.713
 5699SOL    HW217997   1.659   2.276   2.809
 5700SOL     OW17998   6.406   6.753   3.604
 5700SOL    HW117999   6.490   6.700   3.620
 5700SOL    HW218000   6.421   6.818   3.529
 5701SOL     OW18001   0.121   0.677   1.779
 5701SOL    HW118002   0.123   0.694   1.680
 5701SOL    HW218003   0.196   0.615   1.802
 5702SOL     OW18004   2.297   6.308   3.863
 5702SOL    HW118005   2.234   6.273   3.932
 5702SOL    HW218006   2.273   6.271   3.774
 5703SOL     OW18007   0.009   4.485   6.767
 5703SOL    HW118008   0.092   4.524   6.807
 5703SOL    HW218009   6.953   4.541   6.792
 5704SOL     OW18010   5.023   3.925   3.120
 5704SOL    HW118011   5.101   3.910   3.181
 5704SOL    HW218012   4.970   4.003   3.152
 5705SOL     OW18013   4.984   5.652   6.521
 5705SOL    HW118014   5.026   5.587   6.585
 5705SOL    HW218015   4.995   5.618   6.428
 5706SOL     OW18016   5.302   2.091   2.069
 5706SOL    HW118017   5.296   2.109   1.971
 5706SOL    HW218018   5.217   2.050   2.101
 5707SOL     OW18019   6.523   0.330   0.622
 5707SOL    HW118020   6.434   0.377   0.621
 5707SOL    HW218021   6.577   0.361   0.701
 5708SOL     OW18022   5.231   6.035   2.518
 5708SOL    HW118023   5.150   6.068   2.469
 5708SOL    HW218024   5.308   6.030   2.454
 5709SOL     OW18025   0.516   1.255   2.534
 5709SOL    HW118026   0.578   1.182   2.506
 5709SOL    HW218027   0.449   1.271   2.462
 5710SOL     OW18028   3.112   2.128   0.509
 5710SOL    HW118029   3.111   2.082   0.598
 5710SOL    HW218030   3.185   2.089   0.452
 5711SOL     OW18031   4.959   0.944   1.526
 5711SOL    HW118032   4.983   0.869   1.589
 5711SOL    HW218033   5.042   0.993   1.500
 5712SOL     OW18034   6.254   6.731   0.133
 5712SOL    HW118035   6.163   6.700   0.104
 5712SOL    HW218036   6.321   6.709   0.061
 5713SOL     OW18037   3.189   4.071   1.585
 5713SOL    HW118038   3.149   4.160   1.607
 5713SOL    HW218039   3.168   4.006   1.657
 5714SOL     OW18040   6.555   6.275   1.212
 5714SOL    HW118041   6.615   6.311   1.140
 5714SOL    HW218042   6.579   6.180   1.231
 5715SOL     OW18043   0.120   0.012   2.349
 5715SOL    HW118044   0.089   6.948   2.388
 5715SOL    HW218045   0.075   0.027   2.261
 5716SOL     OW18046   1.216   6.004   5.624
 5716SOL    HW118047   1.259   5.927   5.672
 5716SOL    HW218048   1.278   6.038   5.554
 5717SOL     OW18049   2.004   5.053   1.591
 5717SOL    HW118050   2.094   5.023   1.623
 5717SOL    HW218051   1.939   4.977   1.599
 5718SOL     OW18052   1.737   3.457   0.217
 5718SOL    HW118053   1.710   3.372   0.261
 5718SOL    HW218054   1.696   3.535   0.266
 5719SOL     OW18055   2.373   3.505   0.331
 5719SOL    HW118056   2.304   3.506   0.259
 5719SOL    HW218057   2.330   3.486   0.419
 5720SOL     OW18058   1.615   6.872   4.705
 5720SOL    HW118059   1.693   6.930   4.728
 5720SOL    HW218060   1.530   6.920   4.728
 5721SOL     OW18061   5.845   4.178   1.098
 5721SOL    HW118062   5.796   4.182   1.011
 5721SOL    HW218063   5.824   4.260   1.151
 5722SOL     OW18064   6.614   2.800   5.465
 5722SOL    HW118065   6.624   2.801   5.366
 5722SOL    HW218066   6.569   2.715   5.493
 5723SOL     OW18067   4.517   3.701   6.824
 5723SOL    HW118068   4.420   3.677   6.826
 5723SOL    HW218069   4.566   3.645   6.892
 5724SOL     OW18070   5.953   2.784   3.996
 5724SOL    HW118071   6.039   2.749   3.958
 5724SOL    HW218072   5.974   2.854   4.064
 5725SOL     OW18073   6.947   4.622   4.285
 5725SOL    HW118074   0.003   4.563   4.305
 5725SOL    HW218075   6.932   4.686   4.361
 5726SOL     OW18076   6.736   5.234   3.980
 5726SOL    HW118077   6.743   5.311   4.044
 5726SOL    HW218078   6.730   5.269   3.887
 5727SOL     OW18079   6.418   2.625   4.562
 5727SOL    HW118080   6.435   2.585   4.653
 5727SOL    HW218081   6.491   2.689   4.540
 5728SOL     OW18082   5.001   6.194   5.609
 5728SOL    HW118083   4.950   6.189   5.695
 5728SOL    HW218084   4.959   6.134   5.541
 5729SOL     OW18085   1.850   1.748   6.638
 5729SOL    HW118086   1.888   1.763   6.730
 5729SOL    HW218087   1.760   1.789   6.632
 5730SOL     OW18088   6.211   4.313   6.446
 5730SOL    HW118089   6.292   4.276   6.491
 5730SOL    HW218090   6.159   4.238   6.405
 5731SOL     OW18091   6.682   0.166   2.439
 5731SOL    HW118092   6.751   0.235   2.420
 5731SOL    HW218093   6.685   0.095   2.369
 5732SOL     OW18094   0.803   6.253   3.820
 5732SOL    HW118095   0.790   6.173   3.761
 5732SOL    HW218096   0.720   6.269   3.873
 5733SOL     OW18097   3.580   6.387   4.967
 5733SOL    HW118098   3.575   6.300   5.016
 5733SOL    HW218099   3.555   6.373   4.871
 5734SOL     OW18100   1.014   0.416   5.111
 5734SOL    HW118101   1.108   0.385   5.100
 5734SOL    HW218102   1.013   0.511   5.142
 5735SOL     OW18103   3.412   1.322   0.823
 5735SOL    HW118104   3.350   1.244   0.832
 5735SOL    HW218105   3.446   1.347   0.913
 5736SOL     OW18106   0.069   4.592   0.128
 5736SOL    HW118107   0.111   4.548   0.049
 5736SOL    HW218108   6.995   4.610   0.109
 5737SOL     OW18109   5.500   5.923   0.502
 5737SOL    HW118110   5.485   5.860   0.425
 5737SOL    HW218111   5.413   5.944   0.545
 5738SOL     OW18112   1.885   3.105   6.253
 5738SOL    HW118113   1.936   3.168   6.311
 5738SOL    HW218114   1.799   3.147   6.225
 5739SOL     OW18115   1.794   1.396   6.214
 5739SOL    HW118116   1.824   1.474   6.159
 5739SOL    HW218117   1.751   1.328   6.154
 5740SOL     OW18118   4.396   5.618   0.339
 5740SOL    HW118119   4.471   5.576   0.287
 5740SOL    HW218120   4.401   5.717   0.331
 5741SOL     OW18121   0.143   5.687   3.983
 5741SOL    HW118122   0.172   5.648   4.070
 5741SOL    HW218123   0.071   5.755   4.000
 5742SOL     OW18124   4.972   6.306   2.543
 5742SOL    HW118125   4.996   6.259   2.628
 5742SOL    HW218126   4.883   6.275   2.512
 5743SOL     OW18127   2.985   6.124   4.965
 5743SOL    HW118128   2.902   6.091   5.011
 5743SOL    HW218129   2.960   6.168   4.879
 5744SOL     OW18130   4.701   0.165   0.835
 5744SOL    HW118131   4.691   0.200   0.928
 5744SOL    HW218132   4.614   0.173   0.787
 5745SOL     OW18133   3.180   1.297   4.407
 5745SOL    HW118134   3.094   1.331   4.370
 5745SOL    HW218135   3.208   1.354   4.484
 5746SOL     OW18136   4.736   0.924   1.049
 5746SOL    HW118137   4.807   0.919   1.119
 5746SOL    HW218138   4.697   1.016   1.048
 5747SOL     OW18139   0.391   5.287   2.870
 5747SOL    HW118140   0.395   5.267   2.772
 5747SOL    HW218141   0.409   5.203   2.922
 5748SOL     OW18142   1.888   4.975   1.152
 5748SOL    HW118143   1.852   4.936   1.236
 5748SOL    HW218144   1.819   5.031   1.108
 5749SOL     OW18145   2.263   1.350   3.959
 5749SOL    HW118146   2.249   1.331   4.056
 5749SOL    HW218147   2.177   1.341   3.910
 5750SOL     OW18148   6.057   5.240   4.579
 5750SOL    HW118149   6.137   5.188   4.550
 5750SOL    HW218150   6.086   5.330   4.613
 5751SOL     OW18151   2.398   2.550   4.986
 5751SOL    HW118152   2.452   2.472   5.017
 5751SOL    HW218153   2.376   2.608   5.064
 5752SOL     OW18154   5.996   1.317   6.186
 5752SOL    HW118155   6.056   1.316   6.266
 5752SOL    HW218156   5.961   1.225   6.169
 5753SOL     OW18157   3.315   3.330   6.253
 5753SOL    HW118158   3.263   3.246   6.271
 5753SOL    HW218159   3.312   3.351   6.155
 5754SOL     OW18160   5.938   5.583   1.391
 5754SOL    HW118161   5.983   5.525   1.324
 5754SOL    HW218162   6.006   5.623   1.453
 5755SOL     OW18163   2.863   3.731   6.071
 5755SOL    HW118164   2.834   3.696   5.982
 5755SOL    HW218165   2.947   3.684   6.099
 5756SOL     OW18166   6.686   5.301   3.462
 5756SOL    HW118167   6.769   5.342   3.423
 5756SOL    HW218168   6.631   5.261   3.389
 5757SOL     OW18169   6.416   6.612   1.708
 5757SOL    HW118170   6.419   6.513   1.697
 5757SOL    HW218171   6.337   6.649   1.660
 5758SOL     OW18172   2.784   2.073   4.373
 5758SOL    HW118173   2.826   2.037   4.290
 5758SOL    HW218174   2.686   2.050   4.374
 5759SOL     OW18175   4.881   2.256   6.873
 5759SOL    HW118176   4.942   2.210   6.938
 5759SOL    HW218177   4.807   2.299   6.924
 5760SOL     OW18178   1.382   6.238   2.196
 5760SOL    HW118179   1.421   6.317   2.150
 5760SOL    HW218180   1.330   6.183   2.130
 5761SOL     OW18181   5.914   0.194   5.131
 5761SOL    HW118182   5.971   0.216   5.210
 5761SOL    HW218183   5.837   0.256   5.126
 5762SOL     OW18184   5.597   0.040   0.226
 5762SOL    HW118185   5.665   0.090   0.279
 5762SOL    HW218186   5.537   0.104   0.178
 5763SOL     OW18187   0.898   6.432   0.731
 5763SOL    HW118188   0.893   6.530   0.712
 5763SOL    HW218189   0.860   6.381   0.653
 5764SOL     OW18190   5.743   4.718   5.624
 5764SOL    HW118191   5.705   4.757   5.708
 5764SOL    HW218192   5.842   4.731   5.624
 5765SOL     OW18193   6.236   4.450   6.715
 5765SOL    HW118194   6.215   4.416   6.624
 5765SOL    HW218195   6.334   4.468   6.723
 5766SOL     OW18196   2.984   1.442   1.832
 5766SOL    HW118197   3.038   1.362   1.805
 5766SOL    HW218198   3.020   1.477   1.918
 5767SOL     OW18199   1.518   6.461   0.555
 5767SOL    HW118200   1.603   6.486   0.507
 5767SOL    HW218201   1.446   6.443   0.488
 5768SOL     OW18202   7.012   0.445   2.929
 5768SOL    HW118203   6.980   0.493   3.010
 5768SOL    HW218204   6.942   0.448   2.858
 5769SOL     OW18205   2.831   6.890   3.398
 5769SOL    HW118206   2.872   6.961   3.343
 5769SOL    HW218207   2.843   6.801   3.353
 5770SOL     OW18208   6.966   0.037   0.828
 5770SOL    HW118209   0.012   0.091   0.779
 5770SOL    HW218210   6.995   0.024   0.923
 5771SOL     OW18211   1.283   0.248   1.210
 5771SOL    HW118212   1.186   0.272   1.215
 5771SOL    HW218213   1.324   0.292   1.130
 5772SOL     OW18214   5.835   2.624   0.668
 5772SOL    HW118215   5.800   2.718   0.671
 5772SOL    HW218216   5.815   2.584   0.578
 5773SOL     OW18217   5.334   6.587   3.890
 5773SOL    HW118218   5.328   6.681   3.922
 5773SOL    HW218219   5.410   6.541   3.937
 5774SOL     OW18220   2.366   4.404   2.944
 5774SOL    HW118221   2.299   4.462   2.898
 5774SOL    HW218222   2.418   4.460   3.009
 5775SOL     OW18223   0.856   0.361   0.312
 5775SOL    HW118224   0.922   0.426   0.352
 5775SOL    HW218225   0.875   0.269   0.345
 5776SOL     OW18226   5.699   0.816   6.412
 5776SOL    HW118227   5.776   0.753   6.415
 5776SOL    HW218228   5.729   0.907   6.440
 5777SOL     OW18229   5.786   0.775   4.139
 5777SOL    HW118230   5.705   0.734   4.181
 5777SOL    HW218231   5.817   0.717   4.064
 5778SOL     OW18232   2.537   0.524   2.475
 5778SOL    HW118233   2.482   0.479   2.544
 5778SOL    HW218234   2.483   0.535   2.391
 5779SOL     OW18235   3.785   0.524   0.979
 5779SOL    HW118236   3.716   0.512   0.908
 5779SOL    HW218237   3.767   0.608   1.030
 5780SOL     OW18238   6.144   4.841   1.811
 5780SOL    HW118239   6.156   4.824   1.713
 5780SOL    HW218240   6.046   4.850   1.832
 5781SOL     OW18241   1.788   3.996   4.865
 5781SOL    HW118242   1.888   3.994   4.866
 5781SOL    HW218243   1.755   4.036   4.950
 5782SOL     OW18244   1.372   0.989   1.484
 5782SOL    HW118245   1.460   1.036   1.489
 5782SOL    HW218246   1.386   0.897   1.447
 5783SOL     OW18247   1.842   1.146   0.324
 5783SOL    HW118248   1.790   1.103   0.398
 5783SOL    HW218249   1.779   1.183   0.256
 5784SOL     OW18250   0.550   6.217   0.428
 5784SOL    HW118251   0.561   6.131   0.379
 5784SOL    HW218252   0.467   6.214   0.483
 5785SOL     OW18253   1.319   1.020   0.758
 5785SOL    HW118254   1.418   1.028   0.772
 5785SOL    HW218255   1.279   0.963   0.829
 5786SOL     OW18256   1.450   3.720   1.886
 5786SOL    HW118257   1.483   3.792   1.946
 5786SOL    HW218258   1.382   3.758   1.823
 5787SOL     OW18259   5.647   2.067   4.250
 5787SOL    HW118260   5.562   2.053   4.200
 5787SOL    HW218261   5.723   2.074   4.186
 5788SOL     OW18262   3.302   0.233   1.816
 5788SOL    HW118263   3.311   0.330   1.838
 5788SOL    HW218264   3.209   0.203   1.835
 5789SOL     OW18265   3.827   2.841   0.533
 5789SOL    HW118266   3.808   2.904   0.458
 5789SOL    HW218267   3.909   2.871   0.582
 5790SOL     OW18268   6.210   5.459   4.658
 5790SOL    HW118269   6.203   5.556   4.678
 5790SOL    HW218270   6.250   5.412   4.737
 5791SOL     OW18271   2.925   1.788   2.497
 5791SOL    HW118272   2.940   1.879   2.536
 5791SOL    HW218273   2.912   1.721   2.570
 5792SOL     OW18274   4.977   3.248   3.124
 5792SOL    HW118275   4.943   3.310   3.054
 5792SOL    HW218276   5.014   3.165   3.081
 5793SOL     OW18277   6.187   2.438   5.200
 5793SOL    HW118278   6.101   2.390   5.212
 5793SOL    HW218279   6.247   2.420   5.278
 5794SOL     OW18280   2.757   6.599   6.003
 5794SOL    HW118281   2.805   6.511   6.012
 5794SOL    HW218282   2.809   6.671   6.048
 5795SOL     OW18283   0.869   5.602   1.453
 5795SOL    HW118284   0.853   5.503   1.450
 5795SOL    HW218285   0.891   5.629   1.547
 5796SOL     OW18286   4.604   1.798   6.338
 5796SOL    HW118287   4.665   1.877   6.339
 5796SOL    HW218288   4.584   1.771   6.432
 5797SOL     OW18289   5.609   1.863   0.098
 5797SOL    HW118290   5.583   1.955   0.068
 5797SOL    HW218291   5.532   1.821   0.146
 5798SOL     OW18292   0.961   3.974   5.156
 5798SOL    HW118293   0.960   3.887   5.107
 5798SOL    HW218294   0.960   4.050   5.090
 5799SOL     OW18295   1.653   6.363   3.161
 5799SOL    HW118296   1.554   6.351   3.151
 5799SOL    HW218297   1.700   6.279   3.135
 5800SOL     OW18298   0.402   0.210   0.878
 5800SOL    HW118299   0.388   0.182   0.973
 5800SOL    HW218300   0.348   0.293   0.861
 5801SOL     OW18301   2.335   2.648   2.267
 5801SOL    HW118302   2.364   2.589   2.191
 5801SOL    HW218303   2.401   2.640   2.342
 5802SOL     OW18304   6.858   1.929   3.186
 5802SOL    HW118305   6.838   1.870   3.264
 5802SOL    HW218306   6.932   1.890   3.133
 5803SOL     OW18307   2.046   5.106   4.657
 5803SOL    HW118308   2.100   5.171   4.604
 5803SOL    HW218309   2.071   5.113   4.753
 5804SOL     OW18310   6.201   6.437   3.891
 5804SOL    HW118311   6.161   6.442   3.800
 5804SOL    HW218312   6.130   6.453   3.960
 5805SOL     OW18313   1.830   3.575   1.297
 5805SOL    HW118314   1.830   3.504   1.367
 5805SOL    HW218315   1.744   3.625   1.299
 5806SOL     OW18316   0.301   3.210   3.847
 5806SOL    HW118317   0.298   3.288   3.910
 5806SOL    HW218318   0.383   3.156   3.864
 5807SOL     OW18319   1.350   5.805   0.793
 5807SOL    HW118320   1.273   5.773   0.737
 5807SOL    HW218321   1.316   5.858   0.870
 5808SOL     OW18322   6.320   6.843   4.296
 5808SOL    HW118323   6.348   6.938   4.311
 5808SOL    HW218324   6.257   6.815   4.368
 5809SOL     OW18325   0.136   2.342   5.971
 5809SOL    HW118326   0.228   2.361   6.003
 5809SOL    HW218327   0.070   2.363   6.043
 5810SOL     OW18328   4.251   6.805   4.997
 5810SOL    HW118329   4.317   6.751   4.944
 5810SOL    HW218330   4.292   6.891   5.026
 5811SOL     OW18331   3.011   3.172   6.116
 5811SOL    HW118332   3.032   3.141   6.209
 5811SOL    HW218333   2.950   3.106   6.073
 5812SOL     OW18334   5.731   3.166   0.390
 5812SOL    HW118335   5.641   3.179   0.349
 5812SOL    HW218336   5.727   3.185   0.488
 5813SOL     OW18337   4.083   6.222   1.209
 5813SOL    HW118338   4.085   6.251   1.114
 5813SOL    HW218339   4.006   6.264   1.256
 5814SOL     OW18340   6.315   1.951   2.298
 5814SOL    HW118341   6.383   2.019   2.268
 5814SOL    HW218342   6.287   1.972   2.391
 5815SOL     OW18343   6.379   1.143   3.769
 5815SOL    HW118344   6.323   1.219   3.802
 5815SOL    HW218345   6.336   1.102   3.688
 5816SOL     OW18346   0.537   4.845   2.608
 5816SOL    HW118347   0.624   4.800   2.630
 5816SOL    HW218348   0.461   4.788   2.641
 5817SOL     OW18349   5.672   4.135   4.523
 5817SOL    HW118350   5.646   4.109   4.430
 5817SOL    HW218351   5.697   4.053   4.575
 5818SOL     OW18352   1.469   6.934   4.963
 5818SOL    HW118353   1.550   6.901   5.012
 5818SOL    HW218354   1.430   6.859   4.910
 5819SOL     OW18355   3.667   4.728   0.116
 5819SOL    HW118356   3.629   4.719   0.208
 5819SOL    HW218357   3.755   4.777   0.121
 5820SOL     OW18358   5.614   4.862   2.134
 5820SOL    HW118359   5.568   4.892   2.217
 5820SOL    HW218360   5.548   4.816   2.074
 5821SOL     OW18361   6.784   0.830   1.422
 5821SOL    HW118362   6.733   0.745   1.422
 5821SOL    HW218363   6.774   0.875   1.333
 5822SOL     OW18364   1.501   1.941   2.924
 5822SOL    HW118365   1.509   1.876   2.849
 5822SOL    HW218366   1.554   2.023   2.903
 5823SOL     OW18367   2.179   6.727   3.820
 5823SOL    HW118368   2.132   6.816   3.818
 5823SOL    HW218369   2.278   6.742   3.822
 5824SOL     OW18370   1.036   6.950   2.271
 5824SOL    HW118371   0.962   6.955   2.338
 5824SOL    HW218372   1.038   6.858   2.231
 5825SOL     OW18373   6.309   0.414   4.757
 5825SOL    HW118374   6.364   0.333   4.781
 5825SOL    HW218375   6.320   0.434   4.660
 5826SOL     OW18376   0.073   0.687   5.181
 5826SOL    HW118377   0.084   0.588   5.187
 5826SOL    HW218378   6.999   0.711   5.196
 5827SOL     OW18379   1.333   4.036   5.488
 5827SOL    HW118380   1.366   4.022   5.581
 5827SOL    HW218381   1.398   3.997   5.423
 5828SOL     OW18382   5.209   6.706   4.302
 5828SOL    HW118383   5.230   6.696   4.399
 5828SOL    HW218384   5.293   6.707   4.249
 5829SOL     OW18385   1.914   0.861   4.255
 5829SOL    HW118386   1.831   0.807   4.264
 5829SOL    HW218387   1.899   0.953   4.289
 5830SOL     OW18388   3.426   4.906   5.483
 5830SOL    HW118389   3.481   4.839   5.532
 5830SOL    HW218390   3.486   4.964   5.428
 5831SOL     OW18391   1.200   1.151   5.387
 5831SOL    HW118392   1.255   1.211   5.329
 5831SOL    HW218393   1.178   1.067   5.337
 5832SOL     OW18394   3.332   4.606   1.366
 5832SOL    HW118395   3.431   4.608   1.355
 5832SOL    HW218396   3.306   4.645   1.454
 5833SOL     OW18397   3.938   3.651   5.693
 5833SOL    HW118398   3.949   3.558   5.659
 5833SOL    HW218399   3.878   3.650   5.773
 5834SOL     OW18400   6.516   4.500   6.762
 5834SOL    HW118401   6.531   4.402   6.769
 5834SOL    HW218402   6.556   4.545   6.842
 5835SOL     OW18403   5.415   0.517   2.756
 5835SOL    HW118404   5.374   0.598   2.797
 5835SOL    HW218405   5.485   0.480   2.817
 5836SOL     OW18406   4.425   6.344   2.225
 5836SOL    HW118407   4.416   6.421   2.290
 5836SOL    HW218408   4.483   6.372   2.149
 5837SOL     OW18409   3.571   3.978   0.604
 5837SOL    HW118410   3.654   3.921   0.600
 5837SOL    HW218411   3.501   3.930   0.656
 5838SOL     OW18412   2.799   1.922   1.530
 5838SOL    HW118413   2.864   1.997   1.529
 5838SOL    HW218414   2.773   1.901   1.624
 5839SOL     OW18415   1.337   2.340   1.869
 5839SOL    HW118416   1.386   2.258   1.842
 5839SOL    HW218417   1.273   2.318   1.942
 5840SOL     OW18418   0.846   3.615   2.306
 5840SOL    HW118419   0.781   3.681   2.346
 5840SOL    HW218420   0.923   3.602   2.369
 5841SOL     OW18421   4.667   0.648   1.289
 5841SOL    HW118422   4.705   0.659   1.381
 5841SOL    HW218423   4.735   0.676   1.221
 5842SOL     OW18424   3.603   1.872   0.600
 5842SOL    HW118425   3.605   1.796   0.666
 5842SOL    HW218426   3.564   1.953   0.643
 5843SOL     OW18427   1.827   3.771   1.028
 5843SOL    HW118428   1.788   3.686   0.993
 5843SOL    HW218429   1.884   3.813   0.957
 5844SOL     OW18430   0.649   0.153   4.846
 5844SOL    HW118431   0.696   0.239   4.868
 5844SOL    HW218432   0.716   0.087   4.810
 5845SOL     OW18433   0.454   6.534   1.923
 5845SOL    HW118434   0.369   6.490   1.893
 5845SOL    HW218435   0.434   6.629   1.947
 5846SOL     OW18436   6.848   3.693   5.536
 5846SOL    HW118437   6.781   3.716   5.466
 5846SOL    HW218438   6.899   3.612   5.509
 5847SOL     OW18439   2.640   3.096   1.172
 5847SOL    HW118440   2.595   3.183   1.153
 5847SOL    HW218441   2.597   3.053   1.252
 5848SOL     OW18442   2.456   6.008   3.827
 5848SOL    HW118443   2.470   6.081   3.893
 5848SOL    HW218444   2.366   5.967   3.841
 5849SOL     OW18445   2.287   6.643   5.275
 5849SOL    HW118446   2.260   6.554   5.313
 5849SOL    HW218447   2.237   6.660   5.190
 5850SOL     OW18448   1.679   2.281   1.923
 5850SOL    HW118449   1.642   2.191   1.946
 5850SOL    HW218450   1.650   2.307   1.831
 5851SOL     OW18451   5.790   3.195   4.185
 5851SOL    HW118452   5.789   3.223   4.281
 5851SOL    HW218453   5.841   3.262   4.132
 5852SOL     OW18454   4.783   5.519   3.627
 5852SOL    HW118455   4.801   5.495   3.532
 5852SOL    HW218456   4.771   5.436   3.681
 5853SOL     OW18457   3.710   4.915   5.740
 5853SOL    HW118458   3.611   4.913   5.758
 5853SOL    HW218459   3.729   4.980   5.667
 5854SOL     OW18460   3.191   4.431   6.194
 5854SOL    HW118461   3.175   4.463   6.100
 5854SOL    HW218462   3.191   4.509   6.256
 5855SOL     OW18463   2.081   2.622   3.964
 5855SOL    HW118464   2.138   2.603   3.884
 5855SOL    HW218465   2.131   2.682   4.027
 5856SOL     OW18466   1.798   6.487   2.526
 5856SOL    HW118467   1.888   6.458   2.559
 5856SOL    HW218468   1.728   6.463   2.594
 5857SOL     OW18469   0.455   3.256   6.020
 5857SOL    HW118470   0.388   3.225   5.953
 5857SOL    HW218471   0.541   3.278   5.975
 5858SOL     OW18472   1.837   1.383   3.125
 5858SOL    HW118473   1.797   1.295   3.099
 5858SOL    HW218474   1.935   1.382   3.107
 5859SOL     OW18475   5.572   0.270   2.119
 5859SOL    HW118476   5.589   0.297   2.024
 5859SOL    HW218477   5.497   0.326   2.156
 5860SOL     OW18478   7.009   3.626   3.088
 5860SOL    HW118479   0.055   3.561   3.121
 5860SOL    HW218480   0.020   3.671   3.006
 5861SOL     OW18481   6.027   0.709   4.959
 5861SOL    HW118482   5.982   0.649   4.892
 5861SOL    HW218483   6.071   0.652   5.029
 5862SOL     OW18484   6.517   5.968   2.529
 5862SOL    HW118485   6.593   5.949   2.591
 5862SOL    HW218486   6.550   5.975   2.435
 5863SOL     OW18487   3.038   0.538   4.600
 5863SOL    HW118488   3.011   0.558   4.694
 5863SOL    HW218489   3.078   0.620   4.558
 5864SOL     OW18490   3.529   3.712   3.493
 5864SOL    HW118491   3.488   3.631   3.535
 5864SOL    HW218492   3.458   3.767   3.449
 5865SOL     OW18493   6.034   1.018   5.842
 5865SOL    HW118494   6.015   1.090   5.776
 5865SOL    HW218495   6.067   0.937   5.794
 5866SOL     OW18496   3.665   3.372   1.368
 5866SOL    HW118497   3.674   3.356   1.466
 5866SOL    HW218498   3.739   3.325   1.320
 5867SOL     OW18499   2.370   2.272   1.575
 5867SOL    HW118500   2.389   2.227   1.487
 5867SOL    HW218501   2.281   2.241   1.609
 5868SOL     OW18502   0.958   1.825   5.960
 5868SOL    HW118503   0.882   1.884   5.983
 5868SOL    HW218504   1.041   1.880   5.947
 5869SOL     OW18505   0.909   4.592   3.966
 5869SOL    HW118506   0.891   4.673   3.910
 5869SOL    HW218507   0.950   4.620   4.052
 5870SOL     OW18508   4.214   4.969   5.322
 5870SOL    HW118509   4.162   4.984   5.406
 5870SOL    HW218510   4.154   4.930   5.252
 5871SOL     OW18511   2.933   3.349   3.894
 5871SOL    HW118512   3.016   3.395   3.863
 5871SOL    HW218513   2.872   3.335   3.817
 5872SOL     OW18514   4.377   5.794   2.071
 5872SOL    HW118515   4.350   5.722   2.007
 5872SOL    HW218516   4.301   5.858   2.084
 5873SOL     OW18517   3.095   4.832   2.780
 5873SOL    HW118518   3.185   4.807   2.745
 5873SOL    HW218519   3.091   4.815   2.878
 5874SOL     OW18520   2.288   4.313   5.084
 5874SOL    HW118521   2.191   4.324   5.106
 5874SOL    HW218522   2.304   4.218   5.056
 5875SOL     OW18523   3.555   2.183   0.163
 5875SOL    HW118524   3.473   2.237   0.184
 5875SOL    HW218525   3.556   2.101   0.220
 5876SOL     OW18526   3.769   3.589   2.318
 5876SOL    HW118527   3.862   3.614   2.291
 5876SOL    HW218528   3.773   3.516   2.386
 5877SOL     OW18529   5.955   6.020   0.791
 5877SOL    HW118530   5.949   6.116   0.818
 5877SOL    HW218531   5.920   5.962   0.865
 5878SOL     OW18532   1.372   5.320   3.188
 5878SOL    HW118533   1.389   5.246   3.253
 5878SOL    HW218534   1.319   5.392   3.233
 5879SOL     OW18535   6.339   3.710   6.906
 5879SOL    HW118536   6.328   3.735   6.809
 5879SOL    HW218537   6.253   3.670   6.939
 5880SOL     OW18538   2.935   6.081   1.206
 5880SOL    HW118539   2.889   6.170   1.205
 5880SOL    HW218540   3.020   6.087   1.153
 5881SOL     OW18541   0.359   4.343   3.467
 5881SOL    HW118542   0.453   4.373   3.483
 5881SOL    HW218543   0.298   4.386   3.534
 5882SOL     OW18544   5.863   0.737   0.879
 5882SOL    HW118545   5.793   0.670   0.903
 5882SOL    HW218546   5.950   0.691   0.863
 5883SOL     OW18547   0.451   2.501   6.343
 5883SOL    HW118548   0.466   2.594   6.375
 5883SOL    HW218549   0.517   2.440   6.386
 5884SOL     OW18550   1.735   1.249   3.417
 5884SOL    HW118551   1.733   1.348   3.409
 5884SOL    HW218552   1.702   1.208   3.332
 5885SOL     OW18553   6.804   6.630   1.181
 5885SOL    HW118554   6.817   6.707   1.118
 5885SOL    HW218555   6.739   6.655   1.252
 5886SOL     OW18556   0.299   2.582   5.334
 5886SOL    HW118557   0.246   2.504   5.300
 5886SOL    HW218558   0.279   2.663   5.277
 5887SOL     OW18559   3.954   0.893   3.813
 5887SOL    HW118560   3.999   0.913   3.900
 5887SOL    HW218561   3.857   0.917   3.820
 5888SOL     OW18562   2.775   5.846   2.590
 5888SOL    HW118563   2.805   5.834   2.495
 5888SOL    HW218564   2.691   5.901   2.591
 5889SOL     OW18565   1.973   6.856   1.618
 5889SOL    HW118566   1.921   6.912   1.553
 5889SOL    HW218567   2.069   6.885   1.616
 5890SOL     OW18568   1.264   6.989   5.445
 5890SOL    HW118569   1.284   6.930   5.524
 5890SOL    HW218570   1.215   6.937   5.376
 5891SOL     OW18571   3.931   3.632   6.888
 5891SOL    HW118572   3.904   3.555   6.830
 5891SOL    HW218573   3.860   3.702   6.885
 5892SOL     OW18574   0.810   6.053   1.246
 5892SOL    HW118575   0.860   6.135   1.274
 5892SOL    HW218576   0.727   6.079   1.197
 5893SOL     OW18577   1.518   3.084   3.265
 5893SOL    HW118578   1.470   3.125   3.342
 5893SOL    HW218579   1.481   2.994   3.245
 5894SOL     OW18580   1.408   4.750   3.598
 5894SOL    HW118581   1.347   4.683   3.640
 5894SOL    HW218582   1.390   4.840   3.637
 5895SOL     OW18583   5.390   2.295   4.831
 5895SOL    HW118584   5.389   2.266   4.927
 5895SOL    HW218585   5.465   2.360   4.817
 5896SOL     OW18586   3.763   2.026   6.890
 5896SOL    HW118587   3.782   2.098   6.957
 5896SOL    HW218588   3.717   2.065   6.810
 5897SOL     OW18589   4.079   6.841   1.768
 5897SOL    HW118590   4.134   6.816   1.689
 5897SOL    HW218591   4.135   6.836   1.851
 5898SOL     OW18592   1.369   0.262   2.134
 5898SOL    HW118593   1.374   0.225   2.041
 5898SOL    HW218594   1.340   0.358   2.130
 5899SOL     OW18595   5.785   6.821   4.983
 5899SOL    HW118596   5.747   6.896   5.036
 5899SOL    HW218597   5.874   6.795   5.020
 5900SOL     OW18598   4.598   5.051   3.165
 5900SOL    HW118599   4.581   5.119   3.093
 5900SOL    HW218600   4.552   4.966   3.141
 5901SOL     OW18601   2.111   0.344   6.847
 5901SOL    HW118602   2.194   0.319   6.897
 5901SOL    HW218603   2.115   0.307   6.754
 5902SOL     OW18604   6.801   2.219   1.210
 5902SOL    HW118605   6.732   2.263   1.267
 5902SOL    HW218606   6.772   2.125   1.190
 5903SOL     OW18607   5.681   4.301   0.878
 5903SOL    HW118608   5.616   4.245   0.827
 5903SOL    HW218609   5.702   4.384   0.826
 5904SOL     OW18610   0.614   3.520   2.566
 5904SOL    HW118611   0.534   3.489   2.514
 5904SOL    HW218612   0.638   3.613   2.537
 5905SOL     OW18613   6.346   6.555   2.848
 5905SOL    HW118614   6.397   6.595   2.924
 5905SOL    HW218615   6.251   6.587   2.851
 5906SOL     OW18616   5.598   0.413   4.009
 5906SOL    HW118617   5.610   0.427   4.107
 5906SOL    HW218618   5.637   0.325   3.982
 5907SOL     OW18619   1.066   6.298   1.741
 5907SOL    HW118620   1.019   6.228   1.687
 5907SOL    HW218621   0.999   6.351   1.792
 5908SOL     OW18622   0.816   2.332   5.619
 5908SOL    HW118623   0.766   2.267   5.563
 5908SOL    HW218624   0.886   2.283   5.672
 5909SOL     OW18625   0.748   5.840   0.488
 5909SOL    HW118626   0.811   5.908   0.449
 5909SOL    HW218627   0.797   5.786   0.557
 5910SOL     OW18628   0.764   2.603   3.227
 5910SOL    HW118629   0.792   2.508   3.236
 5910SOL    HW218630   0.786   2.636   3.135
 5911SOL     OW18631   0.163   5.780   6.380
 5911SOL    HW118632   0.230   5.807   6.310
 5911SOL    HW218633   0.079   5.749   6.336
 5912SOL     OW18634   6.390   1.270   5.438
 5912SOL    HW118635   6.341   1.339   5.492
 5912SOL    HW218636   6.487   1.292   5.437
 5913SOL     OW18637   5.487   3.132   0.207
 5913SOL    HW118638   5.519   3.070   0.135
 5913SOL    HW218639   5.421   3.084   0.265
 5914SOL     OW18640   0.911   6.704   6.435
 5914SOL    HW118641   0.900   6.804   6.437
 5914SOL    HW218642   0.995   6.679   6.482
 5915SOL     OW18643   3.325   6.347   0.416
 5915SOL    HW118644   3.421   6.375   0.422
 5915SOL    HW218645   3.282   6.390   0.337
 5916SOL     OW18646   0.003   6.911   2.062
 5916SOL    HW118647   6.973   6.829   2.039
 5916SOL    HW218648   6.966   6.991   2.062
 5917SOL     OW18649   2.814   3.971   5.953
 5917SOL    HW118650   2.906   4.011   5.954
 5917SOL    HW218651   2.813   3.887   6.006
 5918SOL     OW18652   2.421   5.966   6.292
 5918SOL    HW118653   2.503   5.919   6.256
 5918SOL    HW218654   2.367   5.901   6.345
 5919SOL     OW18655   2.880   3.516   3.205
 5919SOL    HW118656   2.818   3.526   3.283
 5919SOL    HW218657   2.887   3.604   3.157
 5920SOL     OW18658   5.079   1.502   5.919
 5920SOL    HW118659   5.128   1.438   5.977
 5920SOL    HW218660   5.133   1.586   5.908
 5921SOL     OW18661   3.902   5.036   6.982
 5921SOL    HW118662   3.994   5.075   6.973
 5921SOL    HW218663   3.909   4.939   7.005
 5922SOL     OW18664   6.354   3.658   3.731
 5922SOL    HW118665   6.396   3.638   3.820
 5922SOL    HW218666   6.322   3.753   3.731
 5923SOL     OW18667   6.965   0.760   1.940
 5923SOL    HW118668   6.881   0.752   1.887
 5923SOL    HW218669   0.021   0.737   1.881
 5924SOL     OW18670   5.706   6.603   3.303
 5924SOL    HW118671   5.635   6.628   3.368
 5924SOL    HW218672   5.733   6.683   3.250
 5925SOL     OW18673   3.917   6.255   1.889
 5925SOL    HW118674   3.962   6.171   1.858
 5925SOL    HW218675   3.876   6.301   1.810
 5926SOL     OW18676   4.465   4.536   2.741
 5926SOL    HW118677   4.505   4.617   2.783
 5926SOL    HW218678   4.387   4.563   2.684
 5927SOL     OW18679   1.157   3.717   2.142
 5927SOL    HW118680   1.092   3.642   2.145
 5927SOL    HW218681   1.251   3.681   2.138
 5928SOL     OW18682   3.699   7.010   1.331
 5928SOL    HW118683   3.639   0.049   1.381
 5928SOL    HW218684   3.794   0.010   1.349
 5929SOL     OW18685   6.233   1.096   5.558
 5929SOL    HW118686   6.297   1.147   5.501
 5929SOL    HW218687   6.274   1.076   5.647
 5930SOL     OW18688   0.781   3.039   2.120
 5930SOL    HW118689   0.866   3.008   2.078
 5930SOL    HW218690   0.704   2.989   2.080
 5931SOL     OW18691   6.083   6.266   2.424
 5931SOL    HW118692   6.166   6.216   2.448
 5931SOL    HW218693   6.046   6.311   2.505
 5932SOL     OW18694   3.451   0.048   6.537
 5932SOL    HW118695   3.418   6.977   6.523
 5932SOL    HW218696   3.551   0.048   6.536
 5933SOL     OW18697   0.187   4.987   4.436
 5933SOL    HW118698   0.116   5.004   4.505
 5933SOL    HW218699   0.208   4.889   4.433
 5934SOL     OW18700   3.675   3.408   5.770
 5934SOL    HW118701   3.618   3.338   5.726
 5934SOL    HW218702   3.668   3.493   5.718
 5935SOL     OW18703   0.715   6.138   5.303
 5935SOL    HW118704   0.690   6.172   5.394
 5935SOL    HW218705   0.651   6.175   5.235
 5936SOL     OW18706   3.197   2.992   2.416
 5936SOL    HW118707   3.141   2.928   2.364
 5936SOL    HW218708   3.282   2.947   2.444
 5937SOL     OW18709   6.409   3.265   2.144
 5937SOL    HW118710   6.425   3.360   2.118
 5937SOL    HW218711   6.486   3.209   2.115
 5938SOL     OW18712   5.932   5.787   4.647
 5938SOL    HW118713   5.906   5.788   4.550
 5938SOL    HW218714   5.882   5.859   4.695
 5939SOL     OW18715   3.448   5.936   4.194
 5939SOL    HW118716   3.531   5.975   4.236
 5939SOL    HW218717   3.435   5.843   4.228
 5940SOL     OW18718   4.461   4.804   3.141
 5940SOL    HW118719   4.378   4.793   3.195
 5940SOL    HW218720   4.523   4.727   3.157
 5941SOL     OW18721   5.967   2.512   3.312
 5941SOL    HW118722   5.999   2.572   3.385
 5941SOL    HW218723   5.959   2.418   3.347
 5942SOL     OW18724   5.748   3.033   6.248
 5942SOL    HW118725   5.737   3.102   6.319
 5942SOL    HW218726   5.670   3.036   6.186
 5943SOL     OW18727   4.034   3.543   0.394
 5943SOL    HW118728   4.029   3.503   0.302
 5943SOL    HW218729   3.944   3.536   0.438
 5944SOL     OW18730   0.485   2.843   0.343
 5944SOL    HW118731   0.465   2.749   0.371
 5944SOL    HW218732   0.501   2.845   0.244
 5945SOL     OW18733   0.249   6.117   5.322
 5945SOL    HW118734   0.261   6.093   5.226
 5945SOL    HW218735   0.319   6.072   5.378
 5946SOL     OW18736   3.565   4.926   6.850
 5946SOL    HW118737   3.498   4.859   6.818
 5946SOL    HW218738   3.521   4.991   6.911
 5947SOL     OW18739   3.106   3.024   4.331
 5947SOL    HW118740   3.151   2.947   4.286
 5947SOL    HW218741   3.081   3.092   4.262
 5948SOL     OW18742   4.510   4.522   2.395
 5948SOL    HW118743   4.550   4.433   2.373
 5948SOL    HW218744   4.521   4.583   2.316
 5949SOL     OW18745   5.680   5.686   1.026
 5949SOL    HW118746   5.667   5.722   1.118
 5949SOL    HW218747   5.622   5.606   1.012
 5950SOL     OW18748   4.857   2.289   5.189
 5950SOL    HW118749   4.819   2.200   5.161
 5950SOL    HW218750   4.957   2.284   5.187
 5951SOL     OW18751   0.946   6.021   5.311
 5951SOL    HW118752   0.935   5.921   5.308
 5951SOL    HW218753   0.858   6.065   5.293
 5952SOL     OW18754   3.945   5.768   2.982
 5952SOL    HW118755   3.957   5.674   3.014
 5952SOL    HW218756   4.033   5.815   2.985
 5953SOL     OW18757   6.899   3.749   4.579
 5953SOL    HW118758   6.982   3.698   4.601
 5953SOL    HW218759   6.923   3.825   4.518
 5954SOL     OW18760   0.519   5.559   5.763
 5954SOL    HW118761   0.552   5.465   5.753
 5954SOL    HW218762   0.461   5.584   5.686
 5955SOL     OW18763   4.123   5.419   1.401
 5955SOL    HW118764   4.106   5.423   1.303
 5955SOL    HW218765   4.208   5.369   1.418
 5956SOL     OW18766   5.641   1.703   4.181
 5956SOL    HW118767   5.564   1.722   4.241
 5956SOL    HW218768   5.645   1.772   4.109
 5957SOL     OW18769   1.988   1.513   3.502
 5957SOL    HW118770   1.952   1.562   3.582
 5957SOL    HW218771   2.056   1.446   3.531
 5958SOL     OW18772   4.193   0.775   3.171
 5958SOL    HW118773   4.171   0.707   3.102
 5958SOL    HW218774   4.203   0.731   3.260
 5959SOL     OW18775   4.238   2.826   5.421
 5959SOL    HW118776   4.270   2.751   5.480
 5959SOL    HW218777   4.295   2.831   5.339
 5960SOL     OW18778   2.717   6.520   4.145
 5960SOL    HW118779   2.656   6.520   4.065
 5960SOL    HW218780   2.806   6.557   4.118
 5961SOL     OW18781   3.695   1.657   2.399
 5961SOL    HW118782   3.720   1.678   2.305
 5961SOL    HW218783   3.772   1.677   2.459
 5962SOL     OW18784   5.124   5.861   6.334
 5962SOL    HW118785   5.209   5.910   6.352
 5962SOL    HW218786   5.052   5.896   6.394
 5963SOL     OW18787   3.454   3.931   0.018
 5963SOL    HW118788   3.542   3.885   0.029
 5963SOL    HW218789   3.400   3.919   0.102
 5964SOL     OW18790   2.162   6.629   3.526
 5964SOL    HW118791   2.226   6.572   3.474
 5964SOL    HW218792   2.197   6.643   3.619
 5965SOL     OW18793   1.641   0.435   6.700
 5965SOL    HW118794   1.718   0.457   6.760
 5965SOL    HW218795   1.637   0.501   6.625
 5966SOL     OW18796   0.981   0.219   5.716
 5966SOL    HW118797   0.991   0.319   5.722
 5966SOL    HW218798   1.049   0.175   5.774
 5967SOL     OW18799   2.544   1.166   5.399
 5967SOL    HW118800   2.584   1.112   5.324
 5967SOL    HW218801   2.558   1.118   5.485
 5968SOL     OW18802   5.502   2.803   0.470
 5968SOL    HW118803   5.440   2.880   0.455
 5968SOL    HW218804   5.596   2.831   0.452
 5969SOL     OW18805   5.161   1.481   6.335
 5969SOL    HW118806   5.081   1.430   6.303
 5969SOL    HW218807   5.133   1.544   6.408
 5970SOL     OW18808   0.619   4.105   0.596
 5970SOL    HW118809   0.540   4.161   0.569
 5970SOL    HW218810   0.684   4.100   0.520
 5971SOL     OW18811   6.074   0.166   1.665
 5971SOL    HW118812   6.130   0.195   1.743
 5971SOL    HW218813   6.131   0.165   1.583
 5972SOL     OW18814   5.418   5.395   6.369
 5972SOL    HW118815   5.396   5.493   6.363
 5972SOL    HW218816   5.506   5.383   6.414
 5973SOL     OW18817   1.745   3.210   2.828
 5973SOL    HW118818   1.723   3.150   2.904
 5973SOL    HW218819   1.795   3.290   2.862
 5974SOL     OW18820   5.123   0.530   0.098
 5974SOL    HW118821   5.070   0.493   0.174
 5974SOL    HW218822   5.193   0.592   0.133
 5975SOL     OW18823   4.363   5.917   1.338
 5975SOL    HW118824   4.392   5.840   1.280
 5975SOL    HW218825   4.390   5.898   1.433
 5976SOL     OW18826   3.241   3.183   5.990
 5976SOL    HW118827   3.290   3.097   6.008
 5976SOL    HW218828   3.146   3.174   6.022
 5977SOL     OW18829   0.713   5.664   0.264
 5977SOL    HW118830   0.733   5.741   0.325
 5977SOL    HW218831   0.717   5.695   0.169
 5978SOL     OW18832   3.673   5.326   1.260
 5978SOL    HW118833   3.708   5.282   1.343
 5978SOL    HW218834   3.574   5.313   1.255
 5979SOL     OW18835   6.383   0.772   2.409
 5979SOL    HW118836   6.296   0.783   2.457
 5979SOL    HW218837   6.409   0.859   2.367
 5980SOL     OW18838   3.823   2.889   2.046
 5980SOL    HW118839   3.872   2.966   2.086
 5980SOL    HW218840   3.860   2.803   2.082
 5981SOL     OW18841   4.978   1.644   0.350
 5981SOL    HW118842   4.889   1.607   0.321
 5981SOL    HW218843   4.979   1.743   0.335
 5982SOL     OW18844   5.921   2.426   2.646
 5982SOL    HW118845   5.987   2.374   2.592
 5982SOL    HW218846   5.841   2.369   2.665
 5983SOL     OW18847   1.393   0.657   4.214
 5983SOL    HW118848   1.371   0.672   4.118
 5983SOL    HW218849   1.311   0.626   4.263
 5984SOL     OW18850   5.762   6.244   3.896
 5984SOL    HW118851   5.752   6.242   3.796
 5984SOL    HW218852   5.711   6.168   3.936
 5985SOL     OW18853   6.362   2.669   3.469
 5985SOL    HW118854   6.370   2.684   3.371
 5985SOL    HW218855   6.372   2.756   3.517
 5986SOL     OW18856   3.900   4.178   6.084
 5986SOL    HW118857   3.813   4.185   6.036
 5986SOL    HW218858   3.974   4.204   6.023
 5987SOL     OW18859   5.777   0.802   4.541
 5987SOL    HW118860   5.686   0.842   4.553
 5987SOL    HW218861   5.847   0.867   4.573
 5988SOL     OW18862   3.586   1.106   6.471
 5988SOL    HW118863   3.591   1.194   6.518
 5988SOL    HW218864   3.502   1.103   6.416
 5989SOL     OW18865   2.174   5.504   5.692
 5989SOL    HW118866   2.085   5.477   5.658
 5989SOL    HW218867   2.207   5.583   5.640
 5990SOL     OW18868   3.706   3.706   0.857
 5990SOL    HW118869   3.786   3.731   0.802
 5990SOL    HW218870   3.722   3.733   0.952
 5991SOL     OW18871   4.457   5.924   0.337
 5991SOL    HW118872   4.445   5.982   0.418
 5991SOL    HW218873   4.381   5.940   0.273
 5992SOL     OW18874   3.146   6.751   2.480
 5992SOL    HW118875   3.177   6.660   2.453
 5992SOL    HW218876   3.206   6.787   2.551
 5993SOL     OW18877   5.646   4.225   5.918
 5993SOL    HW118878   5.686   4.313   5.893
 5993SOL    HW218879   5.675   4.155   5.853
 5994SOL     OW18880   6.714   3.176   1.218
 5994SOL    HW118881   6.697   3.099   1.156
 5994SOL    HW218882   6.726   3.142   1.311
 5995SOL     OW18883   4.536   2.855   1.728
 5995SOL    HW118884   4.572   2.920   1.795
 5995SOL    HW218885   4.436   2.853   1.733
 5996SOL     OW18886   1.604   5.698   1.815
 5996SOL    HW118887   1.560   5.717   1.902
 5996SOL    HW218888   1.542   5.722   1.740
 5997SOL     OW18889   0.494   6.709   3.503
 5997SOL    HW118890   0.550   6.765   3.565
 5997SOL    HW218891   0.398   6.736   3.511
 5998SOL     OW18892   5.784   1.029   1.420
 5998SOL    HW118893   5.702   1.014   1.365
 5998SOL    HW218894   5.831   0.942   1.434
 5999SOL     OW18895   3.089   3.066   0.895
 5999SOL    HW118896   3.062   3.159   0.873
 5999SOL    HW218897   3.188   3.061   0.903
 6000SOL     OW18898   0.305   6.307   0.165
 6000SOL    HW118899   0.245   6.386   0.151
 6000SOL    HW218900   0.277   6.257   0.247
 6001SOL     OW18901   5.409   5.341   0.287
 6001SOL    HW118902   5.489   5.288   0.315
 6001SOL    HW218903   5.438   5.416   0.228
 6002SOL     OW18904   7.021   0.139   5.746
 6002SOL    HW118905   7.022   0.077   5.668
 6002SOL    HW218906   6.998   0.088   5.829
 6003SOL     OW18907   6.141   2.570   4.335
 6003SOL    HW118908   6.194   2.654   4.332
 6003SOL    HW218909   6.052   2.588   4.379
 6004SOL     OW18910   6.140   2.551   3.709
 6004SOL    HW118911   6.112   2.604   3.629
 6004SOL    HW218912   6.215   2.599   3.757
 6005SOL     OW18913   5.982   4.892   5.140
 6005SOL    HW118914   5.941   4.938   5.219
 6005SOL    HW218915   5.973   4.793   5.151
 6006SOL     OW18916   3.041   0.167   5.095
 6006SOL    HW118917   3.124   0.124   5.058
 6006SOL    HW218918   2.975   0.180   5.021
 6007SOL     OW18919   0.193   2.935   6.860
 6007SOL    HW118920   0.159   2.841   6.860
 6007SOL    HW218921   0.159   2.982   6.941
 6008SOL     OW18922   2.149   4.451   5.465
 6008SOL    HW118923   2.185   4.380   5.526
 6008SOL    HW218924   2.131   4.534   5.518
 6009SOL     OW18925   4.266   5.555   3.520
 6009SOL    HW118926   4.224   5.593   3.603
 6009SOL    HW218927   4.318   5.627   3.474
 6010SOL     OW18928   0.333   4.314   3.854
 6010SOL    HW118929   0.269   4.373   3.904
 6010SOL    HW218930   0.297   4.293   3.764
 6011SOL     OW18931   4.836   2.859   2.666
 6011SOL    HW118932   4.787   2.804   2.734
 6011SOL    HW218933   4.825   2.956   2.688
 6012SOL     OW18934   6.019   0.880   0.223
 6012SOL    HW118935   6.020   0.809   0.152
 6012SOL    HW218936   6.085   0.951   0.200
 6013SOL     OW18937   4.790   1.270   2.722
 6013SOL    HW118938   4.862   1.205   2.744
 6013SOL    HW218939   4.807   1.357   2.769
 6014SOL     OW18940   3.271   3.584   4.160
 6014SOL    HW118941   3.311   3.619   4.244
 6014SOL    HW218942   3.193   3.526   4.181
 6015SOL     OW18943   6.159   3.479   4.529
 6015SOL    HW118944   6.105   3.501   4.448
 6015SOL    HW218945   6.256   3.488   4.508
 6016SOL     OW18946   5.167   1.855   5.404
 6016SOL    HW118947   5.234   1.786   5.376
 6016SOL    HW218948   5.108   1.817   5.475
 6017SOL     OW18949   0.194   4.520   5.310
 6017SOL    HW118950   0.276   4.469   5.286
 6017SOL    HW218951   0.118   4.456   5.325
 6018SOL     OW18952   2.924   1.072   4.334
 6018SOL    HW118953   2.873   1.068   4.248
 6018SOL    HW218954   2.986   1.151   4.333
 6019SOL     OW18955   0.684   3.566   6.124
 6019SOL    HW118956   0.607   3.605   6.173
 6019SOL    HW218957   0.744   3.640   6.092
 6020SOL     OW18958   0.896   5.341   0.772
 6020SOL    HW118959   0.985   5.372   0.739
 6020SOL    HW218960   0.902   5.322   0.870
 6021SOL     OW18961   5.102   6.936   2.680
 6021SOL    HW118962   5.101   6.903   2.775
 6021SOL    HW218963   5.030   7.003   2.667
 6022SOL     OW18964   6.587   1.421   3.346
 6022SOL    HW118965   6.568   1.404   3.443
 6022SOL    HW218966   6.684   1.441   3.334
 6023SOL     OW18967   5.474   0.121   1.154
 6023SOL    HW118968   5.522   0.132   1.241
 6023SOL    HW218969   5.407   0.048   1.162
 6024SOL     OW18970   0.300   5.059   0.344
 6024SOL    HW118971   0.376   5.124   0.345
 6024SOL    HW218972   0.260   5.052   0.435
 6025SOL     OW18973   3.146   0.901   3.873
 6025SOL    HW118974   3.099   0.865   3.793
 6025SOL    HW218975   3.180   0.993   3.853
 6026SOL     OW18976   6.656   5.223   4.974
 6026SOL    HW118977   6.723   5.161   5.014
 6026SOL    HW218978   6.628   5.290   5.042
 6027SOL     OW18979   6.575   3.578   5.978
 6027SOL    HW118980   6.670   3.596   6.001
 6027SOL    HW218981   6.562   3.589   5.879
 6028SOL     OW18982   5.123   4.963   1.395
 6028SOL    HW118983   5.129   4.864   1.391
 6028SOL    HW218984   5.207   5.000   1.436
 6029SOL     OW18985   2.107   7.001   3.533
 6029SOL    HW118986   2.149   0.044   3.471
 6029SOL    HW218987   2.126   6.908   3.500
 6030SOL     OW18988   4.901   3.514   4.826
 6030SOL    HW118989   4.844   3.533   4.907
 6030SOL    HW218990   4.939   3.422   4.833
 6031SOL     OW18991   1.896   5.734   4.221
 6031SOL    HW118992   1.854   5.814   4.264
 6031SOL    HW218993   1.834   5.656   4.227
 6032SOL     OW18994   2.490   5.080   3.006
 6032SOL    HW118995   2.548   5.004   2.979
 6032SOL    HW218996   2.485   5.085   3.106
 6033SOL     OW18997   2.448   2.621   2.505
 6033SOL    HW118998   2.522   2.621   2.573
 6033SOL    HW218999   2.370   2.672   2.541
 6034SOL     OW19000   0.796   0.328   6.667
 6034SOL    HW119001   0.819   0.366   6.757
 6034SOL    HW219002   0.701   0.348   6.646
 6035SOL     OW19003   1.213   0.360   2.720
 6035SOL    HW119004   1.185   0.283   2.663
 6035SOL    HW219005   1.193   0.339   2.816
 6036SOL     OW19006   5.705   4.751   1.492
 6036SOL    HW119007   5.685   4.664   1.447
 6036SOL    HW219008   5.742   4.734   1.583
 6037SOL     OW19009   4.015   0.393   0.959
 6037SOL    HW119010   4.097   0.450   0.958
 6037SOL    HW219011   3.934   0.449   0.940
 6038SOL     OW19012   0.878   2.459   6.682
 6038SOL    HW119013   0.896   2.465   6.780
 6038SOL    HW219014   0.948   2.510   6.632
 6039SOL     OW19015   3.885   3.922   4.077
 6039SOL    HW119016   3.893   3.868   3.993
 6039SOL    HW219017   3.924   3.871   4.153
 6040SOL     OW19018   1.832   1.337   6.869
 6040SOL    HW119019   1.809   1.396   6.792
 6040SOL    HW219020   1.894   1.265   6.839
 6041SOL     OW19021   3.305   2.613   5.316
 6041SOL    HW119022   3.269   2.697   5.274
 6041SOL    HW219023   3.244   2.537   5.294
 6042SOL     OW19024   4.031   6.506   2.915
 6042SOL    HW119025   4.102   6.444   2.946
 6042SOL    HW219026   3.984   6.546   2.994
 6043SOL     OW19027   1.372   0.705   3.966
 6043SOL    HW119028   1.290   0.661   3.931
 6043SOL    HW219029   1.370   0.803   3.944
 6044SOL     OW19030   2.492   2.439   2.198
 6044SOL    HW119031   2.581   2.392   2.200
 6044SOL    HW219032   2.448   2.422   2.110
 6045SOL     OW19033   4.875   3.262   3.816
 6045SOL    HW119034   4.793   3.317   3.801
 6045SOL    HW219035   4.868   3.215   3.904
 6046SOL     OW19036   3.038   2.697   1.032
 6046SOL    HW119037   3.079   2.608   1.052
 6046SOL    HW219038   3.078   2.767   1.091
 6047SOL     OW19039   5.145   2.338   1.116
 6047SOL    HW119040   5.174   2.375   1.028
 6047SOL    HW219041   5.203   2.260   1.140
 6048SOL     OW19042   4.993   5.924   5.233
 6048SOL    HW119043   5.033   5.943   5.143
 6048SOL    HW219044   5.040   5.847   5.275
 6049SOL     OW19045   5.896   4.610   6.261
 6049SOL    HW119046   5.974   4.640   6.206
 6049SOL    HW219047   5.817   4.668   6.242
 6050SOL     OW19048   2.806   5.188   0.809
 6050SOL    HW119049   2.774   5.093   0.806
 6050SOL    HW219050   2.906   5.189   0.804
 6051SOL     OW19051   2.069   6.959   2.927
 6051SOL    HW119052   2.054   7.000   2.837
 6051SOL    HW219053   1.989   6.977   2.985
 6052SOL     OW19054   5.249   1.013   1.528
 6052SOL    HW119055   5.213   1.082   1.591
 6052SOL    HW219056   5.321   1.054   1.472
 6053SOL     OW19057   3.999   0.547   6.395
 6053SOL    HW119058   3.971   0.518   6.304
 6053SOL    HW219059   3.958   0.636   6.416
 6054SOL     OW19060   3.325   4.783   0.759
 6054SOL    HW119061   3.315   4.834   0.844
 6054SOL    HW219062   3.344   4.846   0.684
 6055SOL     OW19063   3.353   5.667   6.226
 6055SOL    HW119064   3.272   5.610   6.239
 6055SOL    HW219065   3.384   5.659   6.131
 6056SOL     OW19066   5.629   2.766   4.961
 6056SOL    HW119067   5.546   2.819   4.979
 6056SOL    HW219068   5.681   2.810   4.887
 6057SOL     OW19069   5.941   0.687   2.174
 6057SOL    HW119070   5.904   0.634   2.097
 6057SOL    HW219071   5.960   0.780   2.145
 6058SOL     OW19072   5.237   3.828   0.003
 6058SOL    HW119073   5.292   3.840   0.085
 6058SOL    HW219074   5.287   3.772   6.959
 6059SOL     OW19075   5.432   4.474   5.140
 6059SOL    HW119076   5.392   4.565   5.127
 6059SOL    HW219077   5.528   4.483   5.166
 6060SOL     OW19078   2.812   3.189   6.978
 6060SOL    HW119079   2.851   3.102   6.947
 6060SOL    HW219080   2.871   3.264   6.949
 6061SOL     OW19081   4.682   4.472   0.457
 6061SOL    HW119082   4.698   4.418   0.540
 6061SOL    HW219083   4.590   4.512   0.460
 6062SOL     OW19084   2.255   1.772   6.681
 6062SOL    HW119085   2.247   1.804   6.776
 6062SOL    HW219086   2.352   1.760   6.659
 6063SOL     OW19087   3.448   4.180   5.864
 6063SOL    HW119088   3.468   4.260   5.808
 6063SOL    HW219089   3.406   4.209   5.950
 6064SOL     OW19090   0.447   0.459   1.269
 6064SOL    HW119091   0.429   0.361   1.256
 6064SOL    HW219092   0.546   0.476   1.263
 6065SOL     OW19093   0.505   5.709   1.741
 6065SOL    HW119094   0.427   5.671   1.691
 6065SOL    HW219095   0.473   5.783   1.800
 6066SOL     OW19096   5.701   1.028   4.870
 6066SOL    HW119097   5.738   1.085   4.796
 6066SOL    HW219098   5.776   0.991   4.924
 6067SOL     OW19099   4.757   1.214   5.246
 6067SOL    HW119100   4.798   1.163   5.170
 6067SOL    HW219101   4.658   1.199   5.247
 6068SOL     OW19102   5.325   2.387   4.430
 6068SOL    HW119103   5.294   2.473   4.390
 6068SOL    HW219104   5.263   2.360   4.504
 6069SOL     OW19105   6.776   3.776   5.800
 6069SOL    HW119106   6.833   3.759   5.720
 6069SOL    HW219107   6.752   3.873   5.804
 6070SOL     OW19108   3.720   2.712   1.547
 6070SOL    HW119109   3.811   2.689   1.582
 6070SOL    HW219110   3.724   2.729   1.449
 6071SOL     OW19111   0.595   5.628   4.512
 6071SOL    HW119112   0.604   5.545   4.457
 6071SOL    HW219113   0.545   5.608   4.596
 6072SOL     OW19114   6.881   1.212   2.096
 6072SOL    HW119115   6.857   1.185   2.003
 6072SOL    HW219116   6.883   1.131   2.154
 6073SOL     OW19117   4.883   2.839   0.861
 6073SOL    HW119118   4.810   2.781   0.897
 6073SOL    HW219119   4.940   2.872   0.936
 6074SOL     OW19120   1.793   6.742   1.766
 6074SOL    HW119121   1.837   6.703   1.847
 6074SOL    HW219122   1.858   6.802   1.719
 6075SOL     OW19123   5.081   0.399   5.193
 6075SOL    HW119124   5.083   0.386   5.292
 6075SOL    HW219125   4.992   0.372   5.157
 6076SOL     OW19126   2.480   5.433   3.283
 6076SOL    HW119127   2.423   5.511   3.309
 6076SOL    HW219128   2.468   5.414   3.186
 6077SOL     OW19129   5.620   6.268   0.819
 6077SOL    HW119130   5.699   6.242   0.874
 6077SOL    HW219131   5.648   6.280   0.724
 6078SOL     OW19132   4.432   4.918   0.559
 6078SOL    HW119133   4.353   4.920   0.620
 6078SOL    HW219134   4.431   4.833   0.505
 6079SOL     OW19135   4.811   4.896   6.246
 6079SOL    HW119136   4.845   4.913   6.153
 6079SOL    HW219137   4.802   4.798   6.261
 6080SOL     OW19138   0.354   4.994   1.748
 6080SOL    HW119139   0.404   4.908   1.741
 6080SOL    HW219140   0.405   5.067   1.702
 6081SOL     OW19141   6.510   3.330   5.520
 6081SOL    HW119142   6.481   3.288   5.434
 6081SOL    HW219143   6.429   3.348   5.577
 6082SOL     OW19144   3.541   6.629   2.685
 6082SOL    HW119145   3.615   6.640   2.619
 6082SOL    HW219146   3.531   6.533   2.710
 6083SOL     OW19147   5.316   5.613   0.785
 6083SOL    HW119148   5.352   5.706   0.795
 6083SOL    HW219149   5.218   5.613   0.808
 6084SOL     OW19150   1.116   6.685   2.121
 6084SOL    HW119151   1.112   6.604   2.180
 6084SOL    HW219152   1.198   6.679   2.064
 6085SOL     OW19153   6.760   5.725   6.243
 6085SOL    HW119154   6.721   5.798   6.299
 6085SOL    HW219155   6.712   5.720   6.156
 6086SOL     OW19156   2.889   2.340   5.642
 6086SOL    HW119157   2.961   2.373   5.580
 6086SOL    HW219158   2.894   2.240   5.648
 6087SOL     OW19159   4.022   5.657   1.149
 6087SOL    HW119160   4.094   5.594   1.119
 6087SOL    HW219161   4.063   5.746   1.170
 6088SOL     OW19162   5.172   6.540   5.381
 6088SOL    HW119163   5.229   6.472   5.334
 6088SOL    HW219164   5.184   6.530   5.480
 6089SOL     OW19165   6.594   2.419   2.781
 6089SOL    HW119166   6.601   2.357   2.860
 6089SOL    HW219167   6.594   2.365   2.697
 6090SOL     OW19168   2.640   5.049   4.752
 6090SOL    HW119169   2.617   5.048   4.655
 6090SOL    HW219170   2.719   4.990   4.768
 6091SOL     OW19171   3.256   1.453   0.501
 6091SOL    HW119172   3.230   1.509   0.580
 6091SOL    HW219173   3.352   1.425   0.511
 6092SOL     OW19174   3.989   0.916   1.552
 6092SOL    HW119175   3.949   0.857   1.482
 6092SOL    HW219176   4.079   0.882   1.578
 6093SOL     OW19177   2.404   2.384   1.942
 6093SOL    HW119178   2.314   2.342   1.936
 6093SOL    HW219179   2.470   2.330   1.889
 6094SOL     OW19180   1.712   6.238   3.632
 6094SOL    HW119181   1.735   6.299   3.556
 6094SOL    HW219182   1.615   6.214   3.628
 6095SOL     OW19183   4.586   5.015   6.393
 6095SOL    HW119184   4.611   5.068   6.475
 6095SOL    HW219185   4.664   5.009   6.332
 6096SOL     OW19186   5.576   6.977   2.115
 6096SOL    HW119187   5.622   0.042   2.101
 6096SOL    HW219188   5.494   6.990   2.170
 6097SOL     OW19189   1.848   5.194   2.234
 6097SOL    HW119190   1.840   5.100   2.201
 6097SOL    HW219191   1.942   5.225   2.224
 6098SOL     OW19192   6.389   1.116   6.258
 6098SOL    HW119193   6.298   1.114   6.215
 6098SOL    HW219194   6.422   1.022   6.270
 6099SOL     OW19195   4.667   5.814   5.711
 6099SOL    HW119196   4.658   5.731   5.766
 6099SOL    HW219197   4.642   5.794   5.616
 6100SOL     OW19198   0.447   6.232   2.078
 6100SOL    HW119199   0.365   6.259   2.028
 6100SOL    HW219200   0.481   6.311   2.130
 6101SOL     OW19201   6.519   2.704   2.764
 6101SOL    HW119202   6.447   2.684   2.696
 6101SOL    HW219203   6.562   2.618   2.793
 6102SOL     OW19204   4.234   6.113   2.825
 6102SOL    HW119205   4.158   6.158   2.776
 6102SOL    HW219206   4.308   6.093   2.760
 6103SOL     OW19207   7.014   0.966   1.246
 6103SOL    HW119208   0.075   0.920   1.214
 6103SOL    HW219209   6.944   0.960   1.175
 6104SOL     OW19210   6.216   6.972   5.243
 6104SOL    HW119211   6.214   6.983   5.343
 6104SOL    HW219212   6.239   0.037   5.201
 6105SOL     OW19213   1.975   5.242   5.726
 6105SOL    HW119214   2.017   5.169   5.673
 6105SOL    HW219215   1.981   5.220   5.824
 6106SOL     OW19216   1.339   5.408   0.090
 6106SOL    HW119217   1.280   5.455   0.025
 6106SOL    HW219218   1.424   5.380   0.045
 6107SOL     OW19219   4.795   5.380   4.907
 6107SOL    HW119220   4.736   5.338   4.976
 6107SOL    HW219221   4.808   5.315   4.831
 6108SOL     OW19222   1.843   2.458   3.061
 6108SOL    HW119223   1.752   2.499   3.069
 6108SOL    HW219224   1.913   2.529   3.059
 6109SOL     OW19225   5.524   1.181   5.206
 6109SOL    HW119226   5.447   1.179   5.269
 6109SOL    HW219227   5.602   1.135   5.248
 6110SOL     OW19228   2.086   2.882   0.226
 6110SOL    HW119229   2.040   2.836   0.150
 6110SOL    HW219230   2.127   2.967   0.193
 6111SOL     OW19231   1.383   3.276   2.135
 6111SOL    HW119232   1.332   3.209   2.081
 6111SOL    HW219233   1.369   3.258   2.233
 6112SOL     OW19234   4.537   0.433   2.469
 6112SOL    HW119235   4.614   0.477   2.514
 6112SOL    HW219236   4.454   0.487   2.485
 6113SOL     OW19237   2.615   3.046   6.591
 6113SOL    HW119238   2.555   3.111   6.637
 6113SOL    HW219239   2.648   2.978   6.658
 6114SOL     OW19240   4.938   3.622   2.581
 6114SOL    HW119241   4.923   3.551   2.512
 6114SOL    HW219242   4.990   3.697   2.540
 6115SOL     OW19243   6.512   1.178   5.092
 6115SOL    HW119244   6.423   1.214   5.064
 6115SOL    HW219245   6.504   1.079   5.108
 6116SOL     OW19246   4.089   2.263   5.714
 6116SOL    HW119247   3.992   2.260   5.738
 6116SOL    HW219248   4.119   2.172   5.686
 6117SOL     OW19249   1.860   2.207   3.175
 6117SOL    HW119250   1.861   2.303   3.148
 6117SOL    HW219251   1.840   2.149   3.095
 6118SOL     OW19252   6.228   1.321   1.461
 6118SOL    HW119253   6.224   1.385   1.538
 6118SOL    HW219254   6.137   1.286   1.442
 6119SOL     OW19255   1.251   3.062   0.284
 6119SOL    HW119256   1.198   3.058   0.369
 6119SOL    HW219257   1.197   3.108   0.214
 6120SOL     OW19258   1.988   6.876   5.295
 6120SOL    HW119259   1.967   6.910   5.387
 6120SOL    HW219260   2.066   6.926   5.258
 6121SOL     OW19261   1.017   4.147   5.863
 6121SOL    HW119262   0.979   4.144   5.956
 6121SOL    HW219263   1.105   4.196   5.865
 6122SOL     OW19264   4.679   5.333   6.229
 6122SOL    HW119265   4.636   5.406   6.281
 6122SOL    HW219266   4.614   5.259   6.215
 6123SOL     OW19267   5.094   0.351   5.469
 6123SOL    HW119268   5.016   0.319   5.523
 6123SOL    HW219269   5.139   0.427   5.516
 6124SOL     OW19270   0.334   6.620   5.625
 6124SOL    HW119271   0.429   6.590   5.617
 6124SOL    HW219272   0.303   6.608   5.719
 6125SOL     OW19273   2.521   4.144   6.949
 6125SOL    HW119274   2.437   4.145   7.004
 6125SOL    HW219275   2.571   4.230   6.964
 6126SOL     OW19276   0.722   1.844   5.017
 6126SOL    HW119277   0.719   1.944   5.026
 6126SOL    HW219278   0.712   1.819   4.920
 6127SOL     OW19279   4.089   6.943   2.137
 6127SOL    HW119280   4.154   6.932   2.063
 6127SOL    HW219281   4.127   7.004   2.207
 6128SOL     OW19282   5.226   5.162   0.926
 6128SOL    HW119283   5.227   5.062   0.934
 6128SOL    HW219284   5.211   5.203   1.016
 6129SOL     OW19285   1.097   3.253   4.241
 6129SOL    HW119286   1.194   3.273   4.226
 6129SOL    HW219287   1.063   3.308   4.317
 6130SOL     OW19288   5.731   2.259   2.987
 6130SOL    HW119289   5.830   2.272   2.996
 6130SOL    HW219290   5.697   2.315   2.912
 6131SOL     OW19291   1.149   1.693   2.894
 6131SOL    HW119292   1.180   1.754   2.967
 6131SOL    HW219293   1.217   1.621   2.880
 6132SOL     OW19294   3.941   1.838   6.821
 6132SOL    HW119295   3.938   1.763   6.888
 6132SOL    HW219296   3.864   1.900   6.837
 6133SOL     OW19297   1.994   3.094   3.065
 6133SOL    HW119298   2.048   3.174   3.038
 6133SOL    HW219299   2.036   3.051   3.145
 6134SOL     OW19300   4.316   6.798   7.000
 6134SOL    HW119301   4.301   6.802   0.076
 6134SOL    HW219302   4.259   6.867   6.955
 6135SOL     OW19303   6.877   5.870   0.890
 6135SOL    HW119304   6.930   5.914   0.817
 6135SOL    HW219305   6.788   5.841   0.854
 6136SOL     OW19306   1.345   3.135   1.367
 6136SOL    HW119307   1.284   3.066   1.404
 6136SOL    HW219308   1.323   3.224   1.408
 6137SOL     OW19309   0.668   3.789   2.492
 6137SOL    HW119310   0.737   3.860   2.486
 6137SOL    HW219311   0.589   3.814   2.435
 6138SOL     OW19312   4.067   0.068   2.969
 6138SOL    HW119313   4.016   0.141   3.014
 6138SOL    HW219314   4.005   7.014   2.949
 6139SOL     OW19315   0.712   6.906   5.376
 6139SOL    HW119316   0.715   6.981   5.442
 6139SOL    HW219317   0.618   6.872   5.370
 6140SOL     OW19318   0.532   1.184   2.804
 6140SOL    HW119319   0.600   1.253   2.828
 6140SOL    HW219320   0.502   1.198   2.710
 6141SOL     OW19321   0.287   0.190   6.139
 6141SOL    HW119322   0.360   0.134   6.099
 6141SOL    HW219323   0.203   0.137   6.143
 6142SOL     OW19324   1.041   6.534   5.978
 6142SOL    HW119325   0.980   6.602   6.019
 6142SOL    HW219326   0.988   6.472   5.920
 6143SOL     OW19327   6.922   4.271   0.980
 6143SOL    HW119328   6.924   4.341   1.051
 6143SOL    HW219329   6.980   4.299   0.903
 6144SOL     OW19330   4.796   4.991   3.403
 6144SOL    HW119331   4.815   4.919   3.469
 6144SOL    HW219332   4.727   4.960   3.338
 6145SOL     OW19333   5.863   4.629   4.122
 6145SOL    HW119334   5.768   4.653   4.103
 6145SOL    HW219335   5.922   4.670   4.053
 6146SOL     OW19336   3.394   6.037   3.429
 6146SOL    HW119337   3.352   6.029   3.519
 6146SOL    HW219338   3.324   6.035   3.358
 6147SOL     OW19339   2.084   2.450   4.668
 6147SOL    HW119340   2.146   2.465   4.590
 6147SOL    HW219341   2.092   2.526   4.732
 6148SOL     OW19342   3.979   5.768   6.036
 6148SOL    HW119343   4.012   5.823   5.959
 6148SOL    HW219344   3.890   5.803   6.065
 6149SOL     OW19345   2.143   0.293   1.930
 6149SOL    HW119346   2.134   0.207   1.880
 6149SOL    HW219347   2.102   0.367   1.877
 6150SOL     OW19348   6.297   3.809   6.658
 6150SOL    HW119349   6.315   3.904   6.681
 6150SOL    HW219350   6.256   3.804   6.567
 6151SOL     OW19351   5.625   5.129   4.685
 6151SOL    HW119352   5.574   5.151   4.602
 6151SOL    HW219353   5.561   5.098   4.756
 6152SOL     OW19354   0.642   5.334   4.712
 6152SOL    HW119355   0.622   5.418   4.762
 6152SOL    HW219356   0.740   5.319   4.707
 6153SOL     OW19357   4.906   5.059   1.244
 6153SOL    HW119358   4.891   5.157   1.255
 6153SOL    HW219359   4.998   5.036   1.276
 6154SOL     OW19360   5.758   2.998   2.884
 6154SOL    HW119361   5.857   2.998   2.896
 6154SOL    HW219362   5.722   3.089   2.904
 6155SOL     OW19363   3.103   1.343   2.919
 6155SOL    HW119364   3.111   1.412   2.991
 6155SOL    HW219365   3.165   1.267   2.938
 6156SOL     OW19366   4.190   4.694   1.947
 6156SOL    HW119367   4.235   4.703   1.858
 6156SOL    HW219368   4.212   4.773   2.004
 6157SOL     OW19369   0.761   2.237   2.926
 6157SOL    HW119370   0.720   2.318   2.884
 6157SOL    HW219371   0.765   2.250   3.025
 6158SOL     OW19372   3.581   1.952   0.321
 6158SOL    HW119373   3.582   1.903   0.407
 6158SOL    HW219374   3.630   1.899   0.251
 6159SOL     OW19375   4.997   2.618   0.728
 6159SOL    HW119376   4.952   2.591   0.643
 6159SOL    HW219377   4.942   2.688   0.774
 6160SOL     OW19378   6.413   6.987   6.518
 6160SOL    HW119379   6.404   0.009   6.429
 6160SOL    HW219380   6.363   0.017   6.587
 6161SOL     OW19381   5.127   0.896   0.505
 6161SOL    HW119382   5.203   0.910   0.442
 6161SOL    HW219383   5.161   0.854   0.589
 6162SOL     OW19384   6.184   6.139   3.912
 6162SOL    HW119385   6.151   6.231   3.933
 6162SOL    HW219386   6.273   6.125   3.955
 6163SOL     OW19387   5.385   5.759   2.182
 6163SOL    HW119388   5.292   5.794   2.194
 6163SOL    HW219389   5.417   5.720   2.269
 6164SOL     OW19390   3.627   4.237   4.937
 6164SOL    HW119391   3.683   4.236   4.854
 6164SOL    HW219392   3.684   4.256   5.016
 6165SOL     OW19393   3.608   2.178   5.443
 6165SOL    HW119394   3.543   2.103   5.454
 6165SOL    HW219395   3.683   2.150   5.384
 6166SOL     OW19396   5.957   1.818   0.532
 6166SOL    HW119397   5.897   1.837   0.454
 6166SOL    HW219398   5.942   1.886   0.603
 6167SOL     OW19399   0.403   4.719   3.317
 6167SOL    HW119400   0.338   4.792   3.295
 6167SOL    HW219401   0.496   4.749   3.294
 6168SOL     OW19402   0.907   2.800   3.366
 6168SOL    HW119403   0.835   2.736   3.338
 6168SOL    HW219404   0.869   2.892   3.370
 6169SOL     OW19405   1.074   1.469   6.377
 6169SOL    HW119406   1.000   1.502   6.435
 6169SOL    HW219407   1.060   1.502   6.283
 6170SOL     OW19408   2.956   3.975   5.596
 6170SOL    HW119409   2.975   3.901   5.661
 6170SOL    HW219410   2.896   3.941   5.524
 6171SOL     OW19411   1.279   3.371   1.476
 6171SOL    HW119412   1.194   3.391   1.526
 6171SOL    HW219413   1.345   3.443   1.493
 6172SOL     OW19414   0.477   0.624   2.798
 6172SOL    HW119415   0.458   0.710   2.752
 6172SOL    HW219416   0.390   0.577   2.818
 6173SOL     OW19417   0.044   5.008   2.614
 6173SOL    HW119418   0.054   5.099   2.654
 6173SOL    HW219419   6.969   4.987   2.603
 6174SOL     OW19420   5.913   4.980   2.895
 6174SOL    HW119421   5.894   5.016   2.803
 6174SOL    HW219422   5.851   5.022   2.961
 6175SOL     OW19423   5.080   0.286   3.849
 6175SOL    HW119424   5.047   0.192   3.840
 6175SOL    HW219425   5.174   0.285   3.884
 6176SOL     OW19426   6.476   2.752   6.959
 6176SOL    HW119427   6.491   2.686   0.010
 6176SOL    HW219428   6.474   2.704   6.871
 6177SOL     OW19429   5.931   1.390   1.038
 6177SOL    HW119430   5.943   1.437   0.950
 6177SOL    HW219431   5.838   1.405   1.071
 6178SOL     OW19432   4.580   5.324   2.061
 6178SOL    HW119433   4.639   5.355   1.987
 6178SOL    HW219434   4.613   5.361   2.148
 6179SOL     OW19435   6.769   4.546   4.936
 6179SOL    HW119436   6.759   4.523   4.839
 6179SOL    HW219437   6.861   4.521   4.967
 6180SOL     OW19438   3.237   6.473   6.339
 6180SOL    HW119439   3.335   6.490   6.323
 6180SOL    HW219440   3.220   6.375   6.335
 6181SOL     OW19441   4.753   6.347   1.210
 6181SOL    HW119442   4.782   6.380   1.121
 6181SOL    HW219443   4.694   6.415   1.254
 6182SOL     OW19444   5.531   4.011   5.447
 6182SOL    HW119445   5.538   3.975   5.354
 6182SOL    HW219446   5.455   3.968   5.495
 6183SOL     OW19447   2.562   0.137   3.378
 6183SOL    HW119448   2.515   0.053   3.405
 6183SOL    HW219449   2.614   0.120   3.294
 6184SOL     OW19450   2.065   6.503   5.847
 6184SOL    HW119451   2.143   6.487   5.785
 6184SOL    HW219452   1.990   6.544   5.796
 6185SOL     OW19453   1.596   4.982   6.682
 6185SOL    HW119454   1.566   4.886   6.679
 6185SOL    HW219455   1.645   5.004   6.598
 6186SOL     OW19456   5.785   0.220   4.076
 6186SOL    HW119457   5.794   0.306   4.128
 6186SOL    HW219458   5.832   0.147   4.125
 6187SOL     OW19459   4.565   4.449   4.351
 6187SOL    HW119460   4.505   4.458   4.430
 6187SOL    HW219461   4.653   4.491   4.370
 6188SOL     OW19462   1.990   6.753   1.009
 6188SOL    HW119463   2.070   6.768   1.068
 6188SOL    HW219464   1.955   6.660   1.024
 6189SOL     OW19465   4.731   4.392   3.865
 6189SOL    HW119466   4.668   4.357   3.934
 6189SOL    HW219467   4.773   4.477   3.898
 6190SOL     OW19468   6.437   3.809   6.054
 6190SOL    HW119469   6.400   3.836   5.965
 6190SOL    HW219470   6.484   3.721   6.045
 6191SOL     OW19471   4.562   2.826   0.242
 6191SOL    HW119472   4.541   2.880   0.324
 6191SOL    HW219473   4.604   2.885   0.173
 6192SOL     OW19474   3.092   3.335   0.335
 6192SOL    HW119475   3.052   3.256   0.289
 6192SOL    HW219476   3.135   3.306   0.421
 6193SOL     OW19477   5.324   1.169   2.882
 6193SOL    HW119478   5.306   1.122   2.796
 6193SOL    HW219479   5.414   1.214   2.877
 6194SOL     OW19480   1.569   6.480   0.162
 6194SOL    HW119481   1.574   6.569   0.208
 6194SOL    HW219482   1.661   6.442   0.154
 6195SOL     OW19483   3.394   5.442   5.552
 6195SOL    HW119484   3.429   5.535   5.554
 6195SOL    HW219485   3.302   5.441   5.515
 6196SOL     OW19486   5.343   2.141   1.173
 6196SOL    HW119487   5.434   2.177   1.192
 6196SOL    HW219488   5.349   2.044   1.151
 6197SOL     OW19489   4.373   3.914   0.240
 6197SOL    HW119490   4.464   3.873   0.231
 6197SOL    HW219491   4.368   3.966   0.325
 6198SOL     OW19492   3.414   5.238   2.482
 6198SOL    HW119493   3.341   5.248   2.549
 6198SOL    HW219494   3.410   5.147   2.442
 6199SOL     OW19495   0.647   0.067   1.091
 6199SOL    HW119496   0.644   0.074   1.191
 6199SOL    HW219497   0.597   7.008   1.062
 6200SOL     OW19498   1.970   1.013   5.609
 6200SOL    HW119499   2.018   1.072   5.544
 6200SOL    HW219500   2.015   0.924   5.614
 6201SOL     OW19501   1.849   3.837   5.457
 6201SOL    HW119502   1.770   3.833   5.395
 6201SOL    HW219503   1.820   3.808   5.548
 6202SOL     OW19504   3.878   2.035   1.496
 6202SOL    HW119505   3.841   1.999   1.582
 6202SOL    HW219506   3.852   2.131   1.486
 6203SOL     OW19507   5.432   6.737   3.405
 6203SOL    HW119508   5.441   6.833   3.380
 6203SOL    HW219509   5.381   6.689   3.334
 6204SOL     OW19510   0.347   5.025   5.399
 6204SOL    HW119511   0.332   5.105   5.457
 6204SOL    HW219512   0.416   4.966   5.440
 6205SOL     OW19513   5.406   6.252   0.063
 6205SOL    HW119514   5.330   6.244   0.128
 6205SOL    HW219515   5.468   6.175   0.075
 6206SOL     OW19516   6.157   0.447   2.814
 6206SOL    HW119517   6.158   0.348   2.803
 6206SOL    HW219518   6.076   0.485   2.768
 6207SOL     OW19519   1.564   4.252   4.123
 6207SOL    HW119520   1.625   4.265   4.045
 6207SOL    HW219521   1.619   4.232   4.205
 6208SOL     OW19522   6.007   1.166   6.768
 6208SOL    HW119523   5.969   1.215   6.690
 6208SOL    HW219524   5.987   1.068   6.759
 6209SOL     OW19525   4.739   5.416   6.843
 6209SOL    HW119526   4.720   5.475   6.922
 6209SOL    HW219527   4.678   5.337   6.846
 6210SOL     OW19528   6.173   5.160   3.562
 6210SOL    HW119529   6.238   5.085   3.577
 6210SOL    HW219530   6.117   5.173   3.644
 6211SOL     OW19531   3.325   6.707   4.253
 6211SOL    HW119532   3.296   6.700   4.158
 6211SOL    HW219533   3.424   6.723   4.257
 6212SOL     OW19534   2.003   4.968   3.035
 6212SOL    HW119535   1.994   5.065   3.060
 6212SOL    HW219536   2.036   4.961   2.942
 6213SOL     OW19537   4.781   0.194   6.702
 6213SOL    HW119538   4.685   0.217   6.681
 6213SOL    HW219539   4.830   0.277   6.729
 6214SOL     OW19540   5.160   4.735   3.365
 6214SOL    HW119541   5.193   4.690   3.282
 6214SOL    HW219542   5.212   4.702   3.444
 6215SOL     OW19543   4.198   1.920   6.783
 6215SOL    HW119544   4.099   1.903   6.784
 6215SOL    HW219545   4.236   1.902   6.874
 6216SOL     OW19546   6.809   2.482   2.234
 6216SOL    HW119547   6.906   2.465   2.249
 6216SOL    HW219548   6.797   2.531   2.148
 6217SOL     OW19549   0.114   2.780   2.753
 6217SOL    HW119550   0.110   2.713   2.679
 6217SOL    HW219551   0.052   2.856   2.732
 6218SOL     OW19552   3.510   5.213   5.120
 6218SOL    HW119553   3.475   5.196   5.028
 6218SOL    HW219554   3.467   5.149   5.184
 6219SOL     OW19555   1.311   1.936   4.669
 6219SOL    HW119556   1.385   1.990   4.710
 6219SOL    HW219557   1.251   1.901   4.742
 6220SOL     OW19558   0.982   3.481   5.603
 6220SOL    HW119559   1.025   3.521   5.522
 6220SOL    HW219560   1.044   3.415   5.644
 6221SOL     OW19561   6.344   6.033   6.563
 6221SOL    HW119562   6.245   6.048   6.561
 6221SOL    HW219563   6.363   5.935   6.561
 6222SOL     OW19564   0.729   6.343   0.973
 6222SOL    HW119565   0.785   6.389   0.904
 6222SOL    HW219566   0.770   6.355   1.063
 6223SOL     OW19567   0.116   4.240   5.123
 6223SOL    HW119568   0.096   4.142   5.128
 6223SOL    HW219569   0.208   4.257   5.157
 6224SOL     OW19570   2.479   2.068   6.329
 6224SOL    HW119571   2.522   2.151   6.363
 6224SOL    HW219572   2.529   2.035   6.249
 6225SOL     OW19573   3.173   2.873   1.189
 6225SOL    HW119574   3.139   2.887   1.282
 6225SOL    HW219575   3.205   2.960   1.152
 6226SOL     OW19576   5.641   2.065   5.005
 6226SOL    HW119577   5.620   2.117   5.087
 6226SOL    HW219578   5.600   1.974   5.012
 6227SOL     OW19579   3.610   5.577   5.932
 6227SOL    HW119580   3.688   5.591   5.872
 6227SOL    HW219581   3.642   5.552   6.023
 6228SOL     OW19582   0.434   2.847   2.412
 6228SOL    HW119583   0.422   2.840   2.511
 6228SOL    HW219584   0.498   2.777   2.382
 6229SOL     OW19585   0.621   2.656   2.332
 6229SOL    HW119586   0.707   2.617   2.363
 6229SOL    HW219587   0.613   2.644   2.233
 6230SOL     OW19588   1.213   1.443   4.068
 6230SOL    HW119589   1.168   1.471   4.153
 6230SOL    HW219590   1.146   1.437   3.995
 6231SOL     OW19591   6.602   4.689   1.376
 6231SOL    HW119592   6.702   4.698   1.375
 6231SOL    HW219593   6.571   4.650   1.289
 6232SOL     OW19594   5.921   2.186   0.940
 6232SOL    HW119595   5.935   2.193   1.039
 6232SOL    HW219596   5.896   2.276   0.904
 6233SOL     OW19597   5.517   0.991   6.891
 6233SOL    HW119598   5.505   1.090   6.884
 6233SOL    HW219599   5.607   0.971   6.930
 6234SOL     OW19600   6.698   1.205   5.660
 6234SOL    HW119601   6.631   1.132   5.672
 6234SOL    HW219602   6.782   1.183   5.709
 6235SOL     OW19603   1.074   0.347   1.812
 6235SOL    HW119604   1.062   0.442   1.784
 6235SOL    HW219605   1.041   0.335   1.906
 6236SOL     OW19606   0.837   4.554   0.437
 6236SOL    HW119607   0.852   4.457   0.416
 6236SOL    HW219608   0.876   4.610   0.363
 6237SOL     OW19609   3.533   5.884   6.743
 6237SOL    HW119610   3.600   5.828   6.694
 6237SOL    HW219611   3.451   5.829   6.760
 6238SOL     OW19612   4.001   4.765   3.043
 6238SOL    HW119613   3.951   4.765   2.956
 6238SOL    HW219614   3.957   4.702   3.106
 6239SOL     OW19615   3.210   6.195   1.997
 6239SOL    HW119616   3.257   6.215   2.082
 6239SOL    HW219617   3.136   6.260   1.983
 6240SOL     OW19618   3.060   2.887   6.520
 6240SOL    HW119619   3.068   2.850   6.428
 6240SOL    HW219620   3.003   2.825   6.575
 6241SOL     OW19621   2.827   0.376   1.785
 6241SOL    HW119622   2.785   0.450   1.837
 6241SOL    HW219623   2.764   0.346   1.713
 6242SOL     OW19624   5.162   0.333   3.587
 6242SOL    HW119625   5.250   0.309   3.627
 6242SOL    HW219626   5.098   0.356   3.660
 6243SOL     OW19627   5.439   6.567   3.607
 6243SOL    HW119628   5.438   6.636   3.535
 6243SOL    HW219629   5.396   6.605   3.690
 6244SOL     OW19630   1.645   2.236   2.283
 6244SOL    HW119631   1.727   2.292   2.273
 6244SOL    HW219632   1.652   2.182   2.367
 6245SOL     OW19633   1.811   4.758   0.895
 6245SOL    HW119634   1.825   4.741   0.797
 6245SOL    HW219635   1.899   4.761   0.941
 6246SOL     OW19636   1.761   2.943   5.937
 6246SOL    HW119637   1.848   2.979   5.970
 6246SOL    HW219638   1.719   3.009   5.874
 6247SOL     OW19639   1.289   6.848   3.614
 6247SOL    HW119640   1.300   6.919   3.545
 6247SOL    HW219641   1.335   6.764   3.584
 6248SOL     OW19642   2.704   4.231   0.709
 6248SOL    HW119643   2.699   4.300   0.781
 6248SOL    HW219644   2.799   4.204   0.696
 6249SOL     OW19645   1.198   3.930   0.189
 6249SOL    HW119646   1.116   3.880   0.163
 6249SOL    HW219647   1.195   4.023   0.153
 6250SOL     OW19648   6.946   6.154   0.301
 6250SOL    HW119649   6.885   6.230   0.325
 6250SOL    HW219650   7.011   6.185   0.231
 6251SOL     OW19651   3.524   6.081   0.083
 6251SOL    HW119652   3.468   6.164   0.089
 6251SOL    HW219653   3.530   6.051   7.011
 6252SOL     OW19654   1.512   6.763   5.802
 6252SOL    HW119655   1.416   6.770   5.831
 6252SOL    HW219656   1.528   6.821   5.723
 6253SOL     OW19657   2.019   3.884   2.373
 6253SOL    HW119658   2.094   3.868   2.310
 6253SOL    HW219659   2.025   3.976   2.411
 6254SOL     OW19660   4.976   1.318   0.557
 6254SOL    HW119661   5.024   1.351   0.637
 6254SOL    HW219662   4.890   1.275   0.584
 6255SOL     OW19663   2.435   0.721   1.377
 6255SOL    HW119664   2.354   0.697   1.324
 6255SOL    HW219665   2.483   0.797   1.334
 6256SOL     OW19666   3.258   5.279   2.718
 6256SOL    HW119667   3.201   5.361   2.715
 6256SOL    HW219668   3.208   5.205   2.763
 6257SOL     OW19669   4.904   2.269   0.914
 6257SOL    HW119670   5.002   2.274   0.898
 6257SOL    HW219671   4.887   2.225   1.003
 6258SOL     OW19672   4.504   0.003   3.685
 6258SOL    HW119673   4.439   6.974   3.629
 6258SOL    HW219674   4.594   6.983   3.678
 6259SOL     OW19675   2.646   2.528   0.774
 6259SOL    HW119676   2.733   2.481   0.787
 6259SOL    HW219677   2.660   2.610   0.719
 6260SOL     OW19678   2.816   5.006   0.028
 6260SOL    HW119679   2.820   4.984   6.953
 6260SOL    HW219680   2.855   4.930   0.081
 6261SOL     OW19681   3.734   0.301   6.592
 6261SOL    HW119682   3.673   0.345   6.526
 6261SOL    HW219683   3.827   0.338   6.582
 6262SOL     OW19684   1.484   4.546   1.003
 6262SOL    HW119685   1.580   4.521   1.009
 6262SOL    HW219686   1.452   4.535   0.908
 6263SOL     OW19687   0.120   0.916   5.598
 6263SOL    HW119688   0.112   0.837   5.659
 6263SOL    HW219689   0.064   0.900   5.517
 6264SOL     OW19690   1.308   0.041   1.428
 6264SOL    HW119691   1.253   6.980   1.416
 6264SOL    HW219692   1.290   0.104   1.352
 6265SOL     OW19693   2.971   4.083   0.691
 6265SOL    HW119694   3.046   4.148   0.673
 6265SOL    HW219695   2.973   4.056   0.787
 6266SOL     OW19696   4.091   0.549   4.636
 6266SOL    HW119697   4.134   0.463   4.663
 6266SOL    HW219698   4.079   0.551   4.537
 6267SOL     OW19699   2.618   0.267   6.751
 6267SOL    HW119700   2.623   0.325   6.671
 6267SOL    HW219701   2.703   0.276   6.804
 6268SOL     OW19702   3.336   6.393   3.448
 6268SOL    HW119703   3.395   6.351   3.517
 6268SOL    HW219704   3.374   6.481   3.421
 6269SOL     OW19705   6.766   5.819   1.942
 6269SOL    HW119706   6.765   5.783   1.849
 6269SOL    HW219707   6.673   5.841   1.970
 6270SOL     OW19708   1.689   0.012   5.326
 6270SOL    HW119709   1.786   0.002   5.348
 6270SOL    HW219710   1.642   0.057   5.402
 6271SOL     OW19711   5.446   2.619   5.754
 6271SOL    HW119712   5.522   2.644   5.814
 6271SOL    HW219713   5.483   2.575   5.671
 6272SOL     OW19714   0.719   2.478   6.176
 6272SOL    HW119715   0.781   2.418   6.226
 6272SOL    HW219716   0.677   2.428   6.101
 6273SOL     OW19717   2.430   0.278   2.705
 6273SOL    HW119718   2.467   0.225   2.629
 6273SOL    HW219719   2.477   0.252   2.790
 6274SOL     OW19720   2.443   5.562   5.792
 6274SOL    HW119721   2.379   5.609   5.731
 6274SOL    HW219722   2.441   5.606   5.882
 6275SOL     OW19723   2.116   6.194   4.894
 6275SOL    HW119724   2.035   6.219   4.946
 6275SOL    HW219725   2.155   6.276   4.851
 6276SOL     OW19726   1.864   5.056   4.111
 6276SOL    HW119727   1.956   5.031   4.081
 6276SOL    HW219728   1.869   5.099   4.201
 6277SOL     OW19729   5.216   3.508   1.348
 6277SOL    HW119730   5.303   3.485   1.393
 6277SOL    HW219731   5.175   3.587   1.394
 6278SOL     OW19732   5.011   6.638   4.708
 6278SOL    HW119733   5.055   6.559   4.752
 6278SOL    HW219734   4.914   6.639   4.732
 6279SOL     OW19735   3.526   0.615   6.556
 6279SOL    HW119736   3.489   0.566   6.635
 6279SOL    HW219737   3.541   0.550   6.481
 6280SOL     OW19738   0.623   2.531   5.645
 6280SOL    HW119739   0.676   2.446   5.644
 6280SOL    HW219740   0.539   2.517   5.698
 6281SOL     OW19741   1.400   5.475   4.345
 6281SOL    HW119742   1.390   5.389   4.294
 6281SOL    HW219743   1.375   5.460   4.441
 6282SOL     OW19744   1.169   0.591   4.859
 6282SOL    HW119745   1.070   0.588   4.871
 6282SOL    HW219746   1.200   0.506   4.816
 6283SOL     OW19747   6.493   3.142   5.811
 6283SOL    HW119748   6.456   3.210   5.874
 6283SOL    HW219749   6.587   3.166   5.788
 6284SOL     OW19750   2.216   5.538   5.042
 6284SOL    HW119751   2.138   5.513   4.984
 6284SOL    HW219752   2.189   5.611   5.105
 6285SOL     OW19753   0.898   2.826   3.759
 6285SOL    HW119754   0.967   2.762   3.727
 6285SOL    HW219755   0.898   2.828   3.859
 6286SOL     OW19756   6.823   1.842   3.934
 6286SOL    HW119757   6.774   1.803   3.856
 6286SOL    HW219758   6.846   1.938   3.914
 6287SOL     OW19759   3.680   5.216   3.447
 6287SOL    HW119760   3.616   5.280   3.404
 6287SOL    HW219761   3.709   5.148   3.380
 6288SOL     OW19762   6.013   4.726   2.832
 6288SOL    HW119763   5.965   4.813   2.845
 6288SOL    HW219764   6.109   4.743   2.812
 6289SOL     OW19765   1.403   4.930   2.458
 6289SOL    HW119766   1.472   4.858   2.453
 6289SOL    HW219767   1.347   4.917   2.540
 6290SOL     OW19768   5.955   3.403   4.058
 6290SOL    HW119769   5.865   3.421   4.018
 6290SOL    HW219770   6.010   3.351   3.992
 6291SOL     OW19771   3.738   3.174   4.210
 6291SOL    HW119772   3.696   3.243   4.151
 6291SOL    HW219773   3.666   3.126   4.261
 6292SOL     OW19774   1.586   2.293   3.720
 6292SOL    HW119775   1.489   2.305   3.741
 6292SOL    HW219776   1.620   2.377   3.677
 6293SOL     OW19777   3.941   0.456   0.030
 6293SOL    HW119778   4.019   0.418   0.080
 6293SOL    HW219779   3.861   0.398   0.045
 6294SOL     OW19780   3.635   4.983   3.900
 6294SOL    HW119781   3.679   4.911   3.952
 6294SOL    HW219782   3.551   4.948   3.858
 6295SOL     OW19783   5.103   5.276   5.363
 6295SOL    HW119784   5.103   5.184   5.324
 6295SOL    HW219785   5.124   5.343   5.291
 6296SOL     OW19786   6.952   6.634   5.045
 6296SOL    HW119787   6.996   6.585   5.120
 6296SOL    HW219788   6.990   6.726   5.038
 6297SOL     OW19789   4.823   0.105   5.353
 6297SOL    HW119790   4.851   0.010   5.365
 6297SOL    HW219791   4.723   0.108   5.343
 6298SOL     OW19792   1.548   2.496   5.687
 6298SOL    HW119793   1.526   2.495   5.589
 6298SOL    HW219794   1.602   2.577   5.708
 6299SOL     OW19795   5.401   1.592   0.520
 6299SOL    HW119796   5.450   1.593   0.433
 6299SOL    HW219797   5.445   1.528   0.582
 6300SOL     OW19798   4.960   0.584   6.563
 6300SOL    HW119799   4.997   0.591   6.470
 6300SOL    HW219800   5.022   0.629   6.627
 6301SOL     OW19801   3.336   0.777   1.246
 6301SOL    HW119802   3.404   0.705   1.230
 6301SOL    HW219803   3.284   0.793   1.163
 6302SOL     OW19804   1.375   1.710   4.175
 6302SOL    HW119805   1.399   1.626   4.127
 6302SOL    HW219806   1.422   1.787   4.131
 6303SOL     OW19807   2.374   1.093   4.667
 6303SOL    HW119808   2.318   1.013   4.645
 6303SOL    HW219809   2.460   1.064   4.708
 6304SOL     OW19810   2.475   1.131   1.090
 6304SOL    HW119811   2.408   1.057   1.078
 6304SOL    HW219812   2.546   1.101   1.153
 6305SOL     OW19813   6.173   6.666   1.577
 6305SOL    HW119814   6.131   6.594   1.631
 6305SOL    HW219815   6.114   6.747   1.578
 6306SOL     OW19816   1.152   3.638   4.270
 6306SOL    HW119817   1.109   3.580   4.339
 6306SOL    HW219818   1.082   3.669   4.205
 6307SOL     OW19819   3.970   4.459   5.790
 6307SOL    HW119820   4.004   4.446   5.883
 6307SOL    HW219821   4.027   4.526   5.743
 6308SOL     OW19822   2.095   1.802   4.559
 6308SOL    HW119823   2.060   1.719   4.514
 6308SOL    HW219824   2.020   1.847   4.609
 6309SOL     OW19825   5.110   3.905   4.461
 6309SOL    HW119826   5.133   3.872   4.553
 6309SOL    HW219827   5.131   4.003   4.455
 6310SOL     OW19828   2.050   5.579   3.439
 6310SOL    HW119829   2.055   5.531   3.352
 6310SOL    HW219830   2.056   5.513   3.514
 6311SOL     OW19831   5.704   7.020   5.135
 6311SOL    HW119832   5.609   0.027   5.148
 6311SOL    HW219833   5.764   0.078   5.134
 6312SOL     OW19834   5.988   5.267   5.660
 6312SOL    HW119835   5.940   5.191   5.617
 6312SOL    HW219836   5.996   5.343   5.595
 6313SOL     OW19837   1.466   6.201   3.560
 6313SOL    HW119838   1.391   6.154   3.608
 6313SOL    HW219839   1.429   6.248   3.479
 6314SOL     OW19840   3.870   6.388   1.316
 6314SOL    HW119841   3.848   6.423   1.407
 6314SOL    HW219842   3.924   6.456   1.266
 6315SOL     OW19843   3.818   3.017   6.181
 6315SOL    HW119844   3.915   2.992   6.187
 6315SOL    HW219845   3.799   3.096   6.239
 6316SOL     OW19846   5.006   1.965   6.703
 6316SOL    HW119847   5.009   1.935   6.608
 6316SOL    HW219848   4.920   2.012   6.721
 6317SOL     OW19849   5.280   5.233   3.384
 6317SOL    HW119850   5.230   5.288   3.317
 6317SOL    HW219851   5.237   5.143   3.391
 6318SOL     OW19852   2.933   2.251   4.623
 6318SOL    HW119853   3.028   2.230   4.596
 6318SOL    HW219854   2.879   2.269   4.541
 6319SOL     OW19855   0.260   2.164   3.499
 6319SOL    HW119856   0.216   2.194   3.583
 6319SOL    HW219857   0.313   2.240   3.460
 6320SOL     OW19858   5.874   4.980   5.381
 6320SOL    HW119859   5.863   5.008   5.477
 6320SOL    HW219860   5.784   4.964   5.341
 6321SOL     OW19861   3.246   4.515   0.842
 6321SOL    HW119862   3.319   4.496   0.909
 6321SOL    HW219863   3.258   4.608   0.807
 6322SOL     OW19864   1.476   2.354   6.905
 6322SOL    HW119865   1.473   2.439   6.958
 6322SOL    HW219866   1.534   2.367   6.825
 6323SOL     OW19867   3.407   2.822   1.364
 6323SOL    HW119868   3.406   2.920   1.343
 6323SOL    HW219869   3.332   2.777   1.316
 6324SOL     OW19870   5.069   6.864   6.552
 6324SOL    HW119871   5.001   6.793   6.568
 6324SOL    HW219872   5.089   6.911   6.639
 6325SOL     OW19873   2.131   1.746   2.185
 6325SOL    HW119874   2.145   1.799   2.268
 6325SOL    HW219875   2.089   1.803   2.115
 6326SOL     OW19876   4.784   5.633   2.012
 6326SOL    HW119877   4.791   5.714   1.954
 6326SOL    HW219878   4.763   5.554   1.955
 6327SOL     OW19879   0.116   0.722   4.915
 6327SOL    HW119880   0.204   0.684   4.886
 6327SOL    HW219881   0.110   0.718   5.015
 6328SOL     OW19882   2.224   3.722   0.635
 6328SOL    HW119883   2.312   3.764   0.655
 6328SOL    HW219884   2.238   3.631   0.595
 6329SOL     OW19885   2.521   2.487   3.143
 6329SOL    HW119886   2.543   2.549   3.219
 6329SOL    HW219887   2.423   2.494   3.122
 6330SOL     OW19888   4.519   1.077   1.402
 6330SOL    HW119889   4.536   1.131   1.320
 6330SOL    HW219890   4.560   1.122   1.481
 6331SOL     OW19891   6.173   2.306   0.246
 6331SOL    HW119892   6.112   2.336   0.320
 6331SOL    HW219893   6.216   2.219   0.272
 6332SOL     OW19894   6.802   3.844   1.906
 6332SOL    HW119895   6.736   3.855   1.832
 6332SOL    HW219896   6.797   3.924   1.967
 6333SOL     OW19897   3.905   4.947   4.330
 6333SOL    HW119898   3.885   5.044   4.322
 6333SOL    HW219899   3.940   4.927   4.421
 6334SOL     OW19900   2.917   6.994   2.334
 6334SOL    HW119901   2.904   6.939   2.416
 6334SOL    HW219902   3.013   6.990   2.306
 6335SOL     OW19903   4.700   1.500   0.280
 6335SOL    HW119904   4.657   1.590   0.270
 6335SOL    HW219905   4.639   1.440   0.332
 6336SOL     OW19906   0.560   1.948   6.442
 6336SOL    HW119907   0.525   1.988   6.358
 6336SOL    HW219908   0.574   2.021   6.510
 6337SOL     OW19909   4.637   4.311   6.153
 6337SOL    HW119910   4.638   4.257   6.237
 6337SOL    HW219911   4.729   4.346   6.135
 6338SOL     OW19912   3.185   2.112   2.669
 6338SOL    HW119913   3.158   2.049   2.742
 6338SOL    HW219914   3.261   2.169   2.701
 6339SOL     OW19915   1.108   2.819   2.926
 6339SOL    HW119916   1.060   2.849   2.844
 6339SOL    HW219917   1.197   2.782   2.901
 6340SOL     OW19918   1.604   4.883   2.896
 6340SOL    HW119919   1.632   4.937   2.817
 6340SOL    HW219920   1.560   4.799   2.866
 6341SOL     OW19921   0.843   4.337   3.945
 6341SOL    HW119922   0.860   4.434   3.963
 6341SOL    HW219923   0.767   4.328   3.881
 6342SOL     OW19924   2.701   1.895   1.776
 6342SOL    HW119925   2.736   1.976   1.824
 6342SOL    HW219926   2.728   1.812   1.825
 6343SOL     OW19927   5.199   2.428   6.897
 6343SOL    HW119928   5.226   2.348   6.951
 6343SOL    HW219929   5.198   2.404   6.800
 6344SOL     OW19930   5.764   3.695   5.386
 6344SOL    HW119931   5.863   3.688   5.374
 6344SOL    HW219932   5.718   3.649   5.310
 6345SOL     OW19933   4.461   1.896   2.157
 6345SOL    HW119934   4.482   1.904   2.060
 6345SOL    HW219935   4.536   1.935   2.211
 6346SOL     OW19936   6.928   4.227   3.846
 6346SOL    HW119937   6.892   4.300   3.788
 6346SOL    HW219938   6.997   4.175   3.795
 6347SOL     OW19939   1.724   0.274   1.649
 6347SOL    HW119940   1.707   0.341   1.577
 6347SOL    HW219941   1.823   0.266   1.664
 6348SOL     OW19942   1.422   3.975   5.156
 6348SOL    HW119943   1.390   4.069   5.146
 6348SOL    HW219944   1.348   3.912   5.133
 6349SOL     OW19945   3.308   0.197   1.264
 6349SOL    HW119946   3.285   0.216   1.360
 6349SOL    HW219947   3.225   0.190   1.210
 6350SOL     OW19948   2.581   4.639   4.089
 6350SOL    HW119949   2.587   4.555   4.143
 6350SOL    HW219950   2.673   4.676   4.076
 6351SOL     OW19951   6.683   3.296   3.031
 6351SOL    HW119952   6.749   3.312   2.957
 6351SOL    HW219953   6.718   3.225   3.092
 6352SOL     OW19954   2.560   5.289   4.859
 6352SOL    HW119955   2.586   5.372   4.809
 6352SOL    HW219956   2.612   5.211   4.824
 6353SOL     OW19957   6.500   1.369   6.361
 6353SOL    HW119958   6.446   1.297   6.317
 6353SOL    HW219959   6.513   1.444   6.297
 6354SOL     OW19960   1.683   6.876   2.720
 6354SOL    HW119961   1.682   6.920   2.809
 6354SOL    HW219962   1.733   6.934   2.655
 6355SOL     OW19963   1.519   5.482   6.013
 6355SOL    HW119964   1.615   5.470   6.036
 6355SOL    HW219965   1.479   5.554   6.070
 6356SOL     OW19966   3.727   4.991   3.003
 6356SOL    HW119967   3.787   4.957   3.076
 6356SOL    HW219968   3.702   5.086   3.022
 6357SOL     OW19969   5.220   2.619   2.214
 6357SOL    HW119970   5.219   2.693   2.281
 6357SOL    HW219971   5.311   2.577   2.213
 6358SOL     OW19972   1.268   2.276   5.895
 6358SOL    HW119973   1.361   2.313   5.885
 6358SOL    HW219974   1.269   2.201   5.961
 6359SOL     OW19975   6.249   0.014   5.529
 6359SOL    HW119976   6.328   0.053   5.482
 6359SOL    HW219977   6.273   7.020   5.625
 6360SOL     OW19978   1.877   3.591   4.433
 6360SOL    HW119979   1.790   3.603   4.481
 6360SOL    HW219980   1.929   3.676   4.435
 6361SOL     OW19981   6.254   0.100   0.341
 6361SOL    HW119982   6.332   0.084   0.402
 6361SOL    HW219983   6.231   0.197   0.342
 6362SOL     OW19984   6.836   5.747   6.596
 6362SOL    HW119985   6.914   5.807   6.614
 6362SOL    HW219986   6.866   5.652   6.601
 6363SOL     OW19987   2.376   4.278   3.228
 6363SOL    HW119988   2.468   4.247   3.202
 6363SOL    HW219989   2.309   4.240   3.165
 6364SOL     OW19990   3.488   1.549   5.710
 6364SOL    HW119991   3.524   1.637   5.741
 6364SOL    HW219992   3.496   1.544   5.610
 6365SOL     OW19993   5.565   6.901   4.530
 6365SOL    HW119994   5.558   6.854   4.618
 6365SOL    HW219995   5.662   6.918   4.509
 6366SOL     OW19996   0.864   5.868   6.635
 6366SOL    HW119997   0.903   5.796   6.577
 6366SOL    HW219998   0.936   5.934   6.659
 6367SOL     OW19999   3.601   0.527   4.080
 6367SOL    HW120000   3.647   0.614   4.098
 6367SOL    HW220001   3.532   0.541   4.008
 6368SOL     OW20002   3.704   6.602   3.673
 6368SOL    HW120003   3.715   6.682   3.733
 6368SOL    HW220004   3.705   6.519   3.728
 6369SOL     OW20005   2.373   4.926   4.779
 6369SOL    HW120006   2.362   4.996   4.849
 6369SOL    HW220007   2.462   4.935   4.736
 6370SOL     OW20008   1.403   3.290   2.409
 6370SOL    HW120009   1.484   3.286   2.467
 6370SOL    HW220010   1.362   3.381   2.413
 6371SOL     OW20011   5.056   3.540   4.054
 6371SOL    HW120012   4.991   3.474   4.091
 6371SOL    HW220013   5.130   3.554   4.119
 6372SOL     OW20014   3.466   0.143   2.051
 6372SOL    HW120015   3.558   0.109   2.031
 6372SOL    HW220016   3.426   0.181   1.967
 6373SOL     OW20017   5.644   4.355   3.465
 6373SOL    HW120018   5.590   4.420   3.518
 6373SOL    HW220019   5.706   4.405   3.404
 6374SOL     OW20020   3.336   4.184   4.297
 6374SOL    HW120021   3.369   4.268   4.254
 6374SOL    HW220022   3.348   4.191   4.396
 6375SOL     OW20023   0.241   1.990   3.968
 6375SOL    HW120024   0.274   1.902   4.003
 6375SOL    HW220025   0.182   2.033   4.036
 6376SOL     OW20026   6.272   2.807   5.490
 6376SOL    HW120027   6.361   2.770   5.516
 6376SOL    HW220028   6.201   2.741   5.515
 6377SOL     OW20029   6.419   1.681   5.384
 6377SOL    HW120030   6.454   1.663   5.292
 6377SOL    HW220031   6.493   1.673   5.450
 6378SOL     OW20032   5.649   5.006   3.362
 6378SOL    HW120033   5.616   5.083   3.416
 6378SOL    HW220034   5.678   5.038   3.272
 6379SOL     OW20035   2.298   4.148   4.278
 6379SOL    HW120036   2.340   4.073   4.227
 6379SOL    HW220037   2.361   4.179   4.349
 6380SOL     OW20038   0.732   1.539   6.123
 6380SOL    HW120039   0.680   1.459   6.153
 6380SOL    HW220040   0.723   1.550   6.024
 6381SOL     OW20041   3.812   3.539   2.028
 6381SOL    HW120042   3.768   3.490   1.953
 6381SOL    HW220043   3.880   3.602   1.990
 6382SOL     OW20044   1.364   2.757   0.597
 6382SOL    HW120045   1.364   2.657   0.593
 6382SOL    HW220046   1.304   2.788   0.671
 6383SOL     OW20047   1.776   2.100   2.932
 6383SOL    HW120048   1.827   2.123   2.849
 6383SOL    HW220049   1.779   2.001   2.946
 6384SOL     OW20050   5.367   4.158   1.068
 6384SOL    HW120051   5.415   4.082   1.112
 6384SOL    HW220052   5.349   4.135   0.972
 6385SOL     OW20053   6.785   4.385   4.690
 6385SOL    HW120054   6.756   4.383   4.595
 6385SOL    HW220055   6.882   4.359   4.696
 6386SOL     OW20056   2.786   4.244   6.450
 6386SOL    HW120057   2.833   4.257   6.537
 6386SOL    HW220058   2.848   4.267   6.375
 6387SOL     OW20059   0.690   1.546   6.605
 6387SOL    HW120060   0.676   1.499   6.693
 6387SOL    HW220061   0.787   1.571   6.597
 6388SOL     OW20062   4.033   4.675   0.912
 6388SOL    HW120063   3.961   4.709   0.973
 6388SOL    HW220064   4.090   4.609   0.961
 6389SOL     OW20065   0.759   5.871   2.393
 6389SOL    HW120066   0.681   5.929   2.367
 6389SOL    HW220067   0.727   5.797   2.452
 6390SOL     OW20068   1.527   2.047   4.790
 6390SOL    HW120069   1.612   2.007   4.823
 6390SOL    HW220070   1.492   2.113   4.856
 6391SOL     OW20071   3.089   0.023   5.992
 6391SOL    HW120072   3.011   0.084   6.005
 6391SOL    HW220073   3.167   0.055   6.046
 6392SOL     OW20074   2.269   0.195   3.824
 6392SOL    HW120075   2.229   0.138   3.753
 6392SOL    HW220076   2.336   0.142   3.877
 6393SOL     OW20077   5.891   6.664   1.374
 6393SOL    HW120078   5.840   6.725   1.435
 6393SOL    HW220079   5.974   6.710   1.343
 6394SOL     OW20080   2.408   4.834   1.156
 6394SOL    HW120081   2.482   4.850   1.221
 6394SOL    HW220082   2.331   4.894   1.177
 6395SOL     OW20083   6.302   2.846   1.536
 6395SOL    HW120084   6.354   2.775   1.488
 6395SOL    HW220085   6.305   2.931   1.482
 6396SOL     OW20086   5.364   3.083   6.643
 6396SOL    HW120087   5.386   3.129   6.729
 6396SOL    HW220088   5.424   3.004   6.632
 6397SOL     OW20089   5.946   2.590   6.572
 6397SOL    HW120090   5.962   2.603   6.670
 6397SOL    HW220091   5.911   2.676   6.533
 6398SOL     OW20092   3.319   0.684   0.811
 6398SOL    HW120093   3.272   0.664   0.725
 6398SOL    HW220094   3.252   0.701   0.883
 6399SOL     OW20095   1.624   5.257   6.771
 6399SOL    HW120096   1.687   5.289   6.700
 6399SOL    HW220097   1.603   5.160   6.755
 6400SOL     OW20098   2.271   5.916   2.613
 6400SOL    HW120099   2.344   5.889   2.676
 6400SOL    HW220100   2.289   5.879   2.522
 6401SOL     OW20101   7.012   4.381   3.442
 6401SOL    HW120102   6.999   4.434   3.359
 6401SOL    HW220103   0.002   4.284   3.418
 6402SOL     OW20104   3.875   0.927   3.329
 6402SOL    HW120105   3.798   0.884   3.376
 6402SOL    HW220106   3.846   0.963   3.241
 6403SOL     OW20107   0.373   6.410   6.078
 6403SOL    HW120108   0.392   6.480   6.009
 6403SOL    HW220109   0.278   6.378   6.068
 6404SOL     OW20110   3.721   1.056   3.142
 6404SOL    HW120111   3.723   1.014   3.052
 6404SOL    HW220112   3.640   1.114   3.150
 6405SOL     OW20113   1.736   0.888   3.296
 6405SOL    HW120114   1.724   0.800   3.341
 6405SOL    HW220115   1.753   0.873   3.198
 6406SOL     OW20116   1.974   2.665   3.471
 6406SOL    HW120117   2.037   2.588   3.466
 6406SOL    HW220118   1.880   2.632   3.480
 6407SOL     OW20119   3.171   0.291   3.079
 6407SOL    HW120120   3.206   0.199   3.065
 6407SOL    HW220121   3.169   0.311   3.177
 6408SOL     OW20122   6.020   2.559   6.871
 6408SOL    HW120123   6.072   2.532   6.952
 6408SOL    HW220124   5.938   2.609   6.898
 6409SOL     OW20125   0.434   4.648   3.033
 6409SOL    HW120126   0.521   4.644   2.984
 6409SOL    HW220127   0.451   4.680   3.127
 6410SOL     OW20128   2.079   1.238   0.238
 6410SOL    HW120129   2.134   1.297   0.297
 6410SOL    HW220130   1.991   1.219   0.282
 6411SOL     OW20131   0.105   2.350   3.287
 6411SOL    HW120132   0.082   2.255   3.306
 6411SOL    HW220133   0.176   2.353   3.215
 6412SOL     OW20134   6.810   3.103   5.292
 6412SOL    HW120135   6.777   3.077   5.382
 6412SOL    HW220136   6.835   3.200   5.292
 6413SOL     OW20137   4.942   4.754   3.158
 6413SOL    HW120138   5.003   4.788   3.229
 6413SOL    HW220139   4.976   4.666   3.124
 6414SOL     OW20140   5.875   0.715   1.770
 6414SOL    HW120141   5.928   0.630   1.773
 6414SOL    HW220142   5.899   0.766   1.688
 6415SOL     OW20143   2.396   2.105   2.789
 6415SOL    HW120144   2.449   2.024   2.764
 6415SOL    HW220145   2.439   2.150   2.867
 6416SOL     OW20146   1.396   1.214   5.874
 6416SOL    HW120147   1.327   1.273   5.916
 6416SOL    HW220148   1.394   1.225   5.775
 6417SOL     OW20149   6.944   4.593   2.152
 6417SOL    HW120150   6.854   4.587   2.109
 6417SOL    HW220151   6.984   4.502   2.157
 6418SOL     OW20152   5.245   4.328   2.224
 6418SOL    HW120153   5.185   4.275   2.164
 6418SOL    HW220154   5.191   4.397   2.272
 6419SOL     OW20155   2.319   4.702   2.632
 6419SOL    HW120156   2.389   4.631   2.624
 6419SOL    HW220157   2.330   4.768   2.558
 6420SOL     OW20158   2.533   3.626   5.679
 6420SOL    HW120159   2.605   3.690   5.705
 6420SOL    HW220160   2.559   3.533   5.704
 6421SOL     OW20161   5.250   1.318   2.098
 6421SOL    HW120162   5.323   1.251   2.091
 6421SOL    HW220163   5.287   1.404   2.135
 6422SOL     OW20164   0.122   0.414   4.307
 6422SOL    HW120165   0.122   0.467   4.391
 6422SOL    HW220166   0.090   0.321   4.326
 6423SOL     OW20167   4.931   5.109   2.285
 6423SOL    HW120168   4.977   5.190   2.319
 6423SOL    HW220169   4.894   5.127   2.194
 6424SOL     OW20170   6.851   5.789   5.597
 6424SOL    HW120171   6.921   5.828   5.658
 6424SOL    HW220172   6.762   5.830   5.618
 6425SOL     OW20173   6.410   5.744   3.208
 6425SOL    HW120174   6.365   5.659   3.183
 6425SOL    HW220175   6.509   5.729   3.213
 6426SOL     OW20176   0.351   4.661   3.604
 6426SOL    HW120177   0.369   4.677   3.507
 6426SOL    HW220178   0.282   4.589   3.613
 6427SOL     OW20179   2.159   2.924   6.590
 6427SOL    HW120180   2.166   2.998   6.523
 6427SOL    HW220181   2.079   2.867   6.568
 6428SOL     OW20182   6.571   3.154   0.394
 6428SOL    HW120183   6.516   3.237   0.387
 6428SOL    HW220184   6.530   3.082   0.338
 6429SOL     OW20185   0.446   1.350   5.571
 6429SOL    HW120186   0.375   1.340   5.502
 6429SOL    HW220187   0.519   1.283   5.556
 6430SOL     OW20188   5.146   1.251   2.430
 6430SOL    HW120189   5.147   1.182   2.357
 6430SOL    HW220190   5.082   1.324   2.406
 6431SOL     OW20191   5.286   6.423   3.385
 6431SOL    HW120192   5.361   6.446   3.447
 6431SOL    HW220193   5.283   6.490   3.311
 6432SOL     OW20194   4.245   3.630   6.881
 6432SOL    HW120195   4.258   3.620   6.979
 6432SOL    HW220196   4.179   3.703   6.863
 6433SOL     OW20197   3.540   4.517   0.549
 6433SOL    HW120198   3.552   4.601   0.603
 6433SOL    HW220199   3.558   4.438   0.608
 6434SOL     OW20200   2.039   3.767   0.129
 6434SOL    HW120201   2.053   3.785   0.226
 6434SOL    HW220202   2.123   3.787   0.079
 6435SOL     OW20203   4.060   6.258   6.726
 6435SOL    HW120204   4.136   6.320   6.709
 6435SOL    HW220205   4.072   6.175   6.671
 6436SOL     OW20206   2.028   3.329   3.563
 6436SOL    HW120207   1.934   3.297   3.549
 6436SOL    HW220208   2.027   3.401   3.632
 6437SOL     OW20209   2.289   0.972   0.934
 6437SOL    HW120210   2.293   0.873   0.942
 6437SOL    HW220211   2.357   1.004   0.868
 6438SOL     OW20212   0.544   4.699   6.721
 6438SOL    HW120213   0.468   4.676   6.661
 6438SOL    HW220214   0.624   4.645   6.695
 6439SOL     OW20215   6.643   0.410   1.666
 6439SOL    HW120216   6.667   0.380   1.759
 6439SOL    HW220217   6.559   0.365   1.637
 6440SOL     OW20218   2.241   1.969   1.492
 6440SOL    HW120219   2.339   1.963   1.507
 6440SOL    HW220220   2.223   1.997   1.397
 6441SOL     OW20221   1.244   6.908   2.456
 6441SOL    HW120222   1.185   6.938   2.381
 6441SOL    HW220223   1.338   6.897   2.421
 6442SOL     OW20224   2.371   1.282   3.233
 6442SOL    HW120225   2.431   1.258   3.309
 6442SOL    HW220226   2.276   1.282   3.264
 6443SOL     OW20227   3.852   2.891   0.074
 6443SOL    HW120228   3.860   2.793   0.095
 6443SOL    HW220229   3.847   2.943   0.159
 6444SOL     OW20230   0.676   2.674   3.765
 6444SOL    HW120231   0.753   2.738   3.765
 6444SOL    HW220232   0.696   2.598   3.704
 6445SOL     OW20233   4.867   2.760   5.794
 6445SOL    HW120234   4.915   2.846   5.810
 6445SOL    HW220235   4.932   2.693   5.757
 6446SOL     OW20236   1.375   1.131   6.243
 6446SOL    HW120237   1.454   1.156   6.188
 6446SOL    HW220238   1.291   1.151   6.191
 6447SOL     OW20239   0.243   5.711   2.592
 6447SOL    HW120240   0.182   5.780   2.630
 6447SOL    HW220241   0.262   5.641   2.661
 6448SOL     OW20242   5.193   4.113   2.497
 6448SOL    HW120243   5.179   4.028   2.446
 6448SOL    HW220244   5.107   4.140   2.540
 6449SOL     OW20245   3.139   4.313   0.643
 6449SOL    HW120246   3.187   4.361   0.716
 6449SOL    HW220247   3.171   4.345   0.554
 6450SOL     OW20248   6.995   3.201   1.259
 6450SOL    HW120249   0.020   3.289   1.257
 6450SOL    HW220250   6.901   3.214   1.225
 6451SOL     OW20251   2.710   6.344   4.648
 6451SOL    HW120252   2.666   6.308   4.730
 6451SOL    HW220253   2.684   6.289   4.569
 6452SOL     OW20254   3.559   6.146   5.129
 6452SOL    HW120255   3.500   6.071   5.155
 6452SOL    HW220256   3.570   6.209   5.206
 6453SOL     OW20257   1.368   6.516   7.012
 6453SOL    HW120258   1.396   6.596   6.959
 6453SOL    HW220259   1.435   6.500   0.062
 6454SOL     OW20260   3.080   1.378   3.707
 6454SOL    HW120261   2.995   1.389   3.758
 6454SOL    HW220262   3.077   1.291   3.657
 6455SOL     OW20263   0.920   1.999   4.127
 6455SOL    HW120264   0.882   2.009   4.219
 6455SOL    HW220265   0.961   1.909   4.117
 6456SOL     OW20266   1.847   0.692   3.554
 6456SOL    HW120267   1.906   0.750   3.498
 6456SOL    HW220268   1.852   0.720   3.650
 6457SOL     OW20269   5.041   1.135   1.218
 6457SOL    HW120270   4.976   1.200   1.179
 6457SOL    HW220271   5.086   1.176   1.298
 6458SOL     OW20272   0.790   6.896   3.479
 6458SOL    HW120273   0.874   6.843   3.491
 6458SOL    HW220274   0.771   6.906   3.381
 6459SOL     OW20275   5.659   5.358   0.543
 6459SOL    HW120276   5.673   5.327   0.637
 6459SOL    HW220277   5.654   5.278   0.482
 6460SOL     OW20278   4.659   5.531   5.606
 6460SOL    HW120279   4.599   5.586   5.549
 6460SOL    HW220280   4.739   5.503   5.553
 6461SOL     OW20281   2.977   4.888   5.016
 6461SOL    HW120282   2.954   4.981   5.045
 6461SOL    HW220283   2.906   4.825   5.045
 6462SOL     OW20284   2.318   2.758   5.193
 6462SOL    HW120285   2.360   2.834   5.144
 6462SOL    HW220286   2.350   2.757   5.287
 6463SOL     OW20287   1.465   3.591   6.705
 6463SOL    HW120288   1.391   3.527   6.684
 6463SOL    HW220289   1.537   3.542   6.755
 6464SOL     OW20290   0.858   5.180   5.234
 6464SOL    HW120291   0.906   5.096   5.208
 6464SOL    HW220292   0.812   5.219   5.153
 6465SOL     OW20293   6.365   2.234   3.827
 6465SOL    HW120294   6.427   2.301   3.786
 6465SOL    HW220295   6.306   2.280   3.893
 6466SOL     OW20296   0.942   1.649   6.556
 6466SOL    HW120297   0.927   1.734   6.506
 6466SOL    HW220298   1.024   1.656   6.612
 6467SOL     OW20299   2.988   0.888   6.964
 6467SOL    HW120300   3.061   0.943   6.922
 6467SOL    HW220301   3.019   0.794   6.975
 6468SOL     OW20302   3.741   6.457   1.621
 6468SOL    HW120303   3.671   6.455   1.550
 6468SOL    HW220304   3.713   6.522   1.692
 6469SOL     OW20305   4.444   0.452   5.359
 6469SOL    HW120306   4.389   0.375   5.327
 6469SOL    HW220307   4.517   0.471   5.293
 6470SOL     OW20308   5.804   5.699   6.495
 6470SOL    HW120309   5.860   5.655   6.425
 6470SOL    HW220310   5.827   5.661   6.584
 6471SOL     OW20311   6.568   5.971   5.852
 6471SOL    HW120312   6.608   5.911   5.784
 6471SOL    HW220313   6.563   5.923   5.940
 6472SOL     OW20314   0.293   4.612   0.936
 6472SOL    HW120315   0.326   4.525   0.898
 6472SOL    HW220316   0.344   4.687   0.897
 6473SOL     OW20317   2.036   1.932   4.121
 6473SOL    HW120318   1.973   1.854   4.130
 6473SOL    HW220319   2.056   1.968   4.212
 6474SOL     OW20320   2.077   3.362   5.714
 6474SOL    HW120321   2.144   3.433   5.734
 6474SOL    HW220322   2.124   3.275   5.700
 6475SOL     OW20323   6.983   5.433   4.232
 6475SOL    HW120324   6.938   5.516   4.199
 6475SOL    HW220325   0.026   5.400   4.164
 6476SOL     OW20326   4.302   3.532   1.586
 6476SOL    HW120327   4.278   3.445   1.630
 6476SOL    HW220328   4.218   3.577   1.555
 6477SOL     OW20329   6.905   4.655   1.454
 6477SOL    HW120330   6.889   4.584   1.522
 6477SOL    HW220331   6.921   4.613   1.365
 6478SOL     OW20332   3.627   6.155   2.550
 6478SOL    HW120333   3.625   6.059   2.578
 6478SOL    HW220334   3.556   6.172   2.481
 6479SOL     OW20335   3.889   5.611   3.699
 6479SOL    HW120336   3.833   5.560   3.634
 6479SOL    HW220337   3.840   5.620   3.786
 6480SOL     OW20338   3.288   2.373   5.621
 6480SOL    HW120339   3.302   2.323   5.706
 6480SOL    HW220340   3.338   2.329   5.547
 6481SOL     OW20341   3.197   2.098   1.977
 6481SOL    HW120342   3.143   2.118   2.059
 6481SOL    HW220343   3.179   2.167   1.907
 6482SOL     OW20344   0.388   1.124   6.182
 6482SOL    HW120345   0.392   1.097   6.086
 6482SOL    HW220346   0.311   1.186   6.196
 6483SOL     OW20347   2.502   5.633   1.605
 6483SOL    HW120348   2.431   5.588   1.550
 6483SOL    HW220349   2.465   5.717   1.645
 6484SOL     OW20350   3.985   0.476   2.739
 6484SOL    HW120351   4.005   0.555   2.680
 6484SOL    HW220352   3.890   0.481   2.768
 6485SOL     OW20353   2.131   3.750   3.349
 6485SOL    HW120354   2.125   3.730   3.446
 6485SOL    HW220355   2.206   3.813   3.332
 6486SOL     OW20356   1.398   4.591   4.429
 6486SOL    HW120357   1.374   4.580   4.525
 6486SOL    HW220358   1.337   4.658   4.386
 6487SOL     OW20359   6.356   5.834   4.862
 6487SOL    HW120360   6.365   5.753   4.920
 6487SOL    HW220361   6.444   5.882   4.858
 6488SOL     OW20362   3.217   5.721   4.785
 6488SOL    HW120363   3.228   5.783   4.863
 6488SOL    HW220364   3.124   5.727   4.750
 6489SOL     OW20365   2.518   3.571   6.985
 6489SOL    HW120366   2.531   3.648   0.025
 6489SOL    HW220367   2.589   3.503   7.001
 6490SOL     OW20368   4.393   2.475   7.009
 6490SOL    HW120369   4.308   2.451   6.962
 6490SOL    HW220370   4.371   2.517   0.074
 6491SOL     OW20371   4.067   1.485   6.719
 6491SOL    HW120372   3.990   1.486   6.655
 6491SOL    HW220373   4.137   1.421   6.686
 6492SOL     OW20374   5.974   5.826   0.201
 6492SOL    HW120375   5.897   5.887   0.219
 6492SOL    HW220376   5.952   5.767   0.123
 6493SOL     OW20377   1.603   5.931   5.181
 6493SOL    HW120378   1.569   5.974   5.097
 6493SOL    HW220379   1.583   5.991   5.259
 6494SOL     OW20380   0.240   0.905   3.053
 6494SOL    HW120381   0.233   0.929   3.150
 6494SOL    HW220382   0.271   0.810   3.044
 6495SOL     OW20383   5.073   6.377   4.456
 6495SOL    HW120384   5.024   6.349   4.538
 6495SOL    HW220385   5.017   6.439   4.402
 6496SOL     OW20386   0.605   6.868   2.512
 6496SOL    HW120387   0.663   6.816   2.575
 6496SOL    HW220388   0.524   6.813   2.489
 6497SOL     OW20389   2.294   3.411   6.962
 6497SOL    HW120390   2.357   3.489   6.973
 6497SOL    HW220391   2.242   3.399   0.024
 6498SOL     OW20392   2.352   4.251   3.812
 6498SOL    HW120393   2.314   4.267   3.720
 6498SOL    HW220394   2.402   4.332   3.841
 6499SOL     OW20395   5.703   2.352   4.938
 6499SOL    HW120396   5.665   2.260   4.955
 6499SOL    HW220397   5.663   2.416   5.003
 6500SOL     OW20398   0.228   4.921   3.256
 6500SOL    HW120399   0.155   4.874   3.307
 6500SOL    HW220400   0.225   4.891   3.160
 6501SOL     OW20401   6.756   2.198   6.805
 6501SOL    HW120402   6.826   2.220   6.736
 6501SOL    HW220403   6.692   2.131   6.768
 6502SOL     OW20404   6.570   3.834   3.019
 6502SOL    HW120405   6.498   3.765   3.024
 6502SOL    HW220406   6.640   3.805   2.953
 6503SOL     OW20407   5.668   6.789   3.994
 6503SOL    HW120408   5.758   6.745   4.004
 6503SOL    HW220409   5.681   6.885   3.973
 6504SOL     OW20410   5.037   6.611   6.058
 6504SOL    HW120411   5.090   6.542   6.109
 6504SOL    HW220412   5.053   6.701   6.098
 6505SOL     OW20413   5.438   4.626   1.794
 6505SOL    HW120414   5.436   4.542   1.741
 6505SOL    HW220415   5.355   4.633   1.850
 6506SOL     OW20416   6.774   3.601   1.302
 6506SOL    HW120417   6.761   3.677   1.238
 6506SOL    HW220418   6.848   3.623   1.365
 6507SOL     OW20419   1.927   5.486   5.877
 6507SOL    HW120420   1.986   5.566   5.871
 6507SOL    HW220421   1.956   5.417   5.811
 6508SOL     OW20422   2.310   1.794   3.308
 6508SOL    HW120423   2.311   1.831   3.214
 6508SOL    HW220424   2.392   1.739   3.323
 6509SOL     OW20425   2.586   2.538   4.184
 6509SOL    HW120426   2.565   2.567   4.277
 6509SOL    HW220427   2.656   2.467   4.186
 6510SOL     OW20428   0.023   5.328   6.476
 6510SOL    HW120429   0.072   5.402   6.523
 6510SOL    HW220430   0.085   5.281   6.414
 6511SOL     OW20431   5.185   0.891   4.993
 6511SOL    HW120432   5.162   0.876   4.896
 6511SOL    HW220433   5.278   0.925   5.000
 6512SOL     OW20434   5.006   0.514   2.358
 6512SOL    HW120435   5.071   0.547   2.427
 6512SOL    HW220436   5.056   0.480   2.279
 6513SOL     OW20437   3.176   5.366   3.279
 6513SOL    HW120438   3.232   5.373   3.197
 6513SOL    HW220439   3.233   5.342   3.357
 6514SOL     OW20440   5.962   7.010   3.111
 6514SOL    HW120441   6.050   6.992   3.154
 6514SOL    HW220442   5.946   0.087   3.108
 6515SOL     OW20443   0.702   5.314   4.082
 6515SOL    HW120444   0.702   5.267   3.994
 6515SOL    HW220445   0.658   5.403   4.071
 6516SOL     OW20446   0.261   2.794   0.651
 6516SOL    HW120447   0.322   2.872   0.637
 6516SOL    HW220448   0.240   2.751   0.564
 6517SOL     OW20449   6.480   1.265   0.705
 6517SOL    HW120450   6.524   1.268   0.795
 6517SOL    HW220451   6.457   1.358   0.676
 6518SOL     OW20452   0.270   6.545   6.652
 6518SOL    HW120453   0.191   6.585   6.606
 6518SOL    HW220454   0.239   6.488   6.728
 6519SOL     OW20455   2.560   2.287   3.358
 6519SOL    HW120456   2.460   2.284   3.352
 6519SOL    HW220457   2.596   2.337   3.279
 6520SOL     OW20458   6.312   5.780   2.654
 6520SOL    HW120459   6.374   5.846   2.611
 6520SOL    HW220460   6.356   5.689   2.654
 6521SOL     OW20461   1.303   1.628   4.602
 6521SOL    HW120462   1.367   1.615   4.677
 6521SOL    HW220463   1.303   1.724   4.573
 6522SOL     OW20464   3.633   4.354   6.910
 6522SOL    HW120465   3.637   4.337   7.008
 6522SOL    HW220466   3.543   4.331   6.875
 6523SOL     OW20467   3.346   0.971   6.589
 6523SOL    HW120468   3.346   1.060   6.543
 6523SOL    HW220469   3.403   0.977   6.672
 6524SOL     OW20470   3.485   3.035   3.002
 6524SOL    HW120471   3.560   2.977   3.036
 6524SOL    HW220472   3.473   3.021   2.904
 6525SOL     OW20473   2.242   2.754   2.973
 6525SOL    HW120474   2.217   2.835   2.921
 6525SOL    HW220475   2.294   2.781   3.055
 6526SOL     OW20476   1.034   6.613   5.649
 6526SOL    HW120477   0.982   6.640   5.568
 6526SOL    HW220478   0.982   6.545   5.700
 6527SOL     OW20479   0.848   1.669   4.304
 6527SOL    HW120480   0.933   1.656   4.253
 6527SOL    HW220481   0.859   1.745   4.369
 6528SOL     OW20482   6.960   0.385   3.286
 6528SOL    HW120483   0.029   0.347   3.273
 6528SOL    HW220484   6.963   0.485   3.274
 6529SOL     OW20485   6.811   1.638   3.104
 6529SOL    HW120486   6.873   1.677   3.171
 6529SOL    HW220487   6.717   1.649   3.135
 6530SOL     OW20488   6.544   3.947   0.891
 6530SOL    HW120489   6.628   3.893   0.896
 6530SOL    HW220490   6.562   4.041   0.918
 6531SOL     OW20491   5.206   3.636   4.693
 6531SOL    HW120492   5.119   3.684   4.691
 6531SOL    HW220493   5.190   3.540   4.717
 6532SOL     OW20494   6.055   1.110   0.670
 6532SOL    HW120495   6.096   1.042   0.610
 6532SOL    HW220496   6.089   1.097   0.763
 6533SOL     OW20497   5.160   5.764   1.586
 6533SOL    HW120498   5.150   5.783   1.683
 6533SOL    HW220499   5.070   5.763   1.543
 6534SOL     OW20500   2.939   4.565   1.437
 6534SOL    HW120501   2.848   4.524   1.434
 6534SOL    HW220502   2.962   4.589   1.531
 6535SOL     OW20503   6.515   3.078   4.412
 6535SOL    HW120504   6.431   3.044   4.371
 6535SOL    HW220505   6.594   3.040   4.364
 6536SOL     OW20506   6.655   2.323   5.799
 6536SOL    HW120507   6.667   2.245   5.860
 6536SOL    HW220508   6.737   2.380   5.801
 6537SOL     OW20509   6.180   5.597   6.692
 6537SOL    HW120510   6.234   5.549   6.624
 6537SOL    HW220511   6.235   5.610   6.775
 6538SOL     OW20512   3.896   4.351   0.208
 6538SOL    HW120513   3.962   4.278   0.225
 6538SOL    HW220514   3.910   4.424   0.274
 6539SOL     OW20515   3.117   1.173   6.108
 6539SOL    HW120516   3.149   1.174   6.013
 6539SOL    HW220517   3.091   1.080   6.133
 6540SOL     OW20518   4.742   1.761   5.072
 6540SOL    HW120519   4.684   1.741   4.994
 6540SOL    HW220520   4.838   1.766   5.043
 6541SOL     OW20521   4.032   1.888   5.108
 6541SOL    HW120522   4.108   1.823   5.119
 6541SOL    HW220523   4.066   1.972   5.065
 6542SOL     OW20524   0.020   4.814   3.382
 6542SOL    HW120525   7.010   4.899   3.341
 6542SOL    HW220526   6.983   4.790   3.459
 6543SOL     OW20527   6.289   4.082   6.767
 6543SOL    HW120528   6.213   4.139   6.797
 6543SOL    HW220529   6.339   4.049   6.847
 6544SOL     OW20530   0.626   5.935   3.253
 6544SOL    HW120531   0.649   5.999   3.327
 6544SOL    HW220532   0.546   5.881   3.279
 6545SOL     OW20533   5.277   2.255   6.579
 6545SOL    HW120534   5.303   2.336   6.526
 6545SOL    HW220535   5.332   2.252   6.663
 6546SOL     OW20536   4.880   4.413   6.496
 6546SOL    HW120537   4.922   4.488   6.445
 6546SOL    HW220538   4.947   4.373   6.558
 6547SOL     OW20539   4.624   1.756   5.753
 6547SOL    HW120540   4.722   1.744   5.766
 6547SOL    HW220541   4.574   1.717   5.830
 6548SOL     OW20542   1.185   3.406   0.113
 6548SOL    HW120543   1.274   3.436   0.080
 6548SOL    HW220544   1.178   3.424   0.211
 6549SOL     OW20545   3.801   1.256   0.831
 6549SOL    HW120546   3.872   1.282   0.765
 6549SOL    HW220547   3.782   1.333   0.892
 6550SOL     OW20548   6.963   6.322   3.284
 6550SOL    HW120549   6.874   6.362   3.305
 6550SOL    HW220550   0.010   6.394   3.278
 6551SOL     OW20551   1.344   3.977   2.120
 6551SOL    HW120552   1.437   3.953   2.095
 6551SOL    HW220553   1.316   3.922   2.199
 6552SOL     OW20554   2.210   0.251   5.215
 6552SOL    HW120555   2.190   0.242   5.313
 6552SOL    HW220556   2.309   0.254   5.202
 6553SOL     OW20557   0.351   1.665   2.073
 6553SOL    HW120558   0.309   1.751   2.045
 6553SOL    HW220559   0.295   1.622   2.144
 6554SOL     OW20560   5.661   2.015   5.864
 6554SOL    HW120561   5.752   1.976   5.851
 6554SOL    HW220562   5.639   2.075   5.787
 6555SOL     OW20563   1.162   1.659   1.905
 6555SOL    HW120564   1.092   1.589   1.914
 6555SOL    HW220565   1.127   1.734   1.849
 6556SOL     OW20566   4.614   4.740   5.054
 6556SOL    HW120567   4.713   4.756   5.051
 6556SOL    HW220568   4.567   4.825   5.077
 6557SOL     OW20569   5.599   5.480   1.416
 6557SOL    HW120570   5.661   5.539   1.364
 6557SOL    HW220571   5.528   5.536   1.459
 6558SOL     OW20572   6.091   5.732   1.145
 6558SOL    HW120573   6.112   5.638   1.119
 6558SOL    HW220574   6.022   5.769   1.083
 6559SOL     OW20575   6.707   4.127   6.894
 6559SOL    HW120576   6.637   4.135   6.824
 6559SOL    HW220577   6.712   4.032   6.927
 6560SOL     OW20578   3.732   3.058   1.430
 6560SOL    HW120579   3.659   3.072   1.364
 6560SOL    HW220580   3.702   3.087   1.521
 6561SOL     OW20581   3.583   3.674   2.554
 6561SOL    HW120582   3.625   3.611   2.619
 6561SOL    HW220583   3.487   3.689   2.579
 6562SOL     OW20584   5.656   4.626   6.863
 6562SOL    HW120585   5.673   4.721   6.889
 6562SOL    HW220586   5.618   4.623   6.770
 6563SOL     OW20587   0.466   6.564   6.874
 6563SOL    HW120588   0.392   6.587   6.811
 6563SOL    HW220589   0.468   6.630   6.949
 6564SOL     OW20590   0.240   4.060   2.324
 6564SOL    HW120591   0.156   4.106   2.295
 6564SOL    HW220592   0.318   4.108   2.283
 6565SOL     OW20593   6.512   1.844   4.114
 6565SOL    HW120594   6.573   1.864   4.037
 6565SOL    HW220595   6.431   1.903   4.108
 6566SOL     OW20596   3.377   6.993   0.747
 6566SOL    HW120597   3.296   6.959   0.796
 6566SOL    HW220598   3.347   0.016   0.663
 6567SOL     OW20599   3.826   2.227   1.206
 6567SOL    HW120600   3.887   2.228   1.128
 6567SOL    HW220601   3.868   2.176   1.281
 6568SOL     OW20602   5.104   5.362   3.155
 6568SOL    HW120603   5.165   5.298   3.109
 6568SOL    HW220604   5.062   5.422   3.087
 6569SOL     OW20605   3.227   4.096   1.234
 6569SOL    HW120606   3.153   4.151   1.273
 6569SOL    HW220607   3.315   4.142   1.249
 6570SOL     OW20608   4.515   6.550   1.543
 6570SOL    HW120609   4.469   6.638   1.540
 6570SOL    HW220610   4.612   6.563   1.519
 6571SOL     OW20611   2.422   6.372   2.177
 6571SOL    HW120612   2.408   6.297   2.242
 6571SOL    HW220613   2.496   6.431   2.209
 6572SOL     OW20614   6.275   5.186   5.486
 6572SOL    HW120615   6.304   5.110   5.544
 6572SOL    HW220616   6.303   5.273   5.528
 6573SOL     OW20617   2.835   1.386   2.828
 6573SOL    HW120618   2.771   1.323   2.872
 6573SOL    HW220619   2.927   1.371   2.863
 6574SOL     OW20620   2.868   5.842   2.314
 6574SOL    HW120621   2.968   5.846   2.315
 6574SOL    HW220622   2.838   5.768   2.253
 6575SOL     OW20623   1.013   1.858   1.434
 6575SOL    HW120624   1.052   1.787   1.494
 6575SOL    HW220625   1.083   1.888   1.370
 6576SOL     OW20626   1.520   6.742   6.818
 6576SOL    HW120627   1.565   6.751   6.729
 6576SOL    HW220628   1.568   6.797   6.886
 6577SOL     OW20629   0.158   1.499   3.288
 6577SOL    HW120630   0.079   1.477   3.230
 6577SOL    HW220631   0.138   1.582   3.340
 6578SOL     OW20632   0.598   4.405   3.213
 6578SOL    HW120633   0.500   4.417   3.227
 6578SOL    HW220634   0.648   4.469   3.271
 6579SOL     OW20635   0.707   3.854   4.759
 6579SOL    HW120636   0.779   3.858   4.690
 6579SOL    HW220637   0.705   3.940   4.811
 6580SOL     OW20638   6.638   1.206   1.317
 6580SOL    HW120639   6.624   1.273   1.389
 6580SOL    HW220640   6.556   1.200   1.260
 6581SOL     OW20641   3.579   1.492   6.405
 6581SOL    HW120642   3.603   1.416   6.345
 6581SOL    HW220643   3.572   1.458   6.499
 6582SOL     OW20644   1.656   0.626   1.721
 6582SOL    HW120645   1.595   0.706   1.721
 6582SOL    HW220646   1.623   0.559   1.787
 6583SOL     OW20647   4.054   0.878   6.011
 6583SOL    HW120648   4.082   0.940   5.938
 6583SOL    HW220649   3.959   0.851   5.997
 6584SOL     OW20650   5.188   1.631   0.120
 6584SOL    HW120651   5.144   1.609   0.207
 6584SOL    HW220652   5.121   1.669   0.057
 6585SOL     OW20653   6.376   1.291   0.339
 6585SOL    HW120654   6.362   1.375   0.392
 6585SOL    HW220655   6.337   1.302   0.248
 6586SOL     OW20656   5.856   2.570   5.816
 6586SOL    HW120657   5.837   2.478   5.852
 6586SOL    HW220658   5.943   2.603   5.853
 6587SOL     OW20659   3.197   5.251   4.137
 6587SOL    HW120660   3.191   5.216   4.231
 6587SOL    HW220661   3.261   5.328   4.134
 6588SOL     OW20662   1.507   3.984   1.441
 6588SOL    HW120663   1.585   4.028   1.397
 6588SOL    HW220664   1.425   4.040   1.426
 6589SOL     OW20665   4.483   0.469   6.506
 6589SOL    HW120666   4.398   0.431   6.471
 6589SOL    HW220667   4.508   0.550   6.452
 6590SOL     OW20668   1.007   1.604   6.114
 6590SOL    HW120669   1.004   1.690   6.064
 6590SOL    HW220670   0.914   1.574   6.135
 6591SOL     OW20671   5.223   6.202   2.045
 6591SOL    HW120672   5.251   6.108   2.022
 6591SOL    HW220673   5.268   6.230   2.130
 6592SOL     OW20674   5.684   6.836   4.281
 6592SOL    HW120675   5.653   6.802   4.192
 6592SOL    HW220676   5.674   6.765   4.350
 6593SOL     OW20677   2.172   2.477   3.498
 6593SOL    HW120678   2.213   2.411   3.435
 6593SOL    HW220679   2.204   2.459   3.591
 6594SOL     OW20680   4.096   1.538   0.921
 6594SOL    HW120681   4.130   1.448   0.947
 6594SOL    HW220682   4.035   1.529   0.842
 6595SOL     OW20683   0.217   3.416   0.503
 6595SOL    HW120684   0.142   3.354   0.479
 6595SOL    HW220685   0.187   3.511   0.491
 6596SOL     OW20686   3.608   6.932   4.785
 6596SOL    HW120687   3.697   6.909   4.745
 6596SOL    HW220688   3.578   7.021   4.751
 6597SOL     OW20689   1.390   6.301   3.166
 6597SOL    HW120690   1.365   6.205   3.176
 6597SOL    HW220691   1.319   6.349   3.114
 6598SOL     OW20692   1.245   6.627   4.545
 6598SOL    HW120693   1.217   6.561   4.614
 6598SOL    HW220694   1.191   6.614   4.462
 6599SOL     OW20695   3.638   5.071   5.406
 6599SOL    HW120696   3.606   5.135   5.476
 6599SOL    HW220697   3.735   5.089   5.387
 6600SOL     OW20698   4.934   5.247   5.840
 6600SOL    HW120699   5.000   5.317   5.815
 6600SOL    HW220700   4.950   5.165   5.785
 6601SOL     OW20701   0.752   1.141   0.489
 6601SOL    HW120702   0.840   1.122   0.532
 6601SOL    HW220703   0.720   1.059   0.441
 6602SOL     OW20704   6.213   1.504   1.744
 6602SOL    HW120705   6.260   1.420   1.770
 6602SOL    HW220706   6.246   1.535   1.655
 6603SOL     OW20707   1.040   2.650   4.371
 6603SOL    HW120708   1.066   2.745   4.352
 6603SOL    HW220709   1.122   2.596   4.390
 6604SOL     OW20710   2.678   6.112   1.548
 6604SOL    HW120711   2.654   6.030   1.495
 6604SOL    HW220712   2.654   6.193   1.495
 6605SOL     OW20713   5.250   4.987   0.680
 6605SOL    HW120714   5.240   4.910   0.743
 6605SOL    HW220715   5.160   5.022   0.655
 6606SOL     OW20716   4.960   0.075   1.966
 6606SOL    HW120717   5.035   0.021   2.005
 6606SOL    HW220718   4.876   0.057   2.017
 6607SOL     OW20719   1.688   2.304   1.249
 6607SOL    HW120720   1.721   2.367   1.319
 6607SOL    HW220721   1.757   2.294   1.177
 6608SOL     OW20722   5.016   4.981   1.712
 6608SOL    HW120723   4.999   4.926   1.793
 6608SOL    HW220724   4.966   4.944   1.634
 6609SOL     OW20725   4.519   0.984   6.165
 6609SOL    HW120726   4.430   0.941   6.179
 6609SOL    HW220727   4.558   1.010   6.253
 6610SOL     OW20728   2.286   0.651   6.472
 6610SOL    HW120729   2.217   0.720   6.451
 6610SOL    HW220730   2.372   0.675   6.427
 6611SOL     OW20731   6.647   2.539   3.229
 6611SOL    HW120732   6.732   2.490   3.246
 6611SOL    HW220733   6.598   2.497   3.153
 6612SOL     OW20734   0.456   2.953   6.805
 6612SOL    HW120735   0.360   2.956   6.830
 6612SOL    HW220736   0.507   3.021   6.858
 6613SOL     OW20737   5.634   5.972   3.988
 6613SOL    HW120738   5.724   5.995   4.025
 6613SOL    HW220739   5.599   5.890   4.032
 6614SOL     OW20740   5.057   6.096   6.908
 6614SOL    HW120741   5.136   6.140   6.866
 6614SOL    HW220742   5.035   6.013   6.857
 6615SOL     OW20743   1.059   4.328   4.221
 6615SOL    HW120744   1.159   4.322   4.224
 6615SOL    HW220745   1.033   4.409   4.169
 6616SOL     OW20746   4.265   1.175   6.256
 6616SOL    HW120747   4.324   1.111   6.305
 6616SOL    HW220748   4.187   1.200   6.314
 6617SOL     OW20749   2.961   6.164   3.191
 6617SOL    HW120750   2.977   6.206   3.102
 6617SOL    HW220751   3.043   6.176   3.248
 6618SOL     OW20752   1.326   3.277   2.869
 6618SOL    HW120753   1.326   3.308   2.964
 6618SOL    HW220754   1.359   3.350   2.809
 6619SOL     OW20755   6.660   0.001   4.904
 6619SOL    HW120756   6.695   6.989   4.817
 6619SOL    HW220757   6.737   0.027   4.963
 6620SOL     OW20758   2.029   2.858   5.420
 6620SOL    HW120759   2.016   2.793   5.345
 6620SOL    HW220760   2.067   2.943   5.385
 6621SOL     OW20761   2.534   3.146   6.975
 6621SOL    HW120762   2.628   3.176   6.960
 6621SOL    HW220763   2.498   3.193   0.034
 6622SOL     OW20764   6.084   6.421   1.661
 6622SOL    HW120765   5.994   6.453   1.691
 6622SOL    HW220766   6.099   6.328   1.695
 6623SOL     OW20767   2.930   3.534   1.108
 6623SOL    HW120768   2.947   3.617   1.055
 6623SOL    HW220769   2.995   3.530   1.185
 6624SOL     OW20770   1.709   0.568   3.988
 6624SOL    HW120771   1.679   0.623   3.911
 6624SOL    HW220772   1.665   0.478   3.984
 6625SOL     OW20773   5.274   1.858   6.144
 6625SOL    HW120774   5.292   1.764   6.113
 6625SOL    HW220775   5.316   1.872   6.234
 6626SOL     OW20776   4.004   4.847   3.888
 6626SOL    HW120777   4.079   4.781   3.878
 6626SOL    HW220778   4.031   4.934   3.847
 6627SOL     OW20779   2.600   0.556   5.734
 6627SOL    HW120780   2.632   0.465   5.708
 6627SOL    HW220781   2.676   0.621   5.727
 6628SOL     OW20782   4.585   4.978   3.905
 6628SOL    HW120783   4.683   4.965   3.920
 6628SOL    HW220784   4.571   5.044   3.831
 6629SOL     OW20785   2.841   5.878   0.037
 6629SOL    HW120786   2.921   5.891   7.000
 6629SOL    HW220787   2.778   5.955   0.026
 6630SOL     OW20788   3.709   1.340   1.280
 6630SOL    HW120789   3.789   1.392   1.310
 6630SOL    HW220790   3.711   1.249   1.322
 6631SOL     OW20791   4.033   0.654   2.308
 6631SOL    HW120792   4.019   0.560   2.279
 6631SOL    HW220793   4.059   0.710   2.229
 6632SOL     OW20794   0.505   0.634   2.099
 6632SOL    HW120795   0.600   0.627   2.069
 6632SOL    HW220796   0.491   0.721   2.147
 6633SOL     OW20797   1.409   5.019   5.883
 6633SOL    HW120798   1.443   5.034   5.790
 6633SOL    HW220799   1.453   5.082   5.946
 6634SOL     OW20800   5.546   3.416   5.318
 6634SOL    HW120801   5.602   3.476   5.261
 6634SOL    HW220802   5.569   3.431   5.414
 6635SOL     OW20803   4.089   5.291   3.337
 6635SOL    HW120804   4.016   5.359   3.344
 6635SOL    HW220805   4.075   5.221   3.408
 6636SOL     OW20806   3.347   1.990   6.303
 6636SOL    HW120807   3.435   2.033   6.321
 6636SOL    HW220808   3.276   2.033   6.358
 6637SOL     OW20809   1.643   0.128   6.350
 6637SOL    HW120810   1.599   0.148   6.438
 6637SOL    HW220811   1.742   0.140   6.359
 6638SOL     OW20812   4.009   4.816   5.141
 6638SOL    HW120813   3.948   4.891   5.115
 6638SOL    HW220814   3.982   4.780   5.230
 6639SOL     OW20815   5.836   6.201   6.956
 6639SOL    HW120816   5.756   6.243   6.911
 6639SOL    HW220817   5.877   6.267   7.019
 6640SOL     OW20818   6.650   2.097   5.474
 6640SOL    HW120819   6.715   2.021   5.475
 6640SOL    HW220820   6.693   2.178   5.512
 6641SOL     OW20821   2.314   2.309   0.026
 6641SOL    HW120822   2.276   2.401   0.017
 6641SOL    HW220823   2.331   2.290   0.123
 6642SOL     OW20824   2.665   5.620   0.446
 6642SOL    HW120825   2.754   5.604   0.404
 6642SOL    HW220826   2.677   5.652   0.540
 6643SOL     OW20827   6.506   4.724   6.579
 6643SOL    HW120828   6.421   4.724   6.527
 6643SOL    HW220829   6.511   4.642   6.636
 6644SOL     OW20830   2.890   4.807   1.814
 6644SOL    HW120831   2.936   4.758   1.740
 6644SOL    HW220832   2.840   4.742   1.871
 6645SOL     OW20833   6.937   5.203   0.018
 6645SOL    HW120834   6.864   5.238   0.077
 6645SOL    HW220835   7.007   5.274   0.007
 6646SOL     OW20836   3.872   6.407   4.307
 6646SOL    HW120837   3.894   6.470   4.233
 6646SOL    HW220838   3.805   6.449   4.368
 6647SOL     OW20839   3.516   1.444   2.222
 6647SOL    HW120840   3.423   1.417   2.197
 6647SOL    HW220841   3.527   1.542   2.207
 6648SOL     OW20842   3.185   5.917   2.232
 6648SOL    HW120843   3.257   5.986   2.230
 6648SOL    HW220844   3.150   5.903   2.139
 6649SOL     OW20845   4.983   1.747   6.942
 6649SOL    HW120846   4.940   1.657   6.931
 6649SOL    HW220847   5.055   1.757   6.874
 6650SOL     OW20848   4.327   1.137   5.499
 6650SOL    HW120849   4.233   1.140   5.531
 6650SOL    HW220850   4.355   1.042   5.487
 6651SOL     OW20851   1.809   1.713   6.243
 6651SOL    HW120852   1.812   1.806   6.208
 6651SOL    HW220853   1.716   1.677   6.233
 6652SOL     OW20854   6.816   5.008   0.466
 6652SOL    HW120855   6.828   5.057   0.552
 6652SOL    HW220856   6.723   5.024   0.432
 6653SOL     OW20857   3.730   3.245   2.975
 6653SOL    HW120858   3.779   3.304   3.040
 6653SOL    HW220859   3.632   3.255   2.989
 6654SOL     OW20860   1.944   3.216   1.086
 6654SOL    HW120861   1.844   3.209   1.078
 6654SOL    HW220862   1.985   3.125   1.075
 6655SOL     OW20863   2.947   6.968   1.493
 6655SOL    HW120864   3.039   6.929   1.505
 6655SOL    HW220865   2.907   6.933   1.408
 6656SOL     OW20866   5.895   1.463   2.568
 6656SOL    HW120867   5.826   1.524   2.529
 6656SOL    HW220868   5.930   1.502   2.653
 6657SOL     OW20869   4.899   6.399   6.447
 6657SOL    HW120870   4.850   6.339   6.384
 6657SOL    HW220871   4.955   6.344   6.509
 6658SOL     OW20872   6.065   1.582   4.622
 6658SOL    HW120873   6.154   1.586   4.669
 6658SOL    HW220874   6.053   1.491   4.582
 6659SOL     OW20875   2.608   2.097   0.629
 6659SOL    HW120876   2.585   2.181   0.581
 6659SOL    HW220877   2.575   2.018   0.577
 6660SOL     OW20878   6.970   6.024   0.690
 6660SOL    HW120879   6.975   6.064   0.598
 6660SOL    HW220880   6.895   6.067   0.740
 6661SOL     OW20881   0.416   5.941   3.851
 6661SOL    HW120882   0.480   5.956   3.927
 6661SOL    HW220883   0.419   5.844   3.825
 6662SOL     OW20884   1.259   0.440   6.810
 6662SOL    HW120885   1.208   0.522   6.783
 6662SOL    HW220886   1.260   0.433   6.909
 6663SOL     OW20887   6.909   5.501   3.084
 6663SOL    HW120888   6.948   5.593   3.078
 6663SOL    HW220889   6.969   5.437   3.036
 6664SOL     OW20890   1.705   6.883   1.129
 6664SOL    HW120891   1.652   6.819   1.073
 6664SOL    HW220892   1.662   6.892   1.219
 6665SOL     OW20893   2.376   0.601   2.735
 6665SOL    HW120894   2.327   0.514   2.727
 6665SOL    HW220895   2.364   0.653   2.651
 6666SOL     OW20896   5.481   1.394   5.987
 6666SOL    HW120897   5.543   1.419   5.912
 6666SOL    HW220898   5.534   1.350   6.060
 6667SOL     OW20899   6.996   5.731   5.176
 6667SOL    HW120900   6.955   5.656   5.125
 6667SOL    HW220901   0.072   5.714   5.189
 6668SOL     OW20902   6.396   5.898   1.779
 6668SOL    HW120903   6.466   5.839   1.740
 6668SOL    HW220904   6.437   5.983   1.811
 6669SOL     OW20905   2.137   3.040   4.051
 6669SOL    HW120906   2.054   3.045   3.996
 6669SOL    HW220907   2.199   3.114   4.025
 6670SOL     OW20908   3.585   3.090   6.047
 6670SOL    HW120909   3.516   3.083   6.119
 6670SOL    HW220910   3.668   3.043   6.075
 6671SOL     OW20911   5.179   5.521   1.175
 6671SOL    HW120912   5.181   5.560   1.083
 6671SOL    HW220913   5.258   5.554   1.227
 6672SOL     OW20914   1.132   1.859   4.888
 6672SOL    HW120915   1.093   1.946   4.920
 6672SOL    HW220916   1.199   1.826   4.954
 6673SOL     OW20917   4.692   6.210   3.285
 6673SOL    HW120918   4.642   6.235   3.202
 6673SOL    HW220919   4.784   6.182   3.262
 6674SOL     OW20920   0.858   5.059   6.821
 6674SOL    HW120921   0.914   5.040   6.740
 6674SOL    HW220922   0.799   5.137   6.803
 6675SOL     OW20923   4.412   3.944   1.693
 6675SOL    HW120924   4.404   3.971   1.597
 6675SOL    HW220925   4.409   4.026   1.751
 6676SOL     OW20926   0.547   4.099   5.811
 6676SOL    HW120927   0.644   4.122   5.812
 6676SOL    HW220928   0.499   4.162   5.750
 6677SOL     OW20929   0.497   2.772   0.060
 6677SOL    HW120930   0.450   2.691   0.024
 6677SOL    HW220931   0.579   2.790   0.004
 6678SOL     OW20932   1.970   2.399   0.252
 6678SOL    HW120933   2.048   2.441   0.299
 6678SOL    HW220934   1.975   2.300   0.262
 6679SOL     OW20935   2.702   1.701   4.075
 6679SOL    HW120936   2.621   1.702   4.134
 6679SOL    HW220937   2.784   1.684   4.131
 6680SOL     OW20938   4.094   6.387   6.408
 6680SOL    HW120939   4.112   6.320   6.336
 6680SOL    HW220940   4.180   6.413   6.452
 6681SOL     OW20941   4.989   4.913   0.197
 6681SOL    HW120942   5.038   4.827   0.214
 6681SOL    HW220943   4.891   4.895   0.191
 6682SOL     OW20944   0.825   3.996   2.450
 6682SOL    HW120945   0.773   4.005   2.365
 6682SOL    HW220946   0.919   3.969   2.430
 6683SOL     OW20947   5.008   2.601   5.592
 6683SOL    HW120948   4.964   2.639   5.511
 6683SOL    HW220949   4.989   2.504   5.599
 6684SOL     OW20950   2.018   6.735   0.471
 6684SOL    HW120951   2.011   6.660   0.537
 6684SOL    HW220952   2.101   6.788   0.489
 6685SOL     OW20953   5.323   2.531   5.234
 6685SOL    HW120954   5.417   2.509   5.207
 6685SOL    HW220955   5.307   2.629   5.220
 6686SOL     OW20956   4.994   5.663   3.772
 6686SOL    HW120957   4.898   5.638   3.758
 6686SOL    HW220958   5.052   5.604   3.716
 6687SOL     OW20959   6.971   1.791   1.208
 6687SOL    HW120960   6.876   1.763   1.220
 6687SOL    HW220961   7.019   1.723   1.153
 6688SOL     OW20962   0.150   4.132   1.788
 6688SOL    HW120963   0.186   4.185   1.865
 6688SOL    HW220964   0.105   4.050   1.823
 6689SOL     OW20965   3.976   3.230   0.437
 6689SOL    HW120966   4.069   3.267   0.434
 6689SOL    HW220967   3.911   3.305   0.449
 6690SOL     OW20968   2.644   0.756   2.197
 6690SOL    HW120969   2.563   0.729   2.248
 6690SOL    HW220970   2.714   0.685   2.207
 6691SOL     OW20971   3.118   5.830   1.968
 6691SOL    HW120972   3.061   5.847   1.888
 6691SOL    HW220973   3.141   5.732   1.972
 6692SOL     OW20974   2.719   4.716   5.249
 6692SOL    HW120975   2.704   4.665   5.334
 6692SOL    HW220976   2.782   4.664   5.191
 6693SOL     OW20977   4.780   3.621   5.854
 6693SOL    HW120978   4.772   3.616   5.755
 6693SOL    HW220979   4.694   3.591   5.896
 6694SOL     OW20980   4.690   6.443   0.123
 6694SOL    HW120981   4.643   6.452   0.035
 6694SOL    HW220982   4.622   6.445   0.197
 6695SOL     OW20983   1.666   1.959   5.826
 6695SOL    HW120984   1.745   2.006   5.864
 6695SOL    HW220985   1.618   2.021   5.764
 6696SOL     OW20986   1.430   2.141   0.300
 6696SOL    HW120987   1.404   2.114   0.393
 6696SOL    HW220988   1.525   2.114   0.284
 6697SOL     OW20989   4.426   2.492   3.768
 6697SOL    HW120990   4.358   2.437   3.720
 6697SOL    HW220991   4.512   2.490   3.716
 6698SOL     OW20992   3.058   2.942   0.568
 6698SOL    HW120993   3.012   2.904   0.487
 6698SOL    HW220994   3.031   2.890   0.649
 6699SOL     OW20995   3.405   4.908   0.139
 6699SOL    HW120996   3.501   4.878   0.137
 6699SOL    HW220997   3.345   4.829   0.149
 6700SOL     OW20998   0.077   6.173   1.111
 6700SOL    HW120999   0.079   6.221   1.024
 6700SOL    HW221000   0.120   6.083   1.100
 6701SOL     OW21001   5.790   2.977   1.385
 6701SOL    HW121002   5.808   3.032   1.467
 6701SOL    HW221003   5.744   2.892   1.411
 6702SOL     OW21004   2.519   2.361   0.600
 6702SOL    HW121005   2.543   2.393   0.509
 6702SOL    HW221006   2.542   2.431   0.668
 6703SOL     OW21007   6.487   1.664   6.918
 6703SOL    HW121008   6.554   1.676   6.845
 6703SOL    HW221009   6.522   1.599   6.986
 6704SOL     OW21010   4.360   2.301   3.008
 6704SOL    HW121011   4.262   2.281   3.019
 6704SOL    HW221012   4.392   2.354   3.087
 6705SOL     OW21013   0.012   1.739   2.028
 6705SOL    HW121014   0.075   1.812   2.054
 6705SOL    HW221015   7.010   1.749   1.932
 6706SOL     OW21016   1.244   4.077   0.703
 6706SOL    HW121017   1.155   4.114   0.676
 6706SOL    HW221018   1.233   4.023   0.786
 6707SOL     OW21019   0.057   5.260   4.751
 6707SOL    HW121020   0.031   5.313   4.831
 6707SOL    HW221021   7.011   5.190   4.733
 6708SOL     OW21022   1.763   5.438   2.784
 6708SOL    HW121023   1.811   5.358   2.747
 6708SOL    HW221024   1.829   5.499   2.827
 6709SOL     OW21025   2.862   5.540   1.831
 6709SOL    HW121026   2.844   5.538   1.733
 6709SOL    HW221027   2.921   5.463   1.856
 6710SOL     OW21028   2.754   1.869   5.929
 6710SOL    HW121029   2.706   1.872   5.842
 6710SOL    HW221030   2.820   1.945   5.932
 6711SOL     OW21031   5.980   4.717   6.538
 6711SOL    HW121032   6.078   4.723   6.522
 6711SOL    HW221033   5.936   4.676   6.458
 6712SOL     OW21034   4.295   5.410   7.000
 6712SOL    HW121035   4.358   5.337   6.973
 6712SOL    HW221036   4.310   5.490   6.942
 6713SOL     OW21037   2.102   1.785   1.179
 6713SOL    HW121038   2.059   1.873   1.200
 6713SOL    HW221039   2.196   1.801   1.148
 6714SOL     OW21040   5.292   0.512   5.587
 6714SOL    HW121041   5.369   0.481   5.531
 6714SOL    HW221042   5.323   0.527   5.681
 6715SOL     OW21043   0.287   0.855   6.978
 6715SOL    HW121044   0.322   0.765   7.006
 6715SOL    HW221045   0.206   0.877   0.009
 6716SOL     OW21046   0.975   6.226   2.185
 6716SOL    HW121047   0.906   6.228   2.113
 6716SOL    HW221048   0.961   6.146   2.243
 6717SOL     OW21049   4.470   2.861   0.873
 6717SOL    HW121050   4.554   2.841   0.924
 6717SOL    HW221051   4.391   2.843   0.931
 6718SOL     OW21052   3.843   6.315   6.343
 6718SOL    HW121053   3.762   6.337   6.397
 6718SOL    HW221054   3.923   6.360   6.383
 6719SOL     OW21055   0.085   0.448   6.253
 6719SOL    HW121056   0.139   0.386   6.197
 6719SOL    HW221057   0.145   0.517   6.293
 6720SOL     OW21058   1.835   6.211   2.265
 6720SOL    HW121059   1.817   6.280   2.335
 6720SOL    HW221060   1.919   6.161   2.288
 6721SOL     OW21061   6.376   6.794   4.822
 6721SOL    HW121062   6.348   6.773   4.915
 6721SOL    HW221063   6.303   6.845   4.776
 6722SOL     OW21064   5.126   3.326   0.984
 6722SOL    HW121065   5.194   3.353   1.053
 6722SOL    HW221066   5.036   3.320   1.027
 6723SOL     OW21067   2.384   6.956   3.368
 6723SOL    HW121068   2.328   6.905   3.302
 6723SOL    HW221069   2.355   0.029   3.368
 6724SOL     OW21070   1.199   3.826   5.944
 6724SOL    HW121071   1.276   3.889   5.955
 6724SOL    HW221072   1.143   3.856   5.867
 6725SOL     OW21073   0.822   4.139   1.822
 6725SOL    HW121074   0.883   4.151   1.744
 6725SOL    HW221075   0.874   4.109   1.902
 6726SOL     OW21076   1.123   2.041   3.936
 6726SOL    HW121077   1.126   2.070   3.840
 6726SOL    HW221078   1.035   1.998   3.955
 6727SOL     OW21079   5.859   3.838   5.598
 6727SOL    HW121080   5.790   3.907   5.619
 6727SOL    HW221081   5.831   3.786   5.518
 6728SOL     OW21082   4.600   1.249   4.577
 6728SOL    HW121083   4.646   1.259   4.665
 6728SOL    HW221084   4.569   1.339   4.546
 6729SOL     OW21085   6.320   1.690   2.261
 6729SOL    HW121086   6.245   1.649   2.313
 6729SOL    HW221087   6.312   1.789   2.263
 6730SOL     OW21088   2.071   6.528   6.698
 6730SOL    HW121089   2.070   6.607   6.637
 6730SOL    HW221090   2.080   6.560   6.793
 6731SOL     OW21091   2.381   4.558   1.105
 6731SOL    HW121092   2.400   4.656   1.100
 6731SOL    HW221093   2.467   4.508   1.116
 6732SOL     OW21094   3.725   5.669   6.676
 6732SOL    HW121095   3.770   5.655   6.587
 6732SOL    HW221096   3.688   5.582   6.708
 6733SOL     OW21097   4.184   5.367   6.396
 6733SOL    HW121098   4.221   5.359   6.488
 6733SOL    HW221099   4.227   5.443   6.349
 6734SOL     OW21100   0.783   3.321   6.040
 6734SOL    HW121101   0.736   3.409   6.053
 6734SOL    HW221102   0.780   3.297   5.943
 6735SOL     OW21103   0.344   5.430   5.361
 6735SOL    HW121104   0.287   5.442   5.280
 6735SOL    HW221105   0.433   5.473   5.346
 6736SOL     OW21106   1.881   3.589   0.514
 6736SOL    HW121107   1.855   3.685   0.522
 6736SOL    HW221108   1.891   3.565   0.417
 6737SOL     OW21109   1.934   2.281   1.085
 6737SOL    HW121110   1.975   2.304   0.997
 6737SOL    HW221111   1.992   2.314   1.159
 6738SOL     OW21112   1.753   2.800   1.928
 6738SOL    HW121113   1.764   2.705   1.901
 6738SOL    HW221114   1.833   2.853   1.898
 6739SOL     OW21115   3.104   5.568   5.893
 6739SOL    HW121116   3.193   5.527   5.874
 6739SOL    HW221117   3.066   5.604   5.808
 6740SOL     OW21118   2.051   1.503   4.520
 6740SOL    HW121119   2.123   1.474   4.583
 6740SOL    HW221120   1.965   1.459   4.547
 6741SOL     OW21121   4.729   1.670   6.112
 6741SOL    HW121122   4.789   1.730   6.059
 6741SOL    HW221123   4.678   1.725   6.179
 6742SOL     OW21124   0.288   5.772   3.622
 6742SOL    HW121125   0.375   5.768   3.573
 6742SOL    HW221126   0.214   5.747   3.559
 6743SOL     OW21127   4.249   4.082   6.610
 6743SOL    HW121128   4.233   4.165   6.662
 6743SOL    HW221129   4.310   4.102   6.533
 6744SOL     OW21130   4.245   5.750   6.048
 6744SOL    HW121131   4.259   5.834   5.997
 6744SOL    HW221132   4.148   5.742   6.073
 6745SOL     OW21133   1.139   5.492   2.689
 6745SOL    HW121134   1.220   5.540   2.724
 6745SOL    HW221135   1.079   5.468   2.765
 6746SOL     OW21136   0.419   0.541   2.511
 6746SOL    HW121137   0.325   0.574   2.511
 6746SOL    HW221138   0.478   0.609   2.556
 6747SOL     OW21139   5.652   6.119   4.647
 6747SOL    HW121140   5.630   6.156   4.737
 6747SOL    HW221141   5.623   6.023   4.643
 6748SOL     OW21142   1.003   0.740   2.672
 6748SOL    HW121143   0.975   0.835   2.690
 6748SOL    HW221144   1.033   0.698   2.758
 6749SOL     OW21145   2.950   6.783   6.802
 6749SOL    HW121146   2.959   6.853   6.873
 6749SOL    HW221147   2.866   6.731   6.819
 6750SOL     OW21148   3.852   1.634   4.810
 6750SOL    HW121149   3.872   1.617   4.906
 6750SOL    HW221150   3.769   1.584   4.784
 6751SOL     OW21151   3.427   2.115   3.654
 6751SOL    HW121152   3.341   2.164   3.639
 6751SOL    HW221153   3.413   2.045   3.724
 6752SOL     OW21154   6.372   2.942   1.775
 6752SOL    HW121155   6.278   2.940   1.809
 6752SOL    HW221156   6.376   2.898   1.685
 6753SOL     OW21157   4.518   1.798   6.893
 6753SOL    HW121158   4.438   1.762   6.941
 6753SOL    HW221159   4.491   1.835   6.804
 6754SOL     OW21160   6.617   2.088   5.940
 6754SOL    HW121161   6.655   2.024   5.874
 6754SOL    HW221162   6.627   2.050   6.032
 6755SOL     OW21163   4.896   1.826   3.882
 6755SOL    HW121164   4.813   1.867   3.920
 6755SOL    HW221165   4.871   1.765   3.806
 6756SOL     OW21166   4.648   4.259   4.142
 6756SOL    HW121167   4.708   4.183   4.164
 6756SOL    HW221168   4.637   4.318   4.222
 6757SOL     OW21169   4.940   6.040   0.632
 6757SOL    HW121170   4.870   6.111   0.638
 6757SOL    HW221171   4.991   6.050   0.547
 6758SOL     OW21172   4.890   3.469   2.036
 6758SOL    HW121173   4.945   3.512   1.964
 6758SOL    HW221174   4.838   3.393   1.997
 6759SOL     OW21175   1.090   4.151   3.985
 6759SOL    HW121176   1.041   4.237   4.002
 6759SOL    HW221177   1.185   4.161   4.015
 6760SOL     OW21178   0.104   4.888   4.735
 6760SOL    HW121179   0.025   4.886   4.796
 6760SOL    HW221180   0.185   4.858   4.784
 6761SOL     OW21181   5.606   2.664   5.960
 6761SOL    HW121182   5.704   2.641   5.956
 6761SOL    HW221183   5.596   2.763   5.972
 6762SOL     OW21184   6.654   5.497   3.057
 6762SOL    HW121185   6.621   5.405   3.078
 6762SOL    HW221186   6.754   5.499   3.065
 6763SOL     OW21187   6.421   5.756   4.065
 6763SOL    HW121188   6.460   5.680   4.117
 6763SOL    HW221189   6.329   5.731   4.035
 6764SOL     OW21190   3.281   3.954   5.898
 6764SOL    HW121191   3.349   4.024   5.876
 6764SOL    HW221192   3.328   3.868   5.919
 6765SOL     OW21193   6.338   4.954   3.623
 6765SOL    HW121194   6.282   4.873   3.604
 6765SOL    HW221195   6.435   4.930   3.613
 6766SOL     OW21196   2.457   0.320   5.863
 6766SOL    HW121197   2.416   0.376   5.790
 6766SOL    HW221198   2.457   0.224   5.834
 6767SOL     OW21199   0.483   2.565   0.425
 6767SOL    HW121200   0.388   2.588   0.447
 6767SOL    HW221201   0.488   2.469   0.397
 6768SOL     OW21202   0.552   0.506   3.276
 6768SOL    HW121203   0.569   0.578   3.208
 6768SOL    HW221204   0.638   0.480   3.319
 6769SOL     OW21205   3.220   1.810   5.334
 6769SOL    HW121206   3.165   1.728   5.320
 6769SOL    HW221207   3.188   1.883   5.275
 6770SOL     OW21208   0.344   2.876   4.205
 6770SOL    HW121209   0.290   2.960   4.196
 6770SOL    HW221210   0.371   2.844   4.114
 6771SOL     OW21211   3.821   1.963   3.118
 6771SOL    HW121212   3.762   1.910   3.057
 6771SOL    HW221213   3.765   2.010   3.186
 6772SOL     OW21214   5.191   1.842   2.606
 6772SOL    HW121215   5.261   1.895   2.557
 6772SOL    HW221216   5.106   1.894   2.609
 6773SOL     OW21217   6.769   6.394   1.582
 6773SOL    HW121218   6.850   6.412   1.527
 6773SOL    HW221219   6.706   6.471   1.574
 6774SOL     OW21220   1.895   1.769   5.411
 6774SOL    HW121221   1.972   1.787   5.349
 6774SOL    HW221222   1.892   1.672   5.435
 6775SOL     OW21223   1.037   1.631   3.790
 6775SOL    HW121224   1.108   1.701   3.780
 6775SOL    HW221225   0.996   1.612   3.701
 6776SOL     OW21226   3.776   4.011   0.958
 6776SOL    HW121227   3.688   3.964   0.953
 6776SOL    HW221228   3.804   4.018   1.054
 6777SOL     OW21229   4.418   5.675   1.192
 6777SOL    HW121230   4.334   5.624   1.173
 6777SOL    HW221231   4.497   5.622   1.160
 6778SOL     OW21232   5.381   3.159   2.511
 6778SOL    HW121233   5.457   3.155   2.576
 6778SOL    HW221234   5.402   3.104   2.431
 6779SOL     OW21235   6.057   3.994   5.677
 6779SOL    HW121236   6.037   3.997   5.775
 6779SOL    HW221237   6.035   3.903   5.642
 6780SOL     OW21238   2.340   2.765   3.233
 6780SOL    HW121239   2.287   2.848   3.251
 6780SOL    HW221240   2.366   2.722   3.319
 6781SOL     OW21241   6.344   1.269   4.263
 6781SOL    HW121242   6.249   1.269   4.230
 6781SOL    HW221243   6.344   1.263   4.363
 6782SOL     OW21244   6.972   1.399   3.105
 6782SOL    HW121245   6.948   1.318   3.052
 6782SOL    HW221246   6.897   1.465   3.101
 6783SOL     OW21247   1.166   4.753   5.539
 6783SOL    HW121248   1.092   4.711   5.591
 6783SOL    HW221249   1.236   4.684   5.520
 6784SOL     OW21250   2.268   3.203   1.689
 6784SOL    HW121251   2.217   3.184   1.773
 6784SOL    HW221252   2.313   3.292   1.697
 6785SOL     OW21253   5.687   4.822   4.998
 6785SOL    HW121254   5.770   4.805   4.945
 6785SOL    HW221255   5.675   4.749   5.066
 6786SOL     OW21256   6.166   2.978   0.779
 6786SOL    HW121257   6.151   2.880   0.764
 6786SOL    HW221258   6.200   3.020   0.695
 6787SOL     OW21259   3.524   2.276   0.470
 6787SOL    HW121260   3.533   2.230   0.382
 6787SOL    HW221261   3.536   2.210   0.544
 6788SOL     OW21262   0.676   3.773   3.211
 6788SOL    HW121263   0.631   3.685   3.222
 6788SOL    HW221264   0.775   3.761   3.217
 6789SOL     OW21265   6.849   4.060   4.160
 6789SOL    HW121266   6.809   4.150   4.142
 6789SOL    HW221267   6.848   4.005   4.077
 6790SOL     OW21268   0.796   5.032   6.372
 6790SOL    HW121269   0.696   5.030   6.376
 6790SOL    HW221270   0.828   4.966   6.304
 6791SOL     OW21271   4.197   1.555   4.187
 6791SOL    HW121272   4.248   1.639   4.208
 6791SOL    HW221273   4.183   1.548   4.088
 6792SOL     OW21274   4.305   0.247   5.240
 6792SOL    HW121275   4.242   0.267   5.314
 6792SOL    HW221276   4.367   0.173   5.267
 6793SOL     OW21277   2.734   2.865   6.827
 6793SOL    HW121278   2.653   2.843   6.881
 6793SOL    HW221279   2.746   2.796   6.755
 6794SOL     OW21280   4.466   1.599   5.950
 6794SOL    HW121281   4.367   1.591   5.950
 6794SOL    HW221282   4.508   1.508   5.948
 6795SOL     OW21283   1.448   0.882   1.169
 6795SOL    HW121284   1.368   0.822   1.178
 6795SOL    HW221285   1.423   0.962   1.115
 6796SOL     OW21286   5.982   1.231   2.173
 6796SOL    HW121287   5.957   1.327   2.189
 6796SOL    HW221288   6.074   1.226   2.134
 6797SOL     OW21289   0.241   2.470   1.557
 6797SOL    HW121290   0.221   2.373   1.566
 6797SOL    HW221291   0.160   2.518   1.523
 6798SOL     OW21292   5.346   0.697   2.193
 6798SOL    HW121293   5.359   0.741   2.104
 6798SOL    HW221294   5.368   0.762   2.266
 6799SOL     OW21295   5.293   6.907   3.105
 6799SOL    HW121296   5.285   6.857   3.019
 6799SOL    HW221297   5.290   7.005   3.087
 6800SOL     OW21298   1.065   0.817   1.170
 6800SOL    HW121299   1.138   0.751   1.185
 6800SOL    HW221300   0.998   0.810   1.245
 6801SOL     OW21301   1.510   6.448   4.895
 6801SOL    HW121302   1.524   6.479   4.989
 6801SOL    HW221303   1.582   6.486   4.836
 6802SOL     OW21304   3.329   5.800   1.711
 6802SOL    HW121305   3.394   5.729   1.683
 6802SOL    HW221306   3.353   5.834   1.802
 6803SOL     OW21307   5.187   5.001   0.328
 6803SOL    HW121308   5.124   4.968   0.257
 6803SOL    HW221309   5.258   4.933   0.344
 6804SOL     OW21310   2.506   4.652   3.058
 6804SOL    HW121311   2.501   4.708   2.976
 6804SOL    HW221312   2.547   4.705   3.132
 6805SOL     OW21313   0.286   5.032   5.977
 6805SOL    HW121314   0.218   5.101   5.950
 6805SOL    HW221315   0.267   5.002   6.071
 6806SOL     OW21316   6.626   0.766   3.437
 6806SOL    HW121317   6.685   0.776   3.517
 6806SOL    HW221318   6.531   0.784   3.461
 6807SOL     OW21319   3.297   3.949   2.853
 6807SOL    HW121320   3.303   3.893   2.936
 6807SOL    HW221321   3.383   3.997   2.839
 6808SOL     OW21322   4.389   1.610   5.226
 6808SOL    HW121323   4.381   1.683   5.294
 6808SOL    HW221324   4.479   1.566   5.235
 6809SOL     OW21325   5.649   4.516   2.355
 6809SOL    HW121326   5.604   4.514   2.266
 6809SOL    HW221327   5.657   4.423   2.391
 6810SOL     OW21328   2.815   1.197   3.451
 6810SOL    HW121329   2.878   1.184   3.528
 6810SOL    HW221330   2.859   1.252   3.380
 6811SOL     OW21331   6.044   1.951   2.244
 6811SOL    HW121332   6.034   1.943   2.344
 6811SOL    HW221333   6.141   1.955   2.221
 6812SOL     OW21334   3.009   3.624   5.366
 6812SOL    HW121335   2.924   3.670   5.342
 6812SOL    HW221336   2.990   3.554   5.436
 6813SOL     OW21337   4.971   3.341   1.314
 6813SOL    HW121338   5.044   3.408   1.331
 6813SOL    HW221339   4.920   3.327   1.399
 6814SOL     OW21340   3.958   1.673   6.098
 6814SOL    HW121341   3.981   1.627   6.184
 6814SOL    HW221342   3.878   1.732   6.111
 6815SOL     OW21343   2.118   5.475   6.656
 6815SOL    HW121344   2.039   5.499   6.600
 6815SOL    HW221345   2.134   5.377   6.650
 6816SOL     OW21346   0.539   2.210   4.196
 6816SOL    HW121347   0.552   2.290   4.254
 6816SOL    HW221348   0.452   2.165   4.219
 6817SOL     OW21349   3.066   2.190   2.433
 6817SOL    HW121350   3.085   2.156   2.525
 6817SOL    HW221351   3.109   2.279   2.420
 6818SOL     OW21352   2.316   6.251   5.897
 6818SOL    HW121353   2.388   6.318   5.881
 6818SOL    HW221354   2.279   6.221   5.809
 6819SOL     OW21355   4.675   4.627   3.217
 6819SOL    HW121356   4.753   4.673   3.174
 6819SOL    HW221357   4.668   4.533   3.182
 6820SOL     OW21358   1.852   6.223   1.508
 6820SOL    HW121359   1.892   6.132   1.522
 6820SOL    HW221360   1.874   6.280   1.587
 6821SOL     OW21361   4.485   2.604   5.289
 6821SOL    HW121362   4.540   2.604   5.373
 6821SOL    HW221363   4.541   2.574   5.212
 6822SOL     OW21364   0.082   2.699   6.442
 6822SOL    HW121365   0.146   2.768   6.475
 6822SOL    HW221366   0.043   2.729   6.355
 6823SOL     OW21367   5.688   3.495   6.804
 6823SOL    HW121368   5.712   3.578   6.754
 6823SOL    HW221369   5.771   3.445   6.829
 6824SOL     OW21370   1.492   1.502   6.716
 6824SOL    HW121371   1.429   1.521   6.641
 6824SOL    HW221372   1.584   1.486   6.680
 6825SOL     OW21373   0.082   5.940   1.368
 6825SOL    HW121374   0.173   5.961   1.331
 6825SOL    HW221375   0.032   5.883   1.304
 6826SOL     OW21376   1.302   3.502   3.375
 6826SOL    HW121377   1.387   3.555   3.372
 6826SOL    HW221378   1.234   3.551   3.428
 6827SOL     OW21379   4.485   5.653   5.053
 6827SOL    HW121380   4.430   5.666   5.136
 6827SOL    HW221381   4.492   5.555   5.033
 6828SOL     OW21382   3.923   1.392   2.924
 6828SOL    HW121383   3.912   1.344   3.011
 6828SOL    HW221384   3.903   1.489   2.936
 6829SOL     OW21385   4.953   6.335   5.051
 6829SOL    HW121386   5.000   6.272   4.988
 6829SOL    HW221387   4.990   6.322   5.143
 6830SOL     OW21388   5.749   0.720   3.133
 6830SOL    HW121389   5.777   0.798   3.188
 6830SOL    HW221390   5.762   0.740   3.036
 6831SOL     OW21391   1.534   1.456   5.651
 6831SOL    HW121392   1.471   1.386   5.618
 6831SOL    HW221393   1.628   1.427   5.636
 6832SOL     OW21394   3.088   1.993   0.750
 6832SOL    HW121395   2.988   1.991   0.759
 6832SOL    HW221396   3.129   2.008   0.840
 6833SOL     OW21397   2.877   5.272   5.957
 6833SOL    HW121398   2.857   5.360   5.915
 6833SOL    HW221399   2.933   5.217   5.895
 6834SOL     OW21400   4.894   0.104   0.624
 6834SOL    HW121401   4.870   0.117   0.528
 6834SOL    HW221402   4.817   0.131   0.682
 6835SOL     OW21403   3.443   2.036   4.265
 6835SOL    HW121404   3.493   2.078   4.341
 6835SOL    HW221405   3.348   2.064   4.268
 6836SOL     OW21406   1.964   4.981   6.419
 6836SOL    HW121407   1.996   4.913   6.484
 6836SOL    HW221408   1.929   4.935   6.337
 6837SOL     OW21409   0.961   0.341   2.086
 6837SOL    HW121410   0.911   0.381   2.162
 6837SOL    HW221411   1.023   0.270   2.119
 6838SOL     OW21412   2.739   4.399   5.353
 6838SOL    HW121413   2.661   4.431   5.300
 6838SOL    HW221414   2.823   4.443   5.321
 6839SOL     OW21415   5.326   2.215   3.895
 6839SOL    HW121416   5.334   2.168   3.983
 6839SOL    HW221417   5.342   2.313   3.908
 6840SOL     OW21418   2.391   6.456   4.394
 6840SOL    HW121419   2.470   6.417   4.346
 6840SOL    HW221420   2.419   6.540   4.440
 6841SOL     OW21421   3.932   5.961   2.148
 6841SOL    HW121422   3.946   6.059   2.164
 6841SOL    HW221423   3.922   5.914   2.235
 6842SOL     OW21424   0.553   3.192   6.938
 6842SOL    HW121425   0.586   3.287   6.937
 6842SOL    HW221426   0.490   3.180   7.015
 6843SOL     OW21427   4.450   2.334   2.091
 6843SOL    HW121428   4.489   2.407   2.035
 6843SOL    HW221429   4.441   2.364   2.185
 6844SOL     OW21430   4.357   5.254   4.472
 6844SOL    HW121431   4.371   5.327   4.405
 6844SOL    HW221432   4.323   5.173   4.425
 6845SOL     OW21433   4.568   4.774   2.871
 6845SOL    HW121434   4.614   4.862   2.856
 6845SOL    HW221435   4.485   4.789   2.925
 6846SOL     OW21436   3.482   3.221   2.237
 6846SOL    HW121437   3.383   3.215   2.229
 6846SOL    HW221438   3.510   3.191   2.329
 6847SOL     OW21439   4.987   3.588   1.675
 6847SOL    HW121440   4.985   3.621   1.581
 6847SOL    HW221441   4.894   3.573   1.707
 6848SOL     OW21442   0.579   5.393   4.359
 6848SOL    HW121443   0.619   5.338   4.432
 6848SOL    HW221444   0.486   5.361   4.341
 6849SOL     OW21445   3.601   5.725   3.890
 6849SOL    HW121446   3.655   5.642   3.875
 6849SOL    HW221447   3.504   5.702   3.887
 6850SOL     OW21448   5.528   2.041   3.781
 6850SOL    HW121449   5.560   2.093   3.702
 6850SOL    HW221450   5.446   2.085   3.819
 6851SOL     OW21451   1.189   5.228   6.236
 6851SOL    HW121452   1.191   5.269   6.145
 6851SOL    HW221453   1.094   5.218   6.266
 6852SOL     OW21454   0.817   4.312   1.222
 6852SOL    HW121455   0.806   4.341   1.127
 6852SOL    HW221456   0.752   4.239   1.243
 6853SOL     OW21457   0.972   5.760   6.137
 6853SOL    HW121458   0.892   5.819   6.131
 6853SOL    HW221459   1.046   5.798   6.081
 6854SOL     OW21460   6.515   1.773   5.949
 6854SOL    HW121461   6.604   1.807   5.917
 6854SOL    HW221462   6.523   1.742   6.043
 6855SOL     OW21463   4.339   0.119   3.075
 6855SOL    HW121464   4.318   0.189   3.143
 6855SOL    HW221465   4.256   0.095   3.025
 6856SOL     OW21466   6.723   4.036   4.637
 6856SOL    HW121467   6.819   4.059   4.626
 6856SOL    HW221468   6.705   3.948   4.593
 6857SOL     OW21469   3.557   1.749   6.530
 6857SOL    HW121470   3.555   1.682   6.455
 6857SOL    HW221471   3.636   1.809   6.517
 6858SOL     OW21472   4.131   3.693   4.766
 6858SOL    HW121473   4.088   3.609   4.735
 6858SOL    HW221474   4.227   3.675   4.787
 6859SOL     OW21475   2.383   6.626   0.681
 6859SOL    HW121476   2.350   6.610   0.588
 6859SOL    HW221477   2.432   6.545   0.713
 6860SOL     OW21478   5.231   4.718   1.403
 6860SOL    HW121479   5.285   4.735   1.485
 6860SOL    HW221480   5.201   4.623   1.402
 6861SOL     OW21481   5.847   5.523   0.425
 6861SOL    HW121482   5.767   5.476   0.461
 6861SOL    HW221483   5.894   5.463   0.360
 6862SOL     OW21484   3.106   4.927   4.758
 6862SOL    HW121485   3.052   4.907   4.839
 6862SOL    HW221486   3.073   5.011   4.715
 6863SOL     OW21487   6.483   1.377   4.050
 6863SOL    HW121488   6.422   1.337   4.118
 6863SOL    HW221489   6.504   1.309   3.980
 6864SOL     OW21490   2.950   5.849   3.248
 6864SOL    HW121491   2.870   5.907   3.260
 6864SOL    HW221492   3.028   5.889   3.296
 6865SOL     OW21493   6.512   4.056   4.383
 6865SOL    HW121494   6.503   3.980   4.318
 6865SOL    HW221495   6.592   4.040   4.441
 6866SOL     OW21496   6.985   3.882   1.681
 6866SOL    HW121497   6.978   3.831   1.595
 6866SOL    HW221498   6.925   3.840   1.749
 6867SOL     OW21499   1.720   4.235   1.874
 6867SOL    HW121500   1.693   4.153   1.924
 6867SOL    HW221501   1.754   4.209   1.783
 6868SOL     OW21502   1.786   6.244   5.002
 6868SOL    HW121503   1.691   6.216   5.013
 6868SOL    HW221504   1.791   6.328   4.948
 6869SOL     OW21505   5.708   3.170   4.695
 6869SOL    HW121506   5.791   3.219   4.667
 6869SOL    HW221507   5.710   3.155   4.794
 6870SOL     OW21508   5.487   3.501   3.429
 6870SOL    HW121509   5.543   3.425   3.395
 6870SOL    HW221510   5.485   3.574   3.361
 6871SOL     OW21511   6.094   4.535   1.829
 6871SOL    HW121512   6.185   4.560   1.862
 6871SOL    HW221513   6.067   4.448   1.869
 6872SOL     OW21514   1.514   3.555   0.994
 6872SOL    HW121515   1.421   3.524   0.977
 6872SOL    HW221516   1.514   3.626   1.064
 6873SOL     OW21517   5.530   2.917   5.816
 6873SOL    HW121518   5.605   2.920   5.750
 6873SOL    HW221519   5.455   2.863   5.778
 6874SOL     OW21520   7.015   3.344   3.932
 6874SOL    HW121521   0.068   3.410   3.944
 6874SOL    HW221522   7.002   3.326   3.835
 6875SOL     OW21523   1.326   1.498   2.796
 6875SOL    HW121524   1.350   1.467   2.704
 6875SOL    HW221525   1.407   1.496   2.854
 6876SOL     OW21526   3.498   5.565   6.466
 6876SOL    HW121527   3.479   5.609   6.379
 6876SOL    HW221528   3.540   5.475   6.450
 6877SOL     OW21529   2.132   4.300   6.857
 6877SOL    HW121530   2.085   4.333   6.775
 6877SOL    HW221531   2.091   4.342   6.938
 6878SOL     OW21532   2.539   1.681   5.649
 6878SOL    HW121533   2.628   1.660   5.689
 6878SOL    HW221534   2.469   1.624   5.692
 6879SOL     OW21535   0.195   1.801   0.251
 6879SOL    HW121536   0.210   1.863   0.328
 6879SOL    HW221537   0.283   1.776   0.211
 6880SOL     OW21538   2.071   3.958   4.943
 6880SOL    HW121539   2.157   3.985   4.987
 6880SOL    HW221540   2.018   3.901   5.006
 6881SOL     OW21541   6.956   4.404   1.234
 6881SOL    HW121542   0.027   4.368   1.226
 6881SOL    HW221543   6.952   4.494   1.191
 6882SOL     OW21544   2.070   0.799   4.850
 6882SOL    HW121545   2.023   0.712   4.837
 6882SOL    HW221546   2.003   0.873   4.855
 6883SOL     OW21547   3.826   6.968   0.817
 6883SOL    HW121548   3.822   6.881   0.866
 6883SOL    HW221549   3.916   6.979   0.775
 6884SOL     OW21550   2.358   4.286   4.550
 6884SOL    HW121551   2.297   4.222   4.596
 6884SOL    HW221552   2.430   4.315   4.614
 6885SOL     OW21553   2.713   6.016   3.172
 6885SOL    HW121554   2.797   6.070   3.165
 6885SOL    HW221555   2.649   6.060   3.235
 6886SOL     OW21556   4.966   1.434   2.522
 6886SOL    HW121557   4.900   1.504   2.550
 6886SOL    HW221558   4.928   1.343   2.539
 6887SOL     OW21559   5.313   0.076   4.824
 6887SOL    HW121560   5.315   0.127   4.910
 6887SOL    HW221561   5.218   0.052   4.802
 6888SOL     OW21562   6.130   0.214   5.371
 6888SOL    HW121563   6.181   0.300   5.378
 6888SOL    HW221564   6.158   0.152   5.444
 6889SOL     OW21565   0.841   2.685   5.720
 6889SOL    HW121566   0.882   2.730   5.640
 6889SOL    HW221567   0.762   2.631   5.691
 6890SOL     OW21568   2.214   0.152   0.670
 6890SOL    HW121569   2.307   0.131   0.700
 6890SOL    HW221570   2.153   0.154   0.749
 6891SOL     OW21571   2.106   3.766   4.728
 6891SOL    HW121572   2.163   3.837   4.769
 6891SOL    HW221573   2.101   3.688   4.790
 6892SOL     OW21574   3.856   0.186   4.030
 6892SOL    HW121575   3.909   0.102   4.042
 6892SOL    HW221576   3.899   0.261   4.079
 6893SOL     OW21577   5.548   5.748   2.621
 6893SOL    HW121578   5.620   5.786   2.562
 6893SOL    HW221579   5.471   5.811   2.625
 6894SOL     OW21580   6.134   5.527   0.507
 6894SOL    HW121581   6.076   5.590   0.557
 6894SOL    HW221582   6.094   5.510   0.416
 6895SOL     OW21583   3.122   4.590   0.000
 6895SOL    HW121584   3.141   4.660   6.954
 6895SOL    HW221585   3.028   4.600   0.032
 6896SOL     OW21586   3.378   0.564   3.871
 6896SOL    HW121587   3.286   0.539   3.902
 6896SOL    HW221588   3.387   0.664   3.870
 6897SOL     OW21589   2.713   3.236   0.246
 6897SOL    HW121590   2.762   3.181   0.178
 6897SOL    HW221591   2.714   3.332   0.217
 6898SOL     OW21592   4.327   0.978   1.831
 6898SOL    HW121593   4.283   1.048   1.888
 6898SOL    HW221594   4.323   1.006   1.735
 6899SOL     OW21595   5.286   0.077   6.513
 6899SOL    HW121596   5.263   0.057   6.418
 6899SOL    HW221597   5.215   0.135   6.553
 6900SOL     OW21598   5.724   0.754   5.950
 6900SOL    HW121599   5.702   0.738   5.853
 6900SOL    HW221600   5.709   0.669   6.001
 6901SOL     OW21601   0.353   0.155   6.413
 6901SOL    HW121602   0.299   0.229   6.454
 6901SOL    HW221603   0.327   0.146   6.316
 6902SOL     OW21604   0.696   0.092   0.160
 6902SOL    HW121605   0.642   0.106   0.076
 6902SOL    HW221606   0.771   0.029   0.140
 6903SOL     OW21607   3.774   3.443   0.440
 6903SOL    HW121608   3.722   3.392   0.371
 6903SOL    HW221609   3.712   3.479   0.509
 6904SOL     OW21610   6.567   1.368   3.625
 6904SOL    HW121611   6.587   1.271   3.612
 6904SOL    HW221612   6.475   1.379   3.662
 6905SOL     OW21613   6.104   6.749   0.617
 6905SOL    HW121614   6.184   6.778   0.669
 6905SOL    HW221615   6.035   6.822   0.617
 6906SOL     OW21616   3.660   1.176   4.360
 6906SOL    HW121617   3.669   1.152   4.457
 6906SOL    HW221618   3.743   1.221   4.329
 6907SOL     OW21619   3.881   0.992   0.896
 6907SOL    HW121620   3.972   0.977   0.857
 6907SOL    HW221621   3.848   1.083   0.870
 6908SOL     OW21622   0.773   0.432   5.475
 6908SOL    HW121623   0.707   0.365   5.441
 6908SOL    HW221624   0.735   0.478   5.556
 6909SOL     OW21625   4.208   4.744   1.165
 6909SOL    HW121626   4.257   4.702   1.088
 6909SOL    HW221627   4.178   4.836   1.139
 6910SOL     OW21628   6.227   1.689   2.583
 6910SOL    HW121629   6.244   1.786   2.566
 6910SOL    HW221630   6.277   1.660   2.665
 6911SOL     OW21631   4.510   0.258   3.789
 6911SOL    HW121632   4.524   0.162   3.766
 6911SOL    HW221633   4.415   0.272   3.816
 6912SOL     OW21634   4.606   4.907   1.320
 6912SOL    HW121635   4.572   4.904   1.414
 6912SOL    HW221636   4.629   4.815   1.289
 6913SOL     OW21637   4.923   4.164   4.635
 6913SOL    HW121638   4.921   4.236   4.704
 6913SOL    HW221639   4.874   4.194   4.553
 6914SOL     OW21640   5.972   5.164   0.103
 6914SOL    HW121641   5.880   5.124   0.113
 6914SOL    HW221642   6.021   5.116   0.030
 6915SOL     OW21643   0.775   4.598   2.292
 6915SOL    HW121644   0.693   4.582   2.347
 6915SOL    HW221645   0.837   4.660   2.341
 6916SOL     OW21646   6.509   4.215   6.712
 6916SOL    HW121647   6.427   4.165   6.738
 6916SOL    HW221648   6.556   4.165   6.639
 6917SOL     OW21649   4.841   5.728   6.195
 6917SOL    HW121650   4.746   5.733   6.226
 6917SOL    HW221651   4.887   5.653   6.243
 6918SOL     OW21652   0.504   3.966   4.301
 6918SOL    HW121653   0.471   4.055   4.332
 6918SOL    HW221654   0.603   3.961   4.315
 6919SOL     OW21655   1.991   5.405   2.420
 6919SOL    HW121656   1.955   5.481   2.367
 6919SOL    HW221657   1.926   5.328   2.418
 6920SOL     OW21658   5.185   5.493   5.185
 6920SOL    HW121659   5.229   5.566   5.239
 6920SOL    HW221660   5.111   5.533   5.130
 6921SOL     OW21661   6.198   5.867   3.478
 6921SOL    HW121662   6.166   5.775   3.455
 6921SOL    HW221663   6.184   5.928   3.400
 6922SOL     OW21664   1.588   6.172   7.020
 6922SOL    HW121665   1.671   6.119   7.000
 6922SOL    HW221666   1.595   6.262   6.977
 6923SOL     OW21667   4.239   6.550   4.202
 6923SOL    HW121668   4.231   6.496   4.285
 6923SOL    HW221669   4.310   6.620   4.215
 6924SOL     OW21670   0.745   3.826   0.263
 6924SOL    HW121671   0.836   3.820   0.222
 6924SOL    HW221672   0.675   3.815   0.192
 6925SOL     OW21673   3.844   6.026   3.735
 6925SOL    HW121674   3.877   6.069   3.651
 6925SOL    HW221675   3.755   5.984   3.717
 6926SOL     OW21676   3.697   3.934   3.342
 6926SOL    HW121677   3.659   3.861   3.285
 6926SOL    HW221678   3.763   3.988   3.289
 6927SOL     OW21679   5.223   4.291   5.908
 6927SOL    HW121680   5.291   4.256   5.844
 6927SOL    HW221681   5.150   4.223   5.920
 6928SOL     OW21682   4.499   0.225   6.688
 6928SOL    HW121683   4.516   0.202   6.592
 6928SOL    HW221684   4.450   0.312   6.693
 6929SOL     OW21685   4.398   6.329   6.898
 6929SOL    HW121686   4.486   6.374   6.911
 6929SOL    HW221687   4.409   6.230   6.900
 6930SOL     OW21688   0.369   6.776   2.397
 6930SOL    HW121689   0.340   6.685   2.367
 6930SOL    HW221690   0.415   6.823   2.322
 6931SOL     OW21691   0.604   0.161   1.649
 6931SOL    HW121692   0.697   0.161   1.686
 6931SOL    HW221693   0.542   0.116   1.714
 6932SOL     OW21694   3.231   0.995   6.862
 6932SOL    HW121695   3.208   1.013   6.766
 6932SOL    HW221696   3.330   0.990   6.872
 6933SOL     OW21697   3.727   5.376   5.076
 6933SOL    HW121698   3.669   5.302   5.109
 6933SOL    HW221699   3.712   5.389   4.978
 6934SOL     OW21700   5.467   3.417   6.624
 6934SOL    HW121701   5.376   3.411   6.666
 6934SOL    HW221702   5.536   3.400   6.694
 6935SOL     OW21703   4.399   6.033   3.212
 6935SOL    HW121704   4.376   6.082   3.296
 6935SOL    HW221705   4.470   6.083   3.163
 6936SOL     OW21706   0.214   1.542   2.263
 6936SOL    HW121707   0.168   1.465   2.219
 6936SOL    HW221708   0.147   1.594   2.316
 6937SOL     OW21709   4.617   6.489   6.610
 6937SOL    HW121710   4.648   6.538   6.529
 6937SOL    HW221711   4.660   6.399   6.613
 6938SOL     OW21712   4.860   3.761   5.504
 6938SOL    HW121713   4.801   3.686   5.533
 6938SOL    HW221714   4.924   3.728   5.435
 6939SOL     OW21715   0.150   4.738   2.621
 6939SOL    HW121716   0.104   4.700   2.701
 6939SOL    HW221717   0.133   4.836   2.616
 6940SOL     OW21718   4.716   0.826   0.623
 6940SOL    HW121719   4.784   0.788   0.561
 6940SOL    HW221720   4.629   0.837   0.575
 6941SOL     OW21721   4.095   3.567   1.894
 6941SOL    HW121722   4.123   3.658   1.865
 6941SOL    HW221723   4.065   3.514   1.814
 6942SOL     OW21724   0.062   2.899   0.862
 6942SOL    HW121725   0.116   2.871   0.782
 6942SOL    HW221726   0.124   2.923   0.937
 6943SOL     OW21727   5.136   6.858   6.098
 6943SOL    HW121728   5.225   6.825   6.066
 6943SOL    HW221729   5.148   6.916   6.179
 6944SOL     OW21730   1.390   5.753   5.249
 6944SOL    HW121731   1.484   5.787   5.254
 6944SOL    HW221732   1.326   5.828   5.265
 6945SOL     OW21733   6.335   3.429   6.605
 6945SOL    HW121734   6.241   3.416   6.571
 6945SOL    HW221735   6.363   3.523   6.589
 6946SOL     OW21736   5.673   4.935   2.518
 6946SOL    HW121737   5.734   4.858   2.500
 6946SOL    HW221738   5.616   4.915   2.598
 6947SOL     OW21739   3.851   6.929   3.650
 6947SOL    HW121740   3.807   6.869   3.717
 6947SOL    HW221741   3.845   0.001   3.682
 6948SOL     OW21742   4.989   0.446   0.330
 6948SOL    HW121743   4.904   0.394   0.338
 6948SOL    HW221744   5.061   0.402   0.384
 6949SOL     OW21745   4.884   6.036   3.184
 6949SOL    HW121746   4.976   6.072   3.165
 6949SOL    HW221747   4.846   5.997   3.100
 6950SOL     OW21748   2.587   0.215   2.947
 6950SOL    HW121749   2.650   0.154   2.995
 6950SOL    HW221750   2.524   0.256   3.013
 6951SOL     OW21751   6.266   6.510   5.829
 6951SOL    HW121752   6.288   6.552   5.917
 6951SOL    HW221753   6.350   6.494   5.778
 6952SOL     OW21754   6.944   5.037   3.275
 6952SOL    HW121755   0.005   5.089   3.295
 6952SOL    HW221756   6.940   5.018   3.176
 6953SOL     OW21757   5.424   1.038   5.425
 6953SOL    HW121758   5.448   1.065   5.519
 6953SOL    HW221759   5.325   1.043   5.414
 6954SOL     OW21760   0.684   3.550   3.778
 6954SOL    HW121761   0.634   3.469   3.809
 6954SOL    HW221762   0.665   3.627   3.840
 6955SOL     OW21763   6.811   0.077   2.026
 6955SOL    HW121764   6.795   0.019   1.946
 6955SOL    HW221765   6.752   0.157   2.022
 6956SOL     OW21766   4.328   5.893   2.460
 6956SOL    HW121767   4.397   5.939   2.403
 6956SOL    HW221768   4.345   5.794   2.460
 6957SOL     OW21769   0.037   4.880   1.448
 6957SOL    HW121770   0.121   4.853   1.496
 6957SOL    HW221771   6.991   4.809   1.460
 6958SOL     OW21772   2.450   2.346   6.150
 6958SOL    HW121773   2.490   2.337   6.242
 6958SOL    HW221774   2.520   2.381   6.087
 6959SOL     OW21775   2.388   1.196   4.991
 6959SOL    HW121776   2.297   1.168   5.023
 6959SOL    HW221777   2.382   1.287   4.950
 6960SOL     OW21778   0.521   5.204   0.367
 6960SOL    HW121779   0.551   5.264   0.293
 6960SOL    HW221780   0.592   5.200   0.437
 6961SOL     OW21781   0.650   2.259   3.525
 6961SOL    HW121782   0.608   2.207   3.600
 6961SOL    HW221783   0.587   2.261   3.447
 6962SOL     OW21784   5.396   4.707   3.239
 6962SOL    HW121785   5.465   4.692   3.310
 6962SOL    HW221786   5.388   4.805   3.221
 6963SOL     OW21787   0.334   5.662   0.900
 6963SOL    HW121788   0.391   5.639   0.979
 6963SOL    HW221789   0.389   5.663   0.817
 6964SOL     OW21790   4.841   4.992   5.267
 6964SOL    HW121791   4.854   4.909   5.213
 6964SOL    HW221792   4.759   4.982   5.324
 6965SOL     OW21793   6.884   3.493   6.280
 6965SOL    HW121794   6.844   3.560   6.217
 6965SOL    HW221795   6.964   3.534   6.324
 6966SOL     OW21796   5.643   2.734   2.797
 6966SOL    HW121797   5.593   2.765   2.717
 6966SOL    HW221798   5.670   2.812   2.853
 6967SOL     OW21799   1.626   1.812   5.351
 6967SOL    HW121800   1.591   1.781   5.439
 6967SOL    HW221801   1.725   1.800   5.348
 6968SOL     OW21802   3.902   6.498   0.834
 6968SOL    HW121803   3.972   6.430   0.855
 6968SOL    HW221804   3.812   6.463   0.860
 6969SOL     OW21805   3.617   1.795   1.865
 6969SOL    HW121806   3.683   1.833   1.800
 6969SOL    HW221807   3.524   1.817   1.835
 6970SOL     OW21808   3.766   3.788   0.528
 6970SOL    HW121809   3.803   3.696   0.540
 6970SOL    HW221810   3.763   3.810   0.430
 6971SOL     OW21811   6.661   3.140   2.026
 6971SOL    HW121812   6.722   3.219   2.032
 6971SOL    HW221813   6.639   3.122   1.930
 6972SOL     OW21814   5.868   4.334   4.503
 6972SOL    HW121815   5.800   4.265   4.531
 6972SOL    HW221816   5.823   4.408   4.454
 6973SOL     OW21817   1.562   4.824   4.831
 6973SOL    HW121818   1.540   4.732   4.863
 6973SOL    HW221819   1.653   4.850   4.864
 6974SOL     OW21820   3.815   3.401   3.768
 6974SOL    HW121821   3.837   3.461   3.691
 6974SOL    HW221822   3.741   3.339   3.742
 6975SOL     OW21823   3.302   6.712   5.439
 6975SOL    HW121824   3.389   6.666   5.422
 6975SOL    HW221825   3.255   6.728   5.353
 6976SOL     OW21826   3.761   4.781   6.679
 6976SOL    HW121827   3.718   4.860   6.722
 6976SOL    HW221828   3.767   4.706   6.745
 6977SOL     OW21829   5.329   2.151   1.812
 6977SOL    HW121830   5.274   2.072   1.786
 6977SOL    HW221831   5.307   2.228   1.751
 6978SOL     OW21832   6.488   0.593   1.815
 6978SOL    HW121833   6.541   0.590   1.900
 6978SOL    HW221834   6.523   0.525   1.752
 6979SOL     OW21835   1.255   5.478   2.204
 6979SOL    HW121836   1.271   5.461   2.107
 6979SOL    HW221837   1.162   5.513   2.217
 6980SOL     OW21838   2.141   0.803   3.672
 6980SOL    HW121839   2.125   0.877   3.738
 6980SOL    HW221840   2.210   0.833   3.605
 6981SOL     OW21841   2.485   3.971   6.762
 6981SOL    HW121842   2.557   3.976   6.693
 6981SOL    HW221843   2.506   4.034   6.837
 6982SOL     OW21844   1.505   1.286   3.821
 6982SOL    HW121845   1.423   1.330   3.860
 6982SOL    HW221846   1.586   1.325   3.864
 6983SOL     OW21847   0.091   1.100   3.942
 6983SOL    HW121848   0.154   1.161   3.895
 6983SOL    HW221849   0.099   1.008   3.903
 6984SOL     OW21850   2.865   1.811   5.164
 6984SOL    HW121851   2.789   1.764   5.208
 6984SOL    HW221852   2.845   1.909   5.159
 6985SOL     OW21853   3.822   5.512   2.537
 6985SOL    HW121854   3.866   5.596   2.503
 6985SOL    HW221855   3.778   5.465   2.460
 6986SOL     OW21856   2.214   6.156   5.677
 6986SOL    HW121857   2.126   6.114   5.657
 6986SOL    HW221858   2.276   6.143   5.600
 6987SOL     OW21859   0.437   1.725   5.891
 6987SOL    HW121860   0.531   1.693   5.895
 6987SOL    HW221861   0.376   1.654   5.924
 6988SOL     OW21862   6.032   1.254   4.887
 6988SOL    HW121863   6.032   1.163   4.927
 6988SOL    HW221864   5.948   1.267   4.834
 6989SOL     OW21865   1.040   1.954   3.456
 6989SOL    HW121866   1.124   1.904   3.477
 6989SOL    HW221867   1.016   1.940   3.360
 6990SOL     OW21868   4.963   1.983   0.369
 6990SOL    HW121869   4.896   1.985   0.443
 6990SOL    HW221870   4.926   2.030   0.289
 6991SOL     OW21871   2.644   4.671   4.861
 6991SOL    HW121872   2.552   4.665   4.902
 6991SOL    HW221873   2.712   4.660   4.933
 6992SOL     OW21874   5.755   5.812   5.164
 6992SOL    HW121875   5.721   5.900   5.131
 6992SOL    HW221876   5.853   5.806   5.146
 6993SOL     OW21877   5.706   6.425   3.096
 6993SOL    HW121878   5.772   6.350   3.100
 6993SOL    HW221879   5.697   6.466   3.187
 6994SOL     OW21880   0.516   3.519   5.087
 6994SOL    HW121881   0.563   3.522   5.176
 6994SOL    HW221882   0.481   3.426   5.071
 6995SOL     OW21883   6.371   5.044   4.643
 6995SOL    HW121884   6.352   4.950   4.616
 6995SOL    HW221885   6.345   5.106   4.569
 6996SOL     OW21886   2.684   0.995   5.230
 6996SOL    HW121887   2.641   0.990   5.140
 6996SOL    HW221888   2.765   0.936   5.232
 6997SOL     OW21889   4.624   6.332   5.506
 6997SOL    HW121890   4.563   6.376   5.440
 6997SOL    HW221891   4.614   6.232   5.499
 6998SOL     OW21892   1.821   3.358   1.475
 6998SOL    HW121893   1.898   3.361   1.411
 6998SOL    HW221894   1.856   3.373   1.568
 6999SOL     OW21895   2.481   1.711   6.892
 6999SOL    HW121896   2.397   1.657   6.898
 6999SOL    HW221897   2.495   1.760   6.979
 7000SOL     OW21898   7.022   6.395   2.732
 7000SOL    HW121899   6.957   6.446   2.788
 7000SOL    HW221900   0.041   6.322   2.787
 7001SOL     OW21901   2.789   2.425   6.145
 7001SOL    HW121902   2.778   2.434   6.046
 7001SOL    HW221903   2.711   2.467   6.191
 7002SOL     OW21904   2.333   4.716   3.744
 7002SOL    HW121905   2.281   4.698   3.660
 7002SOL    HW221906   2.388   4.798   3.732
 7003SOL     OW21907   2.922   6.933   0.052
 7003SOL    HW121908   2.902   6.996   7.000
 7003SOL    HW221909   2.942   6.984   0.136
 7004SOL     OW21910   2.036   4.247   1.943
 7004SOL    HW121911   2.068   4.296   1.862
 7004SOL    HW221912   1.984   4.167   1.915
 7005SOL     OW21913   0.426   5.973   5.523
 7005SOL    HW121914   0.509   5.919   5.538
 7005SOL    HW221915   0.355   5.942   5.585
 7006SOL     OW21916   4.935   4.528   4.820
 7006SOL    HW121917   4.921   4.429   4.829
 7006SOL    HW221918   5.024   4.552   4.859
 7007SOL     OW21919   5.131   6.477   3.078
 7007SOL    HW121920   5.066   6.546   3.045
 7007SOL    HW221921   5.083   6.392   3.098
 7008SOL     OW21922   2.217   5.130   3.981
 7008SOL    HW121923   2.169   5.043   3.970
 7008SOL    HW221924   2.204   5.163   4.074
 7009SOL     OW21925   6.395   4.783   2.213
 7009SOL    HW121926   6.384   4.849   2.138
 7009SOL    HW221927   6.422   4.832   2.296
 7010SOL     OW21928   4.346   4.655   5.819
 7010SOL    HW121929   4.445   4.653   5.824
 7010SOL    HW221930   4.307   4.606   5.897
 7011SOL     OW21931   1.314   7.002   6.082
 7011SOL    HW121932   1.409   6.984   6.106
 7011SOL    HW221933   1.304   7.005   5.982
 7012SOL     OW21934   1.672   1.036   2.087
 7012SOL    HW121935   1.733   0.964   2.052
 7012SOL    HW221936   1.692   1.122   2.039
 7013SOL     OW21937   0.746   6.719   0.896
 7013SOL    HW121938   0.775   6.736   0.802
 7013SOL    HW221939   0.656   6.760   0.910
 7014SOL     OW21940   4.750   4.239   1.207
 7014SOL    HW121941   4.745   4.316   1.272
 7014SOL    HW221942   4.688   4.167   1.236
 7015SOL     OW21943   5.462   3.435   2.242
 7015SOL    HW121944   5.362   3.428   2.243
 7015SOL    HW221945   5.495   3.460   2.333
 7016SOL     OW21946   3.937   4.812   2.732
 7016SOL    HW121947   3.957   4.900   2.776
 7016SOL    HW221948   3.920   4.827   2.635
 7017SOL     OW21949   2.192   0.754   2.164
 7017SOL    HW121950   2.274   0.811   2.170
 7017SOL    HW221951   2.144   0.756   2.251
 7018SOL     OW21952   0.024   4.486   5.003
 7018SOL    HW121953   0.069   4.406   5.043
 7018SOL    HW221954   0.066   4.569   5.039
 7019SOL     OW21955   2.845   4.828   6.640
 7019SOL    HW121956   2.890   4.753   6.591
 7019SOL    HW221957   2.898   4.912   6.626
 7020SOL     OW21958   5.394   6.506   0.411
 7020SOL    HW121959   5.342   6.534   0.330
 7020SOL    HW221960   5.492   6.505   0.388
 7021SOL     OW21961   2.971   0.698   5.548
 7021SOL    HW121962   2.921   0.636   5.488
 7021SOL    HW221963   2.920   0.710   5.633
 7022SOL     OW21964   4.586   4.174   0.094
 7022SOL    HW121965   4.493   4.200   0.118
 7022SOL    HW221966   4.590   4.075   0.078
 7023SOL     OW21967   6.819   2.204   3.123
 7023SOL    HW121968   6.811   2.128   3.189
 7023SOL    HW221969   6.916   2.221   3.104
 7024SOL     OW21970   1.485   5.902   6.392
 7024SOL    HW121971   1.524   5.836   6.327
 7024SOL    HW221972   1.468   5.988   6.345
 7025SOL     OW21973   3.637   1.817   0.024
 7025SOL    HW121974   3.610   1.761   6.968
 7025SOL    HW221975   3.666   1.907   7.015
 7026SOL     OW21976   2.674   1.324   1.855
 7026SOL    HW121977   2.635   1.416   1.859
 7026SOL    HW221978   2.771   1.328   1.878
 7027SOL     OW21979   3.267   5.674   2.850
 7027SOL    HW121980   3.310   5.639   2.933
 7027SOL    HW221981   3.179   5.629   2.836
 7028SOL     OW21982   5.734   6.568   4.643
 7028SOL    HW121983   5.819   6.604   4.604
 7028SOL    HW221984   5.679   6.644   4.678
 7029SOL     OW21985   3.943   6.877   6.423
 7029SOL    HW121986   4.007   6.830   6.483
 7029SOL    HW221987   3.879   6.931   6.478
 7030SOL     OW21988   0.251   3.038   6.117
 7030SOL    HW121989   0.300   2.963   6.074
 7030SOL    HW221990   0.214   3.099   6.047
 7031SOL     OW21991   2.199   5.980   3.891
 7031SOL    HW121992   2.172   5.909   3.825
 7031SOL    HW221993   2.156   5.962   3.979
 7032SOL     OW21994   4.268   6.727   3.833
 7032SOL    HW121995   4.261   6.629   3.848
 7032SOL    HW221996   4.267   6.746   3.735
 7033SOL     OW21997   6.741   1.477   4.129
 7033SOL    HW121998   6.651   1.460   4.088
 7033SOL    HW221999   6.729   1.512   4.222
 7034SOL     OW22000   5.430   0.858   3.188
 7034SOL    HW122001   5.466   0.947   3.218
 7034SOL    HW222002   5.476   0.785   3.239
 7035SOL     OW22003   1.502   6.893   2.356
 7035SOL    HW122004   1.560   6.823   2.313
 7035SOL    HW222005   1.516   6.980   2.309
 7036SOL     OW22006   6.298   6.152   1.445
 7036SOL    HW122007   6.246   6.118   1.524
 7036SOL    HW222008   6.392   6.118   1.451
 7037SOL     OW22009   0.062   6.833   6.354
 7037SOL    HW122010   0.019   6.744   6.372
 7037SOL    HW222011   0.045   6.894   6.431
 7038SOL     OW22012   1.670   3.910   4.612
 7038SOL    HW122013   1.574   3.928   4.636
 7038SOL    HW222014   1.729   3.947   4.684
 7039SOL     OW22015   3.071   6.699   0.090
 7039SOL    HW122016   3.032   6.788   0.065
 7039SOL    HW222017   3.129   6.667   0.015
 7040SOL     OW22018   4.889   2.700   6.043
 7040SOL    HW122019   4.908   2.602   6.036
 7040SOL    HW222020   4.866   2.736   5.952
 7041SOL     OW22021   1.277   1.858   3.568
 7041SOL    HW122022   1.268   1.858   3.668
 7041SOL    HW222023   1.346   1.926   3.541
 7042SOL     OW22024   5.575   5.298   6.769
 7042SOL    HW122025   5.569   5.353   6.685
 7042SOL    HW222026   5.489   5.250   6.783
 7043SOL     OW22027   2.532   2.556   2.771
 7043SOL    HW122028   2.574   2.574   2.860
 7043SOL    HW222029   2.442   2.515   2.784
 7044SOL     OW22030   5.058   4.318   2.754
 7044SOL    HW122031   5.134   4.367   2.796
 7044SOL    HW222032   5.040   4.235   2.807
 7045SOL     OW22033   4.475   6.281   1.558
 7045SOL    HW122034   4.494   6.379   1.568
 7045SOL    HW222035   4.440   6.262   1.467
 7046SOL     OW22036   3.706   1.801   3.763
 7046SOL    HW122037   3.742   1.791   3.856
 7046SOL    HW222038   3.678   1.895   3.747
 7047SOL     OW22039   0.920   2.339   3.203
 7047SOL    HW122040   0.871   2.266   3.250
 7047SOL    HW222041   1.017   2.317   3.200
 7048SOL     OW22042   0.672   6.041   1.495
 7048SOL    HW122043   0.744   6.031   1.427
 7048SOL    HW222044   0.637   5.950   1.520
 7049SOL     OW22045   2.924   0.540   0.910
 7049SOL    HW122046   2.978   0.529   0.827
 7049SOL    HW222047   2.835   0.580   0.887
 7050SOL     OW22048   3.243   4.003   3.783
 7050SOL    HW122049   3.243   4.007   3.883
 7050SOL    HW222050   3.333   3.972   3.751
 7051SOL     OW22051   0.627   0.637   0.879
 7051SOL    HW122052   0.709   0.649   0.935
 7051SOL    HW222053   0.622   0.541   0.848
 7052SOL     OW22054   6.444   2.498   4.324
 7052SOL    HW122055   6.410   2.554   4.400
 7052SOL    HW222056   6.433   2.402   4.346
 7053SOL     OW22057   0.216   3.094   6.384
 7053SOL    HW122058   0.226   3.071   6.288
 7053SOL    HW222059   0.135   3.153   6.397
 7054SOL     OW22060   1.108   6.867   1.468
 7054SOL    HW122061   1.162   6.788   1.438
 7054SOL    HW222062   1.070   6.850   1.559
 7055SOL     OW22063   3.994   6.480   5.150
 7055SOL    HW122064   3.954   6.456   5.238
 7055SOL    HW222065   4.047   6.564   5.159
 7056SOL     OW22066   5.765   5.091   3.726
 7056SOL    HW122067   5.853   5.134   3.746
 7056SOL    HW222068   5.695   5.163   3.715
 7057SOL     OW22069   0.709   4.350   4.788
 7057SOL    HW122070   0.719   4.251   4.794
 7057SOL    HW222071   0.753   4.384   4.705
 7058SOL     OW22072   0.132   5.652   5.796
 7058SOL    HW122073   0.052   5.681   5.848
 7058SOL    HW222074   0.132   5.552   5.787
 7059SOL     OW22075   0.334   0.267   2.708
 7059SOL    HW122076   0.249   0.272   2.655
 7059SOL    HW222077   0.398   0.204   2.663
 7060SOL     OW22078   3.561   0.149   1.547
 7060SOL    HW122079   3.490   0.084   1.520
 7060SOL    HW222080   3.530   0.199   1.628
 7061SOL     OW22081   0.321   1.873   3.553
 7061SOL    HW122082   0.332   1.969   3.528
 7061SOL    HW222083   0.408   1.838   3.591
 7062SOL     OW22084   5.695   1.464   5.782
 7062SOL    HW122085   5.719   1.552   5.741
 7062SOL    HW222086   5.774   1.428   5.831
 7063SOL     OW22087   1.175   6.966   0.772
 7063SOL    HW122088   1.271   6.987   0.791
 7063SOL    HW222089   1.166   6.868   0.750
 7064SOL     OW22090   4.188   2.386   1.829
 7064SOL    HW122091   4.226   2.295   1.812
 7064SOL    HW222092   4.258   2.455   1.811
 7065SOL     OW22093   4.539   4.022   1.199
 7065SOL    HW122094   4.575   3.932   1.175
 7065SOL    HW222095   4.500   4.064   1.117
 7066SOL     OW22096   3.892   0.773   0.518
 7066SOL    HW122097   3.947   0.744   0.439
 7066SOL    HW222098   3.869   0.869   0.509
 7067SOL     OW22099   1.383   2.650   5.084
 7067SOL    HW122100   1.300   2.684   5.041
 7067SOL    HW222101   1.363   2.565   5.133
 7068SOL     OW22102   0.641   3.425   3.188
 7068SOL    HW122103   0.707   3.379   3.128
 7068SOL    HW222104   0.566   3.363   3.209
 7069SOL     OW22105   6.713   3.082   4.748
 7069SOL    HW122106   6.791   3.024   4.773
 7069SOL    HW222107   6.628   3.029   4.756
 7070SOL     OW22108   6.598   5.616   4.796
 7070SOL    HW122109   6.520   5.640   4.738
 7070SOL    HW222110   6.631   5.525   4.772
 7071SOL     OW22111   0.483   6.759   5.367
 7071SOL    HW122112   0.490   6.673   5.315
 7071SOL    HW222113   0.445   6.740   5.458
 7072SOL     OW22114   6.887   0.364   5.816
 7072SOL    HW122115   6.927   0.280   5.780
 7072SOL    HW222116   6.789   0.365   5.797
 7073SOL     OW22117   6.441   0.940   4.375
 7073SOL    HW122118   6.541   0.936   4.382
 7073SOL    HW222119   6.410   1.032   4.401
 7074SOL     OW22120   3.745   3.266   2.167
 7074SOL    HW122121   3.649   3.279   2.194
 7074SOL    HW222122   3.779   3.350   2.124
 7075SOL     OW22123   0.976   6.288   4.531
 7075SOL    HW122124   0.955   6.310   4.436
 7075SOL    HW222125   1.009   6.194   4.536
 7076SOL     OW22126   4.141   2.409   0.479
 7076SOL    HW122127   4.167   2.486   0.420
 7076SOL    HW222128   4.047   2.382   0.459
 7077SOL     OW22129   2.195   5.212   5.428
 7077SOL    HW122130   2.240   5.234   5.342
 7077SOL    HW222131   2.260   5.220   5.503
 7078SOL     OW22132   6.227   0.283   1.848
 7078SOL    HW122133   6.310   0.231   1.827
 7078SOL    HW222134   6.205   0.272   1.945
 7079SOL     OW22135   6.803   6.498   5.719
 7079SOL    HW122136   6.704   6.488   5.720
 7079SOL    HW222137   6.832   6.551   5.798
 7080SOL     OW22138   4.095   2.169   3.852
 7080SOL    HW122139   4.161   2.227   3.900
 7080SOL    HW222140   4.142   2.093   3.808
 7081SOL     OW22141   3.354   1.047   5.424
 7081SOL    HW122142   3.277   1.041   5.360
 7081SOL    HW222143   3.341   0.979   5.497
 7082SOL     OW22144   5.662   6.602   0.357
 7082SOL    HW122145   5.675   6.608   0.258
 7082SOL    HW222146   5.751   6.605   0.403
 7083SOL     OW22147   3.379   1.147   6.304
 7083SOL    HW122148   3.426   1.095   6.232
 7083SOL    HW222149   3.315   1.212   6.262
 7084SOL     OW22150   0.014   6.911   5.348
 7084SOL    HW122151   0.050   6.877   5.435
 7084SOL    HW222152   6.951   6.961   5.363
 7085SOL     OW22153   1.735   0.906   3.010
 7085SOL    HW122154   1.782   0.987   2.975
 7085SOL    HW222155   1.771   0.824   2.964
 7086SOL     OW22156   5.313   1.589   6.130
 7086SOL    HW122157   5.367   1.522   6.079
 7086SOL    HW222158   5.275   1.545   6.212
 7087SOL     OW22159   0.020   4.010   3.690
 7087SOL    HW122160   6.976   3.997   3.616
 7087SOL    HW222161   0.097   4.064   3.657
 7088SOL     OW22162   5.132   3.190   4.257
 7088SOL    HW122163   5.147   3.265   4.323
 7088SOL    HW222164   5.155   3.222   4.165
 7089SOL     OW22165   3.463   2.677   6.433
 7089SOL    HW122166   3.373   2.704   6.401
 7089SOL    HW222167   3.456   2.644   6.527
 7090SOL     OW22168   2.679   1.446   6.168
 7090SOL    HW122169   2.642   1.521   6.112
 7090SOL    HW222170   2.773   1.427   6.140
 7091SOL     OW22171   0.122   2.026   6.686
 7091SOL    HW122172   0.215   2.027   6.723
 7091SOL    HW222173   0.094   2.119   6.665
 7092SOL     OW22174   4.252   2.636   6.780
 7092SOL    HW122175   4.240   2.698   6.857
 7092SOL    HW222176   4.212   2.547   6.802
 7093SOL     OW22177   3.012   3.906   4.170
 7093SOL    HW122178   3.029   3.938   4.263
 7093SOL    HW222179   2.964   3.819   4.173
 7094SOL     OW22180   0.514   6.477   5.293
 7094SOL    HW122181   0.430   6.459   5.345
 7094SOL    HW222182   0.501   6.447   5.199
 7095SOL     OW22183   2.747   2.625   0.240
 7095SOL    HW122184   2.832   2.586   0.206
 7095SOL    HW222185   2.687   2.551   0.271
 7096SOL     OW22186   6.123   1.324   3.847
 7096SOL    HW122187   6.141   1.420   3.866
 7096SOL    HW222188   6.043   1.294   3.900
 7097SOL     OW22189   6.648   0.292   1.986
 7097SOL    HW122190   6.611   0.334   2.069
 7097SOL    HW222191   6.712   0.355   1.942
 7098SOL     OW22192   1.236   6.219   4.877
 7098SOL    HW122193   1.139   6.217   4.903
 7098SOL    HW222194   1.271   6.126   4.874
 7099SOL     OW22195   2.195   0.685   4.365
 7099SOL    HW122196   2.213   0.762   4.426
 7099SOL    HW222197   2.278   0.630   4.356
 7100SOL     OW22198   5.307   3.699   0.801
 7100SOL    HW122199   5.247   3.764   0.755
 7100SOL    HW222200   5.309   3.719   0.899
 7101SOL     OW22201   2.217   0.391   4.652
 7101SOL    HW122202   2.148   0.450   4.610
 7101SOL    HW222203   2.177   0.345   4.731
 7102SOL     OW22204   4.282   0.487   0.968
 7102SOL    HW122205   4.295   0.521   1.061
 7102SOL    HW222206   4.335   0.544   0.904
 7103SOL     OW22207   4.506   5.735   0.053
 7103SOL    HW122208   4.483   5.701   6.984
 7103SOL    HW222209   4.554   5.822   0.044
 7104SOL     OW22210   0.900   3.562   4.753
 7104SOL    HW122211   0.812   3.526   4.723
 7104SOL    HW222212   0.954   3.489   4.794
 7105SOL     OW22213   3.524   2.920   5.531
 7105SOL    HW122214   3.528   2.826   5.497
 7105SOL    HW222215   3.616   2.957   5.539
 7106SOL     OW22216   3.438   2.990   3.435
 7106SOL    HW122217   3.379   2.917   3.399
 7106SOL    HW222218   3.534   2.965   3.420
 7107SOL     OW22219   2.467   0.835   0.668
 7107SOL    HW122220   2.480   0.769   0.742
 7107SOL    HW222221   2.396   0.802   0.606
 7108SOL     OW22222   4.192   6.466   1.414
 7108SOL    HW122223   4.115   6.430   1.467
 7108SOL    HW222224   4.268   6.401   1.417
 7109SOL     OW22225   3.643   6.904   6.708
 7109SOL    HW122226   3.687   6.945   6.628
 7109SOL    HW222227   3.705   6.909   6.786
 7110SOL     OW22228   5.372   4.940   4.007
 7110SOL    HW122229   5.311   5.008   3.967
 7110SOL    HW222230   5.388   4.963   4.103
 7111SOL     OW22231   1.507   2.687   4.417
 7111SOL    HW122232   1.447   2.705   4.494
 7111SOL    HW222233   1.531   2.589   4.415
 7112SOL     OW22234   1.668   5.579   4.195
 7112SOL    HW122235   1.610   5.660   4.183
 7112SOL    HW222236   1.618   5.497   4.167
 7113SOL     OW22237   2.861   3.799   5.087
 7113SOL    HW122238   2.941   3.778   5.030
 7113SOL    HW222239   2.795   3.852   5.034
 7114SOL     OW22240   3.830   6.793   1.852
 7114SOL    HW122241   3.920   6.810   1.813
 7114SOL    HW222242   3.822   6.843   1.939
 7115SOL     OW22243   5.200   2.468   1.822
 7115SOL    HW122244   5.290   2.494   1.858
 7115SOL    HW222245   5.209   2.440   1.727
 7116SOL     OW22246   5.752   2.965   3.355
 7116SOL    HW122247   5.815   2.918   3.293
 7116SOL    HW222248   5.774   2.940   3.449
 7117SOL     OW22249   0.331   0.233   4.465
 7117SOL    HW122250   0.320   0.310   4.528
 7117SOL    HW222251   0.335   0.148   4.517
 7118SOL     OW22252   4.080   3.579   1.237
 7118SOL    HW122253   4.072   3.669   1.194
 7118SOL    HW222254   4.004   3.521   1.207
 7119SOL     OW22255   4.651   1.638   3.477
 7119SOL    HW122256   4.686   1.709   3.415
 7119SOL    HW222257   4.554   1.655   3.496
 7120SOL     OW22258   3.666   1.458   3.295
 7120SOL    HW122259   3.648   1.528   3.226
 7120SOL    HW222260   3.687   1.502   3.382
 7121SOL     OW22261   2.507   0.080   2.502
 7121SOL    HW122262   2.595   0.123   2.482
 7121SOL    HW222263   2.440   0.110   2.434
 7122SOL     OW22264   6.415   0.998   6.595
 7122SOL    HW122265   6.400   0.921   6.656
 7122SOL    HW222266   6.459   0.966   6.511
 7123SOL     OW22267   3.159   5.001   1.208
 7123SOL    HW122268   3.158   5.062   1.128
 7123SOL    HW222269   3.069   4.959   1.218
 7124SOL     OW22270   1.184   3.720   0.377
 7124SOL    HW122271   1.157   3.804   0.330
 7124SOL    HW222272   1.103   3.662   0.389
 7125SOL     OW22273   6.936   6.455   1.379
 7125SOL    HW122274   0.013   6.446   1.381
 7125SOL    HW222275   6.910   6.519   1.307
 7126SOL     OW22276   2.885   4.634   0.126
 7126SOL    HW122277   2.852   4.663   0.037
 7126SOL    HW222278   2.919   4.713   0.177
 7127SOL     OW22279   3.010   5.739   4.384
 7127SOL    HW122280   2.917   5.761   4.412
 7127SOL    HW222281   3.011   5.720   4.285
 7128SOL     OW22282   2.873   5.521   0.328
 7128SOL    HW122283   2.940   5.575   0.379
 7128SOL    HW222284   2.885   5.424   0.350
 7129SOL     OW22285   3.522   0.496   0.844
 7129SOL    HW122286   3.446   0.562   0.838
 7129SOL    HW222287   3.555   0.476   0.753
 7130SOL     OW22288   3.203   4.916   4.489
 7130SOL    HW122289   3.303   4.912   4.495
 7130SOL    HW222290   3.163   4.887   4.576
 7131SOL     OW22291   2.520   1.864   0.500
 7131SOL    HW122292   2.472   1.817   0.574
 7131SOL    HW222293   2.603   1.814   0.477
 7132SOL     OW22294   3.484   3.516   1.666
 7132SOL    HW122295   3.443   3.447   1.605
 7132SOL    HW222296   3.446   3.606   1.644
 7133SOL     OW22297   5.507   4.666   3.690
 7133SOL    HW122298   5.554   4.673   3.602
 7133SOL    HW222299   5.537   4.740   3.750
 7134SOL     OW22300   5.969   5.775   2.889
 7134SOL    HW122301   5.877   5.739   2.905
 7134SOL    HW222302   6.007   5.735   2.805
 7135SOL     OW22303   1.813   1.837   3.154
 7135SOL    HW122304   1.872   1.820   3.233
 7135SOL    HW222305   1.839   1.777   3.079
 7136SOL     OW22306   2.043   2.335   0.812
 7136SOL    HW122307   2.073   2.415   0.866
 7136SOL    HW222308   2.107   2.320   0.737
 7137SOL     OW22309   5.596   0.725   5.642
 7137SOL    HW122310   5.512   0.771   5.670
 7137SOL    HW222311   5.594   0.710   5.543
 7138SOL     OW22312   2.754   2.467   1.137
 7138SOL    HW122313   2.668   2.516   1.150
 7138SOL    HW222314   2.808   2.511   1.066
 7139SOL     OW22315   4.998   3.141   2.117
 7139SOL    HW122316   5.047   3.187   2.043
 7139SOL    HW222317   4.909   3.109   2.083
 7140SOL     OW22318   6.201   3.522   4.860
 7140SOL    HW122319   6.283   3.578   4.874
 7140SOL    HW222320   6.228   3.435   4.819
 7141SOL     OW22321   3.592   6.476   0.473
 7141SOL    HW122322   3.659   6.476   0.399
 7141SOL    HW222323   3.542   6.563   0.472
 7142SOL     OW22324   4.356   6.937   2.849
 7142SOL    HW122325   4.422   6.996   2.896
 7142SOL    HW222326   4.268   6.944   2.896
 7143SOL     OW22327   1.298   2.346   6.241
 7143SOL    HW122328   1.261   2.417   6.181
 7143SOL    HW222329   1.319   2.265   6.187
 7144SOL     OW22330   1.139   1.602   3.202
 7144SOL    HW122331   1.131   1.657   3.119
 7144SOL    HW222332   1.221   1.630   3.253
 7145SOL     OW22333   4.438   6.280   5.921
 7145SOL    HW122334   4.522   6.250   5.965
 7145SOL    HW222335   4.439   6.380   5.911
 7146SOL     OW22336   1.888   0.494   6.823
 7146SOL    HW122337   1.952   0.442   6.878
 7146SOL    HW222338   1.932   0.578   6.790
 7147SOL     OW22339   6.233   6.578   3.456
 7147SOL    HW122340   6.251   6.485   3.488
 7147SOL    HW222341   6.274   6.643   3.519
 7148SOL     OW22342   6.939   6.013   1.770
 7148SOL    HW122343   6.871   6.042   1.704
 7148SOL    HW222344   0.007   6.048   1.744
 7149SOL     OW22345   6.755   6.705   3.342
 7149SOL    HW122346   6.698   6.782   3.315
 7149SOL    HW222347   6.849   6.738   3.358
 7150SOL     OW22348   4.830   2.317   1.810
 7150SOL    HW122349   4.854   2.370   1.729
 7150SOL    HW222350   4.913   2.294   1.860
 7151SOL     OW22351   0.591   5.817   0.994
 7151SOL    HW122352   0.683   5.785   0.971
 7151SOL    HW222353   0.554   5.764   1.069
 7152SOL     OW22354   0.298   2.360   5.749
 7152SOL    HW122355   0.213   2.374   5.799
 7152SOL    HW222356   0.306   2.430   5.678
 7153SOL     OW22357   3.384   6.055   3.735
 7153SOL    HW122358   3.415   6.136   3.685
 7153SOL    HW222359   3.443   6.039   3.814
 7154SOL     OW22360   3.960   6.709   4.566
 7154SOL    HW122361   4.048   6.667   4.542
 7154SOL    HW222362   3.900   6.640   4.607
 7155SOL     OW22363   1.580   6.176   1.465
 7155SOL    HW122364   1.680   6.184   1.461
 7155SOL    HW222365   1.542   6.261   1.501
 7156SOL     OW22366   0.822   4.990   4.670
 7156SOL    HW122367   0.899   5.019   4.727
 7156SOL    HW222368   0.742   4.973   4.728
 7157SOL     OW22369   5.847   4.701   0.988
 7157SOL    HW122370   5.886   4.790   1.016
 7157SOL    HW222371   5.776   4.674   1.053
 7158SOL     OW22372   0.370   6.866   3.202
 7158SOL    HW122373   0.318   6.817   3.272
 7158SOL    HW222374   0.463   6.831   3.199
 7159SOL     OW22375   0.358   4.559   2.643
 7159SOL    HW122376   0.295   4.631   2.611
 7159SOL    HW222377   0.360   4.559   2.743
 7160SOL     OW22378   6.425   0.192   3.107
 7160SOL    HW122379   6.456   0.286   3.122
 7160SOL    HW222380   6.470   0.132   3.172
 7161SOL     OW22381   3.360   4.135   4.857
 7161SOL    HW122382   3.283   4.199   4.850
 7161SOL    HW222383   3.440   4.184   4.892
 7162SOL     OW22384   3.167   6.161   5.640
 7162SOL    HW122385   3.163   6.114   5.728
 7162SOL    HW222386   3.232   6.237   5.647
 7163SOL     OW22387   3.410   6.580   3.776
 7163SOL    HW122388   3.383   6.487   3.802
 7163SOL    HW222389   3.465   6.576   3.692
 7164SOL     OW22390   2.076   1.927   2.869
 7164SOL    HW122391   2.054   2.012   2.822
 7164SOL    HW222392   2.067   1.850   2.806
 7165SOL     OW22393   6.429   0.884   1.395
 7165SOL    HW122394   6.506   0.856   1.338
 7165SOL    HW222395   6.367   0.807   1.407
 7166SOL     OW22396   4.924   3.641   0.355
 7166SOL    HW122397   4.873   3.560   0.382
 7166SOL    HW222398   4.921   3.708   0.430
 7167SOL     OW22399   5.103   3.938   5.274
 7167SOL    HW122400   5.079   4.016   5.331
 7167SOL    HW222401   5.182   3.962   5.216
 7168SOL     OW22402   1.137   2.378   3.622
 7168SOL    HW122403   1.178   2.459   3.579
 7168SOL    HW222404   1.069   2.406   3.689
 7169SOL     OW22405   0.879   3.040   5.211
 7169SOL    HW122406   0.836   3.078   5.292
 7169SOL    HW222407   0.927   3.113   5.162
 7170SOL     OW22408   3.929   5.313   4.027
 7170SOL    HW122409   4.005   5.271   4.076
 7170SOL    HW222410   3.949   5.409   4.011
 7171SOL     OW22411   5.874   4.008   5.897
 7171SOL    HW122412   5.812   4.030   5.822
 7171SOL    HW222413   5.854   3.916   5.930
 7172SOL     OW22414   1.228   0.175   5.604
 7172SOL    HW122415   1.246   0.097   5.545
 7172SOL    HW222416   1.130   0.193   5.607
 7173SOL     OW22417   0.389   4.814   5.864
 7173SOL    HW122418   0.317   4.745   5.872
 7173SOL    HW222419   0.358   4.900   5.903
 7174SOL     OW22420   1.342   5.420   6.606
 7174SOL    HW122421   1.278   5.441   6.532
 7174SOL    HW222422   1.362   5.322   6.606
 7175SOL     OW22423   5.688   3.273   0.628
 7175SOL    HW122424   5.766   3.335   0.620
 7175SOL    HW222425   5.677   3.245   0.724
 7176SOL     OW22426   0.727   5.020   2.780
 7176SOL    HW122427   0.697   5.111   2.809
 7176SOL    HW222428   0.666   4.986   2.709
 7177SOL     OW22429   2.424   0.024   3.980
 7177SOL    HW122430   2.515   0.061   3.998
 7177SOL    HW222431   2.431   6.971   3.914
 7178SOL     OW22432   2.455   2.788   5.737
 7178SOL    HW122433   2.530   2.797   5.672
 7178SOL    HW222434   2.402   2.873   5.739
 7179SOL     OW22435   1.495   3.364   4.906
 7179SOL    HW122436   1.595   3.370   4.901
 7179SOL    HW222437   1.468   3.270   4.925
 7180SOL     OW22438   1.332   5.645   6.148
 7180SOL    HW122439   1.305   5.739   6.126
 7180SOL    HW222440   1.251   5.587   6.149
 7181SOL     OW22441   2.839   6.696   0.751
 7181SOL    HW122442   2.843   6.629   0.824
 7181SOL    HW222443   2.870   6.655   0.665
 7182SOL     OW22444   1.110   3.245   5.748
 7182SOL    HW122445   1.091   3.161   5.798
 7182SOL    HW222446   1.195   3.286   5.782
 7183SOL     OW22447   1.728   4.973   1.835
 7183SOL    HW122448   1.806   5.034   1.852
 7183SOL    HW222449   1.757   4.897   1.778
 7184SOL     OW22450   0.640   6.847   3.709
 7184SOL    HW122451   0.697   6.874   3.631
 7184SOL    HW222452   0.686   6.775   3.761
 7185SOL     OW22453   4.946   1.768   5.590
 7185SOL    HW122454   4.906   1.712   5.662
 7185SOL    HW222455   4.880   1.780   5.516
 7186SOL     OW22456   0.188   0.139   5.427
 7186SOL    HW122457   0.256   0.139   5.500
 7186SOL    HW222458   0.182   0.048   5.387
 7187SOL     OW22459   1.584   4.831   1.077
 7187SOL    HW122460   1.552   4.737   1.073
 7187SOL    HW222461   1.679   4.836   1.045
 7188SOL     OW22462   5.539   6.826   0.457
 7188SOL    HW122463   5.542   6.900   0.389
 7188SOL    HW222464   5.580   6.744   0.418
 7189SOL     OW22465   6.129   0.910   6.853
 7189SOL    HW122466   6.163   0.980   6.916
 7189SOL    HW222467   6.206   0.868   6.805
 7190SOL     OW22468   5.447   3.285   3.123
 7190SOL    HW122469   5.358   3.277   3.168
 7190SOL    HW222470   5.435   3.323   3.031
 7191SOL     OW22471   0.669   4.321   2.396
 7191SOL    HW122472   0.632   4.411   2.416
 7191SOL    HW222473   0.769   4.326   2.388
 7192SOL     OW22474   2.099   6.056   4.641
 7192SOL    HW122475   2.054   6.082   4.727
 7192SOL    HW222476   2.138   6.137   4.598
 7193SOL     OW22477   2.741   1.949   3.040
 7193SOL    HW122478   2.830   1.992   3.055
 7193SOL    HW222479   2.743   1.896   2.956
 7194SOL     OW22480   2.140   2.733   1.265
 7194SOL    HW122481   2.172   2.823   1.234
 7194SOL    HW222482   2.209   2.664   1.242
 7195SOL     OW22483   0.697   5.268   6.692
 7195SOL    HW122484   0.633   5.276   6.615
 7195SOL    HW222485   0.742   5.356   6.708
 7196SOL     OW22486   2.839   3.397   2.360
 7196SOL    HW122487   2.894   3.321   2.395
 7196SOL    HW222488   2.776   3.363   2.290
 7197SOL     OW22489   6.814   2.527   5.964
 7197SOL    HW122490   6.794   2.457   6.032
 7197SOL    HW222491   6.739   2.592   5.959
 7198SOL     OW22492   0.971   0.682   5.267
 7198SOL    HW122493   0.921   0.653   5.348
 7198SOL    HW222494   0.918   0.748   5.215
 7199SOL     OW22495   1.844   0.794   2.074
 7199SOL    HW122496   1.821   0.721   2.010
 7199SOL    HW222497   1.880   0.754   2.158
 7200SOL     OW22498   2.515   0.920   0.050
 7200SOL    HW122499   2.492   1.009   0.088
 7200SOL    HW222500   2.559   0.932   6.983
 7201SOL     OW22501   1.456   5.476   3.476
 7201SOL    HW122502   1.514   5.480   3.395
 7201SOL    HW222503   1.385   5.407   3.463
 7202SOL     OW22504   3.742   0.046   6.528
 7202SOL    HW122505   3.740   0.036   6.428
 7202SOL    HW222506   3.735   0.143   6.552
 7203SOL     OW22507   6.345   1.266   1.014
 7203SOL    HW122508   6.438   1.302   1.006
 7203SOL    HW222509   6.338   1.212   1.098
 7204SOL     OW22510   5.847   6.940   4.530
 7204SOL    HW122511   5.859   0.007   4.488
 7204SOL    HW222512   5.868   6.869   4.464
 7205SOL     OW22513   2.007   6.248   2.948
 7205SOL    HW122514   2.084   6.187   2.929
 7205SOL    HW222515   2.030   6.340   2.918
 7206SOL     OW22516   1.309   0.421   1.483
 7206SOL    HW122517   1.264   0.376   1.406
 7206SOL    HW222518   1.352   0.353   1.541
 7207SOL     OW22519   3.395   6.971   1.455
 7207SOL    HW122520   3.360   6.977   1.362
 7207SOL    HW222521   3.455   6.892   1.463
 7208SOL     OW22522   4.434   6.667   4.560
 7208SOL    HW122523   4.448   6.574   4.528
 7208SOL    HW222524   4.336   6.683   4.572
 7209SOL     OW22525   3.063   3.232   3.321
 7209SOL    HW122526   2.991   3.247   3.253
 7209SOL    HW222527   3.144   3.194   3.277
 7210SOL     OW22528   5.016   6.937   3.544
 7210SOL    HW122529   5.088   6.915   3.610
 7210SOL    HW222530   5.055   6.942   3.452
 7211SOL     OW22531   1.885   5.684   3.961
 7211SOL    HW122532   1.872   5.708   4.057
 7211SOL    HW222533   1.814   5.620   3.932
 7212SOL     OW22534   0.930   6.542   3.639
 7212SOL    HW122535   0.994   6.618   3.625
 7212SOL    HW222536   0.912   6.497   3.551
 7213SOL     OW22537   5.780   0.283   6.037
 7213SOL    HW122538   5.723   0.222   6.092
 7213SOL    HW222539   5.805   0.237   5.952
 7214SOL     OW22540   2.439   5.369   4.107
 7214SOL    HW122541   2.347   5.378   4.067
 7214SOL    HW222542   2.505   5.352   4.033
 7215SOL     OW22543   0.051   3.317   4.220
 7215SOL    HW122544   0.024   3.317   4.124
 7215SOL    HW222545   7.020   3.385   4.270
 7216SOL     OW22546   2.673   6.191   6.761
 7216SOL    HW122547   2.649   6.140   6.678
 7216SOL    HW222548   2.603   6.176   6.830
 7217SOL     OW22549   1.879   4.466   1.683
 7217SOL    HW122550   1.964   4.415   1.668
 7217SOL    HW222551   1.802   4.413   1.647
 7218SOL     OW22552   4.487   3.033   5.376
 7218SOL    HW122553   4.480   2.994   5.468
 7218SOL    HW222554   4.396   3.059   5.344
 7219SOL     OW22555   4.751   5.287   3.322
 7219SOL    HW122556   4.741   5.191   3.346
 7219SOL    HW222557   4.666   5.336   3.340
 7220SOL     OW22558   6.902   5.662   3.425
 7220SOL    HW122559   6.869   5.650   3.519
 7220SOL    HW222560   6.957   5.583   3.399
 7221SOL     OW22561   5.169   5.276   4.794
 7221SOL    HW122562   5.242   5.344   4.795
 7221SOL    HW222563   5.126   5.271   4.884
 7222SOL     OW22564   6.474   6.724   0.605
 7222SOL    HW122565   6.405   6.695   0.538
 7222SOL    HW222566   6.467   6.823   0.619
 7223SOL     OW22567   3.153   1.779   1.605
 7223SOL    HW122568   3.114   1.792   1.514
 7223SOL    HW222569   3.250   1.803   1.604
 7224SOL     OW22570   5.882   2.012   4.843
 7224SOL    HW122571   5.819   2.018   4.921
 7224SOL    HW222572   5.855   1.937   4.783
 7225SOL     OW22573   1.567   5.648   6.296
 7225SOL    HW122574   1.582   5.584   6.371
 7225SOL    HW222575   1.477   5.632   6.256
 7226SOL     OW22576   0.497   0.727   0.336
 7226SOL    HW122577   0.560   0.653   0.359
 7226SOL    HW222578   0.412   0.715   0.387
 7227SOL     OW22579   0.901   2.249   0.565
 7227SOL    HW122580   0.820   2.193   0.587
 7227SOL    HW222581   0.894   2.282   0.471
 7228SOL     OW22582   6.824   0.722   2.176
 7228SOL    HW122583   6.890   0.750   2.106
 7228SOL    HW222584   6.824   0.788   2.251
 7229SOL     OW22585   0.689   0.810   3.981
 7229SOL    HW122586   0.693   0.814   4.081
 7229SOL    HW222587   0.700   0.902   3.944
 7230SOL     OW22588   4.519   5.447   4.787
 7230SOL    HW122589   4.569   5.384   4.727
 7230SOL    HW222590   4.444   5.398   4.831
 7231SOL     OW22591   4.482   0.347   0.169
 7231SOL    HW122592   4.455   0.384   0.258
 7231SOL    HW222593   4.581   0.336   0.165
 7232SOL     OW22594   3.684   4.927   3.276
 7232SOL    HW122595   3.615   4.898   3.209
 7232SOL    HW222596   3.663   4.888   3.365
 7233SOL     OW22597   0.628   2.902   4.913
 7233SOL    HW122598   0.565   2.907   4.835
 7233SOL    HW222599   0.575   2.888   4.997
 7234SOL     OW22600   6.661   2.920   2.217
 7234SOL    HW122601   6.578   2.868   2.195
 7234SOL    HW222602   6.670   2.996   2.151
 7235SOL     OW22603   6.255   3.993   3.432
 7235SOL    HW122604   6.277   3.900   3.402
 7235SOL    HW222605   6.156   4.008   3.423
 7236SOL     OW22606   3.157   1.682   2.838
 7236SOL    HW122607   3.143   1.619   2.915
 7236SOL    HW222608   3.121   1.772   2.862
 7237SOL     OW22609   6.473   6.432   5.209
 7237SOL    HW122610   6.434   6.368   5.143
 7237SOL    HW222611   6.547   6.484   5.165
 7238SOL     OW22612   2.247   2.080   1.245
 7238SOL    HW122613   2.341   2.112   1.257
 7238SOL    HW222614   2.241   2.026   1.161
 7239SOL     OW22615   2.051   1.707   3.334
 7239SOL    HW122616   2.044   1.631   3.400
 7239SOL    HW222617   2.148   1.730   3.321
 7240SOL     OW22618   2.907   4.231   6.962
 7240SOL    HW122619   2.870   4.173   0.012
 7240SOL    HW222620   2.846   4.309   6.947
 7241SOL     OW22621   3.251   0.555   6.394
 7241SOL    HW122622   3.300   0.535   6.480
 7241SOL    HW222623   3.157   0.523   6.402
 7242SOL     OW22624   5.932   4.110   6.688
 7242SOL    HW122625   6.004   4.159   6.738
 7242SOL    HW222626   5.892   4.040   6.747
 7243SOL     OW22627   1.132   4.497   6.610
 7243SOL    HW122628   1.057   4.450   6.562
 7243SOL    HW222629   1.094   4.571   6.666
 7244SOL     OW22630   4.628   0.433   1.097
 7244SOL    HW122631   4.722   0.455   1.069
 7244SOL    HW222632   4.593   0.506   1.155
 7245SOL     OW22633   0.370   2.559   4.790
 7245SOL    HW122634   0.341   2.475   4.835
 7245SOL    HW222635   0.466   2.578   4.811
 7246SOL     OW22636   6.717   6.882   4.659
 7246SOL    HW122637   6.712   6.956   4.593
 7246SOL    HW222638   6.657   6.807   4.631
 7247SOL     OW22639   2.508   6.663   2.764
 7247SOL    HW122640   2.448   6.672   2.844
 7247SOL    HW222641   2.469   6.595   2.701
 7248SOL     OW22642   3.312   1.123   3.795
 7248SOL    HW122643   3.315   1.168   3.706
 7248SOL    HW222644   3.351   1.184   3.864
 7249SOL     OW22645   5.515   4.543   1.368
 7249SOL    HW122646   5.517   4.497   1.279
 7249SOL    HW222647   5.458   4.491   1.431
 7250SOL     OW22648   2.372   4.750   6.466
 7250SOL    HW122649   2.450   4.793   6.511
 7250SOL    HW222650   2.288   4.798   6.493
 7251SOL     OW22651   6.821   0.034   5.479
 7251SOL    HW122652   6.758   6.999   5.531
 7251SOL    HW222653   6.800   0.130   5.496
 7252SOL     OW22654   3.482   3.569   4.603
 7252SOL    HW122655   3.426   3.590   4.523
 7252SOL    HW222656   3.445   3.617   4.683
 7253SOL     OW22657   1.415   6.122   0.577
 7253SOL    HW122658   1.380   6.158   0.664
 7253SOL    HW222659   1.354   6.149   0.503
 7254SOL     OW22660   3.699   5.430   4.801
 7254SOL    HW122661   3.667   5.345   4.761
 7254SOL    HW222662   3.721   5.495   4.728
 7255SOL     OW22663   3.222   3.348   2.447
 7255SOL    HW122664   3.142   3.314   2.396
 7255SOL    HW222665   3.251   3.278   2.512
 7256SOL     OW22666   4.834   4.974   4.645
 7256SOL    HW122667   4.799   4.990   4.737
 7256SOL    HW222668   4.758   4.956   4.583
 7257SOL     OW22669   6.366   2.893   3.202
 7257SOL    HW122670   6.276   2.864   3.168
 7257SOL    HW222671   6.437   2.856   3.143
 7258SOL     OW22672   4.501   0.356   4.424
 7258SOL    HW122673   4.517   0.323   4.331
 7258SOL    HW222674   4.403   0.369   4.438
 7259SOL     OW22675   2.940   4.436   0.297
 7259SOL    HW122676   2.892   4.461   0.381
 7259SOL    HW222677   2.917   4.500   0.225
 7260SOL     OW22678   3.560   1.600   3.099
 7260SOL    HW122679   3.575   1.607   3.001
 7260SOL    HW222680   3.477   1.650   3.125
 7261SOL     OW22681   2.694   3.230   1.749
 7261SOL    HW122682   2.634   3.304   1.718
 7261SOL    HW222683   2.655   3.142   1.723
 7262SOL     OW22684   5.938   2.433   4.152
 7262SOL    HW122685   5.949   2.455   4.055
 7262SOL    HW222686   6.010   2.479   4.204
 7263SOL     OW22687   1.152   5.604   1.898
 7263SOL    HW122688   1.165   5.636   1.804
 7263SOL    HW222689   1.209   5.524   1.914
 7264SOL     OW22690   6.736   1.321   6.889
 7264SOL    HW122691   6.698   1.317   6.797
 7264SOL    HW222692   6.832   1.347   6.884
 7265SOL     OW22693   5.885   5.137   6.079
 7265SOL    HW122694   5.796   5.148   6.035
 7265SOL    HW222695   5.952   5.196   6.034
 7266SOL     OW22696   4.149   0.390   1.361
 7266SOL    HW122697   4.180   0.416   1.453
 7266SOL    HW222698   4.049   0.391   1.358
 7267SOL     OW22699   6.385   4.707   5.065
 7267SOL    HW122700   6.444   4.699   5.146
 7267SOL    HW222701   6.338   4.795   5.067
 7268SOL     OW22702   4.370   5.423   2.307
 7268SOL    HW122703   4.333   5.336   2.277
 7268SOL    HW222704   4.451   5.407   2.364
 7269SOL     OW22705   0.680   5.406   1.587
 7269SOL    HW122706   0.756   5.387   1.649
 7269SOL    HW222707   0.707   5.382   1.493
 7270SOL     OW22708   2.508   2.093   3.059
 7270SOL    HW122709   2.419   2.048   3.064
 7270SOL    HW222710   2.580   2.024   3.068
 7271SOL     OW22711   0.415   4.187   2.798
 7271SOL    HW122712   0.350   4.148   2.733
 7271SOL    HW222713   0.393   4.284   2.813
 7272SOL     OW22714   5.477   2.861   2.619
 7272SOL    HW122715   5.389   2.814   2.607
 7272SOL    HW222716   5.461   2.954   2.650
 7273SOL     OW22717   5.649   3.934   1.850
 7273SOL    HW122718   5.716   3.909   1.780
 7273SOL    HW222719   5.562   3.890   1.830
 7274SOL     OW22720   6.694   5.312   5.943
 7274SOL    HW122721   6.696   5.278   6.037
 7274SOL    HW222722   6.695   5.234   5.880
 7275SOL     OW22723   6.339   1.001   0.383
 7275SOL    HW122724   6.326   1.099   0.365
 7275SOL    HW222725   6.408   0.965   0.320
 7276SOL     OW22726   2.756   1.958   3.740
 7276SOL    HW122727   2.699   1.971   3.659
 7276SOL    HW222728   2.817   1.880   3.725
 7277SOL     OW22729   4.993   1.144   5.516
 7277SOL    HW122730   5.011   1.194   5.600
 7277SOL    HW222731   5.035   1.191   5.438
 7278SOL     OW22732   3.740   1.554   3.622
 7278SOL    HW122733   3.729   1.627   3.689
 7278SOL    HW222734   3.825   1.568   3.571
 7279SOL     OW22735   4.194   4.256   1.216
 7279SOL    HW122736   4.117   4.229   1.275
 7279SOL    HW222737   4.232   4.174   1.173
 7280SOL     OW22738   5.141   2.308   5.214
 7280SOL    HW122739   5.203   2.238   5.178
 7280SOL    HW222740   5.187   2.397   5.213
 7281SOL     OW22741   3.607   6.903   0.622
 7281SOL    HW122742   3.522   6.949   0.649
 7281SOL    HW222743   3.680   6.926   0.686
 7282SOL     OW22744   6.779   5.551   2.048
 7282SOL    HW122745   6.833   5.493   1.988
 7282SOL    HW222746   6.764   5.640   2.006
 7283SOL     OW22747   2.721   6.067   1.954
 7283SOL    HW122748   2.736   6.015   1.870
 7283SOL    HW222749   2.802   6.061   2.012
 7284SOL     OW22750   6.780   2.853   3.729
 7284SOL    HW122751   6.868   2.805   3.720
 7284SOL    HW222752   6.782   2.936   3.672
 7285SOL     OW22753   4.927   2.898   1.474
 7285SOL    HW122754   4.982   2.969   1.431
 7285SOL    HW222755   4.877   2.937   1.551
 7286SOL     OW22756   0.654   1.197   0.755
 7286SOL    HW122757   0.709   1.148   0.688
 7286SOL    HW222758   0.567   1.226   0.714
 7287SOL     OW22759   0.337   2.687   3.951
 7287SOL    HW122760   0.345   2.632   3.867
 7287SOL    HW222761   0.416   2.669   4.009
 7288SOL     OW22762   2.775   2.235   2.742
 7288SOL    HW122763   2.768   2.294   2.662
 7288SOL    HW222764   2.762   2.290   2.825
 7289SOL     OW22765   5.594   2.209   1.800
 7289SOL    HW122766   5.585   2.225   1.702
 7289SOL    HW222767   5.506   2.181   1.837
 7290SOL     OW22768   4.275   0.853   6.192
 7290SOL    HW122769   4.229   0.922   6.248
 7290SOL    HW222770   4.253   0.868   6.096
 7291SOL     OW22771   3.288   0.142   7.019
 7291SOL    HW122772   3.199   0.140   0.042
 7291SOL    HW222773   3.279   0.105   6.926
 7292SOL     OW22774   1.620   6.997   3.045
 7292SOL    HW122775   1.660   6.907   3.061
 7292SOL    HW222776   1.634   0.032   3.126
 7293SOL     OW22777   1.468   0.984   5.217
 7293SOL    HW122778   1.562   0.950   5.208
 7293SOL    HW222779   1.412   0.944   5.145
 7294SOL     OW22780   3.047   4.624   1.676
 7294SOL    HW122781   3.012   4.566   1.749
 7294SOL    HW222782   3.146   4.637   1.688
 7295SOL     OW22783   6.168   4.840   1.511
 7295SOL    HW122784   6.087   4.895   1.493
 7295SOL    HW222785   6.240   4.862   1.445
 7296SOL     OW22786   3.494   4.878   3.041
 7296SOL    HW122787   3.588   4.905   3.025
 7296SOL    HW222788   3.473   4.797   2.988
 7297SOL     OW22789   3.180   6.808   1.608
 7297SOL    HW122790   3.212   6.844   1.696
 7297SOL    HW222791   3.244   6.833   1.536
 7298SOL     OW22792   4.329   6.153   6.611
 7298SOL    HW122793   4.351   6.152   6.709
 7298SOL    HW222794   4.241   6.108   6.597
 7299SOL     OW22795   1.270   3.006   6.783
 7299SOL    HW122796   1.182   2.987   6.825
 7299SOL    HW222797   1.288   2.938   6.712
 7300SOL     OW22798   1.010   5.015   2.266
 7300SOL    HW122799   1.029   4.956   2.187
 7300SOL    HW222800   1.096   5.047   2.306
 7301SOL     OW22801   6.191   0.279   5.925
 7301SOL    HW122802   6.217   0.375   5.932
 7301SOL    HW222803   6.117   0.270   5.858
 7302SOL     OW22804   5.540   3.047   6.060
 7302SOL    HW122805   5.548   3.000   5.972
 7302SOL    HW222806   5.459   3.106   6.059
 7303SOL     OW22807   3.245   1.049   0.687
 7303SOL    HW122808   3.251   0.985   0.610
 7303SOL    HW222809   3.187   1.126   0.662
 7304SOL     OW22810   2.567   4.940   1.352
 7304SOL    HW122811   2.620   4.935   1.436
 7304SOL    HW222812   2.469   4.935   1.373
 7305SOL     OW22813   5.905   2.178   0.106
 7305SOL    HW122814   5.958   2.228   0.174
 7305SOL    HW222815   5.837   2.239   0.065
 7306SOL     OW22816   3.465   1.778   1.023
 7306SOL    HW122817   3.533   1.742   1.087
 7306SOL    HW222818   3.511   1.806   0.938
 7307SOL     OW22819   3.334   6.570   2.297
 7307SOL    HW122820   3.255   6.597   2.244
 7307SOL    HW222821   3.405   6.534   2.236
 7308SOL     OW22822   5.765   0.948   1.910
 7308SOL    HW122823   5.795   0.871   1.852
 7308SOL    HW222824   5.718   1.015   1.853
 7309SOL     OW22825   2.585   6.183   3.393
 7309SOL    HW122826   2.665   6.243   3.398
 7309SOL    HW222827   2.587   6.118   3.468
 7310SOL     OW22828   1.639   3.259   0.360
 7310SOL    HW122829   1.650   3.184   0.425
 7310SOL    HW222830   1.575   3.327   0.397
 7311SOL     OW22831   0.454   0.469   0.605
 7311SOL    HW122832   0.379   0.406   0.585
 7311SOL    HW222833   0.520   0.424   0.666
 7312SOL     OW22834   6.852   1.906   5.503
 7312SOL    HW122835   6.936   1.902   5.556
 7312SOL    HW222836   6.855   1.839   5.429
 7313SOL     OW22837   2.231   0.715   1.201
 7313SOL    HW122838   2.215   0.812   1.222
 7313SOL    HW222839   2.143   0.667   1.195
 7314SOL     OW22840   6.961   4.277   6.933
 7314SOL    HW122841   6.878   4.230   6.902
 7314SOL    HW222842   6.986   4.348   6.868
 7315SOL     OW22843   0.093   5.402   2.475
 7315SOL    HW122844   0.042   5.477   2.433
 7315SOL    HW222845   0.139   5.349   2.403
 7316SOL     OW22846   3.145   2.143   6.431
 7316SOL    HW122847   3.097   2.143   6.344
 7316SOL    HW222848   3.164   2.237   6.459
 7317SOL     OW22849   3.332   1.543   1.860
 7317SOL    HW122850   3.314   1.487   1.941
 7317SOL    HW222851   3.296   1.635   1.875
 7318SOL     OW22852   3.876   6.839   2.347
 7318SOL    HW122853   3.860   6.887   2.261
 7318SOL    HW222854   3.957   6.877   2.391
 7319SOL     OW22855   6.821   4.176   0.172
 7319SOL    HW122856   6.843   4.079   0.180
 7319SOL    HW222857   6.872   4.216   0.096
 7320SOL     OW22858   6.781   4.046   1.043
 7320SOL    HW122859   6.685   4.065   1.064
 7320SOL    HW222860   6.827   4.131   1.018
 7321SOL     OW22861   2.235   5.988   6.086
 7321SOL    HW122862   2.297   5.988   6.165
 7321SOL    HW222863   2.276   6.041   6.012
 7322SOL     OW22864   1.139   1.335   3.134
 7322SOL    HW122865   1.045   1.301   3.134
 7322SOL    HW222866   1.138   1.434   3.151
 7323SOL     OW22867   1.947   1.324   0.949
 7323SOL    HW122868   1.919   1.314   1.044
 7323SOL    HW222869   2.014   1.398   0.942
 7324SOL     OW22870   5.576   4.603   2.615
 7324SOL    HW122871   5.493   4.552   2.635
 7324SOL    HW222872   5.609   4.581   2.524
 7325SOL     OW22873   3.332   0.596   5.469
 7325SOL    HW122874   3.268   0.601   5.392
 7325SOL    HW222875   3.400   0.668   5.459
 7326SOL     OW22876   3.138   0.646   6.130
 7326SOL    HW122877   3.115   0.662   6.226
 7326SOL    HW222878   3.078   0.574   6.093
 7327SOL     OW22879   6.065   3.456   3.036
 7327SOL    HW122880   6.033   3.524   3.103
 7327SOL    HW222881   6.160   3.476   3.011
 7328SOL     OW22882   3.804   5.383   5.708
 7328SOL    HW122883   3.767   5.333   5.787
 7328SOL    HW222884   3.776   5.478   5.713
 7329SOL     OW22885   2.009   3.168   0.267
 7329SOL    HW122886   1.949   3.170   0.187
 7329SOL    HW222887   1.958   3.195   0.348
 7330SOL     OW22888   3.186   3.083   1.459
 7330SOL    HW122889   3.177   3.105   1.362
 7330SOL    HW222890   3.096   3.074   1.500
 7331SOL     OW22891   5.110   0.530   2.113
 7331SOL    HW122892   5.030   0.546   2.056
 7331SOL    HW222893   5.165   0.613   2.119
 7332SOL     OW22894   3.858   4.081   7.017
 7332SOL    HW122895   3.841   4.167   6.970
 7332SOL    HW222896   3.810   4.007   6.970
 7333SOL     OW22897   6.700   3.430   2.259
 7333SOL    HW122898   6.689   3.509   2.199
 7333SOL    HW222899   6.774   3.372   2.225
 7334SOL     OW22900   2.879   6.690   5.693
 7334SOL    HW122901   2.954   6.642   5.738
 7334SOL    HW222902   2.821   6.733   5.762
 7335SOL     OW22903   0.076   3.757   2.878
 7335SOL    HW122904   0.042   3.726   2.789
 7335SOL    HW222905   0.175   3.765   2.875
 7336SOL     OW22906   1.788   6.311   0.699
 7336SOL    HW122907   1.873   6.292   0.748
 7336SOL    HW222908   1.784   6.409   0.677
 7337SOL     OW22909   3.454   2.794   2.036
 7337SOL    HW122910   3.482   2.791   2.132
 7337SOL    HW222911   3.507   2.728   1.983
 7338SOL     OW22912   5.301   2.731   1.105
 7338SOL    HW122913   5.202   2.717   1.115
 7338SOL    HW222914   5.337   2.774   1.187
 7339SOL     OW22915   6.940   6.242   5.028
 7339SOL    HW122916   7.008   6.179   4.991
 7339SOL    HW222917   6.912   6.307   4.957
 7340SOL     OW22918   3.464   1.201   0.240
 7340SOL    HW122919   3.376   1.163   0.211
 7340SOL    HW222920   3.454   1.297   0.263
 7341SOL     OW22921   0.391   4.644   3.894
 7341SOL    HW122922   0.330   4.653   3.972
 7341SOL    HW222923   0.346   4.682   3.813
 7342SOL     OW22924   6.585   0.673   0.384
 7342SOL    HW122925   6.636   0.673   0.469
 7342SOL    HW222926   6.578   0.580   0.348
 7343SOL     OW22927   6.027   4.298   2.261
 7343SOL    HW122928   6.047   4.396   2.268
 7343SOL    HW222929   6.006   4.262   2.352
 7344SOL     OW22930   1.906   6.554   6.434
 7344SOL    HW122931   1.846   6.476   6.414
 7344SOL    HW222932   1.914   6.612   6.353
 7345SOL     OW22933   4.022   4.964   5.529
 7345SOL    HW122934   4.019   5.017   5.614
 7345SOL    HW222935   4.001   4.868   5.549
 7346SOL     OW22936   3.505   4.239   1.318
 7346SOL    HW122937   3.558   4.323   1.313
 7346SOL    HW222938   3.407   4.262   1.326
 7347SOL     OW22939   6.368   2.464   2.014
 7347SOL    HW122940   6.297   2.515   1.966
 7347SOL    HW222941   6.457   2.507   1.999
 7348SOL     OW22942   1.160   3.052   3.791
 7348SOL    HW122943   1.190   2.957   3.780
 7348SOL    HW222944   1.136   3.069   3.886
 7349SOL     OW22945   3.237   2.266   1.514
 7349SOL    HW122946   3.164   2.321   1.472
 7349SOL    HW222947   3.226   2.170   1.488
 7350SOL     OW22948   0.440   2.290   3.305
 7350SOL    HW122949   0.450   2.389   3.298
 7350SOL    HW222950   0.432   2.251   3.213
 7351SOL     OW22951   4.096   4.618   6.689
 7351SOL    HW122952   4.027   4.683   6.657
 7351SOL    HW222953   4.178   4.627   6.634
 7352SOL     OW22954   1.405   1.357   2.579
 7352SOL    HW122955   1.454   1.270   2.584
 7352SOL    HW222956   1.355   1.362   2.492
 7353SOL     OW22957   6.359   2.139   5.094
 7353SOL    HW122958   6.350   2.148   5.194
 7353SOL    HW222959   6.433   2.197   5.062
 7354SOL     OW22960   6.669   1.129   5.992
 7354SOL    HW122961   6.754   1.151   5.942
 7354SOL    HW222962   6.644   1.034   5.975
 7355SOL     OW22963   1.118   6.232   1.016
 7355SOL    HW122964   1.101   6.221   1.114
 7355SOL    HW222965   1.035   6.209   0.965
 7356SOL     OW22966   5.977   2.648   6.167
 7356SOL    HW122967   5.947   2.565   6.215
 7356SOL    HW222968   5.973   2.726   6.229
 7357SOL     OW22969   4.700   0.708   0.874
 7357SOL    HW122970   4.698   0.783   0.940
 7357SOL    HW222971   4.740   0.740   0.788
 7358SOL     OW22972   3.697   2.089   3.753
 7358SOL    HW122973   3.599   2.110   3.751
 7358SOL    HW222974   3.731   2.101   3.846
 7359SOL     OW22975   3.353   3.024   1.950
 7359SOL    HW122976   3.404   3.093   2.001
 7359SOL    HW222977   3.394   2.934   1.965
 7360SOL     OW22978   1.504   2.891   5.158
 7360SOL    HW122979   1.455   2.806   5.137
 7360SOL    HW222980   1.594   2.869   5.196
 7361SOL     OW22981   5.116   6.754   0.738
 7361SOL    HW122982   5.091   6.848   0.762
 7361SOL    HW222983   5.196   6.755   0.679
 7362SOL     OW22984   1.091   0.121   4.814
 7362SOL    HW122985   1.107   0.034   4.860
 7362SOL    HW222986   1.008   0.115   4.759
 7363SOL     OW22987   5.756   2.495   0.433
 7363SOL    HW122988   5.664   2.456   0.426
 7363SOL    HW222989   5.778   2.545   0.349
 7364SOL     OW22990   4.204   6.547   0.885
 7364SOL    HW122991   4.167   6.630   0.843
 7364SOL    HW222992   4.143   6.470   0.868
 7365SOL     OW22993   2.892   6.799   2.546
 7365SOL    HW122994   2.987   6.775   2.524
 7365SOL    HW222995   2.865   6.753   2.631
 7366SOL     OW22996   1.016   5.197   6.994
 7366SOL    HW122997   1.078   5.149   0.035
 7366SOL    HW222998   0.964   5.130   6.941
 7367SOL     OW22999   4.301   4.028   1.453
 7367SOL    HW123000   4.216   3.980   1.428
 7367SOL    HW223001   4.353   4.048   1.370
 7368SOL     OW23002   3.266   3.637   4.469
 7368SOL    HW123003   3.253   3.735   4.473
 7368SOL    HW223004   3.183   3.590   4.498
 7369SOL     OW23005   4.831   3.824   1.359
 7369SOL    HW123006   4.754   3.809   1.297
 7369SOL    HW223007   4.798   3.861   1.446
 7370SOL     OW23008   1.584   0.188   6.621
 7370SOL    HW123009   1.649   0.126   6.665
 7370SOL    HW223010   1.606   0.283   6.645
 7371SOL     OW23011   2.875   5.241   3.814
 7371SOL    HW123012   2.800   5.265   3.875
 7371SOL    HW223013   2.896   5.319   3.755
 7372SOL     OW23014   3.440   0.057   5.365
 7372SOL    HW123015   3.341   0.062   5.356
 7372SOL    HW223016   3.478   0.149   5.372
 7373SOL     OW23017   4.768   0.954   3.251
 7373SOL    HW123018   4.742   0.946   3.155
 7373SOL    HW223019   4.775   0.863   3.291
 7374SOL     OW23020   1.820   2.768   4.884
 7374SOL    HW123021   1.813   2.812   4.794
 7374SOL    HW223022   1.880   2.689   4.877
 7375SOL     OW23023   1.218   1.826   4.384
 7375SOL    HW123024   1.248   1.793   4.295
 7375SOL    HW223025   1.253   1.919   4.398
 7376SOL     OW23026   3.170   2.907   0.028
 7376SOL    HW123027   3.098   2.924   6.984
 7376SOL    HW223028   3.258   2.901   7.004
 7377SOL     OW23029   4.730   5.082   1.728
 7377SOL    HW123030   4.805   5.044   1.673
 7377SOL    HW223031   4.716   5.177   1.702
 7378SOL     OW23032   6.754   2.517   4.475
 7378SOL    HW123033   6.696   2.593   4.506
 7378SOL    HW223034   6.703   2.431   4.482
 7379SOL     OW23035   4.537   1.259   2.798
 7379SOL    HW123036   4.627   1.257   2.753
 7379SOL    HW223037   4.477   1.191   2.755
 7380SOL     OW23038   6.581   3.582   5.715
 7380SOL    HW123039   6.671   3.624   5.725
 7380SOL    HW223040   6.543   3.603   5.625
 7381SOL     OW23041   4.843   2.728   2.426
 7381SOL    HW123042   4.886   2.780   2.352
 7381SOL    HW223043   4.839   2.785   2.508
 7382SOL     OW23044   0.139   4.951   5.253
 7382SOL    HW123045   0.223   4.975   5.302
 7382SOL    HW223046   0.115   5.026   5.191
 7383SOL     OW23047   0.254   6.798   2.661
 7383SOL    HW123048   0.169   6.823   2.616
 7383SOL    HW223049   0.331   6.816   2.599
 7384SOL     OW23050   5.404   0.847   2.422
 7384SOL    HW123051   5.397   0.947   2.412
 7384SOL    HW223052   5.455   0.826   2.505
 7385SOL     OW23053   4.338   5.252   1.864
 7385SOL    HW123054   4.312   5.161   1.831
 7385SOL    HW223055   4.398   5.242   1.944
 7386SOL     OW23056   0.540   2.409   5.298
 7386SOL    HW123057   0.482   2.490   5.311
 7386SOL    HW223058   0.501   2.332   5.347
 7387SOL     OW23059   3.872   5.915   4.338
 7387SOL    HW123060   3.797   5.922   4.404
 7387SOL    HW223061   3.922   6.001   4.334
 7388SOL     OW23062   6.814   5.723   4.059
 7388SOL    HW123063   6.726   5.676   4.047
 7388SOL    HW223064   6.847   5.755   3.971
 7389SOL     OW23065   1.655   4.543   6.988
 7389SOL    HW123066   1.634   4.516   6.894
 7389SOL    HW223067   1.581   4.515   0.026
 7390SOL     OW23068   1.114   2.056   6.340
 7390SOL    HW123069   1.159   2.061   6.429
 7390SOL    HW223070   1.062   2.140   6.325
 7391SOL     OW23071   5.285   4.512   6.050
 7391SOL    HW123072   5.200   4.562   6.037
 7391SOL    HW223073   5.284   4.429   5.994
 7392SOL     OW23074   1.768   5.873   5.556
 7392SOL    HW123075   1.756   5.824   5.470
 7392SOL    HW223076   1.740   5.814   5.632
 7393SOL     OW23077   5.895   4.984   1.877
 7393SOL    HW123078   5.941   5.040   1.808
 7393SOL    HW223079   5.850   4.907   1.833
 7394SOL     OW23080   4.311   3.131   6.025
 7394SOL    HW123081   4.273   3.067   5.958
 7394SOL    HW223082   4.285   3.101   6.117
 7395SOL     OW23083   0.561   0.610   6.140
 7395SOL    HW123084   0.621   0.563   6.204
 7395SOL    HW223085   0.544   0.703   6.173
 7396SOL     OW23086   1.922   0.986   6.337
 7396SOL    HW123087   1.863   0.948   6.408
 7396SOL    HW223088   1.935   1.084   6.353
 7397SOL     OW23089   6.369   4.676   4.409
 7397SOL    HW123090   6.285   4.721   4.379
 7397SOL    HW223091   6.348   4.604   4.474
 7398SOL     OW23092   3.294   5.303   3.797
 7398SOL    HW123093   3.242   5.239   3.854
 7398SOL    HW223094   3.382   5.322   3.840
 7399SOL     OW23095   0.538   4.247   5.548
 7399SOL    HW123096   0.549   4.244   5.449
 7399SOL    HW223097   0.626   4.267   5.591
 7400SOL     OW23098   3.374   4.184   6.875
 7400SOL    HW123099   3.400   4.116   6.944
 7400SOL    HW223100   3.289   4.229   6.904
 7401SOL     OW23101   0.378   0.816   3.457
 7401SOL    HW123102   0.393   0.874   3.537
 7401SOL    HW223103   0.418   0.726   3.473
 7402SOL     OW23104   1.927   0.295   3.750
 7402SOL    HW123105   1.832   0.263   3.759
 7402SOL    HW223106   1.960   0.274   3.658
 7403SOL     OW23107   2.264   2.786   3.782
 7403SOL    HW123108   2.332   2.728   3.827
 7403SOL    HW223109   2.234   2.858   3.846
 7404SOL     OW23110   2.133   0.064   1.292
 7404SOL    HW123111   2.090   0.050   1.381
 7404SOL    HW223112   2.065   0.056   1.220
 7405SOL     OW23113   1.638   4.627   4.579
 7405SOL    HW123114   1.572   4.629   4.505
 7405SOL    HW223115   1.669   4.720   4.599
 7406SOL     OW23116   1.724   3.843   2.358
 7406SOL    HW123117   1.686   3.871   2.446
 7406SOL    HW223118   1.817   3.880   2.349
 7407SOL     OW23119   6.889   6.151   4.593
 7407SOL    HW123120   6.846   6.151   4.502
 7407SOL    HW223121   6.943   6.234   4.604
 7408SOL     OW23122   1.376   4.382   5.897
 7408SOL    HW123123   1.400   4.318   5.970
 7408SOL    HW223124   1.349   4.469   5.937
 7409SOL     OW23125   0.760   1.009   4.564
 7409SOL    HW123126   0.668   1.036   4.591
 7409SOL    HW223127   0.772   1.027   4.466
 7410SOL     OW23128   0.285   4.709   1.210
 7410SOL    HW123129   0.345   4.642   1.254
 7410SOL    HW223130   0.287   4.696   1.111
 7411SOL     OW23131   2.423   6.998   4.457
 7411SOL    HW123132   2.390   6.985   4.363
 7411SOL    HW223133   2.520   7.020   4.455
 7412SOL     OW23134   2.756   0.641   1.231
 7412SOL    HW123135   2.708   0.679   1.310
 7412SOL    HW223136   2.820   0.571   1.262
 7413SOL     OW23137   0.154   3.826   3.853
 7413SOL    HW123138   0.223   3.788   3.791
 7413SOL    HW223139   0.086   3.877   3.800
 7414SOL     OW23140   6.943   0.285   2.395
 7414SOL    HW123141   6.947   0.385   2.404
 7414SOL    HW223142   0.002   0.245   2.437
 7415SOL     OW23143   0.973   3.061   3.071
 7415SOL    HW123144   1.025   3.022   2.995
 7415SOL    HW223145   1.034   3.073   3.150
 7416SOL     OW23146   3.382   1.175   4.230
 7416SOL    HW123147   3.473   1.195   4.267
 7416SOL    HW223148   3.313   1.191   4.300
 7417SOL     OW23149   1.242   6.417   5.508
 7417SOL    HW123150   1.155   6.369   5.520
 7417SOL    HW223151   1.235   6.508   5.548
 7418SOL     OW23152   3.240   4.351   1.337
 7418SOL    HW123153   3.140   4.342   1.339
 7418SOL    HW223154   3.264   4.448   1.326
 7419SOL     OW23155   5.842   1.623   4.784
 7419SOL    HW123156   5.778   1.590   4.715
 7419SOL    HW223157   5.935   1.613   4.750
 7420SOL     OW23158   6.726   6.987   2.261
 7420SOL    HW123159   6.759   0.002   2.175
 7420SOL    HW223160   6.728   6.887   2.258
 7421SOL     OW23161   3.085   3.335   0.941
 7421SOL    HW123162   3.184   3.345   0.938
 7421SOL    HW223163   3.044   3.415   0.983
 7422SOL     OW23164   6.538   3.157   1.782
 7422SOL    HW123165   6.492   3.224   1.840
 7422SOL    HW223166   6.479   3.077   1.771
 7423SOL     OW23167   0.945   4.817   6.279
 7423SOL    HW123168   1.021   4.805   6.343
 7423SOL    HW223169   0.974   4.789   6.188
 7424SOL     OW23170   6.081   1.370   4.262
 7424SOL    HW123171   6.096   1.469   4.250
 7424SOL    HW223172   6.000   1.342   4.211
 7425SOL     OW23173   4.167   4.729   6.937
 7425SOL    HW123174   4.241   4.681   6.984
 7425SOL    HW223175   4.143   4.679   6.854
 7426SOL     OW23176   0.631   2.250   6.979
 7426SOL    HW123177   0.587   2.214   0.039
 7426SOL    HW223178   0.578   2.328   6.945
 7427SOL     OW23179   3.015   5.976   4.573
 7427SOL    HW123180   2.965   5.924   4.642
 7427SOL    HW223181   2.992   5.941   4.482
 7428SOL     OW23182   4.149   2.147   5.386
 7428SOL    HW123183   4.229   2.088   5.399
 7428SOL    HW223184   4.066   2.097   5.411
 7429SOL     OW23185   6.632   6.934   2.794
 7429SOL    HW123186   6.614   6.926   2.696
 7429SOL    HW223187   6.646   0.008   2.817
 7430SOL     OW23188   6.895   4.836   5.640
 7430SOL    HW123189   6.838   4.756   5.620
 7430SOL    HW223190   6.986   4.823   5.600
 7431SOL     OW23191   0.851   3.665   1.357
 7431SOL    HW123192   0.948   3.665   1.333
 7431SOL    HW223193   0.840   3.669   1.456
 7432SOL     OW23194   0.396   6.209   4.118
 7432SOL    HW123195   0.368   6.119   4.152
 7432SOL    HW223196   0.445   6.198   4.031
 7433SOL     OW23197   6.372   5.127   0.932
 7433SOL    HW123198   6.371   5.211   0.878
 7433SOL    HW223199   6.385   5.150   1.029
 7434SOL     OW23200   3.067   1.514   6.834
 7434SOL    HW123201   3.011   1.584   6.877
 7434SOL    HW223202   3.132   1.557   6.772
 7435SOL     OW23203   3.331   6.587   5.928
 7435SOL    HW123204   3.378   6.667   5.892
 7435SOL    HW223205   3.273   6.613   6.005
 7436SOL     OW23206   6.506   2.890   6.532
 7436SOL    HW123207   6.432   2.867   6.468
 7436SOL    HW223208   6.582   2.931   6.482
 7437SOL     OW23209   6.699   5.347   6.890
 7437SOL    HW123210   6.703   5.382   6.984
 7437SOL    HW223211   6.747   5.259   6.886
 7438SOL     OW23212   0.907   4.460   1.496
 7438SOL    HW123213   0.869   4.404   1.422
 7438SOL    HW223214   0.836   4.477   1.565
 7439SOL     OW23215   3.090   6.994   3.769
 7439SOL    HW123216   3.025   6.934   3.722
 7439SOL    HW223217   3.176   6.944   3.784
 7440SOL     OW23218   0.910   3.295   5.087
 7440SOL    HW123219   0.985   3.267   5.028
 7440SOL    HW223220   0.823   3.279   5.042
 7441SOL     OW23221   5.887   7.014   4.210
 7441SOL    HW123222   5.972   6.995   4.258
 7441SOL    HW223223   5.814   6.956   4.245
 7442SOL     OW23224   0.913   0.703   6.494
 7442SOL    HW123225   0.922   0.685   6.592
 7442SOL    HW223226   0.987   0.764   6.465
 7443SOL     OW23227   6.591   2.167   0.422
 7443SOL    HW123228   6.667   2.111   0.386
 7443SOL    HW223229   6.628   2.251   0.460
 7444SOL     OW23230   6.955   3.233   6.385
 7444SOL    HW123231   6.958   3.251   6.483
 7444SOL    HW223232   6.942   3.319   6.335
 7445SOL     OW23233   4.763   1.124   1.588
 7445SOL    HW123234   4.829   1.073   1.533
 7445SOL    HW223235   4.712   1.060   1.646
 7446SOL     OW23236   6.115   4.260   6.864
 7446SOL    HW123237   6.146   4.330   6.799
 7446SOL    HW223238   6.106   4.301   6.954
 7447SOL     OW23239   2.672   4.933   6.307
 7447SOL    HW123240   2.648   4.877   6.228
 7447SOL    HW223241   2.655   4.881   6.391
 7448SOL     OW23242   5.598   6.711   5.925
 7448SOL    HW123243   5.650   6.639   5.972
 7448SOL    HW223244   5.611   6.703   5.826
 7449SOL     OW23245   4.740   2.368   2.299
 7449SOL    HW123246   4.758   2.312   2.218
 7449SOL    HW223247   4.728   2.463   2.272
 7450SOL     OW23248   5.025   2.896   3.900
 7450SOL    HW123249   4.955   2.955   3.939
 7450SOL    HW223250   5.007   2.882   3.802
 7451SOL     OW23251   1.665   0.195   3.244
 7451SOL    HW123252   1.711   0.242   3.169
 7451SOL    HW223253   1.733   0.160   3.308
 7452SOL     OW23254   1.747   0.485   4.651
 7452SOL    HW123255   1.663   0.526   4.684
 7452SOL    HW223256   1.744   0.478   4.551
 7453SOL     OW23257   5.666   6.037   5.065
 7453SOL    HW123258   5.658   6.057   5.162
 7453SOL    HW223259   5.672   6.122   5.013
 7454SOL     OW23260   0.900   2.987   1.548
 7454SOL    HW123261   0.815   2.954   1.506
 7454SOL    HW223262   0.886   2.999   1.646
 7455SOL     OW23263   5.952   1.239   1.419
 7455SOL    HW123264   5.914   1.331   1.429
 7455SOL    HW223265   5.879   1.172   1.431
 7456SOL     OW23266   1.602   2.057   4.482
 7456SOL    HW123267   1.604   2.156   4.502
 7456SOL    HW223268   1.599   2.007   4.568
 7457SOL     OW23269   5.470   0.442   5.852
 7457SOL    HW123270   5.529   0.411   5.778
 7457SOL    HW223271   5.502   0.404   5.939
 7458SOL     OW23272   2.099   6.822   6.626
 7458SOL    HW123273   2.016   6.876   6.616
 7458SOL    HW223274   2.151   6.855   6.705
 7459SOL     OW23275   4.474   0.531   6.784
 7459SOL    HW123276   4.551   0.491   6.834
 7459SOL    HW223277   4.493   0.527   6.686
 7460SOL     OW23278   1.993   5.316   0.329
 7460SOL    HW123279   2.021   5.395   0.275
 7460SOL    HW223280   1.969   5.345   0.421
 7461SOL     OW23281   5.248   1.403   5.529
 7461SOL    HW123282   5.338   1.384   5.568
 7461SOL    HW223283   5.177   1.375   5.593
 7462SOL     OW23284   1.793   2.442   1.491
 7462SOL    HW123285   1.868   2.490   1.536
 7462SOL    HW223286   1.724   2.417   1.559
 7463SOL     OW23287   3.626   3.166   1.682
 7463SOL    HW123288   3.684   3.100   1.730
 7463SOL    HW223289   3.531   3.136   1.686
 7464SOL     OW23290   4.056   6.016   6.614
 7464SOL    HW123291   4.034   5.940   6.674
 7464SOL    HW223292   4.023   5.997   6.521
 7465SOL     OW23293   1.608   0.436   1.158
 7465SOL    HW123294   1.518   0.412   1.121
 7465SOL    HW223295   1.633   0.528   1.127
 7466SOL     OW23296   0.668   0.178   6.433
 7466SOL    HW123297   0.757   0.175   6.477
 7466SOL    HW223298   0.620   0.092   6.450
 7467SOL     OW23299   6.137   2.675   1.136
 7467SOL    HW123300   6.184   2.593   1.105
 7467SOL    HW223301   6.203   2.750   1.144
 7468SOL     OW23302   4.741   2.253   2.541
 7468SOL    HW123303   4.660   2.272   2.597
 7468SOL    HW223304   4.739   2.309   2.459
 7469SOL     OW23305   1.076   6.913   6.946
 7469SOL    HW123306   1.073   7.007   6.914
 7469SOL    HW223307   1.041   6.908   0.017
 7470SOL     OW23308   0.752   2.864   2.704
 7470SOL    HW123309   0.719   2.948   2.746
 7470SOL    HW223310   0.686   2.834   2.635
 7471SOL     OW23311   5.925   6.547   4.950
 7471SOL    HW123312   5.898   6.473   4.888
 7471SOL    HW223313   6.004   6.519   5.003
 7472SOL     OW23314   4.737   6.505   4.194
 7472SOL    HW123315   4.662   6.567   4.174
 7472SOL    HW223316   4.813   6.556   4.235
 7473SOL     OW23317   6.818   4.106   3.213
 7473SOL    HW123318   6.898   4.098   3.274
 7473SOL    HW223319   6.737   4.075   3.262
 7474SOL     OW23320   2.746   0.922   4.479
 7474SOL    HW123321   2.749   0.823   4.464
 7474SOL    HW223322   2.822   0.965   4.429
 7475SOL     OW23323   4.934   1.004   2.437
 7475SOL    HW123324   5.007   1.072   2.445
 7475SOL    HW223325   4.877   1.025   2.358
 7476SOL     OW23326   4.268   6.430   4.779
 7476SOL    HW123327   4.273   6.382   4.691
 7476SOL    HW223328   4.198   6.389   4.836
 7477SOL     OW23329   4.683   1.052   4.370
 7477SOL    HW123330   4.719   1.001   4.448
 7477SOL    HW223331   4.724   1.143   4.366
 7478SOL     OW23332   4.079   4.002   6.194
 7478SOL    HW123333   4.024   4.064   6.137
 7478SOL    HW223334   4.174   4.031   6.191
 7479SOL     OW23335   3.973   1.908   0.807
 7479SOL    HW123336   4.048   1.869   0.754
 7479SOL    HW223337   3.955   2.001   0.776
 7480SOL     OW23338   6.107   5.351   1.230
 7480SOL    HW123339   6.164   5.405   1.292
 7480SOL    HW223340   6.105   5.394   1.140
 7481SOL     OW23341   5.478   5.080   1.204
 7481SOL    HW123342   5.500   5.026   1.123
 7481SOL    HW223343   5.420   5.157   1.178
 7482SOL     OW23344   4.026   1.380   2.034
 7482SOL    HW123345   3.995   1.345   2.122
 7482SOL    HW223346   3.957   1.441   1.996
 7483SOL     OW23347   4.163   2.035   4.769
 7483SOL    HW123348   4.070   2.072   4.767
 7483SOL    HW223349   4.229   2.110   4.764
 7484SOL     OW23350   0.230   0.305   1.991
 7484SOL    HW123351   0.269   0.381   2.043
 7484SOL    HW223352   0.153   0.266   2.043
 7485SOL     OW23353   3.288   6.329   5.278
 7485SOL    HW123354   3.374   6.292   5.311
 7485SOL    HW223355   3.261   6.282   5.194
 7486SOL     OW23356   2.262   6.821   5.479
 7486SOL    HW123357   2.221   6.771   5.403
 7486SOL    HW223358   2.330   6.762   5.524
 7487SOL     OW23359   1.963   6.639   2.282
 7487SOL    HW123360   1.922   6.681   2.363
 7487SOL    HW223361   2.040   6.581   2.310
 7488SOL     OW23362   2.182   7.008   5.166
 7488SOL    HW123363   2.259   6.952   5.199
 7488SOL    HW223364   2.208   0.082   5.169
 7489SOL     OW23365   4.790   2.020   5.158
 7489SOL    HW123366   4.736   1.948   5.114
 7489SOL    HW223367   4.887   1.997   5.155
 7490SOL     OW23368   0.804   0.988   1.036
 7490SOL    HW123369   0.742   1.046   1.088
 7490SOL    HW223370   0.786   0.999   0.938
 7491SOL     OW23371   0.601   4.919   0.100
 7491SOL    HW123372   0.659   4.899   0.021
 7491SOL    HW223373   0.656   4.962   0.172
 7492SOL     OW23374   2.521   1.911   4.975
 7492SOL    HW123375   2.484   1.861   4.897
 7492SOL    HW223376   2.595   1.971   4.945
 7493SOL     OW23377   6.222   4.095   5.888
 7493SOL    HW123378   6.306   4.148   5.903
 7493SOL    HW223379   6.145   4.143   5.930
 7494SOL     OW23380   6.068   0.823   2.402
 7494SOL    HW123381   6.044   0.892   2.333
 7494SOL    HW223382   6.022   0.737   2.379
 7495SOL     OW23383   2.443   1.227   1.485
 7495SOL    HW123384   2.473   1.321   1.502
 7495SOL    HW223385   2.433   1.178   1.572
 7496SOL     OW23386   1.014   4.618   5.939
 7496SOL    HW123387   1.108   4.600   5.970
 7496SOL    HW223388   1.007   4.600   5.841
 7497SOL     OW23389   3.014   4.845   1.445
 7497SOL    HW123390   3.024   4.746   1.455
 7497SOL    HW223391   2.946   4.865   1.375
 7498SOL     OW23392   2.674   1.390   4.248
 7498SOL    HW123393   2.674   1.290   4.245
 7498SOL    HW223394   2.595   1.426   4.198
 7499SOL     OW23395   6.265   0.255   3.398
 7499SOL    HW123396   6.319   0.332   3.365
 7499SOL    HW223397   6.168   0.273   3.381
 7500SOL     OW23398   3.973   6.136   2.611
 7500SOL    HW123399   3.948   6.049   2.654
 7500SOL    HW223400   3.895   6.198   2.614
 7501SOL     OW23401   6.701   4.386   4.367
 7501SOL    HW123402   6.747   4.454   4.310
 7501SOL    HW223403   6.700   4.298   4.319
 7502SOL     OW23404   1.332   1.603   5.419
 7502SOL    HW123405   1.268   1.539   5.461
 7502SOL    HW223406   1.382   1.652   5.491
 7503SOL     OW23407   3.043   0.905   6.578
 7503SOL    HW123408   3.004   0.891   6.669
 7503SOL    HW223409   3.026   0.999   6.549
 7504SOL     OW23410   4.075   6.781   3.532
 7504SOL    HW123411   3.996   6.837   3.555
 7504SOL    HW223412   4.057   6.732   3.447
 7505SOL     OW23413   2.968   0.854   5.173
 7505SOL    HW123414   2.992   0.933   5.116
 7505SOL    HW223415   3.008   0.865   5.264
 7506SOL     OW23416   4.069   0.990   2.728
 7506SOL    HW123417   4.050   0.966   2.823
 7506SOL    HW223418   3.984   1.018   2.683
 7507SOL     OW23419   0.038   6.637   0.321
 7507SOL    HW123420   6.975   6.686   0.303
 7507SOL    HW223421   0.068   6.590   0.238
 7508SOL     OW23422   5.598   6.688   2.692
 7508SOL    HW123423   5.567   6.740   2.772
 7508SOL    HW223424   5.519   6.648   2.646
 7509SOL     OW23425   4.848   4.676   0.382
 7509SOL    HW123426   4.802   4.590   0.408
 7509SOL    HW223427   4.803   4.715   0.302
 7510SOL     OW23428   2.791   3.840   5.395
 7510SOL    HW123429   2.694   3.838   5.372
 7510SOL    HW223430   2.844   3.869   5.315
 7511SOL     OW23431   1.412   0.487   2.405
 7511SOL    HW123432   1.354   0.513   2.328
 7511SOL    HW223433   1.375   0.527   2.489
 7512SOL     OW23434   2.897   4.050   1.382
 7512SOL    HW123435   2.835   4.065   1.459
 7512SOL    HW223436   2.936   4.137   1.353
 7513SOL     OW23437   1.778   2.557   0.363
 7513SOL    HW123438   1.824   2.643   0.381
 7513SOL    HW223439   1.841   2.493   0.318
 7514SOL     OW23440   2.530   6.053   2.165
 7514SOL    HW123441   2.580   6.057   2.078
 7514SOL    HW223442   2.432   6.043   2.146
 7515SOL     OW23443   0.881   0.122   2.701
 7515SOL    HW123444   0.894   0.033   2.746
 7515SOL    HW223445   0.786   0.152   2.714
 7516SOL     OW23446   6.927   5.844   4.312
 7516SOL    HW123447   6.864   5.793   4.253
 7516SOL    HW223448   7.009   5.790   4.329
 7517SOL     OW23449   6.485   3.709   1.216
 7517SOL    HW123450   6.431   3.791   1.199
 7517SOL    HW223451   6.579   3.722   1.183
 7518SOL     OW23452   3.630   5.890   3.644
 7518SOL    HW123453   3.564   5.964   3.653
 7518SOL    HW223454   3.605   5.815   3.705
 7519SOL     OW23455   0.202   6.381   4.025
 7519SOL    HW123456   0.270   6.316   4.057
 7519SOL    HW223457   0.114   6.362   4.069
 7520SOL     OW23458   2.426   0.390   1.933
 7520SOL    HW123459   2.359   0.330   1.889
 7520SOL    HW223460   2.389   0.483   1.937
 7521SOL     OW23461   4.382   4.744   5.324
 7521SOL    HW123462   4.346   4.825   5.279
 7521SOL    HW223463   4.378   4.756   5.423
 7522SOL     OW23464   2.515   0.870   6.422
 7522SOL    HW123465   2.555   0.914   6.502
 7522SOL    HW223466   2.449   0.931   6.379
 7523SOL     OW23467   5.981   1.138   5.583
 7523SOL    HW123468   6.077   1.114   5.568
 7523SOL    HW223469   5.952   1.207   5.517
 7524SOL     OW23470   0.277   2.670   5.993
 7524SOL    HW123471   0.320   2.580   5.995
 7524SOL    HW223472   0.182   2.661   6.023
 7525SOL     OW23473   2.279   0.427   6.091
 7525SOL    HW123474   2.327   0.379   6.164
 7525SOL    HW223475   2.342   0.446   6.016
 7526SOL     OW23476   3.696   2.954   3.359
 7526SOL    HW123477   3.730   2.931   3.267
 7526SOL    HW223478   3.764   3.011   3.405
 7527SOL     OW23479   4.716   4.551   2.582
 7527SOL    HW123480   4.625   4.571   2.546
 7527SOL    HW223481   4.711   4.474   2.645
 7528SOL     OW23482   4.689   2.563   0.508
 7528SOL    HW123483   4.680   2.617   0.424
 7528SOL    HW223484   4.692   2.466   0.485
 7529SOL     OW23485   5.537   1.286   4.266
 7529SOL    HW123486   5.583   1.198   4.266
 7529SOL    HW223487   5.596   1.355   4.223
 7530SOL     OW23488   6.904   3.259   2.163
 7530SOL    HW123489   6.936   3.177   2.116
 7530SOL    HW223490   6.954   3.270   2.249
 7531SOL     OW23491   4.338   2.374   4.298
 7531SOL    HW123492   4.330   2.283   4.257
 7531SOL    HW223493   4.380   2.437   4.233
 7532SOL     OW23494   5.523   5.549   1.837
 7532SOL    HW123495   5.571   5.495   1.768
 7532SOL    HW223496   5.430   5.515   1.847
 7533SOL     OW23497   1.897   1.102   2.850
 7533SOL    HW123498   1.996   1.112   2.864
 7533SOL    HW223499   1.858   1.192   2.829
 7534SOL     OW23500   3.888   6.481   4.707
 7534SOL    HW123501   3.863   6.539   4.785
 7534SOL    HW223502   3.906   6.388   4.738
 7535SOL     OW23503   2.966   0.986   5.839
 7535SOL    HW123504   2.991   0.970   5.935
 7535SOL    HW223505   2.895   1.057   5.835
 7536SOL     OW23506   5.634   4.934   5.275
 7536SOL    HW123507   5.544   4.978   5.271
 7536SOL    HW223508   5.656   4.895   5.185
 7537SOL     OW23509   1.880   4.374   5.472
 7537SOL    HW123510   1.975   4.401   5.457
 7537SOL    HW223511   1.848   4.320   5.395
 7538SOL     OW23512   3.228   3.243   2.710
 7538SOL    HW123513   3.149   3.195   2.747
 7538SOL    HW223514   3.235   3.333   2.752
 7539SOL     OW23515   2.592   2.361   5.079
 7539SOL    HW123516   2.632   2.281   5.034
 7539SOL    HW223517   2.610   2.355   5.178
 7540SOL     OW23518   3.452   0.964   6.087
 7540SOL    HW123519   3.381   0.939   6.153
 7540SOL    HW223520   3.410   0.982   5.998
 7541SOL     OW23521   0.044   3.959   5.166
 7541SOL    HW123522   0.077   3.909   5.245
 7541SOL    HW223523   6.966   3.956   5.163
 7542SOL     OW23524   0.609   6.519   6.247
 7542SOL    HW123525   0.530   6.523   6.309
 7542SOL    HW223526   0.586   6.565   6.161
 7543SOL     OW23527   4.381   1.871   0.489
 7543SOL    HW123528   4.361   1.870   0.391
 7543SOL    HW223529   4.398   1.965   0.518
 7544SOL     OW23530   0.140   1.848   3.185
 7544SOL    HW123531   0.192   1.806   3.110
 7544SOL    HW223532   0.162   1.801   3.270
 7545SOL     OW23533   4.859   6.641   3.075
 7545SOL    HW123534   4.833   6.625   3.170
 7545SOL    HW223535   4.821   6.728   3.044
 7546SOL     OW23536   4.442   0.634   0.791
 7546SOL    HW123537   4.438   0.688   0.707
 7546SOL    HW223538   4.516   0.668   0.848
 7547SOL     OW23539   3.922   6.534   0.430
 7547SOL    HW123540   3.931   6.545   0.331
 7547SOL    HW223541   3.902   6.438   0.451
 7548SOL     OW23542   2.458   1.685   0.698
 7548SOL    HW123543   2.535   1.621   0.695
 7548SOL    HW223544   2.372   1.634   0.699
 7549SOL     OW23545   5.197   1.833   1.793
 7549SOL    HW123546   5.148   1.782   1.863
 7549SOL    HW223547   5.134   1.895   1.746
 7550SOL     OW23548   2.685   5.323   2.662
 7550SOL    HW123549   2.759   5.263   2.632
 7550SOL    HW223550   2.600   5.271   2.668
 7551SOL     OW23551   4.733   3.970   6.156
 7551SOL    HW123552   4.791   4.028   6.214
 7551SOL    HW223553   4.754   3.874   6.174
 7552SOL     OW23554   2.365   5.644   3.938
 7552SOL    HW123555   2.393   5.666   3.844
 7552SOL    HW223556   2.310   5.561   3.938
 7553SOL     OW23557   3.802   5.048   6.074
 7553SOL    HW123558   3.833   4.961   6.036
 7553SOL    HW223559   3.763   5.033   6.165
 7554SOL     OW23560   5.112   1.233   0.849
 7554SOL    HW123561   5.163   1.297   0.905
 7554SOL    HW223562   5.130   1.140   0.879
 7555SOL     OW23563   1.402   5.392   4.844
 7555SOL    HW123564   1.445   5.427   4.927
 7555SOL    HW223565   1.459   5.319   4.806
 7556SOL     OW23566   0.024   2.144   5.618
 7556SOL    HW123567   0.017   2.229   5.670
 7556SOL    HW223568   0.061   2.072   5.677
 7557SOL     OW23569   4.926   3.964   5.704
 7557SOL    HW123570   4.948   4.022   5.625
 7557SOL    HW223571   4.909   3.871   5.674
 7558SOL     OW23572   2.216   2.788   4.118
 7558SOL    HW123573   2.183   2.878   4.087
 7558SOL    HW223574   2.173   2.765   4.205
 7559SOL     OW23575   6.648   5.287   1.286
 7559SOL    HW123576   6.685   5.370   1.327
 7559SOL    HW223577   6.704   5.259   1.209
 7560SOL     OW23578   5.097   6.584   6.831
 7560SOL    HW123579   5.024   6.517   6.820
 7560SOL    HW223580   5.176   6.556   6.777
 7561SOL     OW23581   0.860   3.261   0.156
 7561SOL    HW123582   0.956   3.237   0.137
 7561SOL    HW223583   0.809   3.179   0.181
 7562SOL     OW23584   4.661   5.859   4.641
 7562SOL    HW123585   4.643   5.931   4.575
 7562SOL    HW223586   4.614   5.775   4.612
 7563SOL     OW23587   2.925   6.937   0.676
 7563SOL    HW123588   2.866   6.960   0.599
 7563SOL    HW223589   2.897   6.849   0.715
 7564SOL     OW23590   5.009   1.376   3.676
 7564SOL    HW123591   4.928   1.398   3.621
 7564SOL    HW223592   5.084   1.348   3.616
 7565SOL     OW23593   5.031   4.171   6.273
 7565SOL    HW123594   5.026   4.159   6.372
 7565SOL    HW223595   5.047   4.083   6.228
 7566SOL     OW23596   1.242   4.572   3.721
 7566SOL    HW123597   1.184   4.504   3.676
 7566SOL    HW223598   1.250   4.548   3.818
 7567SOL     OW23599   1.542   2.874   5.499
 7567SOL    HW123600   1.464   2.817   5.470
 7567SOL    HW223601   1.514   2.970   5.498
 7568SOL     OW23602   6.188   5.650   4.199
 7568SOL    HW123603   6.117   5.580   4.191
 7568SOL    HW223604   6.251   5.625   4.273
 7569SOL     OW23605   4.568   5.780   6.214
 7569SOL    HW123606   4.506   5.789   6.291
 7569SOL    HW223607   4.516   5.775   6.129
 7570SOL     OW23608   5.590   5.041   5.549
 7570SOL    HW123609   5.500   5.019   5.585
 7570SOL    HW223610   5.606   4.990   5.465
 7571SOL     OW23611   5.018   4.435   1.641
 7571SOL    HW123612   5.023   4.504   1.713
 7571SOL    HW223613   4.923   4.403   1.633
 7572SOL     OW23614   5.020   0.701   3.878
 7572SOL    HW123615   4.983   0.624   3.826
 7572SOL    HW223616   5.119   0.697   3.877
 7573SOL     OW23617   5.665   5.473   4.443
 7573SOL    HW123618   5.729   5.498   4.516
 7573SOL    HW223619   5.587   5.424   4.481
 7574SOL     OW23620   6.364   1.551   4.639
 7574SOL    HW123621   6.380   1.602   4.555
 7574SOL    HW223622   6.384   1.610   4.718
 7575SOL     OW23623   4.560   0.745   5.989
 7575SOL    HW123624   4.495   0.762   5.915
 7575SOL    HW223625   4.566   0.826   6.047
 7576SOL     OW23626   6.078   5.412   0.215
 7576SOL    HW123627   6.169   5.414   0.173
 7576SOL    HW223628   6.023   5.341   0.172
 7577SOL     OW23629   6.917   0.092   5.031
 7577SOL    HW123630   6.976   0.017   5.005
 7577SOL    HW223631   6.961   0.147   5.102
 7578SOL     OW23632   1.643   6.570   3.692
 7578SOL    HW123633   1.678   6.624   3.768
 7578SOL    HW223634   1.711   6.502   3.664
 7579SOL     OW23635   4.095   2.150   2.320
 7579SOL    HW123636   4.165   2.079   2.323
 7579SOL    HW223637   4.113   2.211   2.243
 7580SOL     OW23638   1.272   3.800   3.998
 7580SOL    HW123639   1.348   3.852   3.959
 7580SOL    HW223640   1.307   3.724   4.052
 7581SOL     OW23641   4.431   0.802   1.330
 7581SOL    HW123642   4.459   0.893   1.303
 7581SOL    HW223643   4.511   0.743   1.340
 7582SOL     OW23644   3.780   1.427   0.559
 7582SOL    HW123645   3.870   1.414   0.601
 7582SOL    HW223646   3.791   1.440   0.461
 7583SOL     OW23647   5.961   3.793   2.098
 7583SOL    HW123648   5.892   3.864   2.109
 7583SOL    HW223649   5.936   3.733   2.022
 7584SOL     OW23650   2.693   6.705   1.166
 7584SOL    HW123651   2.737   6.618   1.140
 7584SOL    HW223652   2.611   6.719   1.110
 7585SOL     OW23653   1.427   2.917   5.956
 7585SOL    HW123654   1.496   2.884   6.020
 7585SOL    HW223655   1.389   2.841   5.905
 7586SOL     OW23656   3.151   0.663   3.301
 7586SOL    HW123657   3.160   0.564   3.316
 7586SOL    HW223658   3.123   0.707   3.386
 7587SOL     OW23659   3.223   1.362   7.006
 7587SOL    HW123660   3.180   1.427   6.943
 7587SOL    HW223661   3.236   1.406   0.073
 7588SOL     OW23662   0.382   4.024   1.981
 7588SOL    HW123663   0.449   3.994   1.914
 7588SOL    HW223664   0.292   3.987   1.958
 7589SOL     OW23665   5.929   6.582   0.492
 7589SOL    HW123666   5.961   6.506   0.548
 7589SOL    HW223667   5.997   6.655   0.491
 7590SOL     OW23668   3.151   1.726   6.498
 7590SOL    HW123669   3.053   1.718   6.480
 7590SOL    HW223670   3.200   1.733   6.411
 7591SOL     OW23671   0.176   5.538   0.553
 7591SOL    HW123672   0.153   5.625   0.596
 7591SOL    HW223673   0.255   5.550   0.493
 7592SOL     OW23674   0.222   4.609   6.894
 7592SOL    HW123675   0.298   4.620   6.957
 7592SOL    HW223676   0.208   4.694   6.843
 7593SOL     OW23677   6.197   2.571   6.365
 7593SOL    HW123678   6.123   2.583   6.431
 7593SOL    HW223679   6.160   2.570   6.273
 7594SOL     OW23680   0.380   4.553   2.228
 7594SOL    HW123681   0.301   4.537   2.287
 7594SOL    HW223682   0.404   4.468   2.180
 7595SOL     OW23683   0.456   2.742   6.441
 7595SOL    HW123684   0.546   2.786   6.450
 7595SOL    HW223685   0.387   2.800   6.484
 7596SOL     OW23686   4.796   5.371   2.547
 7596SOL    HW123687   4.826   5.309   2.620
 7596SOL    HW223688   4.832   5.462   2.564
 7597SOL     OW23689   2.897   5.786   1.431
 7597SOL    HW123690   2.921   5.758   1.338
 7597SOL    HW223691   2.980   5.813   1.480
 7598SOL     OW23692   6.254   0.999   2.736
 7598SOL    HW123693   6.292   1.065   2.800
 7598SOL    HW223694   6.217   0.921   2.786
 7599SOL     OW23695   5.053   1.192   3.886
 7599SOL    HW123696   5.035   1.272   3.828
 7599SOL    HW223697   4.972   1.134   3.889
 7600SOL     OW23698   1.921   0.704   2.316
 7600SOL    HW123699   2.011   0.718   2.358
 7600SOL    HW223700   1.850   0.721   2.384
 7601SOL     OW23701   1.871   5.599   3.021
 7601SOL    HW123702   1.796   5.534   3.030
 7601SOL    HW223703   1.909   5.620   3.111
 7602SOL     OW23704   1.517   3.612   5.433
 7602SOL    HW123705   1.437   3.603   5.374
 7602SOL    HW223706   1.490   3.658   5.518
 7603SOL     OW23707   1.464   6.145   6.255
 7603SOL    HW123708   1.524   6.091   6.196
 7603SOL    HW223709   1.408   6.205   6.199
 7604SOL     OW23710   2.776   5.530   4.002
 7604SOL    HW123711   2.754   5.570   4.091
 7604SOL    HW223712   2.730   5.442   3.993
 7605SOL     OW23713   1.372   6.373   0.310
 7605SOL    HW123714   1.358   6.275   0.295
 7605SOL    HW223715   1.457   6.401   0.266
 7606SOL     OW23716   0.351   2.249   2.128
 7606SOL    HW123717   0.369   2.280   2.222
 7606SOL    HW223718   0.429   2.195   2.096
 7607SOL     OW23719   4.231   6.509   0.424
 7607SOL    HW123720   4.279   6.460   0.351
 7607SOL    HW223721   4.146   6.548   0.388
 7608SOL     OW23722   3.310   3.805   3.355
 7608SOL    HW123723   3.262   3.881   3.399
 7608SOL    HW223724   3.253   3.723   3.359
 7609SOL     OW23725   6.651   3.690   3.408
 7609SOL    HW123726   6.705   3.620   3.455
 7609SOL    HW223727   6.696   3.714   3.322
 7610SOL     OW23728   5.760   0.940   6.985
 7610SOL    HW123729   5.786   0.857   0.011
 7610SOL    HW223730   5.785   1.020   0.017
 7611SOL     OW23731   0.597   1.855   0.183
 7611SOL    HW123732   0.679   1.877   0.236
 7611SOL    HW223733   0.554   1.773   0.219
 7612SOL     OW23734   3.957   2.169   4.545
 7612SOL    HW123735   3.918   2.213   4.626
 7612SOL    HW223736   3.910   2.082   4.528
 7613SOL     OW23737   4.745   1.914   1.822
 7613SOL    HW123738   4.778   1.999   1.864
 7613SOL    HW223739   4.803   1.838   1.850
 7614SOL     OW23740   4.498   2.756   1.474
 7614SOL    HW123741   4.533   2.772   1.566
 7614SOL    HW223742   4.469   2.661   1.465
 7615SOL     OW23743   5.034   4.611   6.100
 7615SOL    HW123744   4.967   4.679   6.070
 7615SOL    HW223745   5.036   4.607   6.200
 7616SOL     OW23746   0.629   4.537   4.091
 7616SOL    HW123747   0.568   4.614   4.072
 7616SOL    HW223748   0.656   4.493   4.006
 7617SOL     OW23749   3.083   5.728   2.550
 7617SOL    HW123750   3.152   5.702   2.482
 7617SOL    HW223751   3.050   5.646   2.597
 7618SOL     OW23752   1.010   2.077   0.150
 7618SOL    HW123753   1.072   2.000   0.136
 7618SOL    HW223754   0.957   2.093   0.067
 7619SOL     OW23755   5.725   3.304   4.458
 7619SOL    HW123756   5.697   3.399   4.446
 7619SOL    HW223757   5.689   3.268   4.544
 7620SOL     OW23758   4.181   5.639   6.841
 7620SOL    HW123759   4.099   5.630   6.898
 7620SOL    HW223760   4.234   5.718   6.870
 7621SOL     OW23761   0.549   1.686   0.663
 7621SOL    HW123762   0.629   1.641   0.623
 7621SOL    HW223763   0.500   1.622   0.722
 7622SOL     OW23764   5.133   3.954   1.602
 7622SOL    HW123765   5.160   4.024   1.669
 7622SOL    HW223766   5.152   3.987   1.510
 7623SOL     OW23767   4.508   4.752   6.377
 7623SOL    HW123768   4.511   4.851   6.359
 7623SOL    HW223769   4.588   4.708   6.337
 7624SOL     OW23770   0.381   2.821   4.467
 7624SOL    HW123771   0.380   2.723   4.483
 7624SOL    HW223772   0.367   2.840   4.370
 7625SOL     OW23773   4.716   0.264   1.319
 7625SOL    HW123774   4.681   0.322   1.245
 7625SOL    HW223775   4.655   0.185   1.331
 7626SOL     OW23776   6.870   6.496   5.454
 7626SOL    HW123777   6.848   6.483   5.550
 7626SOL    HW223778   6.876   6.407   5.409
 7627SOL     OW23779   5.924   3.404   6.885
 7627SOL    HW123780   5.870   3.345   6.945
 7627SOL    HW223781   6.017   3.412   6.921
 7628SOL     OW23782   3.203   0.488   1.188
 7628SOL    HW123783   3.141   0.411   1.174
 7628SOL    HW223784   3.295   0.464   1.158
 7629SOL     OW23785   6.058   6.766   2.640
 7629SOL    HW123786   6.093   6.710   2.715
 7629SOL    HW223787   5.966   6.736   2.615
 7630SOL     OW23788   6.038   6.163   1.855
 7630SOL    HW123789   6.050   6.168   1.954
 7630SOL    HW223790   5.941   6.175   1.832
 7631SOL     OW23791   0.530   1.822   5.484
 7631SOL    HW123792   0.627   1.803   5.469
 7631SOL    HW223793   0.496   1.882   5.412
 7632SOL     OW23794   3.690   2.257   1.596
 7632SOL    HW123795   3.631   2.296   1.525
 7632SOL    HW223796   3.680   2.311   1.680
 7633SOL     OW23797   5.237   2.927   0.139
 7633SOL    HW123798   5.287   2.857   0.190
 7633SOL    HW223799   5.238   2.905   0.041
 7634SOL     OW23800   1.314   1.250   2.008
 7634SOL    HW123801   1.383   1.318   2.034
 7634SOL    HW223802   1.338   1.210   1.920
 7635SOL     OW23803   2.513   5.132   5.312
 7635SOL    HW123804   2.438   5.185   5.273
 7635SOL    HW223805   2.486   5.096   5.401
 7636SOL     OW23806   0.897   1.277   3.047
 7636SOL    HW123807   0.898   1.281   2.947
 7636SOL    HW223808   0.805   1.254   3.079
 7637SOL     OW23809   2.067   6.421   2.588
 7637SOL    HW123810   2.080   6.323   2.600
 7637SOL    HW223811   2.092   6.447   2.495
 7638SOL     OW23812   4.791   6.074   2.392
 7638SOL    HW123813   4.766   5.988   2.437
 7638SOL    HW223814   4.713   6.108   2.340
 7639SOL     OW23815   1.405   2.085   0.553
 7639SOL    HW123816   1.385   1.987   0.552
 7639SOL    HW223817   1.351   2.129   0.624
 7640SOL     OW23818   2.902   2.312   0.367
 7640SOL    HW123819   2.906   2.288   0.270
 7640SOL    HW223820   2.960   2.250   0.420
 7641SOL     OW23821   0.589   4.512   1.473
 7641SOL    HW123822   0.546   4.435   1.522
 7641SOL    HW223823   0.561   4.598   1.516
 7642SOL     OW23824   2.567   1.632   3.279
 7642SOL    HW123825   2.577   1.576   3.362
 7642SOL    HW223826   2.641   1.699   3.276
 7643SOL     OW23827   4.502   1.645   3.853
 7643SOL    HW123828   4.501   1.727   3.795
 7643SOL    HW223829   4.433   1.581   3.819
 7644SOL     OW23830   6.276   1.960   2.594
 7644SOL    HW123831   6.365   1.991   2.627
 7644SOL    HW223832   6.204   1.998   2.652
 7645SOL     OW23833   4.395   4.371   5.998
 7645SOL    HW123834   4.472   4.362   6.062
 7645SOL    HW223835   4.351   4.460   6.011
 7646SOL     OW23836   1.949   2.627   2.258
 7646SOL    HW123837   1.954   2.727   2.256
 7646SOL    HW223838   1.997   2.592   2.339
 7647SOL     OW23839   1.196   2.833   1.254
 7647SOL    HW123840   1.187   2.733   1.255
 7647SOL    HW223841   1.292   2.858   1.237
 7648SOL     OW23842   3.921   2.198   3.635
 7648SOL    HW123843   3.832   2.173   3.671
 7648SOL    HW223844   3.990   2.187   3.707
 7649SOL     OW23845   1.759   0.951   2.652
 7649SOL    HW123846   1.770   0.853   2.641
 7649SOL    HW223847   1.788   0.978   2.744
 7650SOL     OW23848   5.643   3.528   0.967
 7650SOL    HW123849   5.553   3.497   0.935
 7650SOL    HW223850   5.678   3.464   1.036
 7651SOL     OW23851   2.623   7.012   4.729
 7651SOL    HW123852   2.546   0.035   4.775
 7651SOL    HW223853   2.620   0.010   4.632
 7652SOL     OW23854   0.425   4.219   4.358
 7652SOL    HW123855   0.479   4.302   4.349
 7652SOL    HW223856   0.429   4.186   4.452
 7653SOL     OW23857   2.520   1.340   0.923
 7653SOL    HW123858   2.535   1.253   0.970
 7653SOL    HW223859   2.455   1.395   0.975
 7654SOL     OW23860   4.900   2.972   3.352
 7654SOL    HW123861   4.986   2.933   3.385
 7654SOL    HW223862   4.871   3.044   3.414
 7655SOL     OW23863   3.984   0.445   3.688
 7655SOL    HW123864   3.919   0.505   3.734
 7655SOL    HW223865   4.068   0.496   3.667
 7656SOL     OW23866   1.709   5.673   5.748
 7656SOL    HW123867   1.742   5.603   5.811
 7656SOL    HW223868   1.676   5.629   5.664
 7657SOL     OW23869   2.666   2.300   2.993
 7657SOL    HW123870   2.634   2.206   2.978
 7657SOL    HW223871   2.596   2.352   3.042
 7658SOL     OW23872   4.341   6.540   5.841
 7658SOL    HW123873   4.253   6.493   5.832
 7658SOL    HW223874   4.345   6.616   5.777
 7659SOL     OW23875   5.516   5.863   6.789
 7659SOL    HW123876   5.480   5.794   6.852
 7659SOL    HW223877   5.607   5.892   6.820
 7660SOL     OW23878   6.135   5.274   4.044
 7660SOL    HW123879   6.215   5.319   4.006
 7660SOL    HW223880   6.088   5.336   4.107
 7661SOL     OW23881   6.184   2.008   4.713
 7661SOL    HW123882   6.129   2.062   4.776
 7661SOL    HW223883   6.124   1.954   4.654
 7662SOL     OW23884   1.176   1.889   2.365
 7662SOL    HW123885   1.190   1.847   2.454
 7662SOL    HW223886   1.100   1.844   2.318
 7663SOL     OW23887   5.909   6.720   6.102
 7663SOL    HW123888   5.963   6.636   6.096
 7663SOL    HW223889   5.938   6.773   6.181
 7664SOL     OW23890   3.686   0.762   2.460
 7664SOL    HW123891   3.701   0.663   2.457
 7664SOL    HW223892   3.618   0.788   2.392
 7665SOL     OW23893   4.226   0.543   3.654
 7665SOL    HW123894   4.272   0.465   3.613
 7665SOL    HW223895   4.290   0.592   3.715
 7666SOL     OW23896   0.042   0.285   1.196
 7666SOL    HW123897   0.053   0.383   1.175
 7666SOL    HW223898   7.022   0.275   1.286
 7667SOL     OW23899   4.693   5.963   1.527
 7667SOL    HW123900   4.645   5.990   1.611
 7667SOL    HW223901   4.724   6.045   1.479
 7668SOL     OW23902   2.783   4.387   0.961
 7668SOL    HW123903   2.736   4.458   0.909
 7668SOL    HW223904   2.881   4.407   0.962
 7669SOL     OW23905   5.405   1.805   5.126
 7669SOL    HW123906   5.400   1.832   5.222
 7669SOL    HW223907   5.458   1.720   5.118
 7670SOL     OW23908   1.605   6.001   6.085
 7670SOL    HW123909   1.584   5.951   6.001
 7670SOL    HW223910   1.704   6.009   6.096
 7671SOL     OW23911   4.446   0.960   5.085
 7671SOL    HW123912   4.522   0.904   5.120
 7671SOL    HW223913   4.442   1.046   5.136
 7672SOL     OW23914   5.783   6.175   3.619
 7672SOL    HW123915   5.880   6.195   3.628
 7672SOL    HW223916   5.744   6.229   3.544
 7673SOL     OW23917   2.160   5.218   0.037
 7673SOL    HW123918   2.140   5.310   0.070
 7673SOL    HW223919   2.222   5.224   6.981
 7674SOL     OW23920   6.643   2.515   4.109
 7674SOL    HW123921   6.559   2.545   4.064
 7674SOL    HW223922   6.630   2.513   4.208
 7675SOL     OW23923   5.220   0.864   2.763
 7675SOL    HW123924   5.310   0.836   2.798
 7675SOL    HW223925   5.155   0.870   2.839
 7676SOL     OW23926   1.124   1.930   0.426
 7676SOL    HW123927   1.173   1.994   0.366
 7676SOL    HW223928   1.185   1.896   0.496
 7677SOL     OW23929   0.784   3.876   1.654
 7677SOL    HW123930   0.856   3.809   1.639
 7677SOL    HW223931   0.818   3.950   1.713
 7678SOL     OW23932   1.886   1.353   5.783
 7678SOL    HW123933   1.850   1.438   5.822
 7678SOL    HW223934   1.834   1.328   5.702
 7679SOL     OW23935   1.466   6.588   5.145
 7679SOL    HW123936   1.530   6.664   5.156
 7679SOL    HW223937   1.374   6.623   5.132
 7680SOL     OW23938   1.875   2.296   7.009
 7680SOL    HW123939   1.939   2.326   0.057
 7680SOL    HW223940   1.912   2.216   6.962
 7681SOL     OW23941   2.748   6.968   0.464
 7681SOL    HW123942   2.726   6.933   0.374
 7681SOL    HW223943   2.697   0.030   0.480
 7682SOL     OW23944   2.776   0.076   2.057
 7682SOL    HW123945   2.682   0.109   2.053
 7682SOL    HW223946   2.791   0.026   2.142
 7683SOL     OW23947   6.689   2.248   4.420
 7683SOL    HW123948   6.590   2.258   4.412
 7683SOL    HW223949   6.711   2.203   4.507
 7684SOL     OW23950   5.558   2.038   0.528
 7684SOL    HW123951   5.600   2.085   0.606
 7684SOL    HW223952   5.462   2.066   0.520
 7685SOL     OW23953   3.413   3.477   6.976
 7685SOL    HW123954   3.353   3.399   6.959
 7685SOL    HW223955   3.439   3.520   6.890
 7686SOL     OW23956   4.874   0.546   3.504
 7686SOL    HW123957   4.857   0.448   3.492
 7686SOL    HW223958   4.924   0.561   3.589
 7687SOL     OW23959   5.850   5.533   5.561
 7687SOL    HW123960   5.773   5.469   5.559
 7687SOL    HW223961   5.825   5.617   5.512
 7688SOL     OW23962   0.440   0.867   6.258
 7688SOL    HW123963   0.407   0.958   6.233
 7688SOL    HW223964   0.513   0.875   6.326
 7689SOL     OW23965   5.320   5.610   3.486
 7689SOL    HW123966   5.321   5.708   3.500
 7689SOL    HW223967   5.263   5.566   3.556
 7690SOL     OW23968   5.927   5.151   1.219
 7690SOL    HW123969   5.870   5.204   1.157
 7690SOL    HW223970   6.009   5.204   1.243
 7691SOL     OW23971   4.823   2.603   4.606
 7691SOL    HW123972   4.852   2.559   4.521
 7691SOL    HW223973   4.896   2.661   4.641
 7692SOL     OW23974   0.681   0.061   1.394
 7692SOL    HW123975   0.666   0.062   1.493
 7692SOL    HW223976   0.753   7.018   1.372
 7693SOL     OW23977   4.501   6.818   0.913
 7693SOL    HW123978   4.472   6.741   0.969
 7693SOL    HW223979   4.596   6.841   0.934
 7694SOL     OW23980   0.573   4.450   4.339
 7694SOL    HW123981   0.545   4.527   4.397
 7694SOL    HW223982   0.592   4.484   4.247
 7695SOL     OW23983   3.916   6.732   0.612
 7695SOL    HW123984   3.828   6.776   0.595
 7695SOL    HW223985   3.925   6.651   0.553
 7696SOL     OW23986   6.744   1.988   5.033
 7696SOL    HW123987   6.779   2.080   5.051
 7696SOL    HW223988   6.702   1.985   4.943
 7697SOL     OW23989   2.977   0.625   2.539
 7697SOL    HW123990   3.014   0.716   2.555
 7697SOL    HW223991   3.051   0.561   2.519
 7698SOL     OW23992   0.438   2.909   4.732
 7698SOL    HW123993   0.446   2.878   4.637
 7698SOL    HW223994   0.346   2.946   4.747
 7699SOL     OW23995   3.836   5.864   6.863
 7699SOL    HW123996   3.830   5.823   6.772
 7699SOL    HW223997   3.888   5.804   6.924
 7700SOL     OW23998   4.709   6.349   5.163
 7700SOL    HW123999   4.674   6.442   5.151
 7700SOL    HW224000   4.799   6.343   5.121
 7701SOL     OW24001   6.235   1.860   6.790
 7701SOL    HW124002   6.191   1.770   6.798
 7701SOL    HW224003   6.287   1.879   6.874
 7702SOL     OW24004   3.110   6.524   5.782
 7702SOL    HW124005   3.149   6.473   5.705
 7702SOL    HW224006   3.184   6.562   5.838
 7703SOL     OW24007   6.675   1.496   4.730
 7703SOL    HW124008   6.693   1.589   4.697
 7703SOL    HW224009   6.759   1.458   4.769
 7704SOL     OW24010   4.907   4.703   5.487
 7704SOL    HW124011   5.003   4.726   5.501
 7704SOL    HW224012   4.851   4.786   5.500
 7705SOL     OW24013   3.727   5.146   6.441
 7705SOL    HW124014   3.642   5.189   6.411
 7705SOL    HW224015   3.719   5.118   6.537
 7706SOL     OW24016   4.858   1.593   5.780
 7706SOL    HW124017   4.789   1.529   5.815
 7706SOL    HW224018   4.936   1.596   5.843
 7707SOL     OW24019   1.063   6.060   6.668
 7707SOL    HW124020   1.155   6.027   6.685
 7707SOL    HW224021   1.067   6.146   6.616
 7708SOL     OW24022   4.866   6.100   5.406
 7708SOL    HW124023   4.865   6.042   5.325
 7708SOL    HW224024   4.772   6.125   5.430
 7709SOL     OW24025   5.055   3.680   1.944
 7709SOL    HW124026   5.046   3.688   1.844
 7709SOL    HW224027   5.113   3.601   1.965
 7710SOL     OW24028   2.689   0.653   0.934
 7710SOL    HW124029   2.678   0.657   1.033
 7710SOL    HW224030   2.711   0.744   0.899
 7711SOL     OW24031   6.239   6.168   5.071
 7711SOL    HW124032   6.187   6.186   4.987
 7711SOL    HW224033   6.336   6.161   5.049
 7712SOL     OW24034   6.341   4.111   1.406
 7712SOL    HW124035   6.439   4.126   1.418
 7712SOL    HW224036   6.293   4.198   1.410
 7713SOL     OW24037   1.773   4.313   0.505
 7713SOL    HW124038   1.843   4.379   0.531
 7713SOL    HW224039   1.720   4.348   0.428
 7714SOL     OW24040   6.422   5.621   5.049
 7714SOL    HW124041   6.454   5.698   5.105
 7714SOL    HW224042   6.498   5.587   4.993
 7715SOL     OW24043   4.688   1.374   1.067
 7715SOL    HW124044   4.763   1.389   1.131
 7715SOL    HW224045   4.722   1.381   0.973
 7716SOL     OW24046   6.097   3.508   3.392
 7716SOL    HW124047   6.018   3.473   3.342
 7716SOL    HW224048   6.069   3.586   3.448
 7717SOL     OW24049   2.682   1.315   4.824
 7717SOL    HW124050   2.625   1.258   4.765
 7717SOL    HW224051   2.651   1.307   4.919
 7718SOL     OW24052   2.103   2.204   2.415
 7718SOL    HW124053   2.076   2.274   2.481
 7718SOL    HW224054   2.200   2.185   2.425
 7719SOL     OW24055   6.777   3.705   3.714
 7719SOL    HW124056   6.698   3.766   3.711
 7719SOL    HW224057   6.766   3.640   3.788
 7720SOL     OW24058   0.205   6.825   0.438
 7720SOL    HW124059   0.182   6.850   0.532
 7720SOL    HW224060   0.141   6.756   0.405
 7721SOL     OW24061   1.464   4.313   2.905
 7721SOL    HW124062   1.444   4.216   2.897
 7721SOL    HW224063   1.522   4.329   2.985
 7722SOL     OW24064   0.598   5.325   2.249
 7722SOL    HW124065   0.557   5.357   2.335
 7722SOL    HW224066   0.643   5.236   2.265
 7723SOL     OW24067   6.402   4.173   0.412
 7723SOL    HW124068   6.334   4.185   0.484
 7723SOL    HW224069   6.361   4.192   0.323
 7724SOL     OW24070   2.388   4.332   2.075
 7724SOL    HW124071   2.338   4.373   1.999
 7724SOL    HW224072   2.480   4.372   2.080
 7725SOL     OW24073   5.455   2.511   3.220
 7725SOL    HW124074   5.502   2.426   3.245
 7725SOL    HW224075   5.521   2.577   3.185
 7726SOL     OW24076   0.421   5.677   3.903
 7726SOL    HW124077   0.336   5.694   3.953
 7726SOL    HW224078   0.495   5.659   3.968
 7727SOL     OW24079   6.563   1.688   3.213
 7727SOL    HW124080   6.494   1.744   3.168
 7727SOL    HW224081   6.521   1.636   3.287
 7728SOL     OW24082   1.153   3.758   3.615
 7728SOL    HW124083   1.112   3.687   3.672
 7728SOL    HW224084   1.180   3.836   3.672
 7729SOL     OW24085   6.037   2.534   1.356
 7729SOL    HW124086   6.038   2.594   1.436
 7729SOL    HW224087   6.093   2.575   1.284
 7730SOL     OW24088   5.906   5.244   2.036
 7730SOL    HW124089   5.880   5.263   1.941
 7730SOL    HW224090   6.005   5.229   2.040
 7731SOL     OW24091   5.984   1.147   1.160
 7731SOL    HW124092   5.960   1.167   1.255
 7731SOL    HW224093   5.989   1.233   1.108
 7732SOL     OW24094   4.643   5.914   0.981
 7732SOL    HW124095   4.701   5.993   0.960
 7732SOL    HW224096   4.553   5.927   0.941
 7733SOL     OW24097   4.482   6.122   2.004
 7733SOL    HW124098   4.493   6.221   2.003
 7733SOL    HW224099   4.407   6.097   2.067
 7734SOL     OW24100   1.869   4.073   3.740
 7734SOL    HW124101   1.925   4.149   3.707
 7734SOL    HW224102   1.852   4.009   3.665
 7735SOL     OW24103   3.815   5.824   6.433
 7735SOL    HW124104   3.879   5.808   6.508
 7735SOL    HW224105   3.864   5.855   6.352
 7736SOL     OW24106   5.131   4.563   6.907
 7736SOL    HW124107   5.165   4.476   6.870
 7736SOL    HW224108   5.084   4.545   6.994
 7737SOL     OW24109   4.258   0.612   1.222
 7737SOL    HW124110   4.331   0.657   1.274
 7737SOL    HW224111   4.209   0.548   1.281
 7738SOL     OW24112   1.832   5.796   6.593
 7738SOL    HW124113   1.782   5.883   6.597
 7738SOL    HW224114   1.790   5.730   6.654
 7739SOL     OW24115   0.455   1.038   2.005
 7739SOL    HW124116   0.359   1.014   2.022
 7739SOL    HW224117   0.494   0.975   1.938
 7740SOL     OW24118   1.069   0.565   2.923
 7740SOL    HW124119   1.012   0.493   2.883
 7740SOL    HW224120   1.098   0.539   3.015
 7741SOL     OW24121   1.381   6.094   4.440
 7741SOL    HW124122   1.412   6.090   4.345
 7741SOL    HW224123   1.460   6.080   4.501
 7742SOL     OW24124   6.410   2.029   3.403
 7742SOL    HW124125   6.311   2.017   3.415
 7742SOL    HW224126   6.455   2.020   3.492
 7743SOL     OW24127   4.497   2.196   6.335
 7743SOL    HW124128   4.482   2.224   6.240
 7743SOL    HW224129   4.592   2.214   6.361
 7744SOL     OW24130   0.267   5.978   4.166
 7744SOL    HW124131   0.184   5.970   4.111
 7744SOL    HW224132   0.246   5.951   4.261
 7745SOL     OW24133   3.376   2.028   5.703
 7745SOL    HW124134   3.319   2.083   5.764
 7745SOL    HW224135   3.470   2.027   5.739
 7746SOL     OW24136   2.554   6.826   6.993
 7746SOL    HW124137   2.456   6.816   6.980
 7746SOL    HW224138   2.589   6.898   6.934
 7747SOL     OW24139   4.102   5.913   1.197
 7747SOL    HW124140   4.070   6.008   1.198
 7747SOL    HW224141   4.197   5.910   1.227
 7748SOL     OW24142   3.048   3.724   5.746
 7748SOL    HW124143   3.070   3.771   5.832
 7748SOL    HW224144   3.115   3.652   5.730
 7749SOL     OW24145   4.050   3.497   5.994
 7749SOL    HW124146   4.112   3.562   6.039
 7749SOL    HW224147   3.971   3.546   5.959
 7750SOL     OW24148   0.176   6.020   1.614
 7750SOL    HW124149   0.251   5.963   1.647
 7750SOL    HW224150   0.148   5.988   1.524
 7751SOL     OW24151   1.100   1.300   2.173
 7751SOL    HW124152   1.030   1.305   2.102
 7751SOL    HW224153   1.190   1.298   2.131
 7752SOL     OW24154   5.296   0.089   5.460
 7752SOL    HW124155   5.224   0.158   5.446
 7752SOL    HW224156   5.258   7.020   5.444
 7753SOL     OW24157   2.035   1.571   4.897
 7753SOL    HW124158   2.058   1.668   4.891
 7753SOL    HW224159   2.086   1.520   4.827
 7754SOL     OW24160   3.593   6.031   1.506
 7754SOL    HW124161   3.603   5.935   1.480
 7754SOL    HW224162   3.636   6.088   1.436
 7755SOL     OW24163   1.155   3.088   6.352
 7755SOL    HW124164   1.105   3.116   6.270
 7755SOL    HW224165   1.106   3.120   6.433
 7756SOL     OW24166   3.038   6.403   1.930
 7756SOL    HW124167   2.962   6.463   1.953
 7756SOL    HW224168   3.014   6.347   1.850
 7757SOL     OW24169   6.598   4.204   1.331
 7757SOL    HW124170   6.549   4.273   1.384
 7757SOL    HW224171   6.696   4.225   1.330
 7758SOL     OW24172   1.903   6.749   6.209
 7758SOL    HW124173   1.982   6.741   6.149
 7758SOL    HW224174   1.819   6.735   6.156
 7759SOL     OW24175   3.250   2.220   5.878
 7759SOL    HW124176   3.177   2.286   5.890
 7759SOL    HW224177   3.227   2.136   5.926
 7760SOL     OW24178   5.044   2.024   2.113
 7760SOL    HW124179   5.034   1.927   2.095
 7760SOL    HW224180   4.989   2.048   2.194
 7761SOL     OW24181   5.656   6.278   4.908
 7761SOL    HW124182   5.722   6.324   4.848
 7761SOL    HW224183   5.615   6.345   4.970
 7762SOL     OW24184   1.693   0.432   3.504
 7762SOL    HW124185   1.609   0.437   3.450
 7762SOL    HW224186   1.718   0.524   3.536
 7763SOL     OW24187   2.190   0.140   5.496
 7763SOL    HW124188   2.234   0.051   5.479
 7763SOL    HW224189   2.186   0.157   5.594
 7764SOL     OW24190   3.255   4.025   5.622
 7764SOL    HW124191   3.224   4.039   5.716
 7764SOL    HW224192   3.176   4.014   5.562
 7765SOL     OW24193   6.430   3.673   4.327
 7765SOL    HW124194   6.410   3.733   4.250
 7765SOL    HW224195   6.460   3.584   4.293
 7766SOL     OW24196   0.814   4.057   0.411
 7766SOL    HW124197   0.760   3.993   0.355
 7766SOL    HW224198   0.900   4.013   0.436
 7767SOL     OW24199   4.312   6.957   2.591
 7767SOL    HW124200   4.329   6.962   2.690
 7767SOL    HW224201   4.384   7.009   2.543
 7768SOL     OW24202   5.082   4.536   3.649
 7768SOL    HW124203   5.029   4.455   3.674
 7768SOL    HW224204   5.180   4.516   3.657
 7769SOL     OW24205   3.736   1.886   5.161
 7769SOL    HW124206   3.672   1.949   5.117
 7769SOL    HW224207   3.827   1.928   5.163
 7770SOL     OW24208   0.385   3.516   4.831
 7770SOL    HW124209   0.431   3.551   4.913
 7770SOL    HW224210   0.409   3.573   4.753
 7771SOL     OW24211   2.864   2.020   6.495
 7771SOL    HW124212   2.954   2.041   6.456
 7771SOL    HW224213   2.834   1.930   6.463
 7772SOL     OW24214   5.029   0.685   0.701
 7772SOL    HW124215   4.977   0.691   0.616
 7772SOL    HW224216   5.019   0.593   0.739
 7773SOL     OW24217   2.401   5.855   6.836
 7773SOL    HW124218   2.378   5.912   6.756
 7773SOL    HW224219   2.385   5.759   6.814
 7774SOL     OW24220   4.547   2.539   4.187
 7774SOL    HW124221   4.547   2.607   4.114
 7774SOL    HW224222   4.595   2.457   4.157
 7775SOL     OW24223   4.067   0.591   6.832
 7775SOL    HW124224   3.990   0.556   6.885
 7775SOL    HW224225   4.149   0.590   6.889
 7776SOL     OW24226   0.068   6.647   6.086
 7776SOL    HW124227   0.051   6.554   6.117
 7776SOL    HW224228   0.080   6.707   6.165
 7777SOL     OW24229   6.342   5.527   4.413
 7777SOL    HW124230   6.408   5.458   4.384
 7777SOL    HW224231   6.290   5.493   4.491
 7778SOL     OW24232   5.930   4.176   2.573
 7778SOL    HW124233   5.928   4.158   2.671
 7778SOL    HW224234   5.988   4.108   2.528
 7779SOL     OW24235   3.695   0.455   2.772
 7779SOL    HW124236   3.623   0.445   2.703
 7779SOL    HW224237   3.703   0.370   2.824
 7780SOL     OW24238   0.010   6.366   6.183
 7780SOL    HW124239   0.040   6.341   6.091
 7780SOL    HW224240   0.011   6.286   6.242
 7781SOL     OW24241   1.766   3.978   0.239
 7781SOL    HW124242   1.812   3.989   0.151
 7781SOL    HW224243   1.670   4.005   0.231
 7782SOL     OW24244   5.842   4.628   3.081
 7782SOL    HW124245   5.884   4.718   3.070
 7782SOL    HW224246   5.823   4.589   2.990
 7783SOL     OW24247   0.438   0.253   5.622
 7783SOL    HW124248   0.378   0.305   5.682
 7783SOL    HW224249   0.480   0.178   5.674
 7784SOL     OW24250   3.009   2.434   1.580
 7784SOL    HW124251   2.983   2.439   1.676
 7784SOL    HW224252   2.999   2.524   1.538
 7785SOL     OW24253   1.430   6.420   3.394
 7785SOL    HW124254   1.405   6.368   3.312
 7785SOL    HW224255   1.530   6.419   3.405
 7786SOL     OW24256   4.403   1.244   6.871
 7786SOL    HW124257   4.462   1.168   6.898
 7786SOL    HW224258   4.355   1.279   6.952
 7787SOL     OW24259   2.454   3.329   1.208
 7787SOL    HW124260   2.440   3.367   1.117
 7787SOL    HW224261   2.491   3.400   1.269
 7788SOL     OW24262   1.381   6.040   1.584
 7788SOL    HW124263   1.308   6.103   1.557
 7788SOL    HW224264   1.464   6.061   1.531
 7789SOL     OW24265   3.360   6.901   6.223
 7789SOL    HW124266   3.333   6.878   6.317
 7789SOL    HW224267   3.304   6.977   6.190
 7790SOL     OW24268   6.710   5.133   2.445
 7790SOL    HW124269   6.767   5.194   2.390
 7790SOL    HW224270   6.745   5.040   2.441
 7791SOL     OW24271   1.864   5.418   1.683
 7791SOL    HW124272   1.958   5.417   1.650
 7791SOL    HW224273   1.826   5.325   1.677
 7792SOL     OW24274   0.280   1.150   2.966
 7792SOL    HW124275   0.350   1.137   2.896
 7792SOL    HW224276   0.265   1.063   3.015
 7793SOL     OW24277   5.010   1.610   6.531
 7793SOL    HW124278   4.916   1.574   6.532
 7793SOL    HW224279   5.008   1.707   6.507
 7794SOL     OW24280   0.503   5.379   1.997
 7794SOL    HW124281   0.526   5.350   2.090
 7794SOL    HW224282   0.578   5.432   1.958
 7795SOL     OW24283   3.247   4.993   5.742
 7795SOL    HW124284   3.287   4.966   5.655
 7795SOL    HW224285   3.189   4.919   5.777
 7796SOL     OW24286   3.626   3.487   5.350
 7796SOL    HW124287   3.654   3.566   5.405
 7796SOL    HW224288   3.686   3.479   5.271
 7797SOL     OW24289   1.364   5.144   2.050
 7797SOL    HW124290   1.449   5.092   2.034
 7797SOL    HW224291   1.322   5.114   2.135
 7798SOL     OW24292   1.082   1.319   1.701
 7798SOL    HW124293   1.016   1.318   1.625
 7798SOL    HW224294   1.127   1.230   1.706
 7799SOL     OW24295   2.817   5.874   2.890
 7799SOL    HW124296   2.749   5.904   2.824
 7799SOL    HW224297   2.783   5.889   2.983
 7800SOL     OW24298   0.668   5.758   1.518
 7800SOL    HW124299   0.637   5.713   1.602
 7800SOL    HW224300   0.750   5.712   1.484
 7801SOL     OW24301   1.670   2.127   2.557
 7801SOL    HW124302   1.624   2.182   2.627
 7801SOL    HW224303   1.602   2.071   2.509
 7802SOL     OW24304   6.946   4.616   6.512
 7802SOL    HW124305   7.022   4.627   6.448
 7802SOL    HW224306   6.976   4.563   6.591
 7803SOL     OW24307   5.476   2.244   6.795
 7803SOL    HW124308   5.541   2.267   6.723
 7803SOL    HW224309   5.526   2.228   6.880
 7804SOL     OW24310   3.243   1.738   3.852
 7804SOL    HW124311   3.235   1.837   3.836
 7804SOL    HW224312   3.152   1.701   3.870
 7805SOL     OW24313   5.024   2.835   1.814
 7805SOL    HW124314   5.017   2.749   1.865
 7805SOL    HW224315   4.933   2.878   1.808
 7806SOL     OW24316   6.696   2.344   6.377
 7806SOL    HW124317   6.596   2.339   6.383
 7806SOL    HW224318   6.725   2.330   6.283
 7807SOL     OW24319   1.463   4.330   6.469
 7807SOL    HW124320   1.426   4.255   6.414
 7807SOL    HW224321   1.563   4.328   6.464
 7808SOL     OW24322   4.631   4.234   2.574
 7808SOL    HW124323   4.536   4.208   2.591
 7808SOL    HW224324   4.644   4.253   2.477
 7809SOL     OW24325   5.045   5.174   4.575
 7809SOL    HW124326   4.971   5.111   4.600
 7809SOL    HW224327   5.090   5.206   4.658
 7810SOL     OW24328   3.893   6.944   4.690
 7810SOL    HW124329   3.962   6.986   4.749
 7810SOL    HW224330   3.928   6.859   4.651
 7811SOL     OW24331   1.092   5.788   2.956
 7811SOL    HW124332   1.158   5.765   3.028
 7811SOL    HW224333   1.001   5.798   2.996
 7812SOL     OW24334   2.415   3.233   5.422
 7812SOL    HW124335   2.476   3.312   5.419
 7812SOL    HW224336   2.425   3.180   5.338
 7813SOL     OW24337   4.384   2.462   1.392
 7813SOL    HW124338   4.409   2.418   1.479
 7813SOL    HW224339   4.442   2.425   1.319
 7814SOL     OW24340   6.601   3.241   2.467
 7814SOL    HW124341   6.623   3.299   2.389
 7814SOL    HW224342   6.621   3.145   2.444
 7815SOL     OW24343   5.585   2.214   5.223
 7815SOL    HW124344   5.645   2.273   5.278
 7815SOL    HW224345   5.519   2.170   5.283
 7816SOL     OW24346   0.248   1.557   5.952
 7816SOL    HW124347   0.237   1.463   5.919
 7816SOL    HW224348   0.158   1.599   5.962
 7817SOL     OW24349   3.622   3.974   5.815
 7817SOL    HW124350   3.558   4.050   5.824
 7817SOL    HW224351   3.696   4.000   5.753
 7818SOL     OW24352   4.640   1.305   2.345
 7818SOL    HW124353   4.651   1.308   2.444
 7818SOL    HW224354   4.657   1.396   2.307
 7819SOL     OW24355   0.411   3.831   4.063
 7819SOL    HW124356   0.463   3.858   4.144
 7819SOL    HW224357   0.380   3.913   4.015
 7820SOL     OW24358   2.175   1.126   5.456
 7820SOL    HW124359   2.274   1.113   5.463
 7820SOL    HW224360   2.156   1.208   5.402
 7821SOL     OW24361   6.224   5.753   6.933
 7821SOL    HW124362   6.163   5.812   6.879
 7821SOL    HW224363   6.250   5.800   7.017
 7822SOL     OW24364   1.037   1.471   5.684
 7822SOL    HW124365   1.042   1.450   5.587
 7822SOL    HW224366   1.061   1.389   5.737
 7823SOL     OW24367   1.330   4.117   6.311
 7823SOL    HW124368   1.361   4.021   6.314
 7823SOL    HW224369   1.234   4.121   6.336
 7824SOL     OW24370   5.724   1.046   4.208
 7824SOL    HW124371   5.650   1.048   4.141
 7824SOL    HW224372   5.756   0.951   4.219
 7825SOL     OW24373   2.531   3.015   1.656
 7825SOL    HW124374   2.447   2.987   1.702
 7825SOL    HW224375   2.607   2.957   1.686
 7826SOL     OW24376   5.584   1.391   0.081
 7826SOL    HW124377   5.641   1.373   0.001
 7826SOL    HW224378   5.640   1.433   0.153
 7827SOL     OW24379   3.677   4.436   1.254
 7827SOL    HW124380   3.769   4.436   1.215
 7827SOL    HW224381   3.669   4.509   1.322
 7828SOL     OW24382   0.550   6.069   1.112
 7828SOL    HW124383   0.595   5.993   1.066
 7828SOL    HW224384   0.467   6.036   1.157
 7829SOL     OW24385   2.608   3.496   1.383
 7829SOL    HW124386   2.567   3.486   1.474
 7829SOL    HW224387   2.634   3.592   1.369
 7830SOL     OW24388   5.780   3.779   6.031
 7830SOL    HW124389   5.772   3.689   5.988
 7830SOL    HW224390   5.749   3.773   6.126
 7831SOL     OW24391   1.621   4.430   0.322
 7831SOL    HW124392   1.542   4.490   0.309
 7831SOL    HW224393   1.645   4.387   0.235
 7832SOL     OW24394   3.261   1.589   5.067
 7832SOL    HW124395   3.308   1.523   5.124
 7832SOL    HW224396   3.274   1.681   5.104
 7833SOL     OW24397   1.187   0.692   0.764
 7833SOL    HW124398   1.175   0.686   0.665
 7833SOL    HW224399   1.112   0.644   0.810
 7834SOL     OW24400   0.171   1.232   2.363
 7834SOL    HW124401   0.163   1.239   2.263
 7834SOL    HW224402   0.258   1.270   2.393
 7835SOL     OW24403   2.186   2.972   4.885
 7835SOL    HW124404   2.260   2.978   4.952
 7835SOL    HW224405   2.161   3.064   4.855
 7836SOL     OW24406   2.965   0.107   6.691
 7836SOL    HW124407   2.975   0.200   6.656
 7836SOL    HW224408   3.045   0.053   6.667
 7837SOL     OW24409   5.939   6.713   1.980
 7837SOL    HW124410   6.005   6.639   1.979
 7837SOL    HW224411   5.878   6.702   2.059
 7838SOL     OW24412   4.722   6.440   5.724
 7838SOL    HW124413   4.651   6.506   5.750
 7838SOL    HW224414   4.691   6.387   5.645
 7839SOL     OW24415   6.182   4.051   4.415
 7839SOL    HW124416   6.211   3.956   4.428
 7839SOL    HW224417   6.224   4.088   4.333
 7840SOL     OW24418   4.937   2.348   4.364
 7840SOL    HW124419   4.844   2.350   4.401
 7840SOL    HW224420   4.990   2.277   4.410
 7841SOL     OW24421   5.491   2.459   6.443
 7841SOL    HW124422   5.518   2.375   6.395
 7841SOL    HW224423   5.415   2.502   6.393
 7842SOL     OW24424   1.392   1.414   3.397
 7842SOL    HW124425   1.420   1.373   3.310
 7842SOL    HW224426   1.401   1.514   3.390
 7843SOL     OW24427   5.679   4.064   1.259
 7843SOL    HW124428   5.732   4.077   1.175
 7843SOL    HW224429   5.739   4.074   1.338
 7844SOL     OW24430   4.720   0.835   3.678
 7844SOL    HW124431   4.653   0.869   3.743
 7844SOL    HW224432   4.811   0.837   3.719
 7845SOL     OW24433   0.953   0.862   3.819
 7845SOL    HW124434   1.011   0.783   3.838
 7845SOL    HW224435   0.859   0.833   3.803
 7846SOL     OW24436   2.592   0.922   1.315
 7846SOL    HW124437   2.592   0.987   1.391
 7846SOL    HW224438   2.661   0.949   1.248
 7847SOL     OW24439   0.339   1.080   0.826
 7847SOL    HW124440   0.389   1.121   0.749
 7847SOL    HW224441   0.399   1.017   0.875
 7848SOL     OW24442   3.503   4.506   1.008
 7848SOL    HW124443   3.569   4.490   0.934
 7848SOL    HW224444   3.549   4.494   1.096
 7849SOL     OW24445   5.231   3.886   3.550
 7849SOL    HW124446   5.274   3.821   3.612
 7849SOL    HW224447   5.233   3.850   3.457
 7850SOL     OW24448   6.911   0.617   3.948
 7850SOL    HW124449   6.883   0.639   3.855
 7850SOL    HW224450   6.965   0.533   3.948
 7851SOL     OW24451   5.958   6.350   0.142
 7851SOL    HW124452   6.034   6.285   0.150
 7851SOL    HW224453   5.884   6.322   0.202
 7852SOL     OW24454   3.001   6.342   6.820
 7852SOL    HW124455   2.979   6.252   6.858
 7852SOL    HW224456   3.073   6.333   6.751
 7853SOL     OW24457   3.018   1.185   0.039
 7853SOL    HW124458   2.949   1.188   6.989
 7853SOL    HW224459   3.092   1.249   0.018
 7854SOL     OW24460   3.790   3.709   1.134
 7854SOL    HW124461   3.819   3.614   1.151
 7854SOL    HW224462   3.714   3.731   1.195
 7855SOL     OW24463   4.027   5.985   6.345
 7855SOL    HW124464   4.120   5.956   6.326
 7855SOL    HW224465   4.009   6.072   6.300
 7856SOL     OW24466   6.292   4.500   4.618
 7856SOL    HW124467   6.346   4.423   4.583
 7856SOL    HW224468   6.260   4.479   4.710
 7857SOL     OW24469   6.492   2.575   5.790
 7857SOL    HW124470   6.456   2.631   5.865
 7857SOL    HW224471   6.522   2.487   5.825
 7858SOL     OW24472   5.060   4.501   3.109
 7858SOL    HW124473   5.028   4.482   3.202
 7858SOL    HW224474   5.103   4.418   3.072
 7859SOL     OW24475   0.355   4.059   6.415
 7859SOL    HW124476   0.346   4.085   6.511
 7859SOL    HW224477   0.351   4.142   6.359
 7860SOL     OW24478   3.870   6.391   2.712
 7860SOL    HW124479   3.777   6.398   2.748
 7860SOL    HW224480   3.935   6.417   2.783
 7861SOL     OW24481   4.245   5.169   1.556
 7861SOL    HW124482   4.152   5.206   1.567
 7861SOL    HW224483   4.306   5.242   1.525
 7862SOL     OW24484   2.995   4.308   1.662
 7862SOL    HW124485   2.948   4.368   1.727
 7862SOL    HW224486   2.982   4.213   1.690
 7863SOL     OW24487   6.498   6.128   3.305
 7863SOL    HW124488   6.500   6.228   3.295
 7863SOL    HW224489   6.445   6.088   3.231
 7864SOL     OW24490   0.029   6.131   5.471
 7864SOL    HW124491   0.110   6.131   5.414
 7864SOL    HW224492   6.975   6.091   5.421
 7865SOL     OW24493   4.294   6.404   3.822
 7865SOL    HW124494   4.286   6.312   3.785
 7865SOL    HW224495   4.344   6.402   3.908
 7866SOL     OW24496   2.513   1.361   2.150
 7866SOL    HW124497   2.500   1.294   2.077
 7866SOL    HW224498   2.451   1.438   2.136
 7867SOL     OW24499   5.434   5.561   2.389
 7867SOL    HW124500   5.492   5.512   2.324
 7867SOL    HW224501   5.489   5.591   2.467
 7868SOL     OW24502   5.112   6.429   1.737
 7868SOL    HW124503   5.062   6.432   1.824
 7868SOL    HW224504   5.191   6.369   1.745
 7869SOL     OW24505   6.397   3.750   0.773
 7869SOL    HW124506   6.422   3.661   0.810
 7869SOL    HW224507   6.461   3.820   0.805
 7870SOL     OW24508   6.009   5.163   3.358
 7870SOL    HW124509   5.963   5.252   3.356
 7870SOL    HW224510   6.061   5.154   3.443
 7871SOL     OW24511   5.816   3.580   3.307
 7871SOL    HW124512   5.748   3.507   3.313
 7871SOL    HW224513   5.793   3.640   3.231
 7872SOL     OW24514   1.136   4.262   2.445
 7872SOL    HW124515   1.073   4.337   2.427
 7872SOL    HW224516   1.188   4.242   2.362
 7873SOL     OW24517   6.812   0.624   5.237
 7873SOL    HW124518   6.798   0.535   5.192
 7873SOL    HW224519   6.844   0.609   5.330
 7874SOL     OW24520   6.404   1.147   6.864
 7874SOL    HW124521   6.337   1.221   6.868
 7874SOL    HW224522   6.399   1.103   6.775
 7875SOL     OW24523   4.520   4.177   6.744
 7875SOL    HW124524   4.563   4.200   6.656
 7875SOL    HW224525   4.536   4.081   6.764
 7876SOL     OW24526   6.663   0.492   4.839
 7876SOL    HW124527   6.662   0.474   4.937
 7876SOL    HW224528   6.677   0.589   4.822
 7877SOL     OW24529   0.296   2.449   2.572
 7877SOL    HW124530   0.386   2.446   2.527
 7877SOL    HW224531   0.243   2.369   2.544
 7878SOL     OW24532   4.972   4.581   2.707
 7878SOL    HW124533   5.016   4.492   2.696
 7878SOL    HW224534   4.896   4.573   2.772
 7879SOL     OW24535   4.387   5.783   3.348
 7879SOL    HW124536   4.375   5.863   3.289
 7879SOL    HW224537   4.463   5.800   3.411
 7880SOL     OW24538   0.379   6.301   0.627
 7880SOL    HW124539   0.344   6.230   0.688
 7880SOL    HW224540   0.413   6.378   0.682
 7881SOL     OW24541   0.468   4.079   4.594
 7881SOL    HW124542   0.464   4.081   4.694
 7881SOL    HW224543   0.543   4.139   4.563
 7882SOL     OW24544   1.585   2.717   2.475
 7882SOL    HW124545   1.596   2.695   2.378
 7882SOL    HW224546   1.618   2.810   2.492
 7883SOL     OW24547   1.970   0.506   1.423
 7883SOL    HW124548   2.038   0.515   1.496
 7883SOL    HW224549   1.929   0.596   1.404
 7884SOL     OW24550   1.392   4.266   3.685
 7884SOL    HW124551   1.488   4.291   3.688
 7884SOL    HW224552   1.346   4.317   3.612
 7885SOL     OW24553   5.737   5.641   3.048
 7885SOL    HW124554   5.694   5.699   3.117
 7885SOL    HW224555   5.674   5.628   2.971
 7886SOL     OW24556   5.454   3.703   1.417
 7886SOL    HW124557   5.545   3.675   1.446
 7886SOL    HW224558   5.441   3.680   1.320
 7887SOL     OW24559   3.120   2.861   5.295
 7887SOL    HW124560   3.149   2.938   5.237
 7887SOL    HW224561   3.160   2.870   5.386
 7888SOL     OW24562   6.954   1.743   4.155
 7888SOL    HW124563   7.018   1.674   4.122
 7888SOL    HW224564   6.909   1.787   4.077
 7889SOL     OW24565   0.492   5.387   0.146
 7889SOL    HW124566   0.504   5.300   0.097
 7889SOL    HW224567   0.512   5.463   0.084
 7890SOL     OW24568   1.434   2.652   4.129
 7890SOL    HW124569   1.485   2.618   4.050
 7890SOL    HW224570   1.499   2.675   4.202
 7891SOL     OW24571   0.730   3.444   4.091
 7891SOL    HW124572   0.636   3.476   4.087
 7891SOL    HW224573   0.736   3.365   4.153
 7892SOL     OW24574   1.325   2.073   4.427
 7892SOL    HW124575   1.319   2.027   4.515
 7892SOL    HW224576   1.421   2.083   4.401
 7893SOL     OW24577   6.210   6.068   1.684
 7893SOL    HW124578   6.141   6.101   1.748
 7893SOL    HW224579   6.267   5.999   1.729
 7894SOL     OW24580   2.046   1.633   0.089
 7894SOL    HW124581   2.050   1.534   0.075
 7894SOL    HW224582   2.112   1.660   0.159
 7895SOL     OW24583   3.612   5.931   4.470
 7895SOL    HW124584   3.578   5.992   4.542
 7895SOL    HW224585   3.546   5.858   4.453
 7896SOL     OW24586   4.837   3.236   1.544
 7896SOL    HW124587   4.816   3.313   1.604
 7896SOL    HW224588   4.808   3.151   1.587
 7897SOL     OW24589   3.415   4.185   6.616
 7897SOL    HW124590   3.366   4.103   6.586
 7897SOL    HW224591   3.411   4.192   6.715
 7898SOL     OW24592   4.948   0.203   4.466
 7898SOL    HW124593   4.848   0.206   4.478
 7898SOL    HW224594   4.970   0.150   4.384
 7899SOL     OW24595   5.592   5.894   1.568
 7899SOL    HW124596   5.531   5.967   1.537
 7899SOL    HW224597   5.675   5.893   1.512
 7900SOL     OW24598   0.364   4.118   0.725
 7900SOL    HW124599   0.462   4.102   0.711
 7900SOL    HW224600   0.322   4.036   0.765
 7901SOL     OW24601   5.030   1.298   5.735
 7901SOL    HW124602   4.987   1.380   5.773
 7901SOL    HW224603   5.054   1.235   5.809
 7902SOL     OW24604   0.270   6.223   3.248
 7902SOL    HW124605   0.244   6.141   3.197
 7902SOL    HW224606   0.268   6.302   3.187
 7903SOL     OW24607   4.187   1.511   3.903
 7903SOL    HW124608   4.124   1.563   3.845
 7903SOL    HW224609   4.242   1.450   3.846
 7904SOL     OW24610   5.930   0.248   3.150
 7904SOL    HW124611   6.003   0.311   3.125
 7904SOL    HW224612   5.848   0.301   3.173
 7905SOL     OW24613   5.456   0.843   0.662
 7905SOL    HW124614   5.544   0.874   0.700
 7905SOL    HW224615   5.385   0.908   0.688
 7906SOL     OW24616   1.475   4.783   1.403
 7906SOL    HW124617   1.382   4.746   1.399
 7906SOL    HW224618   1.508   4.779   1.497
 7907SOL     OW24619   6.097   0.659   3.111
 7907SOL    HW124620   6.149   0.574   3.116
 7907SOL    HW224621   6.000   0.638   3.102
 7908SOL     OW24622   1.015   2.264   6.525
 7908SOL    HW124623   1.052   2.190   6.581
 7908SOL    HW224624   1.000   2.344   6.583
 7909SOL     OW24625   5.144   4.253   3.011
 7909SOL    HW124626   5.240   4.235   2.989
 7909SOL    HW224627   5.112   4.187   3.080
 7910SOL     OW24628   1.313   3.357   0.959
 7910SOL    HW124629   1.243   3.372   1.029
 7910SOL    HW224630   1.353   3.266   0.971
 7911SOL     OW24631   0.817   3.976   1.150
 7911SOL    HW124632   0.746   4.042   1.173
 7911SOL    HW224633   0.776   3.886   1.135
 7912SOL     OW24634   5.497   5.020   0.519
 7912SOL    HW124635   5.417   4.965   0.496
 7912SOL    HW224636   5.477   5.075   0.601
 7913SOL     OW24637   2.365   4.031   0.892
 7913SOL    HW124638   2.459   3.996   0.885
 7913SOL    HW224639   2.324   4.032   0.801
 7914SOL     OW24640   0.201   5.518   6.596
 7914SOL    HW124641   0.181   5.527   6.693
 7914SOL    HW224642   0.244   5.602   6.563
 7915SOL     OW24643   4.092   1.265   2.716
 7915SOL    HW124644   4.037   1.289   2.796
 7915SOL    HW224645   4.117   1.168   2.720
 7916SOL     OW24646   0.308   0.678   4.543
 7916SOL    HW124647   0.381   0.664   4.476
 7916SOL    HW224648   0.284   0.590   4.585
 7917SOL     OW24649   4.187   2.484   6.114
 7917SOL    HW124650   4.250   2.533   6.174
 7917SOL    HW224651   4.125   2.550   6.070
 7918SOL     OW24652   1.287   1.308   5.179
 7918SOL    HW124653   1.282   1.401   5.140
 7918SOL    HW224654   1.298   1.242   5.105
 7919SOL     OW24655   1.237   4.773   2.845
 7919SOL    HW124656   1.209   4.869   2.854
 7919SOL    HW224657   1.218   4.725   2.931
 7920SOL     OW24658   4.918   1.251   1.892
 7920SOL    HW124659   4.954   1.268   1.984
 7920SOL    HW224660   4.822   1.222   1.899
 7921SOL     OW24661   5.697   1.703   1.469
 7921SOL    HW124662   5.617   1.702   1.528
 7921SOL    HW224663   5.746   1.790   1.481
 7922SOL     OW24664   0.507   6.422   6.531
 7922SOL    HW124665   0.436   6.470   6.584
 7922SOL    HW224666   0.582   6.395   6.592
 7923SOL     OW24667   3.019   2.451   6.532
 7923SOL    HW124668   3.031   2.409   6.621
 7923SOL    HW224669   3.107   2.481   6.496
 7924SOL     OW24670   5.366   6.689   1.095
 7924SOL    HW124671   5.404   6.605   1.057
 7924SOL    HW224672   5.271   6.672   1.125
 7925SOL     OW24673   1.865   6.622   0.732
 7925SOL    HW124674   1.864   6.591   0.828
 7925SOL    HW224675   1.826   6.713   0.726
 7926SOL     OW24676   5.266   1.087   6.700
 7926SOL    HW124677   5.331   1.138   6.756
 7926SOL    HW224678   5.173   1.108   6.729
 7927SOL     OW24679   5.285   0.294   2.068
 7927SOL    HW124680   5.290   0.229   1.993
 7927SOL    HW224681   5.200   0.347   2.061
 7928SOL     OW24682   6.817   1.083   3.355
 7928SOL    HW124683   6.824   1.105   3.257
 7928SOL    HW224684   6.831   0.985   3.367
 7929SOL     OW24685   4.387   3.821   6.502
 7929SOL    HW124686   4.339   3.759   6.440
 7929SOL    HW224687   4.322   3.865   6.563
 7930SOL     OW24688   3.378   5.439   5.850
 7930SOL    HW124689   3.397   5.447   5.752
 7930SOL    HW224690   3.462   5.419   5.899
 7931SOL     OW24691   3.264   2.577   0.877
 7931SOL    HW124692   3.189   2.582   0.810
 7931SOL    HW224693   3.231   2.533   0.961
 7932SOL     OW24694   7.014   4.976   0.956
 7932SOL    HW124695   0.013   5.008   1.048
 7932SOL    HW224696   6.994   4.878   0.959
 7933SOL     OW24697   6.599   0.883   5.931
 7933SOL    HW124698   6.637   0.862   6.022
 7933SOL    HW224699   6.671   0.874   5.862
 7934SOL     OW24700   1.527   4.603   0.604
 7934SOL    HW124701   1.513   4.593   0.506
 7934SOL    HW224702   1.585   4.530   0.638
 7935SOL     OW24703   4.917   4.135   2.588
 7935SOL    HW124704   4.820   4.132   2.615
 7935SOL    HW224705   4.965   4.201   2.646
 7936SOL     OW24706   2.580   5.781   3.254
 7936SOL    HW124707   2.593   5.761   3.351
 7936SOL    HW224708   2.615   5.873   3.234
 7937SOL     OW24709   1.614   5.486   4.547
 7937SOL    HW124710   1.570   5.527   4.467
 7937SOL    HW224711   1.631   5.389   4.529
 7938SOL     OW24712   5.394   6.764   5.499
 7938SOL    HW124713   5.301   6.771   5.533
 7938SOL    HW224714   5.394   6.766   5.399
 7939SOL     OW24715   0.451   1.930   5.713
 7939SOL    HW124716   0.483   1.874   5.789
 7939SOL    HW224717   0.488   1.894   5.627
 7940SOL     OW24718   3.415   1.714   2.214
 7940SOL    HW124719   3.400   1.811   2.195
 7940SOL    HW224720   3.333   1.675   2.257
 7941SOL     OW24721   4.776   6.470   3.355
 7941SOL    HW124722   4.871   6.476   3.386
 7941SOL    HW224723   4.751   6.374   3.344
 7942SOL     OW24724   0.740   2.191   2.519
 7942SOL    HW124725   0.832   2.228   2.505
 7942SOL    HW224726   0.731   2.157   2.613
 7943SOL     OW24727   1.247   4.848   6.079
 7943SOL    HW124728   1.307   4.897   6.015
 7943SOL    HW224729   1.173   4.909   6.108
 7944SOL     OW24730   0.820   2.079   2.065
 7944SOL    HW124731   0.818   2.171   2.104
 7944SOL    HW224732   0.807   2.085   1.966
 7945SOL     OW24733   6.607   5.203   3.006
 7945SOL    HW124734   6.629   5.204   2.909
 7945SOL    HW224735   6.564   5.116   3.030
 7946SOL     OW24736   3.877   0.245   5.720
 7946SOL    HW124737   3.821   0.167   5.691
 7946SOL    HW224738   3.917   0.290   5.640
 7947SOL     OW24739   2.163   2.350   5.039
 7947SOL    HW124740   2.108   2.424   5.002
 7947SOL    HW224741   2.260   2.376   5.040
 7948SOL     OW24742   1.074   4.983   1.343
 7948SOL    HW124743   1.002   4.925   1.304
 7948SOL    HW224744   1.163   4.937   1.333
 7949SOL     OW24745   4.392   4.275   5.600
 7949SOL    HW124746   4.327   4.350   5.606
 7949SOL    HW224747   4.375   4.222   5.517
 7950SOL     OW24748   5.431   6.351   5.427
 7950SOL    HW124749   5.524   6.343   5.463
 7950SOL    HW224750   5.366   6.361   5.503
 7951SOL     OW24751   1.803   4.800   3.067
 7951SOL    HW124752   1.729   4.832   3.008
 7951SOL    HW224753   1.866   4.876   3.085
 7952SOL     OW24754   6.677   3.277   6.728
 7952SOL    HW124755   6.712   3.205   6.668
 7952SOL    HW224756   6.688   3.366   6.683
 7953SOL     OW24757   4.530   1.906   1.403
 7953SOL    HW124758   4.555   1.826   1.347
 7953SOL    HW224759   4.431   1.908   1.416
 7954SOL     OW24760   4.186   3.720   6.118
 7954SOL    HW124761   4.191   3.744   6.021
 7954SOL    HW224762   4.158   3.801   6.170
 7955SOL     OW24763   2.364   1.801   6.371
 7955SOL    HW124764   2.436   1.864   6.400
 7955SOL    HW224765   2.353   1.806   6.271
 7956SOL     OW24766   5.700   1.686   1.793
 7956SOL    HW124767   5.713   1.784   1.802
 7956SOL    HW224768   5.788   1.640   1.785
 7957SOL     OW24769   3.500   0.647   6.161
 7957SOL    HW124770   3.468   0.708   6.088
 7957SOL    HW224771   3.430   0.641   6.232
 7958SOL     OW24772   5.595   4.280   6.215
 7958SOL    HW124773   5.603   4.186   6.247
 7958SOL    HW224774   5.610   4.282   6.116
 7959SOL     OW24775   4.888   0.894   6.520
 7959SOL    HW124776   4.988   0.902   6.529
 7959SOL    HW224777   4.852   0.840   6.596
 7960SOL     OW24778   0.701   1.824   6.196
 7960SOL    HW124779   0.622   1.792   6.249
 7960SOL    HW224780   0.766   1.749   6.184
 7961SOL     OW24781   6.722   6.946   0.781
 7961SOL    HW124782   6.739   6.879   0.709
 7961SOL    HW224783   6.806   6.996   0.800
 7962SOL     OW24784   7.004   1.817   5.849
 7962SOL    HW124785   0.061   1.833   5.790
 7962SOL    HW224786   0.010   1.824   5.945
 7963SOL     OW24787   6.441   5.147   3.853
 7963SOL    HW124788   6.408   5.101   3.771
 7963SOL    HW224789   6.521   5.203   3.831
 7964SOL     OW24790   6.627   2.557   1.945
 7964SOL    HW124791   6.625   2.466   1.904
 7964SOL    HW224792   6.722   2.590   1.949
 7965SOL     OW24793   4.447   2.843   6.998
 7965SOL    HW124794   4.356   2.881   6.985
 7965SOL    HW224795   4.456   2.810   0.069
 7966SOL     OW24796   3.801   3.645   5.905
 7966SOL    HW124797   3.825   3.722   5.964
 7966SOL    HW224798   3.714   3.606   5.935
 7967SOL     OW24799   2.218   5.173   2.468
 7967SOL    HW124800   2.247   5.241   2.401
 7967SOL    HW224801   2.118   5.164   2.465
 7968SOL     OW24802   6.090   2.023   5.411
 7968SOL    HW124803   6.047   2.042   5.499
 7968SOL    HW224804   6.176   1.974   5.426
 7969SOL     OW24805   4.724   6.283   0.450
 7969SOL    HW124806   4.718   6.203   0.509
 7969SOL    HW224807   4.791   6.348   0.488
 7970SOL     OW24808   5.852   2.696   2.631
 7970SOL    HW124809   5.862   2.597   2.636
 7970SOL    HW224810   5.802   2.729   2.711
 7971SOL     OW24811   2.800   1.128   1.461
 7971SOL    HW124812   2.721   1.116   1.522
 7971SOL    HW224813   2.871   1.061   1.484
 7972SOL     OW24814   3.192   3.432   1.730
 7972SOL    HW124815   3.178   3.351   1.787
 7972SOL    HW224816   3.275   3.421   1.676
 7973SOL     OW24817   5.461   4.170   4.130
 7973SOL    HW124818   5.371   4.158   4.088
 7973SOL    HW224819   5.477   4.267   4.148
 7974SOL     OW24820   6.257   1.271   5.168
 7974SOL    HW124821   6.313   1.277   5.250
 7974SOL    HW224822   6.177   1.214   5.186
 7975SOL     OW24823   4.643   0.451   0.685
 7975SOL    HW124824   4.547   0.467   0.712
 7975SOL    HW224825   4.700   0.524   0.723
 7976SOL     OW24826   0.765   0.180   5.880
 7976SOL    HW124827   0.843   0.200   5.821
 7976SOL    HW224828   0.696   0.252   5.871
 7977SOL     OW24829   5.820   6.094   2.260
 7977SOL    HW124830   5.848   6.004   2.228
 7977SOL    HW224831   5.739   6.124   2.211
 7978SOL     OW24832   0.286   3.268   6.814
 7978SOL    HW124833   0.285   3.250   6.715
 7978SOL    HW224834   0.380   3.259   6.848
 7979SOL     OW24835   2.100   4.320   6.094
 7979SOL    HW124836   2.159   4.252   6.051
 7979SOL    HW224837   2.009   4.317   6.053
 7980SOL     OW24838   3.165   5.475   6.220
 7980SOL    HW124839   3.206   5.435   6.302
 7980SOL    HW224840   3.141   5.402   6.155
 7981SOL     OW24841   1.019   4.856   1.972
 7981SOL    HW124842   1.072   4.788   2.024
 7981SOL    HW224843   1.031   4.840   1.874
 7982SOL     OW24844   1.769   1.591   5.962
 7982SOL    HW124845   1.767   1.618   6.058
 7982SOL    HW224846   1.676   1.571   5.931
 7983SOL     OW24847   5.903   1.514   1.457
 7983SOL    HW124848   5.948   1.534   1.544
 7983SOL    HW224849   5.834   1.584   1.438
 7984SOL     OW24850   0.737   1.380   0.938
 7984SOL    HW124851   0.712   1.472   0.908
 7984SOL    HW224852   0.730   1.316   0.861
 7985SOL     OW24853   2.756   1.848   4.721
 7985SOL    HW124854   2.660   1.822   4.712
 7985SOL    HW224855   2.805   1.827   4.636
 7986SOL     OW24856   3.919   1.391   5.413
 7986SOL    HW124857   3.842   1.444   5.375
 7986SOL    HW224858   4.005   1.428   5.376
 7987SOL     OW24859   2.475   3.793   0.641
 7987SOL    HW124860   2.509   3.852   0.714
 7987SOL    HW224861   2.522   3.705   0.646
 7988SOL     OW24862   0.683   1.005   1.625
 7988SOL    HW124863   0.770   0.957   1.620
 7988SOL    HW224864   0.639   0.984   1.713
 7989SOL     OW24865   2.008   4.179   0.219
 7989SOL    HW124866   2.006   4.255   0.153
 7989SOL    HW224867   1.967   4.098   0.177
 7990SOL     OW24868   2.658   6.017   4.444
 7990SOL    HW124869   2.589   6.007   4.373
 7990SOL    HW224870   2.680   5.927   4.482
 7991SOL     OW24871   5.683   1.565   4.588
 7991SOL    HW124872   5.724   1.547   4.498
 7991SOL    HW224873   5.597   1.515   4.596
 7992SOL     OW24874   2.023   0.233   0.251
 7992SOL    HW124875   1.967   0.252   0.332
 7992SOL    HW224876   2.059   0.319   0.216
 7993SOL     OW24877   0.176   6.988   1.871
 7993SOL    HW124878   0.107   6.976   1.799
 7993SOL    HW224879   0.140   6.953   1.958
 7994SOL     OW24880   5.004   0.714   3.003
 7994SOL    HW124881   5.057   0.692   3.085
 7994SOL    HW224882   4.908   0.689   3.018
 7995SOL     OW24883   5.467   4.544   2.988
 7995SOL    HW124884   5.542   4.480   2.971
 7995SOL    HW224885   5.468   4.572   3.084
 7996SOL     OW24886   4.202   6.895   4.125
 7996SOL    HW124887   4.276   6.929   4.067
 7996SOL    HW224888   4.240   6.834   4.195
 7997SOL     OW24889   0.118   1.868   0.615
 7997SOL    HW124890   0.028   1.871   0.571
 7997SOL    HW224891   0.122   1.791   0.678
 7998SOL     OW24892   2.792   6.408   6.983
 7998SOL    HW124893   2.713   6.461   6.949
 7998SOL    HW224894   2.864   6.407   6.913
 7999SOL     OW24895   1.214   1.908   5.893
 7999SOL    HW124896   1.281   1.958   5.948
 7999SOL    HW224897   1.244   1.813   5.882
 8000SOL     OW24898   5.869   0.339   6.397
 8000SOL    HW124899   5.783   0.338   6.448
 8000SOL    HW224900   5.861   0.282   6.316
 8001SOL     OW24901   4.217   6.287   1.727
 8001SOL    HW124902   4.215   6.299   1.826
 8001SOL    HW224903   4.311   6.297   1.694
 8002SOL     OW24904   0.704   1.626   5.864
 8002SOL    HW124905   0.781   1.682   5.834
 8002SOL    HW224906   0.647   1.602   5.786
 8003SOL     OW24907   1.408   5.999   1.845
 8003SOL    HW124908   1.334   6.043   1.896
 8003SOL    HW224909   1.386   6.000   1.748
 8004SOL     OW24910   1.883   3.053   3.330
 8004SOL    HW124911   1.919   2.964   3.301
 8004SOL    HW224912   1.863   3.050   3.428
 8005SOL     OW24913   2.670   0.293   3.767
 8005SOL    HW124914   2.576   0.324   3.759
 8005SOL    HW224915   2.728   0.347   3.706
 8006SOL     OW24916   3.022   5.648   5.657
 8006SOL    HW124917   3.077   5.730   5.637
 8006SOL    HW224918   2.988   5.609   5.571
 8007SOL     OW24919   5.549   2.228   6.254
 8007SOL    HW124920   5.582   2.134   6.245
 8007SOL    HW224921   5.536   2.268   6.163
 8008SOL     OW24922   3.276   5.926   0.165
 8008SOL    HW124923   3.351   5.931   0.098
 8008SOL    HW224924   3.201   5.983   0.134
 8009SOL     OW24925   4.456   1.230   1.173
 8009SOL    HW124926   4.372   1.282   1.157
 8009SOL    HW224927   4.535   1.288   1.155
 8010SOL     OW24928   3.054   2.438   5.437
 8010SOL    HW124929   3.099   2.426   5.349
 8010SOL    HW224930   3.121   2.468   5.505
 8011SOL     OW24931   3.589   1.956   1.492
 8011SOL    HW124932   3.507   1.948   1.550
 8011SOL    HW224933   3.631   2.046   1.506
 8012SOL     OW24934   1.024   2.565   6.494
 8012SOL    HW124935   1.111   2.565   6.444
 8012SOL    HW224936   0.952   2.603   6.436
 8013SOL     OW24937   0.773   3.058   3.685
 8013SOL    HW124938   0.853   3.114   3.666
 8013SOL    HW224939   0.801   2.962   3.694
 8014SOL     OW24940   1.739   0.494   4.385
 8014SOL    HW124941   1.691   0.413   4.353
 8014SOL    HW224942   1.714   0.572   4.329
 8015SOL     OW24943   2.173   0.165   5.871
 8015SOL    HW124944   2.270   0.185   5.872
 8015SOL    HW224945   2.155   0.086   5.931
 8016SOL     OW24946   4.157   1.515   4.844
 8016SOL    HW124947   4.121   1.426   4.814
 8016SOL    HW224948   4.227   1.500   4.914
 8017SOL     OW24949   6.528   0.091   0.028
 8017SOL    HW124950   6.487   0.180   0.046
 8017SOL    HW224951   6.464   0.019   0.053
 8018SOL     OW24952   3.612   2.666   0.078
 8018SOL    HW124953   3.709   2.658   0.102
 8018SOL    HW224954   3.568   2.731   0.140
 8019SOL     OW24955   2.308   3.476   0.866
 8019SOL    HW124956   2.216   3.444   0.888
 8019SOL    HW224957   2.347   3.522   0.946
 8020SOL     OW24958   5.960   0.681   6.118
 8020SOL    HW124959   5.923   0.601   6.166
 8020SOL    HW224960   5.885   0.731   6.074
 8021SOL     OW24961   1.895   2.659   1.293
 8021SOL    HW124962   1.878   2.582   1.354
 8021SOL    HW224963   1.988   2.693   1.308
 8022SOL     OW24964   6.032   0.508   1.804
 8022SOL    HW124965   5.973   0.503   1.884
 8022SOL    HW224966   6.083   0.422   1.795
 8023SOL     OW24967   5.881   5.090   2.647
 8023SOL    HW124968   5.910   5.186   2.641
 8023SOL    HW224969   5.817   5.070   2.573
 8024SOL     OW24970   1.547   5.874   5.851
 8024SOL    HW124971   1.612   5.798   5.844
 8024SOL    HW224972   1.459   5.847   5.813
 8025SOL     OW24973   1.475   5.079   1.025
 8025SOL    HW124974   1.561   5.129   1.013
 8025SOL    HW224975   1.496   4.986   1.055
 8026SOL     OW24976   0.036   4.405   0.743
 8026SOL    HW124977   0.042   4.503   0.727
 8026SOL    HW224978   6.997   4.363   0.676
 8027SOL     OW24979   3.360   6.586   5.202
 8027SOL    HW124980   3.293   6.657   5.179
 8027SOL    HW224981   3.316   6.496   5.201
 8028SOL     OW24982   2.359   5.999   4.308
 8028SOL    HW124983   2.367   5.907   4.268
 8028SOL    HW224984   2.262   6.019   4.324
 8029SOL     OW24985   5.046   2.277   1.962
 8029SOL    HW124986   5.128   2.335   1.958
 8029SOL    HW224987   5.064   2.198   2.020
 8030SOL     OW24988   6.108   5.237   0.544
 8030SOL    HW124989   6.125   5.335   0.555
 8030SOL    HW224990   6.036   5.208   0.607
 8031SOL     OW24991   6.329   6.546   3.215
 8031SOL    HW124992   6.294   6.618   3.156
 8031SOL    HW224993   6.320   6.573   3.311
 8032SOL     OW24994   5.082   3.720   1.443
 8032SOL    HW124995   5.099   3.791   1.511
 8032SOL    HW224996   4.991   3.733   1.403
 8033SOL     OW24997   4.590   3.558   0.020
 8033SOL    HW124998   4.589   3.459   0.004
 8033SOL    HW224999   4.510   3.584   0.074
 8034SOL     OW25000   5.595   0.323   5.656
 8034SOL    HW125001   5.665   0.252   5.663
 8034SOL    HW225002   5.576   0.341   5.560
 8035SOL     OW25003   4.549   1.046   2.218
 8035SOL    HW125004   4.644   1.072   2.236
 8035SOL    HW225005   4.492   1.129   2.215
 8036SOL     OW25006   6.968   3.319   3.686
 8036SOL    HW125007   0.037   3.302   3.649
 8036SOL    HW225008   6.914   3.370   3.618
 8037SOL     OW25009   1.456   3.425   0.042
 8037SOL    HW125010   1.473   3.361   0.117
 8037SOL    HW225011   1.534   3.424   7.002
 8038SOL     OW25012   4.977   6.061   2.046
 8038SOL    HW125013   4.946   6.047   2.140
 8038SOL    HW225014   5.056   6.122   2.046
 8039SOL     OW25015   0.169   2.444   4.931
 8039SOL    HW125016   0.121   2.465   4.846
 8039SOL    HW225017   0.192   2.346   4.933
 8040SOL     OW25018   1.902   6.305   6.695
 8040SOL    HW125019   1.816   6.319   6.744
 8040SOL    HW225020   1.958   6.388   6.702
 8041SOL     OW25021   3.405   0.958   2.664
 8041SOL    HW125022   3.500   0.963   2.695
 8041SOL    HW225023   3.402   0.973   2.565
 8042SOL     OW25024   4.365   4.237   5.308
 8042SOL    HW125025   4.341   4.294   5.229
 8042SOL    HW225026   4.282   4.205   5.353
 8043SOL     OW25027   3.855   4.760   0.483
 8043SOL    HW125028   3.810   4.689   0.430
 8043SOL    HW225029   3.928   4.720   0.538
 8044SOL     OW25030   2.979   2.847   0.798
 8044SOL    HW125031   3.034   2.912   0.851
 8044SOL    HW225032   2.970   2.762   0.850
 8045SOL     OW25033   6.941   1.920   2.561
 8045SOL    HW125034   6.917   2.016   2.545
 8045SOL    HW225035   6.998   1.913   2.642
 8046SOL     OW25036   0.696   4.856   2.271
 8046SOL    HW125037   0.666   4.855   2.176
 8046SOL    HW225038   0.748   4.773   2.290
 8047SOL     OW25039   4.075   6.935   6.973
 8047SOL    HW125040   3.980   6.905   6.965
 8047SOL    HW225041   4.080   7.010   0.017
 8048SOL     OW25042   3.358   3.166   6.746
 8048SOL    HW125043   3.288   3.207   6.806
 8048SOL    HW225044   3.355   3.211   6.657
 8049SOL     OW25045   1.128   6.603   0.131
 8049SOL    HW125046   1.180   6.526   0.092
 8049SOL    HW225047   1.156   6.688   0.086
 8050SOL     OW25048   1.991   3.385   4.563
 8050SOL    HW125049   2.032   3.321   4.499
 8050SOL    HW225050   1.925   3.442   4.515
 8051SOL     OW25051   4.865   5.646   4.384
 8051SOL    HW125052   4.887   5.556   4.424
 8051SOL    HW225053   4.932   5.713   4.415
 8052SOL     OW25054   2.369   2.078   1.881
 8052SOL    HW125055   2.299   2.022   1.836
 8052SOL    HW225056   2.419   2.129   1.812
 8053SOL     OW25057   2.867   2.798   5.320
 8053SOL    HW125058   2.966   2.801   5.308
 8053SOL    HW225059   2.836   2.884   5.360
 8054SOL     OW25060   6.093   3.763   4.718
 8054SOL    HW125061   6.173   3.764   4.658
 8054SOL    HW225062   6.096   3.682   4.776
 8055SOL     OW25063   0.092   1.027   5.843
 8055SOL    HW125064   0.102   0.993   5.750
 8055SOL    HW225065   0.176   1.009   5.894
 8056SOL     OW25066   3.480   6.938   3.331
 8056SOL    HW125067   3.440   6.863   3.279
 8056SOL    HW225068   3.580   6.934   3.323
 8057SOL     OW25069   2.777   2.097   2.433
 8057SOL    HW125070   2.727   2.179   2.462
 8057SOL    HW225071   2.875   2.116   2.434
 8058SOL     OW25072   3.355   6.262   3.149
 8058SOL    HW125073   3.323   6.299   3.237
 8058SOL    HW225074   3.358   6.336   3.081
 8059SOL     OW25075   3.222   0.903   5.651
 8059SOL    HW125076   3.229   0.804   5.643
 8059SOL    HW225077   3.136   0.927   5.696
 8060SOL     OW25078   0.052   1.802   6.119
 8060SOL    HW125079   0.109   1.884   6.105
 8060SOL    HW225080   0.091   1.747   6.193
 8061SOL     OW25081   0.319   0.640   3.064
 8061SOL    HW125082   0.281   0.586   2.989
 8061SOL    HW225083   0.419   0.638   3.058
 8062SOL     OW25084   4.152   5.600   4.762
 8062SOL    HW125085   4.086   5.674   4.747
 8062SOL    HW225086   4.117   5.538   4.833
 8063SOL     OW25087   2.905   1.356   3.239
 8063SOL    HW125088   2.990   1.349   3.187
 8063SOL    HW225089   2.830   1.378   3.176
 8064SOL     OW25090   6.173   3.312   0.052
 8064SOL    HW125091   6.241   3.375   0.090
 8064SOL    HW225092   6.105   3.290   0.122
 8065SOL     OW25093   3.618   6.687   4.244
 8065SOL    HW125094   3.651   6.663   4.335
 8065SOL    HW225095   3.673   6.762   4.207
 8066SOL     OW25096   6.488   0.573   4.308
 8066SOL    HW125097   6.487   0.547   4.211
 8066SOL    HW225098   6.572   0.625   4.327
 8067SOL     OW25099   4.811   2.704   3.769
 8067SOL    HW125100   4.894   2.734   3.721
 8067SOL    HW225101   4.832   2.626   3.827
 8068SOL     OW25102   0.500   4.613   0.700
 8068SOL    HW125103   0.577   4.649   0.753
 8068SOL    HW225104   0.504   4.513   0.700
 8069SOL     OW25105   2.497   4.889   2.062
 8069SOL    HW125106   2.571   4.932   2.011
 8069SOL    HW225107   2.445   4.958   2.111
 8070SOL     OW25108   4.225   3.163   0.768
 8070SOL    HW125109   4.196   3.258   0.757
 8070SOL    HW225110   4.307   3.161   0.826
 8071SOL     OW25111   3.503   6.810   5.028
 8071SOL    HW125112   3.411   6.832   5.061
 8071SOL    HW225113   3.505   6.812   4.928
 8072SOL     OW25114   2.959   2.203   0.940
 8072SOL    HW125115   2.908   2.204   1.026
 8072SOL    HW225116   3.040   2.145   0.950
 8073SOL     OW25117   2.763   5.970   5.055
 8073SOL    HW125118   2.691   5.938   4.994
 8073SOL    HW225119   2.722   6.006   5.139
 8074SOL     OW25120   2.767   0.956   0.852
 8074SOL    HW125121   2.734   1.010   0.775
 8074SOL    HW225122   2.865   0.971   0.864
 8075SOL     OW25123   0.301   0.166   0.456
 8075SOL    HW125124   0.332   0.139   0.548
 8075SOL    HW225125   0.376   0.153   0.391
 8076SOL     OW25126   6.911   0.602   5.520
 8076SOL    HW125127   6.909   0.602   5.620
 8076SOL    HW225128   6.996   0.642   5.487
 8077SOL     OW25129   4.159   6.311   2.509
 8077SOL    HW125130   4.115   6.350   2.428
 8077SOL    HW225131   4.111   6.228   2.537
 8078SOL     OW25132   0.979   1.622   1.076
 8078SOL    HW125133   0.899   1.591   1.026
 8078SOL    HW225134   0.956   1.704   1.128
 8079SOL     OW25135   6.814   1.494   3.525
 8079SOL    HW125136   6.741   1.440   3.568
 8079SOL    HW225137   6.897   1.485   3.579
 8080SOL     OW25138   1.538   2.435   2.129
 8080SOL    HW125139   1.573   2.359   2.183
 8080SOL    HW225140   1.541   2.411   2.032
 8081SOL     OW25141   6.342   5.181   5.868
 8081SOL    HW125142   6.423   5.129   5.893
 8081SOL    HW225143   6.302   5.142   5.785
 8082SOL     OW25144   3.571   0.388   2.185
 8082SOL    HW125145   3.528   0.298   2.181
 8082SOL    HW225146   3.576   0.426   2.093
 8083SOL     OW25147   5.181   2.755   4.504
 8083SOL    HW125148   5.205   2.830   4.442
 8083SOL    HW225149   5.255   2.740   4.569
 8084SOL     OW25150   2.983   0.724   6.380
 8084SOL    HW125151   2.887   0.699   6.397
 8084SOL    HW225152   3.012   0.792   6.447
 8085SOL     OW25153   6.265   6.184   2.919
 8085SOL    HW125154   6.284   6.087   2.900
 8085SOL    HW225155   6.291   6.239   2.839
 8086SOL     OW25156   0.327   1.338   1.022
 8086SOL    HW125157   0.330   1.271   1.097
 8086SOL    HW225158   0.336   1.290   0.934
 8087SOL     OW25159   1.830   0.373   6.229
 8087SOL    HW125160   1.761   0.441   6.254
 8087SOL    HW225161   1.901   0.416   6.173
 8088SOL     OW25162   5.865   0.577   0.157
 8088SOL    HW125163   5.933   0.630   0.106
 8088SOL    HW225164   5.899   0.483   0.168
 8089SOL     OW25165   6.119   2.965   6.520
 8089SOL    HW125166   6.074   2.992   6.605
 8089SOL    HW225167   6.194   3.028   6.501
 8090SOL     OW25168   3.981   1.442   6.276
 8090SOL    HW125169   4.030   1.421   6.192
 8090SOL    HW225170   4.006   1.376   6.347
 8091SOL     OW25171   1.255   4.449   5.189
 8091SOL    HW125172   1.285   4.544   5.192
 8091SOL    HW225173   1.158   4.444   5.213
 8092SOL     OW25174   4.727   1.800   5.371
 8092SOL    HW125175   4.747   1.863   5.295
 8092SOL    HW225176   4.633   1.767   5.364
 8093SOL     OW25177   2.887   5.400   3.344
 8093SOL    HW125178   2.983   5.384   3.322
 8093SOL    HW225179   2.856   5.485   3.300
 8094SOL     OW25180   0.420   3.043   5.661
 8094SOL    HW125181   0.464   2.983   5.728
 8094SOL    HW225182   0.477   3.049   5.579
 8095SOL     OW25183   0.857   4.652   4.793
 8095SOL    HW125184   0.890   4.603   4.712
 8095SOL    HW225185   0.873   4.595   4.874
 8096SOL     OW25186   2.142   0.447   2.607
 8096SOL    HW125187   2.162   0.349   2.598
 8096SOL    HW225188   2.046   0.463   2.588
 8097SOL     OW25189   4.223   0.283   4.408
 8097SOL    HW125190   4.179   0.363   4.368
 8097SOL    HW225191   4.192   0.200   4.360
 8098SOL     OW25192   2.804   6.194   4.072
 8098SOL    HW125193   2.870   6.253   4.025
 8098SOL    HW225194   2.718   6.243   4.085
 8099SOL     OW25195   4.488   6.402   4.514
 8099SOL    HW125196   4.518   6.348   4.593
 8099SOL    HW225197   4.478   6.341   4.435
 8100SOL     OW25198   6.560   1.461   0.053
 8100SOL    HW125199   6.626   1.402   0.006
 8100SOL    HW225200   6.467   1.428   0.037
 8101SOL     OW25201   1.123   5.469   0.659
 8101SOL    HW125202   1.127   5.520   0.573
 8101SOL    HW225203   1.194   5.399   0.660
 8102SOL     OW25204   0.502   3.920   3.358
 8102SOL    HW125205   0.553   3.863   3.294
 8102SOL    HW225206   0.411   3.938   3.321
 8103SOL     OW25207   3.758   0.223   2.091
 8103SOL    HW125208   3.725   0.291   2.157
 8103SOL    HW225209   3.857   0.233   2.081
 8104SOL     OW25210   1.797   0.451   5.406
 8104SOL    HW125211   1.773   0.548   5.414
 8104SOL    HW225212   1.750   0.399   5.478
 8105SOL     OW25213   0.172   2.587   2.208
 8105SOL    HW125214   0.228   2.548   2.134
 8105SOL    HW225215   0.131   2.512   2.260
 8106SOL     OW25216   2.860   6.284   2.765
 8106SOL    HW125217   2.839   6.362   2.823
 8106SOL    HW225218   2.883   6.315   2.673
 8107SOL     OW25219   1.513   5.827   4.100
 8107SOL    HW125220   1.602   5.863   4.071
 8107SOL    HW225221   1.464   5.896   4.152
 8108SOL     OW25222   6.609   2.018   6.688
 8108SOL    HW125223   6.515   1.984   6.686
 8108SOL    HW225224   6.643   2.025   6.594
 8109SOL     OW25225   0.361   3.725   6.764
 8109SOL    HW125226   0.338   3.663   6.839
 8109SOL    HW225227   0.332   3.818   6.786
 8110SOL     OW25228   3.951   5.104   1.802
 8110SOL    HW125229   3.927   5.130   1.896
 8110SOL    HW225230   4.040   5.143   1.779
 8111SOL     OW25231   5.017   0.848   4.409
 8111SOL    HW125232   5.029   0.811   4.317
 8111SOL    HW225233   5.103   0.885   4.441
 8112SOL     OW25234   2.437   2.674   4.509
 8112SOL    HW125235   2.517   2.615   4.500
 8112SOL    HW225236   2.412   2.682   4.605
 8113SOL     OW25237   6.719   3.776   1.088
 8113SOL    HW125238   6.781   3.854   1.083
 8113SOL    HW225239   6.713   3.732   0.999
 8114SOL     OW25240   1.680   3.525   2.384
 8114SOL    HW125241   1.712   3.468   2.309
 8114SOL    HW225242   1.727   3.613   2.382
 8115SOL     OW25243   2.931   6.375   5.965
 8115SOL    HW125244   2.996   6.442   5.928
 8115SOL    HW225245   2.917   6.302   5.898
 8116SOL     OW25246   3.958   4.779   0.125
 8116SOL    HW125247   4.021   4.741   0.057
 8116SOL    HW225248   4.009   4.814   0.203
 8117SOL     OW25249   2.225   0.163   3.340
 8117SOL    HW125250   2.133   0.169   3.300
 8117SOL    HW225251   2.264   0.254   3.347
 8118SOL     OW25252   5.276   4.335   6.267
 8118SOL    HW125253   5.298   4.416   6.213
 8118SOL    HW225254   5.186   4.301   6.242
 8119SOL     OW25255   5.425   6.805   6.310
 8119SOL    HW125256   5.525   6.796   6.309
 8119SOL    HW225257   5.389   6.791   6.218
 8120SOL     OW25258   3.106   5.132   0.821
 8120SOL    HW125259   3.072   5.130   0.915
 8120SOL    HW225260   3.076   5.049   0.774
 8121SOL     OW25261   0.516   4.943   1.157
 8121SOL    HW125262   0.487   4.862   1.105
 8121SOL    HW225263   0.487   4.934   1.252
 8122SOL     OW25264   0.962   4.283   3.382
 8122SOL    HW125265   0.882   4.225   3.369
 8122SOL    HW225266   0.991   4.279   3.478
 8123SOL     OW25267   0.079   1.969   0.005
 8123SOL    HW125268   0.137   1.933   0.078
 8123SOL    HW225269   7.010   1.931   0.013
 8124SOL     OW25270   5.306   5.836   3.179
 8124SOL    HW125271   5.298   5.844   3.278
 8124SOL    HW225272   5.289   5.925   3.136
 8125SOL     OW25273   1.114   0.997   2.770
 8125SOL    HW125274   1.111   0.963   2.864
 8125SOL    HW225275   1.146   1.092   2.769
 8126SOL     OW25276   5.103   5.002   3.372
 8126SOL    HW125277   5.008   5.021   3.349
 8126SOL    HW225278   5.113   4.905   3.396
 8127SOL     OW25279   2.671   3.387   6.673
 8127SOL    HW125280   2.583   3.343   6.693
 8127SOL    HW225281   2.709   3.349   6.588
 8128SOL     OW25282   3.003   2.112   2.185
 8128SOL    HW125283   3.023   2.121   2.283
 8128SOL    HW225284   2.978   2.201   2.148
 8129SOL     OW25285   3.912   1.818   6.500
 8129SOL    HW125286   3.897   1.890   6.567
 8129SOL    HW225287   3.890   1.852   6.408
 8130SOL     OW25288   0.457   6.104   6.656
 8130SOL    HW125289   0.395   6.026   6.665
 8130SOL    HW225290   0.451   6.161   6.738
 8131SOL     OW25291   2.902   1.664   1.700
 8131SOL    HW125292   2.998   1.694   1.699
 8131SOL    HW225293   2.898   1.566   1.720
 8132SOL     OW25294   5.594   6.759   4.793
 8132SOL    HW125295   5.504   6.755   4.836
 8132SOL    HW225296   5.663   6.783   4.861
 8133SOL     OW25297   3.732   5.355   2.317
 8133SOL    HW125298   3.746   5.375   2.220
 8133SOL    HW225299   3.651   5.403   2.350
 8134SOL     OW25300   0.102   1.640   6.322
 8134SOL    HW125301   0.074   1.557   6.370
 8134SOL    HW225302   0.155   1.698   6.385
 8135SOL     OW25303   2.123   0.980   1.495
 8135SOL    HW125304   2.092   1.075   1.484
 8135SOL    HW225305   2.048   0.918   1.471
 8136SOL     OW25306   5.152   5.227   2.083
 8136SOL    HW125307   5.098   5.157   2.035
 8136SOL    HW225308   5.096   5.308   2.097
 8137SOL     OW25309   3.269   1.183   5.118
 8137SOL    HW125310   3.170   1.198   5.123
 8137SOL    HW225311   3.316   1.262   5.157
 8138SOL     OW25312   5.420   1.184   1.375
 8138SOL    HW125313   5.377   1.216   1.291
 8138SOL    HW225314   5.410   1.254   1.446
 8139SOL     OW25315   0.196   0.943   2.049
 8139SOL    HW125316   0.103   0.955   2.015
 8139SOL    HW225317   0.196   0.874   2.121
 8140SOL     OW25318   5.603   0.652   5.366
 8140SOL    HW125319   5.548   0.685   5.290
 8140SOL    HW225320   5.697   0.639   5.336
 8141SOL     OW25321   4.658   5.173   5.715
 8141SOL    HW125322   4.754   5.151   5.697
 8141SOL    HW225323   4.649   5.269   5.741
 8142SOL     OW25324   6.823   5.114   0.723
 8142SOL    HW125325   6.913   5.101   0.764
 8142SOL    HW225326   6.778   5.192   0.766
 8143SOL     OW25327   6.276   4.509   0.403
 8143SOL    HW125328   6.333   4.474   0.478
 8143SOL    HW225329   6.191   4.457   0.398
 8144SOL     OW25330   5.629   6.395   6.897
 8144SOL    HW125331   5.560   6.346   6.949
 8144SOL    HW225332   5.619   6.373   6.800
 8145SOL     OW25333   5.844   5.935   1.950
 8145SOL    HW125334   5.902   5.898   2.022
 8145SOL    HW225335   5.778   5.866   1.922
 8146SOL     OW25336   4.032   1.232   5.139
 8146SOL    HW125337   3.975   1.261   5.063
 8146SOL    HW225338   3.975   1.217   5.220
 8147SOL     OW25339   5.958   2.296   3.490
 8147SOL    HW125340   6.032   2.285   3.556
 8147SOL    HW225341   5.927   2.206   3.460
 8148SOL     OW25342   5.127   3.942   1.955
 8148SOL    HW125343   5.127   3.990   2.042
 8148SOL    HW225344   5.089   3.850   1.967
 8149SOL     OW25345   2.481   5.277   1.995
 8149SOL    HW125346   2.521   5.309   1.909
 8149SOL    HW225347   2.549   5.285   2.068
 8150SOL     OW25348   0.141   5.381   0.129
 8150SOL    HW125349   0.174   5.383   0.224
 8150SOL    HW225350   0.213   5.345   0.070
 8151SOL     OW25351   0.097   2.162   2.796
 8151SOL    HW125352   0.156   2.151   2.876
 8151SOL    HW225353   0.002   2.142   2.821
 8152SOL     OW25354   0.794   1.942   2.422
 8152SOL    HW125355   0.864   1.957   2.352
 8152SOL    HW225356   0.767   2.030   2.460
 8153SOL     OW25357   3.462   0.375   3.394
 8153SOL    HW125358   3.416   0.405   3.478
 8153SOL    HW225359   3.561   0.371   3.411
 8154SOL     OW25360   2.197   6.204   3.636
 8154SOL    HW125361   2.134   6.263   3.586
 8154SOL    HW225362   2.173   6.108   3.620
 8155SOL     OW25363   2.877   3.553   1.898
 8155SOL    HW125364   2.897   3.461   1.864
 8155SOL    HW225365   2.860   3.549   1.996
 8156SOL     OW25366   5.592   0.106   6.165
 8156SOL    HW125367   5.504   0.140   6.196
 8156SOL    HW225368   5.583   0.066   6.073
 8157SOL     OW25369   5.931   5.466   6.347
 8157SOL    HW125370   5.869   5.434   6.274
 8157SOL    HW225371   6.014   5.504   6.305
 8158SOL     OW25372   0.769   5.610   0.726
 8158SOL    HW125373   0.669   5.610   0.737
 8158SOL    HW225374   0.802   5.515   0.723
 8159SOL     OW25375   2.552   5.625   2.307
 8159SOL    HW125376   2.520   5.684   2.381
 8159SOL    HW225377   2.560   5.679   2.223
 8160SOL     OW25378   4.411   1.571   1.886
 8160SOL    HW125379   4.410   1.590   1.788
 8160SOL    HW225380   4.362   1.643   1.935
 8161SOL     OW25381   5.084   0.435   0.961
 8161SOL    HW125382   5.071   0.411   0.865
 8161SOL    HW225383   5.144   0.368   1.004
 8162SOL     OW25384   6.236   6.939   6.240
 8162SOL    HW125385   6.218   7.015   6.303
 8162SOL    HW225386   6.256   6.857   6.294
 8163SOL     OW25387   2.258   4.127   5.981
 8163SOL    HW125388   2.351   4.153   5.954
 8163SOL    HW225389   2.235   4.039   5.941
 8164SOL     OW25390   5.744   3.912   0.172
 8164SOL    HW125391   5.647   3.890   0.179
 8164SOL    HW225392   5.758   3.979   0.100
 8165SOL     OW25393   1.401   4.605   0.284
 8165SOL    HW125394   1.310   4.605   0.324
 8165SOL    HW225395   1.414   4.690   0.232
 8166SOL     OW25396   2.294   1.081   1.974
 8166SOL    HW125397   2.359   1.076   1.898
 8166SOL    HW225398   2.319   1.014   2.044
 8167SOL     OW25399   5.240   1.598   4.293
 8167SOL    HW125400   5.215   1.554   4.380
 8167SOL    HW225401   5.334   1.632   4.299
 8168SOL     OW25402   3.177   1.596   2.586
 8168SOL    HW125403   3.153   1.500   2.571
 8168SOL    HW225404   3.175   1.616   2.684
 8169SOL     OW25405   4.868   3.316   1.073
 8169SOL    HW125406   4.843   3.220   1.079
 8169SOL    HW225407   4.900   3.348   1.163
 8170SOL     OW25408   1.786   5.992   3.590
 8170SOL    HW125409   1.758   6.082   3.621
 8170SOL    HW225410   1.883   5.978   3.611
 8171SOL     OW25411   0.805   1.963   6.724
 8171SOL    HW125412   0.817   1.886   6.786
 8171SOL    HW225413   0.864   1.952   6.644
 8172SOL     OW25414   0.241   0.810   1.105
 8172SOL    HW125415   0.231   0.794   1.006
 8172SOL    HW225416   0.317   0.873   1.121
 8173SOL     OW25417   3.321   2.465   0.549
 8173SOL    HW125418   3.364   2.545   0.507
 8173SOL    HW225419   3.384   2.388   0.545
 8174SOL     OW25420   5.437   1.858   1.152
 8174SOL    HW125421   5.338   1.843   1.152
 8174SOL    HW225422   5.484   1.770   1.153
 8175SOL     OW25423   0.235   2.884   6.567
 8175SOL    HW125424   0.235   2.912   6.663
 8175SOL    HW225425   0.229   2.965   6.508
 8176SOL     OW25426   2.502   5.783   2.098
 8176SOL    HW125427   2.543   5.747   2.015
 8176SOL    HW225428   2.545   5.870   2.122
 8177SOL     OW25429   1.710   6.143   4.041
 8177SOL    HW125430   1.801   6.185   4.044
 8177SOL    HW225431   1.716   6.053   3.999
 8178SOL     OW25432   1.539   0.234   5.858
 8178SOL    HW125433   1.491   0.148   5.842
 8178SOL    HW225434   1.604   0.222   5.934
 8179SOL     OW25435   3.614   3.340   0.249
 8179SOL    HW125436   3.644   3.333   0.154
 8179SOL    HW225437   3.539   3.406   0.256
 8180SOL     OW25438   6.287   6.755   3.858
 8180SOL    HW125439   6.302   6.658   3.873
 8180SOL    HW225440   6.323   6.781   3.769
 8181SOL     OW25441   2.360   1.611   3.060
 8181SOL    HW125442   2.442   1.632   3.113
 8181SOL    HW225443   2.386   1.582   2.968
 8182SOL     OW25444   3.508   1.698   6.796
 8182SOL    HW125445   3.558   1.621   6.834
 8182SOL    HW225446   3.535   1.712   6.701
 8183SOL     OW25447   0.511   2.864   5.145
 8183SOL    HW125448   0.554   2.870   5.235
 8183SOL    HW225449   0.418   2.828   5.155
 8184SOL     OW25450   5.917   1.377   5.933
 8184SOL    HW125451   6.000   1.391   5.880
 8184SOL    HW225452   5.940   1.343   6.024
 8185SOL     OW25453   2.723   0.679   0.413
 8185SOL    HW125454   2.765   0.616   0.478
 8185SOL    HW225455   2.794   0.737   0.372
 8186SOL     OW25456   3.323   6.297   5.867
 8186SOL    HW125457   3.418   6.266   5.870
 8186SOL    HW225458   3.321   6.395   5.848
 8187SOL     OW25459   1.209   1.602   5.192
 8187SOL    HW125460   1.227   1.679   5.131
 8187SOL    HW225461   1.257   1.617   5.279
 8188SOL     OW25462   4.687   1.826   2.621
 8188SOL    HW125463   4.746   1.869   2.553
 8188SOL    HW225464   4.740   1.804   2.703
 8189SOL     OW25465   4.919   4.251   2.340
 8189SOL    HW125466   4.916   4.233   2.438
 8189SOL    HW225467   4.906   4.165   2.290
 8190SOL     OW25468   5.542   4.434   4.136
 8190SOL    HW125469   5.500   4.522   4.158
 8190SOL    HW225470   5.615   4.448   4.069
 8191SOL     OW25471   1.927   5.398   3.851
 8191SOL    HW125472   1.888   5.306   3.843
 8191SOL    HW225473   1.854   5.466   3.848
 8192SOL     OW25474   2.949   5.620   0.699
 8192SOL    HW125475   2.850   5.638   0.701
 8192SOL    HW225476   2.982   5.609   0.793
 8193SOL     OW25477   5.780   6.294   5.229
 8193SOL    HW125478   5.746   6.376   5.184
 8193SOL    HW225479   5.868   6.268   5.189
 8194SOL     OW25480   6.508   2.638   6.716
 8194SOL    HW125481   6.452   2.561   6.685
 8194SOL    HW225482   6.509   2.709   6.646
 8195SOL     OW25483   0.363   0.656   0.854
 8195SOL    HW125484   0.462   0.643   0.860
 8195SOL    HW225485   0.318   0.567   0.845
 8196SOL     OW25486   3.941   6.636   5.631
 8196SOL    HW125487   3.859   6.579   5.629
 8196SOL    HW225488   3.914   6.731   5.647
 8197SOL     OW25489   5.857   1.389   6.510
 8197SOL    HW125490   5.890   1.483   6.503
 8197SOL    HW225491   5.930   1.326   6.485
 8198SOL     OW25492   2.985   6.490   2.591
 8198SOL    HW125493   2.984   6.470   2.493
 8198SOL    HW225494   2.916   6.559   2.612
 8199SOL     OW25495   0.026   3.991   0.169
 8199SOL    HW125496   0.025   3.950   0.077
 8199SOL    HW225497   0.061   4.085   0.163
 8200SOL     OW25498   4.192   4.978   1.358
 8200SOL    HW125499   4.211   4.880   1.358
 8200SOL    HW225500   4.260   5.025   1.414
 8201SOL     OW25501   5.268   0.884   4.542
 8201SOL    HW125502   5.314   0.817   4.600
 8201SOL    HW225503   5.275   0.974   4.584
 8202SOL     OW25504   1.743   4.953   4.475
 8202SOL    HW125505   1.818   4.904   4.519
 8202SOL    HW225506   1.728   4.916   4.383
 8203SOL     OW25507   4.720   3.457   0.848
 8203SOL    HW125508   4.743   3.394   0.774
 8203SOL    HW225509   4.760   3.424   0.933
 8204SOL     OW25510   3.519   6.725   1.526
 8204SOL    HW125511   3.545   6.728   1.623
 8204SOL    HW225512   3.530   6.632   1.491
 8205SOL     OW25513   5.365   5.065   1.516
 8205SOL    HW125514   5.447   5.122   1.513
 8205SOL    HW225515   5.386   4.979   1.563
 8206SOL     OW25516   3.458   2.698   6.162
 8206SOL    HW125517   3.481   2.676   6.257
 8206SOL    HW225518   3.538   2.686   6.104
 8207SOL     OW25519   3.128   4.473   5.563
 8207SOL    HW125520   3.105   4.556   5.513
 8207SOL    HW225521   3.218   4.440   5.533
 8208SOL     OW25522   2.783   5.931   1.720
 8208SOL    HW125523   2.860   5.877   1.686
 8208SOL    HW225524   2.750   5.992   1.647
 8209SOL     OW25525   1.592   0.827   5.615
 8209SOL    HW125526   1.494   0.841   5.607
 8209SOL    HW225527   1.630   0.893   5.679
 8210SOL     OW25528   2.526   0.803   0.282
 8210SOL    HW125529   2.510   0.800   0.184
 8210SOL    HW225530   2.608   0.749   0.304
 8211SOL     OW25531   3.421   4.181   4.562
 8211SOL    HW125532   3.446   4.102   4.617
 8211SOL    HW225533   3.443   4.265   4.612
 8212SOL     OW25534   2.466   0.092   0.744
 8212SOL    HW125535   2.479   7.020   0.715
 8212SOL    HW225536   2.495   0.102   0.839
 8213SOL     OW25537   4.329   5.333   3.199
 8213SOL    HW125538   4.242   5.332   3.248
 8213SOL    HW225539   4.316   5.297   3.107
 8214SOL     OW25540   2.693   5.671   4.208
 8214SOL    HW125541   2.732   5.754   4.168
 8214SOL    HW225542   2.598   5.689   4.234
 8215SOL     OW25543   4.237   6.571   6.873
 8215SOL    HW125544   4.310   6.503   6.884
 8215SOL    HW225545   4.263   6.656   6.919
 8216SOL     OW25546   5.050   6.221   2.937
 8216SOL    HW125547   5.142   6.259   2.922
 8216SOL    HW225548   5.031   6.150   2.869
 8217SOL     OW25549   2.229   4.154   2.818
 8217SOL    HW125550   2.174   4.163   2.736
 8217SOL    HW225551   2.299   4.225   2.819
 8218SOL     OW25552   1.965   0.550   4.828
 8218SOL    HW125553   2.027   0.482   4.868
 8218SOL    HW225554   1.962   0.538   4.729
 8219SOL     OW25555   3.111   3.935   1.803
 8219SOL    HW125556   3.144   3.931   1.897
 8219SOL    HW225557   3.082   3.844   1.773
 8220SOL     OW25558   3.505   4.221   5.255
 8220SOL    HW125559   3.480   4.162   5.332
 8220SOL    HW225560   3.501   4.168   5.170
 8221SOL     OW25561   5.902   4.279   3.046
 8221SOL    HW125562   5.831   4.342   3.016
 8221SOL    HW225563   5.866   4.221   3.119
 8222SOL     OW25564   5.949   3.109   0.922
 8222SOL    HW125565   6.030   3.131   0.868
 8222SOL    HW225566   5.975   3.055   1.002
 8223SOL     OW25567   6.681   5.374   4.708
 8223SOL    HW125568   6.652   5.324   4.790
 8223SOL    HW225569   6.643   5.330   4.627
 8224SOL     OW25570   5.040   1.577   0.844
 8224SOL    HW125571   5.093   1.579   0.759
 8224SOL    HW225572   5.008   1.669   0.865
 8225SOL     OW25573   4.154   0.355   0.183
 8225SOL    HW125574   4.084   0.390   0.246
 8225SOL    HW225575   4.139   0.257   0.169
 8226SOL     OW25576   3.810   0.702   6.988
 8226SOL    HW125577   3.796   0.606   7.008
 8226SOL    HW225578   3.763   0.758   0.033
 8227SOL     OW25579   5.433   1.388   3.146
 8227SOL    HW125580   5.341   1.372   3.183
 8227SOL    HW225581   5.427   1.443   3.063
 8228SOL     OW25582   0.709   1.388   4.862
 8228SOL    HW125583   0.770   1.455   4.905
 8228SOL    HW225584   0.628   1.435   4.827
 8229SOL     OW25585   3.563   4.815   1.149
 8229SOL    HW125586   3.507   4.890   1.113
 8229SOL    HW225587   3.544   4.731   1.098
 8230SOL     OW25588   4.382   0.187   5.559
 8230SOL    HW125589   4.470   0.212   5.598
 8230SOL    HW225590   4.318   0.263   5.567
 8231SOL     OW25591   3.257   1.405   2.097
 8231SOL    HW125592   3.235   1.312   2.126
 8231SOL    HW225593   3.179   1.465   2.113
 8232SOL     OW25594   4.394   1.296   2.188
 8232SOL    HW125595   4.455   1.298   2.267
 8232SOL    HW225596   4.364   1.389   2.166
 8233SOL     OW25597   0.793   0.971   5.494
 8233SOL    HW125598   0.827   0.877   5.488
 8233SOL    HW225599   0.780   1.008   5.403
 8234SOL     OW25600   2.989   3.649   0.015
 8234SOL    HW125601   3.029   3.635   6.947
 8234SOL    HW225602   2.925   3.726   0.012
 8235SOL     OW25603   6.893   5.139   6.601
 8235SOL    HW125604   6.939   5.096   6.679
 8235SOL    HW225605   6.953   5.209   6.562
 8236SOL     OW25606   0.337   6.060   5.921
 8236SOL    HW125607   0.336   5.981   5.859
 8236SOL    HW225608   0.427   6.068   5.963
 8237SOL     OW25609   4.727   5.766   6.510
 8237SOL    HW125610   4.735   5.865   6.500
 8237SOL    HW225611   4.811   5.722   6.477
 8238SOL     OW25612   2.244   5.700   0.276
 8238SOL    HW125613   2.330   5.751   0.283
 8238SOL    HW225614   2.167   5.760   0.297
 8239SOL     OW25615   0.669   1.988   4.691
 8239SOL    HW125616   0.748   1.933   4.662
 8239SOL    HW225617   0.585   1.935   4.677
 8240SOL     OW25618   3.488   3.155   3.891
 8240SOL    HW125619   3.538   3.182   3.808
 8240SOL    HW225620   3.474   3.056   3.890
 8241SOL     OW25621   1.642   3.061   6.593
 8241SOL    HW125622   1.674   3.155   6.578
 8241SOL    HW225623   1.635   3.014   6.505
 8242SOL     OW25624   1.211   3.702   4.668
 8242SOL    HW125625   1.283   3.660   4.722
 8242SOL    HW225626   1.125   3.702   4.720
 8243SOL     OW25627   0.515   5.151   6.231
 8243SOL    HW125628   0.554   5.241   6.210
 8243SOL    HW225629   0.574   5.080   6.192
 8244SOL     OW25630   0.484   0.537   3.528
 8244SOL    HW125631   0.391   0.509   3.548
 8244SOL    HW225632   0.500   0.534   3.429
 8245SOL     OW25633   5.071   1.510   4.065
 8245SOL    HW125634   5.164   1.546   4.067
 8245SOL    HW225635   5.067   1.429   4.007
 8246SOL     OW25636   1.211   4.033   6.802
 8246SOL    HW125637   1.191   3.967   6.875
 8246SOL    HW225638   1.280   3.993   6.741
 8247SOL     OW25639   2.909   4.916   3.438
 8247SOL    HW125640   2.845   4.978   3.484
 8247SOL    HW225641   2.955   4.859   3.506
 8248SOL     OW25642   0.463   5.457   3.112
 8248SOL    HW125643   0.537   5.523   3.118
 8248SOL    HW225644   0.471   5.404   3.027
 8249SOL     OW25645   2.463   2.176   5.744
 8249SOL    HW125646   2.537   2.110   5.757
 8249SOL    HW225647   2.479   2.227   5.660
 8250SOL     OW25648   2.258   1.688   0.233
 8250SOL    HW125649   2.253   1.788   0.239
 8250SOL    HW225650   2.348   1.662   0.199
 8251SOL     OW25651   0.154   2.923   4.625
 8251SOL    HW125652   0.087   2.976   4.572
 8251SOL    HW225653   0.205   2.863   4.564
 8252SOL     OW25654   2.503   2.193   6.843
 8252SOL    HW125655   2.441   2.168   6.769
 8252SOL    HW225656   2.452   2.205   6.928
 8253SOL     OW25657   3.388   6.011   6.278
 8253SOL    HW125658   3.450   5.981   6.350
 8253SOL    HW225659   3.375   5.937   6.211
 8254SOL     OW25660   6.117   4.835   0.283
 8254SOL    HW125661   6.155   4.821   0.375
 8254SOL    HW225662   6.141   4.926   0.251
 8255SOL     OW25663   0.298   0.468   6.065
 8255SOL    HW125664   0.324   0.373   6.080
 8255SOL    HW225665   0.379   0.525   6.062
 8256SOL     OW25666   1.467   6.164   2.453
 8256SOL    HW125667   1.562   6.137   2.468
 8256SOL    HW225668   1.452   6.178   2.355
 8257SOL     OW25669   5.578   4.010   4.294
 8257SOL    HW125670   5.676   4.015   4.275
 8257SOL    HW225671   5.527   4.049   4.218
 8258SOL     OW25672   5.678   2.736   1.519
 8258SOL    HW125673   5.636   2.753   1.607
 8258SOL    HW225674   5.607   2.721   1.450
 8259SOL     OW25675   4.211   2.329   4.522
 8259SOL    HW125676   4.273   2.341   4.445
 8259SOL    HW225677   4.124   2.291   4.490
 8260SOL     OW25678   2.608   0.185   0.523
 8260SOL    HW125679   2.538   0.194   0.594
 8260SOL    HW225680   2.583   0.242   0.444
 8261SOL     OW25681   5.542   6.126   2.959
 8261SOL    HW125682   5.627   6.103   3.006
 8261SOL    HW225683   5.557   6.123   2.860
 8262SOL     OW25684   0.300   4.816   0.576
 8262SOL    HW125685   0.287   4.740   0.513
 8262SOL    HW225686   0.353   4.784   0.656
 8263SOL     OW25687   0.112   2.262   6.553
 8263SOL    HW125688   0.158   2.343   6.588
 8263SOL    HW225689   0.014   2.269   6.570
 8264SOL     OW25690   2.109   0.004   1.820
 8264SOL    HW125691   2.151   6.957   1.878
 8264SOL    HW225692   2.024   0.035   1.863
 8265SOL     OW25693   4.485   0.081   1.341
 8265SOL    HW125694   4.401   0.134   1.328
 8265SOL    HW225695   4.478   0.028   1.426
 8266SOL     OW25696   2.664   0.138   4.016
 8266SOL    HW125697   2.653   0.171   3.922
 8266SOL    HW225698   2.758   0.156   4.047
 8267SOL     OW25699   1.220   4.481   2.710
 8267SOL    HW125700   1.266   4.472   2.798
 8267SOL    HW225701   1.149   4.411   2.701
 8268SOL     OW25702   3.165   3.737   6.461
 8268SOL    HW125703   3.119   3.826   6.453
 8268SOL    HW225704   3.245   3.747   6.520
 8269SOL     OW25705   4.354   2.254   3.377
 8269SOL    HW125706   4.318   2.298   3.460
 8269SOL    HW225707   4.389   2.163   3.400
 8270SOL     OW25708   3.731   0.012   5.928
 8270SOL    HW125709   3.652   0.009   5.867
 8270SOL    HW225710   3.785   0.094   5.909
 8271SOL     OW25711   5.196   6.121   4.430
 8271SOL    HW125712   5.143   6.205   4.426
 8271SOL    HW225713   5.182   6.075   4.518
 8272SOL     OW25714   0.818   0.604   2.087
 8272SOL    HW125715   0.858   0.668   2.020
 8272SOL    HW225716   0.849   0.628   2.179
 8273SOL     OW25717   2.390   6.659   6.879
 8273SOL    HW125718   2.410   6.599   6.801
 8273SOL    HW225719   2.331   6.734   6.848
 8274SOL     OW25720   5.103   5.410   6.915
 8274SOL    HW125721   5.034   5.425   6.985
 8274SOL    HW225722   5.060   5.408   6.824
 8275SOL     OW25723   6.859   0.438   4.230
 8275SOL    HW125724   6.825   0.356   4.183
 8275SOL    HW225725   6.951   0.421   4.264
 8276SOL     OW25726   0.018   2.676   5.992
 8276SOL    HW125727   7.022   2.767   6.029
 8276SOL    HW225728   6.954   2.629   5.974
 8277SOL     OW25729   1.613   6.093   5.720
 8277SOL    HW125730   1.705   6.069   5.688
 8277SOL    HW225731   1.580   6.020   5.781
 8278SOL     OW25732   3.710   2.147   6.639
 8278SOL    HW125733   3.769   2.227   6.635
 8278SOL    HW225734   3.616   2.176   6.657
 8279SOL     OW25735   4.637   6.054   6.449
 8279SOL    HW125736   4.653   6.141   6.403
 8279SOL    HW225737   4.545   6.022   6.429
 8280SOL     OW25738   5.307   2.549   0.505
 8280SOL    HW125739   5.226   2.580   0.456
 8280SOL    HW225740   5.363   2.627   0.531
 8281SOL     OW25741   1.353   5.337   0.659
 8281SOL    HW125742   1.424   5.333   0.729
 8281SOL    HW225743   1.391   5.374   0.574
 8282SOL     OW25744   2.722   2.799   1.218
 8282SOL    HW125745   2.645   2.779   1.279
 8282SOL    HW225746   2.687   2.843   1.136
 8283SOL     OW25747   0.565   4.906   4.018
 8283SOL    HW125748   0.552   4.971   4.092
 8283SOL    HW225749   0.493   4.918   3.949
 8284SOL     OW25750   2.690   2.361   2.492
 8284SOL    HW125751   2.690   2.459   2.509
 8284SOL    HW225752   2.601   2.333   2.456
 8285SOL     OW25753   3.057   4.081   5.948
 8285SOL    HW125754   3.143   4.036   5.927
 8285SOL    HW225755   3.056   4.172   5.906
 8286SOL     OW25756   5.458   0.969   5.033
 8286SOL    HW125757   5.485   1.041   5.096
 8286SOL    HW225758   5.527   0.960   4.961
 8287SOL     OW25759   1.183   0.181   3.577
 8287SOL    HW125760   1.198   0.279   3.565
 8287SOL    HW225761   1.086   0.161   3.572
 8288SOL     OW25762   2.171   1.885   2.432
 8288SOL    HW125763   2.156   1.827   2.512
 8288SOL    HW225764   2.201   1.976   2.461
 8289SOL     OW25765   6.007   2.237   5.246
 8289SOL    HW125766   5.933   2.186   5.203
 8289SOL    HW225767   6.066   2.175   5.297
 8290SOL     OW25768   3.602   2.654   1.813
 8290SOL    HW125769   3.607   2.555   1.823
 8290SOL    HW225770   3.643   2.681   1.725
 8291SOL     OW25771   5.455   6.617   6.839
 8291SOL    HW125772   5.533   6.557   6.820
 8291SOL    HW225773   5.413   6.590   6.925
 8292SOL     OW25774   0.924   5.010   5.944
 8292SOL    HW125775   0.916   4.944   5.870
 8292SOL    HW225776   0.999   5.073   5.926
 8293SOL     OW25777   2.318   5.073   2.201
 8293SOL    HW125778   2.393   5.118   2.249
 8293SOL    HW225779   2.263   5.020   2.266
 8294SOL     OW25780   0.246   3.910   6.222
 8294SOL    HW125781   0.322   3.931   6.162
 8294SOL    HW225782   0.258   3.957   6.310
 8295SOL     OW25783   5.197   3.637   2.867
 8295SOL    HW125784   5.261   3.680   2.803
 8295SOL    HW225785   5.113   3.691   2.872
 8296SOL     OW25786   3.070   5.756   0.493
 8296SOL    HW125787   3.032   5.717   0.577
 8296SOL    HW225788   2.997   5.796   0.438
 8297SOL     OW25789   0.028   4.698   2.861
 8297SOL    HW125790   6.962   4.742   2.868
 8297SOL    HW225791   0.021   4.604   2.895
 8298SOL     OW25792   0.583   1.175   6.849
 8298SOL    HW125793   0.599   1.274   6.842
 8298SOL    HW225794   0.671   1.127   6.847
 8299SOL     OW25795   0.121   3.934   1.993
 8299SOL    HW125796   0.083   3.865   1.931
 8299SOL    HW225797   0.063   3.942   2.074
 8300SOL     OW25798   6.347   5.398   3.929
 8300SOL    HW125799   6.381   5.472   3.872
 8300SOL    HW225800   6.356   5.311   3.879
 8301SOL     OW25801   3.666   0.009   0.170
 8301SOL    HW125802   3.731   6.958   0.191
 8301SOL    HW225803   3.592   0.008   0.237
 8302SOL     OW25804   3.543   6.282   4.214
 8302SOL    HW125805   3.546   6.364   4.157
 8302SOL    HW225806   3.627   6.229   4.201
 8303SOL     OW25807   6.096   0.334   2.108
 8303SOL    HW125808   6.136   0.418   2.071
 8303SOL    HW225809   6.149   0.303   2.187
 8304SOL     OW25810   5.988   3.257   3.515
 8304SOL    HW125811   6.054   3.331   3.527
 8304SOL    HW225812   5.905   3.277   3.567
 8305SOL     OW25813   4.449   5.481   4.101
 8305SOL    HW125814   4.401   5.419   4.164
 8305SOL    HW225815   4.502   5.547   4.154
 8306SOL     OW25816   6.381   0.803   2.105
 8306SOL    HW125817   6.352   0.874   2.169
 8306SOL    HW225818   6.323   0.806   2.023
 8307SOL     OW25819   1.751   4.921   2.232
 8307SOL    HW125820   1.670   4.947   2.180
 8307SOL    HW225821   1.795   4.842   2.189
 8308SOL     OW25822   1.176   4.611   7.005
 8308SOL    HW125823   1.116   4.691   7.012
 8308SOL    HW225824   1.128   4.530   0.018
 8309SOL     OW25825   6.576   4.777   4.852
 8309SOL    HW125826   6.617   4.695   4.894
 8309SOL    HW225827   6.499   4.807   4.909
 8310SOL     OW25828   0.439   0.059   0.646
 8310SOL    HW125829   0.537   0.042   0.657
 8310SOL    HW225830   0.401   0.091   0.733
 8311SOL     OW25831   5.506   6.387   4.011
 8311SOL    HW125832   5.452   6.360   4.090
 8311SOL    HW225833   5.602   6.395   4.037
 8312SOL     OW25834   5.087   0.095   7.018
 8312SOL    HW125835   5.127   0.049   6.939
 8312SOL    HW225836   5.070   0.191   6.997
 8313SOL     OW25837   4.145   0.357   5.435
 8313SOL    HW125838   4.054   0.317   5.441
 8313SOL    HW225839   4.139   0.450   5.399
 8314SOL     OW25840   5.370   6.429   6.081
 8314SOL    HW125841   5.378   6.329   6.080
 8314SOL    HW225842   5.395   6.465   5.991
 8315SOL     OW25843   3.743   3.299   4.526
 8315SOL    HW125844   3.667   3.242   4.494
 8315SOL    HW225845   3.817   3.240   4.558
 8316SOL     OW25846   1.028   2.984   0.466
 8316SOL    HW125847   1.008   2.918   0.538
 8316SOL    HW225848   0.995   2.950   0.378
 8317SOL     OW25849   2.300   1.936   4.650
 8317SOL    HW125850   2.297   2.036   4.656
 8317SOL    HW225851   2.211   1.901   4.622
 8318SOL     OW25852   3.993   0.391   6.621
 8318SOL    HW125853   3.998   0.445   6.705
 8318SOL    HW225854   4.007   0.451   6.542
 8319SOL     OW25855   1.440   0.303   6.260
 8319SOL    HW125856   1.507   0.229   6.269
 8319SOL    HW225857   1.401   0.324   6.349
 8320SOL     OW25858   3.503   3.941   4.366
 8320SOL    HW125859   3.538   4.024   4.322
 8320SOL    HW225860   3.435   3.966   4.435
 8321SOL     OW25861   0.175   0.446   6.988
 8321SOL    HW125862   0.111   0.453   0.042
 8321SOL    HW225863   0.246   0.515   6.997
 8322SOL     OW25864   6.761   1.029   0.473
 8322SOL    HW125865   6.841   0.970   0.467
 8322SOL    HW225866   6.691   0.985   0.530
 8323SOL     OW25867   4.937   4.694   0.862
 8323SOL    HW125868   4.896   4.603   0.863
 8323SOL    HW225869   4.899   4.747   0.786
 8324SOL     OW25870   6.080   0.474   6.510
 8324SOL    HW125871   6.163   0.437   6.468
 8324SOL    HW225872   6.001   0.418   6.483
 8325SOL     OW25873   1.658   5.849   4.899
 8325SOL    HW125874   1.700   5.780   4.840
 8325SOL    HW225875   1.577   5.810   4.943
 8326SOL     OW25876   2.558   3.817   0.139
 8326SOL    HW125877   2.556   3.823   0.239
 8326SOL    HW225878   2.642   3.858   0.105
 8327SOL     OW25879   0.553   0.733   5.113
 8327SOL    HW125880   0.562   0.639   5.079
 8327SOL    HW225881   0.643   0.776   5.116
 8328SOL     OW25882   0.620   6.335   5.763
 8328SOL    HW125883   0.648   6.294   5.850
 8328SOL    HW225884   0.521   6.334   5.756
 8329SOL     OW25885   0.630   2.620   4.875
 8329SOL    HW125886   0.695   2.604   4.801
 8329SOL    HW225887   0.617   2.718   4.886
 8330SOL     OW25888   3.841   1.140   6.554
 8330SOL    HW125889   3.871   1.071   6.620
 8330SOL    HW225890   3.759   1.108   6.507
 8331SOL     OW25891   2.070   1.914   0.496
 8331SOL    HW125892   1.988   1.913   0.553
 8331SOL    HW225893   2.097   1.820   0.475
 8332SOL     OW25894   5.469   4.830   1.610
 8332SOL    HW125895   5.555   4.818   1.560
 8332SOL    HW225896   5.458   4.756   1.676
 8333SOL     OW25897   2.183   4.992   0.835
 8333SOL    HW125898   2.166   4.999   0.737
 8333SOL    HW225899   2.138   4.910   0.871
 8334SOL     OW25900   3.275   2.408   6.768
 8334SOL    HW125901   3.209   2.337   6.794
 8334SOL    HW225902   3.228   2.496   6.759
 8335SOL     OW25903   4.858   3.161   6.677
 8335SOL    HW125904   4.897   3.091   6.618
 8335SOL    HW225905   4.783   3.207   6.629
 8336SOL     OW25906   1.421   3.500   2.734
 8336SOL    HW125907   1.332   3.546   2.744
 8336SOL    HW225908   1.494   3.569   2.733
 8337SOL     OW25909   0.720   1.709   4.766
 8337SOL    HW125910   0.650   1.640   4.750
 8337SOL    HW225911   0.806   1.679   4.725
 8338SOL     OW25912   3.754   4.885   2.176
 8338SOL    HW125913   3.703   4.884   2.262
 8338SOL    HW225914   3.704   4.835   2.106
 8339SOL     OW25915   0.142   0.627   0.499
 8339SOL    HW125916   0.209   0.666   0.562
 8339SOL    HW225917   0.187   0.564   0.436
 8340SOL     OW25918   5.252   2.291   0.606
 8340SOL    HW125919   5.282   2.374   0.559
 8340SOL    HW225920   5.201   2.234   0.542
 8341SOL     OW25921   3.293   0.397   0.116
 8341SOL    HW125922   3.276   0.309   0.072
 8341SOL    HW225923   3.366   0.445   0.068
 8342SOL     OW25924   3.592   6.538   6.942
 8342SOL    HW125925   3.587   6.580   6.851
 8342SOL    HW225926   3.538   6.591   7.007
 8343SOL     OW25927   6.573   4.497   3.743
 8343SOL    HW125928   6.546   4.403   3.765
 8343SOL    HW225929   6.673   4.500   3.730
 8344SOL     OW25930   0.767   5.141   4.460
 8344SOL    HW125931   0.669   5.133   4.441
 8344SOL    HW225932   0.792   5.076   4.532
 8345SOL     OW25933   5.180   0.800   3.236
 8345SOL    HW125934   5.277   0.810   3.213
 8345SOL    HW225935   5.128   0.874   3.193
 8346SOL     OW25936   4.629   3.217   5.996
 8346SOL    HW125937   4.593   3.285   5.931
 8346SOL    HW225938   4.606   3.125   5.963
 8347SOL     OW25939   2.541   0.061   6.143
 8347SOL    HW125940   2.466   0.128   6.136
 8347SOL    HW225941   2.610   0.095   6.206
 8348SOL     OW25942   3.511   6.650   1.168
 8348SOL    HW125943   3.441   6.704   1.120
 8348SOL    HW225944   3.582   6.712   1.203
 8349SOL     OW25945   0.592   6.434   2.187
 8349SOL    HW125946   0.635   6.469   2.270
 8349SOL    HW225947   0.599   6.503   2.115
 8350SOL     OW25948   2.751   6.949   6.292
 8350SOL    HW125949   2.750   6.921   6.388
 8350SOL    HW225950   2.660   6.937   6.254
 8351SOL     OW25951   6.601   4.813   4.480
 8351SOL    HW125952   6.610   4.847   4.387
 8351SOL    HW225953   6.542   4.732   4.481
 8352SOL     OW25954   2.677   6.306   1.845
 8352SOL    HW125955   2.769   6.293   1.810
 8352SOL    HW225956   2.650   6.227   1.900
 8353SOL     OW25957   1.045   3.787   1.873
 8353SOL    HW125958   1.107   3.763   1.948
 8353SOL    HW225959   1.059   3.883   1.848
 8354SOL     OW25960   3.677   6.390   3.820
 8354SOL    HW125961   3.606   6.404   3.889
 8354SOL    HW225962   3.756   6.346   3.862
 8355SOL     OW25963   1.104   6.884   6.232
 8355SOL    HW125964   1.162   6.954   6.190
 8355SOL    HW225965   1.013   6.922   6.247
 8356SOL     OW25966   1.786   5.652   1.586
 8356SOL    HW125967   1.747   5.721   1.648
 8356SOL    HW225968   1.793   5.564   1.635
 8357SOL     OW25969   4.008   5.506   5.923
 8357SOL    HW125970   4.007   5.570   5.999
 8357SOL    HW225971   4.027   5.555   5.838
 8358SOL     OW25972   1.336   2.295   5.436
 8358SOL    HW125973   1.318   2.237   5.356
 8358SOL    HW225974   1.250   2.330   5.472
 8359SOL     OW25975   2.851   0.832   4.895
 8359SOL    HW125976   2.939   0.792   4.919
 8359SOL    HW225977   2.862   0.930   4.881
 8360SOL     OW25978   4.671   6.483   0.826
 8360SOL    HW125979   4.572   6.483   0.811
 8360SOL    HW225980   4.713   6.556   0.773
 8361SOL     OW25981   2.094   0.107   6.635
 8361SOL    HW125982   2.070   0.065   6.723
 8361SOL    HW225983   2.193   0.106   6.623
 8362SOL     OW25984   6.504   2.952   0.182
 8362SOL    HW125985   6.513   3.031   0.121
 8362SOL    HW225986   6.511   2.868   0.129
 8363SOL     OW25987   4.047   2.341   0.739
 8363SOL    HW125988   4.098   2.370   0.658
 8363SOL    HW225989   4.103   2.357   0.821
 8364SOL     OW25990   0.471   2.832   3.569
 8364SOL    HW125991   0.533   2.899   3.609
 8364SOL    HW225992   0.499   2.740   3.598
 8365SOL     OW25993   1.783   2.532   1.877
 8365SOL    HW125994   1.767   2.443   1.918
 8365SOL    HW225995   1.718   2.547   1.802
 8366SOL     OW25996   4.214   5.478   1.108
 8366SOL    HW125997   4.256   5.477   1.018
 8366SOL    HW225998   4.149   5.402   1.116
 8367SOL     OW25999   3.383   5.162   4.883
 8367SOL    HW126000   3.402   5.065   4.899
 8367SOL    HW226001   3.292   5.184   4.917
 8368SOL     OW26002   0.711   6.468   0.255
 8368SOL    HW126003   0.752   6.424   0.334
 8368SOL    HW226004   0.619   6.432   0.240
 8369SOL     OW26005   1.090   1.677   0.781
 8369SOL    HW126006   1.088   1.773   0.753
 8369SOL    HW226007   1.034   1.665   0.863
 8370SOL     OW26008   2.939   1.750   6.873
 8370SOL    HW126009   3.013   1.816   6.863
 8370SOL    HW226010   2.852   1.794   6.850
 8371SOL     OW26011   1.283   2.760   5.407
 8371SOL    HW126012   1.257   2.846   5.363
 8371SOL    HW226013   1.208   2.694   5.398
 8372SOL     OW26014   2.599   6.520   2.315
 8372SOL    HW126015   2.529   6.591   2.310
 8372SOL    HW226016   2.688   6.560   2.295
 8373SOL     OW26017   0.943   1.851   4.509
 8373SOL    HW126018   0.952   1.774   4.572
 8373SOL    HW226019   1.020   1.853   4.446
 8374SOL     OW26020   1.076   0.936   4.047
 8374SOL    HW126021   1.025   0.893   4.120
 8374SOL    HW226022   1.026   0.927   3.961
 8375SOL     OW26023   4.323   0.802   5.839
 8375SOL    HW126024   4.256   0.748   5.788
 8375SOL    HW226025   4.285   0.894   5.855
 8376SOL     OW26026   1.626   0.968   3.553
 8376SOL    HW126027   1.698   0.953   3.486
 8376SOL    HW226028   1.570   1.046   3.526
 8377SOL     OW26029   5.718   5.083   0.002
 8377SOL    HW126030   5.709   5.183   7.020
 8377SOL    HW226031   5.628   5.042   0.017
 8378SOL     OW26032   5.158   5.470   3.639
 8378SOL    HW126033   5.173   5.429   3.729
 8378SOL    HW226034   5.116   5.403   3.579
 8379SOL     OW26035   4.816   1.817   1.530
 8379SOL    HW126036   4.717   1.807   1.543
 8379SOL    HW226037   4.856   1.855   1.613
 8380SOL     OW26038   0.001   6.177   6.579
 8380SOL    HW126039   6.984   6.149   6.491
 8380SOL    HW226040   0.090   6.219   6.563
 8381SOL     OW26041   0.364   2.255   2.815
 8381SOL    HW126042   0.359   2.185   2.743
 8381SOL    HW226043   0.292   2.322   2.802
 8382SOL     OW26044   2.494   0.028   6.792
 8382SOL    HW126045   2.464   7.020   6.702
 8382SOL    HW226046   2.563   0.100   6.781
 8383SOL     OW26047   2.619   0.321   4.794
 8383SOL    HW126048   2.687   0.320   4.721
 8383SOL    HW226049   2.665   0.334   4.882
 8384SOL     OW26050   6.477   1.778   1.203
 8384SOL    HW126051   6.424   1.842   1.148
 8384SOL    HW226052   6.419   1.701   1.230
 8385SOL     OW26053   4.449   3.416   0.781
 8385SOL    HW126054   4.453   3.317   0.796
 8385SOL    HW226055   4.537   3.457   0.805
 8386SOL     OW26056   2.211   6.611   1.421
 8386SOL    HW126057   2.141   6.620   1.491
 8386SOL    HW226058   2.205   6.520   1.379
 8387SOL     OW26059   2.514   1.479   1.560
 8387SOL    HW126060   2.461   1.555   1.523
 8387SOL    HW226061   2.552   1.504   1.649
 8388SOL     OW26062   1.394   6.815   0.563
 8388SOL    HW126063   1.370   6.736   0.507
 8388SOL    HW226064   1.381   6.899   0.510
 8389SOL     OW26065   1.444   3.206   4.315
 8389SOL    HW126066   1.503   3.252   4.248
 8389SOL    HW226067   1.478   3.114   4.332
 8390SOL     OW26068   2.801   0.764   5.796
 8390SOL    HW126069   2.856   0.844   5.771
 8390SOL    HW226070   2.753   0.782   5.881
 8391SOL     OW26071   5.015   5.538   1.849
 8391SOL    HW126072   5.034   5.627   1.807
 8391SOL    HW226073   5.101   5.490   1.864
 8392SOL     OW26074   6.205   5.730   4.640
 8392SOL    HW126075   6.257   5.786   4.704
 8392SOL    HW226076   6.111   5.764   4.635
 8393SOL     OW26077   6.546   7.008   3.720
 8393SOL    HW126078   6.559   0.034   3.807
 8393SOL    HW226079   6.576   6.913   3.731
 8394SOL     OW26080   0.949   1.160   2.463
 8394SOL    HW126081   0.927   1.255   2.438
 8394SOL    HW226082   1.048   1.148   2.462
 8395SOL     OW26083   0.189   6.396   4.393
 8395SOL    HW126084   0.114   6.401   4.326
 8395SOL    HW226085   0.213   6.489   4.422
 8396SOL     OW26086   4.210   4.740   2.721
 8396SOL    HW126087   4.230   4.691   2.636
 8396SOL    HW226088   4.111   4.750   2.732
 8397SOL     OW26089   2.271   6.750   2.552
 8397SOL    HW126090   2.300   6.698   2.632
 8397SOL    HW226091   2.202   6.816   2.579
 8398SOL     OW26092   4.228   1.684   0.611
 8398SOL    HW126093   4.180   1.635   0.538
 8398SOL    HW226094   4.278   1.761   0.572
 8399SOL     OW26095   5.722   5.846   0.696
 8399SOL    HW126096   5.641   5.858   0.639
 8399SOL    HW226097   5.787   5.920   0.677
 8400SOL     OW26098   6.882   0.165   2.957
 8400SOL    HW126099   6.934   0.186   3.040
 8400SOL    HW226100   6.794   0.213   2.959
 8401SOL     OW26101   4.545   2.974   5.879
 8401SOL    HW126102   4.460   3.022   5.899
 8401SOL    HW226103   4.535   2.921   5.795
 8402SOL     OW26104   3.737   2.378   5.674
 8402SOL    HW126105   3.741   2.461   5.618
 8402SOL    HW226106   3.717   2.300   5.616
 8403SOL     OW26107   0.610   1.310   3.178
 8403SOL    HW126108   0.521   1.350   3.155
 8403SOL    HW226109   0.646   1.354   3.260
 8404SOL     OW26110   5.540   6.994   6.581
 8404SOL    HW126111   5.452   6.954   6.558
 8404SOL    HW226112   5.595   7.005   6.498
 8405SOL     OW26113   1.810   2.117   6.588
 8405SOL    HW126114   1.771   2.032   6.620
 8405SOL    HW226115   1.777   2.193   6.644
 8406SOL     OW26116   4.573   1.727   0.937
 8406SOL    HW126117   4.583   1.740   0.838
 8406SOL    HW226118   4.480   1.698   0.958
 8407SOL     OW26119   6.042   4.508   4.964
 8407SOL    HW126120   6.137   4.479   4.949
 8407SOL    HW226121   5.981   4.430   4.949
 8408SOL     OW26122   5.317   0.232   4.158
 8408SOL    HW126123   5.343   0.272   4.245
 8408SOL    HW226124   5.223   0.199   4.163
 8409SOL     OW26125   0.745   1.876   3.697
 8409SOL    HW126126   0.708   1.898   3.788
 8409SOL    HW226127   0.845   1.881   3.700
 8410SOL     OW26128   4.890   0.909   1.882
 8410SOL    HW126129   4.898   0.851   1.801
 8410SOL    HW226130   4.795   0.935   1.896
 8411SOL     OW26131   1.527   4.942   3.831
 8411SOL    HW126132   1.607   4.968   3.777
 8411SOL    HW226133   1.454   5.009   3.817
 8412SOL     OW26134   4.644   2.008   1.014
 8412SOL    HW126135   4.636   2.045   0.922
 8412SOL    HW226136   4.634   1.908   1.012
 8413SOL     OW26137   4.067   5.172   0.445
 8413SOL    HW126138   4.019   5.250   0.486
 8413SOL    HW226139   4.162   5.197   0.428
 8414SOL     OW26140   3.672   0.219   2.464
 8414SOL    HW126141   3.585   0.175   2.442
 8414SOL    HW226142   3.734   0.152   2.506
 8415SOL     OW26143   6.986   4.847   3.812
 8415SOL    HW126144   6.897   4.874   3.847
 8415SOL    HW226145   0.027   4.924   3.819
 8416SOL     OW26146   5.273   3.950   2.750
 8416SOL    HW126147   5.217   3.993   2.680
 8416SOL    HW226148   5.361   3.923   2.711
 8417SOL     OW26149   2.824   6.464   5.301
 8417SOL    HW126150   2.876   6.406   5.363
 8417SOL    HW226151   2.842   6.436   5.206
 8418SOL     OW26152   5.255   5.400   1.885
 8418SOL    HW126153   5.234   5.343   1.805
 8418SOL    HW226154   5.242   5.346   1.968
 8419SOL     OW26155   4.823   1.112   2.170
 8419SOL    HW126156   4.890   1.078   2.104
 8419SOL    HW226157   4.853   1.199   2.207
 8420SOL     OW26158   3.996   6.966   0.393
 8420SOL    HW126159   3.934   6.892   0.367
 8420SOL    HW226160   4.017   6.959   0.490
 8421SOL     OW26161   2.619   6.340   1.428
 8421SOL    HW126162   2.657   6.427   1.459
 8421SOL    HW226163   2.574   6.354   1.340
 8422SOL     OW26164   5.410   6.113   0.844
 8422SOL    HW126165   5.438   6.032   0.895
 8422SOL    HW226166   5.487   6.177   0.838
 8423SOL     OW26167   4.310   5.054   6.772
 8423SOL    HW126168   4.315   5.036   6.674
 8423SOL    HW226169   4.218   5.032   6.804
 8424SOL     OW26170   3.377   2.052   2.478
 8424SOL    HW126171   3.302   2.064   2.543
 8424SOL    HW226172   3.404   1.956   2.475
 8425SOL     OW26173   6.873   5.360   1.093
 8425SOL    HW126174   6.907   5.301   1.166
 8425SOL    HW226175   6.940   5.432   1.074
 8426SOL     OW26176   3.887   3.112   3.469
 8426SOL    HW126177   3.933   3.148   3.388
 8426SOL    HW226178   3.945   3.125   3.550
 8427SOL     OW26179   1.594   4.023   5.801
 8427SOL    HW126180   1.584   4.114   5.761
 8427SOL    HW226181   1.690   3.998   5.805
 8428SOL     OW26182   6.698   4.725   2.072
 8428SOL    HW126183   6.726   4.806   2.124
 8428SOL    HW226184   6.612   4.745   2.024
 8429SOL     OW26185   2.660   4.806   4.398
 8429SOL    HW126186   2.585   4.742   4.388
 8429SOL    HW226187   2.704   4.793   4.487
 8430SOL     OW26188   4.490   5.439   2.762
 8430SOL    HW126189   4.520   5.370   2.827
 8430SOL    HW226190   4.567   5.467   2.705
 8431SOL     OW26191   2.384   5.244   1.583
 8431SOL    HW126192   2.447   5.188   1.639
 8431SOL    HW226193   2.365   5.196   1.498
 8432SOL     OW26194   4.277   5.172   5.952
 8432SOL    HW126195   4.261   5.074   5.958
 8432SOL    HW226196   4.190   5.221   5.963
 8433SOL     OW26197   0.810   2.748   6.977
 8433SOL    HW126198   0.755   2.762   6.894
 8433SOL    HW226199   0.846   2.655   6.978
 8434SOL     OW26200   3.739   0.060   5.015
 8434SOL    HW126201   3.766   0.111   4.933
 8434SOL    HW226202   3.663   7.021   4.992
 8435SOL     OW26203   4.823   1.556   1.427
 8435SOL    HW126204   4.773   1.489   1.481
 8435SOL    HW226205   4.824   1.645   1.474
 8436SOL     OW26206   3.565   5.843   3.308
 8436SOL    HW126207   3.507   5.911   3.353
 8436SOL    HW226208   3.584   5.873   3.214
 8437SOL     OW26209   0.545   0.416   1.645
 8437SOL    HW126210   0.562   0.317   1.645
 8437SOL    HW226211   0.602   0.460   1.714
 8438SOL     OW26212   2.835   4.831   2.741
 8438SOL    HW126213   2.827   4.742   2.696
 8438SOL    HW226214   2.931   4.850   2.760
 8439SOL     OW26215   6.405   5.652   2.065
 8439SOL    HW126216   6.480   5.590   2.045
 8439SOL    HW226217   6.380   5.704   1.983
 8440SOL     OW26218   6.682   1.036   2.651
 8440SOL    HW126219   6.667   1.114   2.590
 8440SOL    HW226220   6.780   1.030   2.673
 8441SOL     OW26221   5.847   6.064   0.511
 8441SOL    HW126222   5.840   6.145   0.453
 8441SOL    HW226223   5.925   6.075   0.574
 8442SOL     OW26224   3.831   3.426   6.734
 8442SOL    HW126225   3.882   3.411   6.650
 8442SOL    HW226226   3.769   3.349   6.751
 8443SOL     OW26227   1.400   7.021   2.677
 8443SOL    HW126228   1.474   6.956   2.657
 8443SOL    HW226229   1.375   0.047   2.594
 8444SOL     OW26230   3.104   6.226   3.449
 8444SOL    HW126231   3.154   6.312   3.462
 8444SOL    HW226232   3.040   6.212   3.524
 8445SOL     OW26233   3.098   4.844   2.462
 8445SOL    HW126234   3.127   4.842   2.558
 8445SOL    HW226235   3.048   4.929   2.444
 8446SOL     OW26236   5.141   5.816   2.277
 8446SOL    HW126237   5.088   5.731   2.274
 8446SOL    HW226238   5.083   5.893   2.252
 8447SOL     OW26239   5.693   2.266   2.659
 8447SOL    HW126240   5.643   2.306   2.582
 8447SOL    HW226241   5.663   2.310   2.744
 8448SOL     OW26242   0.364   4.304   5.959
 8448SOL    HW126243   0.433   4.279   6.027
 8448SOL    HW226244   0.404   4.368   5.893
 8449SOL     OW26245   0.419   3.499   4.315
 8449SOL    HW126246   0.509   3.456   4.318
 8449SOL    HW226247   0.363   3.463   4.390
 8450SOL     OW26248   1.974   5.770   2.398
 8450SOL    HW126249   1.885   5.793   2.436
 8450SOL    HW226250   1.962   5.720   2.312
 8451SOL     OW26251   3.657   2.681   1.266
 8451SOL    HW126252   3.579   2.730   1.307
 8451SOL    HW226253   3.625   2.596   1.225
 8452SOL     OW26254   6.910   0.070   1.135
 8452SOL    HW126255   6.885   0.026   1.221
 8452SOL    HW226256   6.973   0.146   1.153
 8453SOL     OW26257   6.883   4.808   6.158
 8453SOL    HW126258   6.930   4.722   6.179
 8453SOL    HW226259   6.923   4.882   6.212
 8454SOL     OW26260   1.661   6.000   2.190
 8454SOL    HW126261   1.679   6.025   2.095
 8454SOL    HW226262   1.706   6.065   2.251
 8455SOL     OW26263   4.915   1.407   1.229
 8455SOL    HW126264   4.991   1.380   1.288
 8455SOL    HW226265   4.871   1.489   1.266
 8456SOL     OW26266   6.029   5.639   3.444
 8456SOL    HW126267   6.033   5.683   3.354
 8456SOL    HW226268   5.937   5.647   3.481
 8457SOL     OW26269   6.676   6.894   5.777
 8457SOL    HW126270   6.733   6.833   5.831
 8457SOL    HW226271   6.670   6.860   5.683
 8458SOL     OW26272   1.909   1.170   6.637
 8458SOL    HW126273   1.860   1.242   6.588
 8458SOL    HW226274   1.883   1.081   6.601
 8459SOL     OW26275   3.587   6.729   1.800
 8459SOL    HW126276   3.587   6.640   1.845
 8459SOL    HW226277   3.680   6.766   1.799
 8460SOL     OW26278   3.811   2.959   6.827
 8460SOL    HW126279   3.822   2.945   6.926
 8460SOL    HW226280   3.894   2.932   6.780
 8461SOL     OW26281   0.581   3.348   1.671
 8461SOL    HW126282   0.598   3.271   1.609
 8461SOL    HW226283   0.520   3.319   1.745
 8462SOL     OW26284   3.697   3.358   7.002
 8462SOL    HW126285   3.663   3.304   6.925
 8462SOL    HW226286   3.653   3.447   7.002
 8463SOL     OW26287   0.492   2.162   0.167
 8463SOL    HW126288   0.511   2.078   0.218
 8463SOL    HW226289   0.429   2.142   0.092
 8464SOL     OW26290   0.225   4.100   5.525
 8464SOL    HW126291   0.292   4.043   5.476
 8464SOL    HW226292   0.140   4.048   5.536
 8465SOL     OW26293   2.547   2.100   1.083
 8465SOL    HW126294   2.501   2.146   1.007
 8465SOL    HW226295   2.567   2.005   1.058
 8466SOL     OW26296   6.743   0.310   5.511
 8466SOL    HW126297   6.689   0.300   5.595
 8466SOL    HW226298   6.797   0.394   5.516
 8467SOL     OW26299   4.025   0.677   0.776
 8467SOL    HW126300   3.934   0.658   0.811
 8467SOL    HW226301   4.019   0.735   0.695
 8468SOL     OW26302   5.990   3.711   6.294
 8468SOL    HW126303   5.927   3.784   6.318
 8468SOL    HW226304   6.083   3.737   6.322
 8469SOL     OW26305   2.942   2.758   5.706
 8469SOL    HW126306   2.857   2.742   5.654
 8469SOL    HW226307   3.019   2.718   5.657
 8470SOL     OW26308   1.083   4.898   0.529
 8470SOL    HW126309   1.118   4.969   0.590
 8470SOL    HW226310   1.015   4.937   0.467
 8471SOL     OW26311   3.545   0.288   5.313
 8471SOL    HW126312   3.609   0.311   5.240
 8471SOL    HW226313   3.555   0.352   5.389
 8472SOL     OW26314   5.645   1.731   5.562
 8472SOL    HW126315   5.573   1.726   5.632
 8472SOL    HW226316   5.633   1.815   5.509
 8473SOL     OW26317   4.286   4.441   0.536
 8473SOL    HW126318   4.314   4.437   0.632
 8473SOL    HW226319   4.236   4.359   0.513
 8474SOL     OW26320   3.005   3.675   2.680
 8474SOL    HW126321   3.061   3.648   2.602
 8474SOL    HW226322   2.909   3.653   2.661
 8475SOL     OW26323   6.983   3.286   1.717
 8475SOL    HW126324   0.049   3.332   1.711
 8475SOL    HW226325   6.997   3.187   1.712
 8476SOL     OW26326   0.253   0.930   1.602
 8476SOL    HW126327   0.248   0.933   1.702
 8476SOL    HW226328   0.170   0.888   1.566
 8477SOL     OW26329   5.305   5.926   1.972
 8477SOL    HW126330   5.373   5.958   1.907
 8477SOL    HW226331   5.348   5.863   2.037
 8478SOL     OW26332   1.096   1.190   5.852
 8478SOL    HW126333   1.016   1.162   5.799
 8478SOL    HW226334   1.147   1.109   5.881
 8479SOL     OW26335   1.064   2.603   1.628
 8479SOL    HW126336   1.116   2.532   1.581
 8479SOL    HW226337   0.971   2.605   1.592
 8480SOL     OW26338   5.046   2.750   6.902
 8480SOL    HW126339   4.961   2.782   6.861
 8480SOL    HW226340   5.027   2.715   6.994
 8481SOL     OW26341   4.142   2.148   5.047
 8481SOL    HW126342   4.049   2.176   5.024
 8481SOL    HW226343   4.199   2.151   4.965
 8482SOL     OW26344   4.522   0.178   1.051
 8482SOL    HW126345   4.509   0.139   1.142
 8482SOL    HW226346   4.568   0.267   1.059
 8483SOL     OW26347   2.322   5.676   3.428
 8483SOL    HW126348   2.227   5.653   3.450
 8483SOL    HW226349   2.323   5.753   3.364
 8484SOL     OW26350   0.065   5.973   4.580
 8484SOL    HW126351   7.005   6.029   4.576
 8484SOL    HW226352   0.127   5.999   4.507
 8485SOL     OW26353   3.871   2.378   0.458
 8485SOL    HW126354   3.830   2.468   0.444
 8485SOL    HW226355   3.841   2.341   0.546
 8486SOL     OW26356   1.516   1.107   2.666
 8486SOL    HW126357   1.428   1.060   2.664
 8486SOL    HW226358   1.582   1.056   2.612
 8487SOL     OW26359   5.392   1.946   6.381
 8487SOL    HW126360   5.490   1.956   6.363
 8487SOL    HW226361   5.375   1.953   6.479
 8488SOL     OW26362   5.444   5.536   3.199
 8488SOL    HW126363   5.427   5.539   3.297
 8488SOL    HW226364   5.469   5.628   3.167
 8489SOL     OW26365   6.767   0.138   1.610
 8489SOL    HW126366   6.832   0.213   1.604
 8489SOL    HW226367   6.674   0.173   1.600
 8490SOL     OW26368   3.406   6.828   5.700
 8490SOL    HW126369   3.376   6.785   5.615
 8490SOL    HW226370   3.486   6.780   5.735
 8491SOL     OW26371   2.117   5.751   2.806
 8491SOL    HW126372   2.129   5.828   2.744
 8491SOL    HW226373   2.114   5.666   2.753
 8492SOL     OW26374   5.947   4.674   3.679
 8492SOL    HW126375   5.940   4.716   3.770
 8492SOL    HW226376   5.919   4.739   3.609
 8493SOL     OW26377   2.591   1.267   0.284
 8493SOL    HW126378   2.492   1.276   0.274
 8493SOL    HW226379   2.613   1.173   0.309
 8494SOL     OW26380   4.718   4.909   1.946
 8494SOL    HW126381   4.805   4.863   1.927
 8494SOL    HW226382   4.701   4.977   1.875
 8495SOL     OW26383   0.112   5.814   0.705
 8495SOL    HW126384   0.054   5.895   0.702
 8495SOL    HW226385   0.190   5.830   0.766
 8496SOL     OW26386   4.983   1.349   2.154
 8496SOL    HW126387   4.944   1.441   2.164
 8496SOL    HW226388   5.081   1.356   2.140
 8497SOL     OW26389   0.517   0.016   3.847
 8497SOL    HW126390   0.560   6.967   3.791
 8497SOL    HW226391   0.548   0.106   3.816
 8498SOL     OW26392   5.958   6.425   3.432
 8498SOL    HW126393   6.051   6.444   3.400
 8498SOL    HW226394   5.909   6.511   3.447
 8499SOL     OW26395   0.993   4.825   7.015
 8499SOL    HW126396   0.906   4.816   6.968
 8499SOL    HW226397   1.042   4.905   6.980
 8500SOL     OW26398   2.216   6.496   6.300
 8500SOL    HW126399   2.274   6.419   6.277
 8500SOL    HW226400   2.124   6.482   6.262
 8501SOL     OW26401   0.915   2.615   0.343
 8501SOL    HW126402   1.002   2.575   0.314
 8501SOL    HW226403   0.840   2.551   0.323
 8502SOL     OW26404   0.673   2.532   0.685
 8502SOL    HW126405   0.652   2.584   0.602
 8502SOL    HW226406   0.601   2.547   0.753
 8503SOL     OW26407   6.170   5.811   5.355
 8503SOL    HW126408   6.269   5.826   5.350
 8503SOL    HW226409   6.153   5.714   5.374
 8504SOL     OW26410   1.877   5.380   1.978
 8504SOL    HW126411   1.850   5.331   2.061
 8504SOL    HW226412   1.908   5.314   1.910
 8505SOL     OW26413   5.589   3.563   2.892
 8505SOL    HW126414   5.556   3.472   2.918
 8505SOL    HW226415   5.527   3.603   2.824
 8506SOL     OW26416   0.812   1.011   6.761
 8506SOL    HW126417   0.878   0.939   6.783
 8506SOL    HW226418   0.780   0.999   6.667
 8507SOL     OW26419   4.363   0.130   4.642
 8507SOL    HW126420   4.363   0.183   4.557
 8507SOL    HW226421   4.333   0.188   4.718
 8508SOL     OW26422   3.900   1.842   5.610
 8508SOL    HW126423   3.918   1.752   5.648
 8508SOL    HW226424   3.804   1.849   5.584
 8509SOL     OW26425   5.923   6.430   4.052
 8509SOL    HW126426   5.888   6.365   3.985
 8509SOL    HW226427   5.889   6.521   4.032
 8510SOL     OW26428   5.238   3.381   3.587
 8510SOL    HW126429   5.220   3.285   3.565
 8510SOL    HW226430   5.282   3.425   3.510
 8511SOL     OW26431   6.886   2.923   2.573
 8511SOL    HW126432   6.793   2.953   2.593
 8511SOL    HW226433   6.884   2.827   2.544
 8512SOL     OW26434   2.484   6.946   2.719
 8512SOL    HW126435   2.485   6.959   2.620
 8512SOL    HW226436   2.505   6.850   2.740
 8513SOL     OW26437   6.707   6.111   0.739
 8513SOL    HW126438   6.703   6.141   0.834
 8513SOL    HW226439   6.676   6.016   0.733
 8514SOL     OW26440   3.593   0.110   3.019
 8514SOL    HW126441   3.589   0.184   3.085
 8514SOL    HW226442   3.544   0.030   3.055
 8515SOL     OW26443   4.651   2.185   0.760
 8515SOL    HW126444   4.564   2.234   0.754
 8515SOL    HW226445   4.725   2.251   0.774
 8516SOL     OW26446   6.537   1.752   2.501
 8516SOL    HW126447   6.437   1.744   2.491
 8516SOL    HW226448   6.566   1.703   2.584
 8517SOL     OW26449   1.297   2.617   6.414
 8517SOL    HW126450   1.281   2.676   6.335
 8517SOL    HW226451   1.356   2.541   6.389
 8518SOL     OW26452   4.469   4.776   0.185
 8518SOL    HW126453   4.424   4.711   0.124
 8518SOL    HW226454   4.455   4.869   0.150
 8519SOL     OW26455   2.118   5.555   1.848
 8519SOL    HW126456   2.020   5.550   1.833
 8519SOL    HW226457   2.155   5.463   1.861
 8520SOL     OW26458   4.103   1.129   0.475
 8520SOL    HW126459   4.118   1.117   0.376
 8520SOL    HW226460   4.009   1.104   0.497
 8521SOL     OW26461   1.428   6.362   5.716
 8521SOL    HW126462   1.487   6.281   5.706
 8521SOL    HW226463   1.370   6.371   5.635
 8522SOL     OW26464   1.865   5.560   2.215
 8522SOL    HW126465   1.878   5.592   2.121
 8522SOL    HW226466   1.772   5.523   2.224
 8523SOL     OW26467   2.298   0.425   5.667
 8523SOL    HW126468   2.205   0.419   5.704
 8523SOL    HW226469   2.303   0.501   5.602
 8524SOL     OW26470   1.081   3.471   4.486
 8524SOL    HW126471   1.110   3.541   4.551
 8524SOL    HW226472   1.139   3.390   4.496
 8525SOL     OW26473   6.123   3.558   2.687
 8525SOL    HW126474   6.187   3.481   2.677
 8525SOL    HW226475   6.169   3.634   2.732
 8526SOL     OW26476   2.981   3.227   1.573
 8526SOL    HW126477   2.911   3.276   1.522
 8526SOL    HW226478   3.037   3.292   1.625
 8527SOL     OW26479   4.404   0.581   4.017
 8527SOL    HW126480   4.501   0.566   4.034
 8527SOL    HW226481   4.363   0.627   4.097
 8528SOL     OW26482   4.986   4.092   5.950
 8528SOL    HW126483   4.954   4.071   5.857
 8528SOL    HW226484   5.016   4.008   5.995
 8529SOL     OW26485   1.124   6.063   0.089
 8529SOL    HW126486   1.216   6.100   0.080
 8529SOL    HW226487   1.062   6.115   0.031
 8530SOL     OW26488   1.253   5.182   5.227
 8530SOL    HW126489   1.177   5.221   5.279
 8530SOL    HW226490   1.338   5.228   5.254
 8531SOL     OW26491   5.672   4.358   2.915
 8531SOL    HW126492   5.720   4.421   2.853
 8531SOL    HW226493   5.654   4.272   2.866
 8532SOL     OW26494   4.332   5.075   4.730
 8532SOL    HW126495   4.401   5.110   4.666
 8532SOL    HW226496   4.361   4.986   4.764
 8533SOL     OW26497   2.156   1.363   5.241
 8533SOL    HW126498   2.235   1.368   5.304
 8533SOL    HW226499   2.158   1.442   5.180
 8534SOL     OW26500   0.770   4.678   2.700
 8534SOL    HW126501   0.852   4.733   2.716
 8534SOL    HW226502   0.797   4.585   2.675
 8535SOL     OW26503   0.977   2.316   4.584
 8535SOL    HW126504   1.068   2.348   4.610
 8535SOL    HW226505   0.953   2.235   4.638
 8536SOL     OW26506   6.547   2.829   4.802
 8536SOL    HW126507   6.555   2.757   4.870
 8536SOL    HW226508   6.463   2.881   4.818
 8537SOL     OW26509   6.234   1.537   0.926
 8537SOL    HW126510   6.158   1.532   0.861
 8537SOL    HW226511   6.247   1.447   0.968
 8538SOL     OW26512   0.377   0.627   4.895
 8538SOL    HW126513   0.428   0.546   4.868
 8538SOL    HW226514   0.421   0.670   4.973
 8539SOL     OW26515   6.569   2.353   2.513
 8539SOL    HW126516   6.621   2.269   2.505
 8539SOL    HW226517   6.579   2.407   2.430
 8540SOL     OW26518   3.345   1.063   0.944
 8540SOL    HW126519   3.312   1.062   0.850
 8540SOL    HW226520   3.416   0.994   0.955
 8541SOL     OW26521   3.022   1.319   5.263
 8541SOL    HW126522   3.022   1.270   5.350
 8541SOL    HW226523   2.928   1.332   5.231
 8542SOL     OW26524   2.981   4.595   6.613
 8542SOL    HW126525   2.956   4.512   6.564
 8542SOL    HW226526   3.072   4.584   6.653
 8543SOL     OW26527   2.599   1.951   5.691
 8543SOL    HW126528   2.592   2.001   5.606
 8543SOL    HW226529   2.547   1.866   5.684
 8544SOL     OW26530   5.032   3.633   5.308
 8544SOL    HW126531   5.105   3.641   5.375
 8544SOL    HW226532   5.040   3.545   5.260
 8545SOL     OW26533   3.448   6.696   4.756
 8545SOL    HW126534   3.511   6.770   4.734
 8545SOL    HW226535   3.428   6.643   4.673
 8546SOL     OW26536   5.647   0.561   1.001
 8546SOL    HW126537   5.567   0.504   1.017
 8546SOL    HW226538   5.660   0.623   1.078
 8547SOL     OW26539   6.913   0.233   5.262
 8547SOL    HW126540   6.877   0.200   5.349
 8547SOL    HW226541   7.003   0.274   5.277
 8548SOL     OW26542   0.499   2.781   5.624
 8548SOL    HW126543   0.514   2.821   5.714
 8548SOL    HW226544   0.485   2.683   5.633
 8549SOL     OW26545   1.482   2.033   3.824
 8549SOL    HW126546   1.435   2.016   3.737
 8549SOL    HW226547   1.491   2.132   3.838
 8550SOL     OW26548   0.685   4.236   6.467
 8550SOL    HW126549   0.778   4.273   6.469
 8550SOL    HW226550   0.672   4.183   6.383
 8551SOL     OW26551   2.095   2.301   6.429
 8551SOL    HW126552   2.132   2.382   6.383
 8551SOL    HW226553   2.166   2.231   6.435
 8552SOL     OW26554   3.301   0.501   1.910
 8552SOL    HW126555   3.266   0.548   1.830
 8552SOL    HW226556   3.389   0.541   1.937
 8553SOL     OW26557   3.764   3.107   0.869
 8553SOL    HW126558   3.797   3.136   0.959
 8553SOL    HW226559   3.831   3.046   0.828
 8554SOL     OW26560   0.926   6.918   1.262
 8554SOL    HW126561   0.948   6.973   1.182
 8554SOL    HW226562   1.001   6.923   1.328
 8555SOL     OW26563   4.015   1.200   3.748
 8555SOL    HW126564   4.048   1.111   3.782
 8555SOL    HW226565   3.923   1.189   3.711
 8556SOL     OW26566   1.989   6.465   6.156
 8556SOL    HW126567   1.997   6.474   6.056
 8556SOL    HW226568   1.894   6.450   6.181
 8557SOL     OW26569   6.538   1.017   0.639
 8557SOL    HW126570   6.515   1.101   0.689
 8557SOL    HW226571   6.470   1.001   0.568
 8558SOL     OW26572   2.343   4.510   3.343
 8558SOL    HW126573   2.375   4.429   3.293
 8558SOL    HW226574   2.277   4.560   3.288
 8559SOL     OW26575   0.397   6.340   2.564
 8559SOL    HW126576   0.430   6.394   2.487
 8559SOL    HW226577   0.343   6.398   2.625
 8560SOL     OW26578   1.845   5.379   1.267
 8560SOL    HW126579   1.892   5.410   1.184
 8560SOL    HW226580   1.831   5.457   1.328
 8561SOL     OW26581   3.890   0.711   2.904
 8561SOL    HW126582   3.961   0.644   2.882
 8561SOL    HW226583   3.829   0.674   2.974
 8562SOL     OW26584   3.850   1.401   0.278
 8562SOL    HW126585   3.794   1.319   0.288
 8562SOL    HW226586   3.795   1.476   0.240
 8563SOL     OW26587   1.324   5.701   2.801
 8563SOL    HW126588   1.251   5.762   2.832
 8563SOL    HW226589   1.395   5.754   2.755
 8564SOL     OW26590   3.796   6.364   6.998
 8564SOL    HW126591   3.715   6.419   6.980
 8564SOL    HW226592   3.803   6.291   6.930
 8565SOL     OW26593   3.229   5.429   1.445
 8565SOL    HW126594   3.303   5.487   1.478
 8565SOL    HW226595   3.151   5.436   1.507
 8566SOL     OW26596   2.711   0.904   2.737
 8566SOL    HW126597   2.649   0.926   2.811
 8566SOL    HW226598   2.747   0.811   2.750
 8567SOL     OW26599   1.406   1.907   1.582
 8567SOL    HW126600   1.397   1.860   1.670
 8567SOL    HW226601   1.405   1.839   1.508
 8568SOL     OW26602   0.036   1.304   0.655
 8568SOL    HW126603   0.092   1.231   0.616
 8568SOL    HW226604   6.975   1.313   0.601
 8569SOL     OW26605   5.179   2.475   5.870
 8569SOL    HW126606   5.170   2.383   5.832
 8569SOL    HW226607   5.250   2.525   5.822
 8570SOL     OW26608   1.663   1.640   4.640
 8570SOL    HW126609   1.717   1.721   4.666
 8570SOL    HW226610   1.684   1.615   4.546
 8571SOL     OW26611   1.653   1.364   4.693
 8571SOL    HW126612   1.643   1.463   4.709
 8571SOL    HW226613   1.575   1.332   4.640
 8572SOL     OW26614   2.775   4.168   5.499
 8572SOL    HW126615   2.774   4.226   5.418
 8572SOL    HW226616   2.869   4.143   5.522
 8573SOL     OW26617   2.918   6.060   6.845
 8573SOL    HW126618   2.834   6.099   6.807
 8573SOL    HW226619   2.966   6.008   6.774
 8574SOL     OW26620   6.695   0.031   6.155
 8574SOL    HW126621   6.700   6.995   6.236
 8574SOL    HW226622   6.626   0.102   6.169
 8575SOL     OW26623   3.706   0.498   2.392
 8575SOL    HW126624   3.664   0.452   2.314
 8575SOL    HW226625   3.794   0.456   2.412
 8576SOL     OW26626   0.849   4.178   4.315
 8576SOL    HW126627   0.930   4.226   4.281
 8576SOL    HW226628   0.780   4.173   4.243
 8577SOL     OW26629   1.832   0.997   6.023
 8577SOL    HW126630   1.860   0.987   6.119
 8577SOL    HW226631   1.894   0.944   5.965
 8578SOL     OW26632   6.529   6.406   5.754
 8578SOL    HW126633   6.484   6.328   5.795
 8578SOL    HW226634   6.483   6.430   5.668
 8579SOL     OW26635   2.300   6.206   2.360
 8579SOL    HW126636   2.341   6.175   2.446
 8579SOL    HW226637   2.206   6.172   2.354
 8580SOL     OW26638   0.851   6.309   1.214
 8580SOL    HW126639   0.825   6.371   1.287
 8580SOL    HW226640   0.937   6.264   1.237
 8581SOL     OW26641   3.534   5.328   1.580
 8581SOL    HW126642   3.457   5.284   1.533
 8581SOL    HW226643   3.620   5.296   1.541
 8582SOL     OW26644   4.114   4.594   5.607
 8582SOL    HW126645   4.036   4.646   5.571
 8582SOL    HW226646   4.186   4.658   5.636
 8583SOL     OW26647   4.216   0.370   3.203
 8583SOL    HW126648   4.163   0.339   3.282
 8583SOL    HW226649   4.155   0.409   3.135
 8584SOL     OW26650   6.888   1.224   4.527
 8584SOL    HW126651   6.911   1.228   4.430
 8584SOL    HW226652   6.791   1.244   4.539
 8585SOL     OW26653   5.770   2.047   1.200
 8585SOL    HW126654   5.741   2.004   1.114
 8585SOL    HW226655   5.794   1.976   1.266
 8586SOL     OW26656   5.562   6.573   1.383
 8586SOL    HW126657   5.515   6.490   1.412
 8586SOL    HW226658   5.618   6.554   1.303
 8587SOL     OW26659   0.979   2.058   4.682
 8587SOL    HW126660   0.967   2.001   4.600
 8587SOL    HW226661   1.032   2.007   4.750
 8588SOL     OW26662   4.049   1.372   0.085
 8588SOL    HW126663   3.997   1.360   0.169
 8588SOL    HW226664   4.134   1.320   0.090
 8589SOL     OW26665   6.676   2.855   5.192
 8589SOL    HW126666   6.719   2.944   5.211
 8589SOL    HW226667   6.738   2.800   5.137
 8590SOL     OW26668   6.813   6.949   3.157
 8590SOL    HW126669   6.863   6.865   3.141
 8590SOL    HW226670   6.867   0.005   3.126
 8591SOL     OW26671   6.208   4.763   0.536
 8591SOL    HW126672   6.236   4.668   0.527
 8591SOL    HW226673   6.168   4.777   0.627
 8592SOL     OW26674   0.445   2.508   6.982
 8592SOL    HW126675   0.350   2.487   7.006
 8592SOL    HW226676   0.454   2.514   6.883
 8593SOL     OW26677   3.072   0.587   6.698
 8593SOL    HW126678   3.084   0.660   6.631
 8593SOL    HW226679   2.977   0.556   6.696
 8594SOL     OW26680   6.079   2.641   5.581
 8594SOL    HW126681   6.073   2.599   5.671
 8594SOL    HW226682   5.987   2.650   5.542
 8595SOL     OW26683   5.483   6.990   3.295
 8595SOL    HW126684   5.487   0.067   3.292
 8595SOL    HW226685   5.433   6.956   3.215
 8596SOL     OW26686   1.512   3.717   3.274
 8596SOL    HW126687   1.482   3.673   3.189
 8596SOL    HW226688   1.435   3.768   3.313
 8597SOL     OW26689   6.353   2.661   0.519
 8597SOL    HW126690   6.401   2.589   0.469
 8597SOL    HW226691   6.323   2.732   0.454
 8598SOL     OW26692   5.601   0.764   4.882
 8598SOL    HW126693   5.645   0.767   4.972
 8598SOL    HW226694   5.618   0.850   4.834
 8599SOL     OW26695   1.697   3.098   3.696
 8599SOL    HW126696   1.720   3.112   3.792
 8599SOL    HW226697   1.683   3.000   3.679
 8600SOL     OW26698   4.982   3.892   1.101
 8600SOL    HW126699   4.972   3.876   1.199
 8600SOL    HW226700   4.972   3.806   1.051
 8601SOL     OW26701   0.203   0.666   3.730
 8601SOL    HW126702   0.165   0.693   3.819
 8601SOL    HW226703   0.302   0.664   3.735
 8602SOL     OW26704   2.375   6.598   3.115
 8602SOL    HW126705   2.398   6.549   3.031
 8602SOL    HW226706   2.303   6.666   3.095
 8603SOL     OW26707   5.716   1.184   6.624
 8603SOL    HW126708   5.730   1.267   6.570
 8603SOL    HW226709   5.628   1.144   6.601
 8604SOL     OW26710   0.937   2.790   6.331
 8604SOL    HW126711   1.012   2.833   6.280
 8604SOL    HW226712   0.859   2.776   6.270
 8605SOL     OW26713   0.986   4.651   4.218
 8605SOL    HW126714   0.990   4.580   4.288
 8605SOL    HW226715   0.906   4.710   4.234
 8606SOL     OW26716   3.061   2.239   6.838
 8606SOL    HW126717   2.968   2.215   6.810
 8606SOL    HW226718   3.085   2.190   6.921
 8607SOL     OW26719   1.784   4.796   0.306
 8607SOL    HW126720   1.820   4.845   0.227
 8607SOL    HW226721   1.718   4.854   0.354
 8608SOL     OW26722   1.966   4.695   2.527
 8608SOL    HW126723   1.866   4.692   2.527
 8608SOL    HW226724   2.002   4.610   2.489
 8609SOL     OW26725   4.890   0.930   3.855
 8609SOL    HW126726   4.934   0.847   3.890
 8609SOL    HW226727   4.824   0.963   3.923
 8610SOL     OW26728   6.854   6.418   2.951
 8610SOL    HW126729   6.821   6.474   3.027
 8610SOL    HW226730   6.878   6.327   2.985
 8611SOL     OW26731   2.933   0.803   4.131
 8611SOL    HW126732   2.835   0.784   4.137
 8611SOL    HW226733   2.947   0.897   4.100
 8612SOL     OW26734   2.989   3.158   2.419
 8612SOL    HW126735   2.977   3.165   2.518
 8612SOL    HW226736   3.076   3.114   2.399
 8613SOL     OW26737   2.520   2.686   1.445
 8613SOL    HW126738   2.567   2.708   1.531
 8613SOL    HW226739   2.450   2.755   1.427
 8614SOL     OW26740   0.997   2.665   2.610
 8614SOL    HW126741   1.075   2.697   2.555
 8614SOL    HW226742   0.914   2.708   2.577
 8615SOL     OW26743   4.797   1.902   4.756
 8615SOL    HW126744   4.773   1.806   4.770
 8615SOL    HW226745   4.819   1.917   4.660
 8616SOL     OW26746   2.829   4.729   2.434
 8616SOL    HW126747   2.920   4.735   2.475
 8616SOL    HW226748   2.836   4.742   2.335
 8617SOL     OW26749   5.369   0.216   3.858
 8617SOL    HW126750   5.413   0.127   3.851
 8617SOL    HW226751   5.359   0.241   3.954
 8618SOL     OW26752   6.307   3.791   0.511
 8618SOL    HW126753   6.312   3.775   0.610
 8618SOL    HW226754   6.383   3.849   0.482
 8619SOL     OW26755   4.349   5.216   2.944
 8619SOL    HW126756   4.312   5.150   2.878
 8619SOL    HW226757   4.448   5.225   2.930
 8620SOL     OW26758   1.600   0.249   4.298
 8620SOL    HW126759   1.580   0.201   4.383
 8620SOL    HW226760   1.517   0.253   4.242
 8621SOL     OW26761   4.896   2.854   2.194
 8621SOL    HW126762   4.987   2.895   2.197
 8621SOL    HW226763   4.851   2.880   2.109
 8622SOL     OW26764   6.305   4.974   1.979
 8622SOL    HW126765   6.226   4.932   1.934
 8622SOL    HW226766   6.320   5.066   1.942
 8623SOL     OW26767   0.038   3.272   4.650
 8623SOL    HW126768   0.080   3.206   4.713
 8623SOL    HW226769   6.965   3.287   4.678
 8624SOL     OW26770   3.694   3.475   6.407
 8624SOL    HW126771   3.702   3.376   6.403
 8624SOL    HW226772   3.768   3.518   6.355
 8625SOL     OW26773   4.341   1.092   5.943
 8625SOL    HW126774   4.298   1.120   6.029
 8625SOL    HW226775   4.440   1.083   5.957
 8626SOL     OW26776   3.653   2.807   0.737
 8626SOL    HW126777   3.687   2.836   0.647
 8626SOL    HW226778   3.728   2.767   0.790
 8627SOL     OW26779   1.992   1.592   2.395
 8627SOL    HW126780   2.004   1.641   2.481
 8627SOL    HW226781   2.045   1.637   2.323
 8628SOL     OW26782   6.640   6.838   0.122
 8628SOL    HW126783   6.715   6.842   0.056
 8628SOL    HW226784   6.556   6.809   0.077
 8629SOL     OW26785   0.953   6.709   4.490
 8629SOL    HW126786   1.000   6.679   4.407
 8629SOL    HW226787   0.903   6.632   4.529
 8630SOL     OW26788   4.954   3.484   3.579
 8630SOL    HW126789   5.042   3.519   3.613
 8630SOL    HW226790   4.880   3.535   3.622
 8631SOL     OW26791   2.405   6.281   6.216
 8631SOL    HW126792   2.402   6.271   6.116
 8631SOL    HW226793   2.389   6.192   6.259
 8632SOL     OW26794   4.092   4.556   5.345
 8632SOL    HW126795   4.131   4.583   5.433
 8632SOL    HW226796   4.158   4.501   5.294
 8633SOL     OW26797   5.782   3.554   5.829
 8633SOL    HW126798   5.723   3.607   5.767
 8633SOL    HW226799   5.875   3.591   5.825
 8634SOL     OW26800   5.368   4.774   0.360
 8634SOL    HW126801   5.401   4.706   0.426
 8634SOL    HW226802   5.443   4.803   0.301
 8635SOL     OW26803   6.219   2.475   6.699
 8635SOL    HW126804   6.142   2.509   6.754
 8635SOL    HW226805   6.184   2.413   6.629
 8636SOL     OW26806   4.188   5.592   0.171
 8636SOL    HW126807   4.221   5.536   0.095
 8636SOL    HW226808   4.263   5.611   0.234
 8637SOL     OW26809   2.359   1.406   6.048
 8637SOL    HW126810   2.369   1.422   6.147
 8637SOL    HW226811   2.262   1.411   6.023
 8638SOL     OW26812   4.009   2.682   5.368
 8638SOL    HW126813   4.049   2.621   5.300
 8638SOL    HW226814   4.073   2.755   5.390
 8639SOL     OW26815   4.984   3.503   6.895
 8639SOL    HW126816   4.945   3.552   6.817
 8639SOL    HW226817   4.949   3.409   6.897
 8640SOL     OW26818   3.935   3.238   1.479
 8640SOL    HW126819   4.034   3.235   1.470
 8640SOL    HW226820   3.896   3.152   1.445
 8641SOL     OW26821   4.281   4.839   3.701
 8641SOL    HW126822   4.284   4.889   3.788
 8641SOL    HW226823   4.335   4.887   3.632
 8642SOL     OW26824   6.909   6.760   3.688
 8642SOL    HW126825   6.940   6.855   3.691
 8642SOL    HW226826   6.985   6.699   3.710
 8643SOL     OW26827   1.763   6.855   0.378
 8643SOL    HW126828   1.834   6.821   0.440
 8643SOL    HW226829   1.737   6.948   0.405
 8644SOL     OW26830   6.405   2.400   6.439
 8644SOL    HW126831   6.342   2.466   6.397
 8644SOL    HW226832   6.353   2.321   6.473
 8645SOL     OW26833   4.820   4.876   1.528
 8645SOL    HW126834   4.804   4.943   1.456
 8645SOL    HW226835   4.801   4.784   1.494
 8646SOL     OW26836   0.593   2.116   6.637
 8646SOL    HW126837   0.682   2.080   6.666
 8646SOL    HW226838   0.524   2.092   6.705
 8647SOL     OW26839   2.932   5.768   1.007
 8647SOL    HW126840   2.937   5.686   1.064
 8647SOL    HW226841   2.857   5.826   1.039
 8648SOL     OW26842   5.502   6.496   0.930
 8648SOL    HW126843   5.527   6.403   0.904
 8648SOL    HW226844   5.576   6.559   0.903
 8649SOL     OW26845   4.603   6.492   6.886
 8649SOL    HW126846   4.580   6.487   6.789
 8649SOL    HW226847   4.590   6.586   6.919
 8650SOL     OW26848   1.501   6.866   4.119
 8650SOL    HW126849   1.591   6.866   4.077
 8650SOL    HW226850   1.494   6.788   4.182
 8651SOL     OW26851   3.164   1.701   0.897
 8651SOL    HW126852   3.224   1.657   0.831
 8651SOL    HW226853   3.210   1.780   0.938
 8652SOL     OW26854   0.787   4.871   4.202
 8652SOL    HW126855   0.806   4.968   4.213
 8652SOL    HW226856   0.716   4.859   4.132
 8653SOL     OW26857   6.260   1.491   5.547
 8653SOL    HW126858   6.169   1.498   5.506
 8653SOL    HW226859   6.319   1.563   5.511
 8654SOL     OW26860   0.818   4.894   1.100
 8654SOL    HW126861   0.839   4.800   1.073
 8654SOL    HW226862   0.724   4.899   1.132
 8655SOL     OW26863   6.385   0.898   5.130
 8655SOL    HW126864   6.431   0.815   5.161
 8655SOL    HW226865   6.345   0.883   5.040
 8656SOL     OW26866   5.379   0.444   2.286
 8656SOL    HW126867   5.348   0.539   2.283
 8656SOL    HW226868   5.325   0.389   2.222
 8657SOL     OW26869   6.082   6.089   0.230
 8657SOL    HW126870   6.040   6.000   0.212
 8657SOL    HW226871   6.150   6.081   0.303
 8658SOL     OW26872   5.329   5.396   0.615
 8658SOL    HW126873   5.368   5.391   0.523
 8658SOL    HW226874   5.335   5.489   0.650
 8659SOL     OW26875   4.445   2.460   3.198
 8659SOL    HW126876   4.518   2.528   3.208
 8659SOL    HW226877   4.435   2.409   3.283
 8660SOL     OW26878   0.540   2.341   1.761
 8660SOL    HW126879   0.624   2.304   1.802
 8660SOL    HW226880   0.518   2.288   1.679
 8661SOL     OW26881   5.861   3.486   2.773
 8661SOL    HW126882   5.958   3.510   2.770
 8661SOL    HW226883   5.807   3.561   2.736
 8662SOL     OW26884   3.366   6.126   2.254
 8662SOL    HW126885   3.364   6.194   2.327
 8662SOL    HW226886   3.454   6.131   2.207
 8663SOL     OW26887   2.668   5.486   2.876
 8663SOL    HW126888   2.620   5.443   2.952
 8663SOL    HW226889   2.705   5.415   2.816
 8664SOL     OW26890   2.543   5.725   2.975
 8664SOL    HW126891   2.609   5.662   2.935
 8664SOL    HW226892   2.580   5.763   3.059
 8665SOL     OW26893   6.679   5.407   5.472
 8665SOL    HW126894   6.758   5.449   5.517
 8665SOL    HW226895   6.679   5.308   5.490
 8666SOL     OW26896   5.480   0.042   4.264
 8666SOL    HW126897   5.433   0.111   4.209
 8666SOL    HW226898   5.579   0.055   4.256
 8667SOL     OW26899   5.008   0.921   4.773
 8667SOL    HW126900   4.994   1.017   4.749
 8667SOL    HW226901   5.052   0.874   4.697
 8668SOL     OW26902   5.272   2.956   4.750
 8668SOL    HW126903   5.325   3.014   4.689
 8668SOL    HW226904   5.303   2.861   4.741
 8669SOL     OW26905   6.688   6.464   6.772
 8669SOL    HW126906   6.598   6.502   6.795
 8669SOL    HW226907   6.678   6.397   6.699
 8670SOL     OW26908   5.655   5.144   5.945
 8670SOL    HW126909   5.586   5.178   6.009
 8670SOL    HW226910   5.610   5.106   5.864
 8671SOL     OW26911   0.541   1.600   2.249
 8671SOL    HW126912   0.503   1.645   2.331
 8671SOL    HW226913   0.483   1.620   2.170
 8672SOL     OW26914   0.237   6.988   3.795
 8672SOL    HW126915   0.294   6.983   3.877
 8672SOL    HW226916   0.292   7.020   3.718
 8673SOL     OW26917   6.838   1.643   0.259
 8673SOL    HW126918   6.771   1.713   0.236
 8673SOL    HW226919   6.791   1.561   0.293
 8674SOL     OW26920   6.621   4.117   2.974
 8674SOL    HW126921   6.602   4.019   2.978
 8674SOL    HW226922   6.687   4.141   3.045
 8675SOL     OW26923   4.137   1.066   5.751
 8675SOL    HW126924   4.208   1.100   5.813
 8675SOL    HW226925   4.097   1.143   5.701
 8676SOL     OW26926   5.575   0.991   1.262
 8676SOL    HW126927   5.509   1.047   1.311
 8676SOL    HW226928   5.541   0.970   1.170
 8677SOL     OW26929   1.946   6.241   5.897
 8677SOL    HW126930   1.947   6.171   5.968
 8677SOL    HW226931   2.019   6.307   5.914
 8678SOL     OW26932   0.777   7.013   0.629
 8678SOL    HW126933   0.793   6.919   0.600
 8678SOL    HW226934   0.728   0.040   0.557
 8679SOL     OW26935   1.756   1.505   4.272
 8679SOL    HW126936   1.675   1.548   4.313
 8679SOL    HW226937   1.729   1.448   4.195
 8680SOL     OW26938   6.664   2.629   6.384
 8680SOL    HW126939   6.684   2.534   6.358
 8680SOL    HW226940   6.712   2.652   6.468
 8681SOL     OW26941   4.374   5.318   1.362
 8681SOL    HW126942   4.376   5.303   1.263
 8681SOL    HW226943   4.466   5.342   1.394
 8682SOL     OW26944   6.746   0.276   1.040
 8682SOL    HW126945   6.777   0.367   1.070
 8682SOL    HW226946   6.799   0.206   1.089
 8683SOL     OW26947   1.312   3.325   4.518
 8683SOL    HW126948   1.355   3.295   4.604
 8683SOL    HW226949   1.345   3.269   4.443
 8684SOL     OW26950   0.132   3.624   4.594
 8684SOL    HW126951   0.133   3.527   4.619
 8684SOL    HW226952   0.225   3.657   4.582
 8685SOL     OW26953   5.514   2.813   6.801
 8685SOL    HW126954   5.420   2.846   6.813
 8685SOL    HW226955   5.521   2.764   6.715
 8686SOL     OW26956   6.069   6.643   2.867
 8686SOL    HW126957   5.997   6.691   2.917
 8686SOL    HW226958   6.066   6.545   2.888
 8687SOL     OW26959   6.327   4.253   2.659
 8687SOL    HW126960   6.251   4.243   2.722
 8687SOL    HW226961   6.296   4.298   2.576
 8688SOL     OW26962   1.987   4.367   6.648
 8688SOL    HW126963   2.032   4.357   6.559
 8688SOL    HW226964   1.911   4.302   6.655
 8689SOL     OW26965   4.718   3.138   0.518
 8689SOL    HW126966   4.748   3.048   0.488
 8689SOL    HW226967   4.770   3.164   0.600
 8690SOL     OW26968   1.118   2.353   2.861
 8690SOL    HW126969   1.081   2.263   2.838
 8690SOL    HW226970   1.046   2.422   2.852
 8691SOL     OW26971   3.739   1.664   5.330
 8691SOL    HW126972   3.688   1.682   5.414
 8691SOL    HW226973   3.736   1.746   5.272
 8692SOL     OW26974   3.945   1.984   5.372
 8692SOL    HW126975   3.907   1.921   5.440
 8692SOL    HW226976   3.986   1.931   5.298
 8693SOL     OW26977   6.660   1.341   6.597
 8693SOL    HW126978   6.614   1.350   6.509
 8693SOL    HW226979   6.740   1.282   6.587
 8694SOL     OW26980   6.070   2.200   4.902
 8694SOL    HW126981   5.999   2.132   4.884
 8694SOL    HW226982   6.124   2.170   4.981
 8695SOL     OW26983   4.387   3.031   6.459
 8695SOL    HW126984   4.365   3.111   6.402
 8695SOL    HW226985   4.418   3.061   6.549
 8696SOL     OW26986   2.271   5.940   4.914
 8696SOL    HW126987   2.303   5.888   4.835
 8696SOL    HW226988   2.230   6.026   4.882
 8697SOL     OW26989   1.271   4.566   6.054
 8697SOL    HW126990   1.258   4.664   6.037
 8697SOL    HW226991   1.334   4.555   6.131
 8698SOL     OW26992   5.158   5.735   6.091
 8698SOL    HW126993   5.129   5.789   6.170
 8698SOL    HW226994   5.082   5.728   6.026
 8699SOL     OW26995   2.008   3.325   6.411
 8699SOL    HW126996   2.076   3.257   6.385
 8699SOL    HW226997   2.050   3.391   6.474
 8700SOL     OW26998   1.320   0.847   5.538
 8700SOL    HW126999   1.287   0.831   5.445
 8700SOL    HW227000   1.248   0.890   5.592
 8701SOL     OW27001   1.774   1.486   6.649
 8701SOL    HW127002   1.771   1.583   6.624
 8701SOL    HW227003   1.750   1.431   6.569
 8702SOL     OW27004   4.881   5.174   2.039
 8702SOL    HW127005   4.876   5.271   2.060
 8702SOL    HW227006   4.807   5.150   1.975
 8703SOL     OW27007   3.123   4.799   6.790
 8703SOL    HW127008   3.212   4.827   6.754
 8703SOL    HW227009   3.065   4.768   6.715
 8704SOL     OW27010   7.005   2.894   4.110
 8704SOL    HW127011   0.067   2.919   4.063
 8704SOL    HW227012   6.954   2.829   4.055
 8705SOL     OW27013   4.755   2.048   6.684
 8705SOL    HW127014   4.781   2.114   6.754
 8705SOL    HW227015   4.660   2.063   6.657
 8706SOL     OW27016   5.835   2.687   0.254
 8706SOL    HW127017   5.813   2.768   0.309
 8706SOL    HW227018   5.895   2.714   0.178
 8707SOL     OW27019   1.082   2.097   3.679
 8707SOL    HW127020   1.044   2.049   3.601
 8707SOL    HW227021   1.085   2.195   3.660
 8708SOL     OW27022   4.789   1.880   4.238
 8708SOL    HW127023   4.731   1.886   4.157
 8708SOL    HW227024   4.885   1.890   4.212
 8709SOL     OW27025   6.898   0.242   6.721
 8709SOL    HW127026   6.862   0.183   6.794
 8709SOL    HW227027   6.826   0.263   6.656
 8710SOL     OW27028   2.005   2.216   3.574
 8710SOL    HW127029   2.098   2.196   3.604
 8710SOL    HW227030   1.941   2.155   3.621
 8711SOL     OW27031   0.926   0.871   1.648
 8711SOL    HW127032   0.965   0.949   1.599
 8711SOL    HW227033   0.964   0.786   1.611
 8712SOL     OW27034   3.011   1.682   4.984
 8712SOL    HW127035   2.966   1.724   5.063
 8712SOL    HW227036   3.093   1.634   5.014
 8713SOL     OW27037   0.593   4.122   1.218
 8713SOL    HW127038   0.513   4.159   1.171
 8713SOL    HW227039   0.567   4.093   1.310
 8714SOL     OW27040   0.483   6.827   0.376
 8714SOL    HW127041   0.385   6.808   0.382
 8714SOL    HW227042   0.531   6.777   0.448
 8715SOL     OW27043   3.357   1.934   0.101
 8715SOL    HW127044   3.422   1.859   0.100
 8715SOL    HW227045   3.380   2.000   0.030
 8716SOL     OW27046   0.194   6.634   1.048
 8716SOL    HW127047   0.119   6.611   0.987
 8716SOL    HW227048   0.195   6.570   1.125
 8717SOL     OW27049   2.480   3.204   6.397
 8717SOL    HW127050   2.512   3.132   6.459
 8717SOL    HW227051   2.550   3.276   6.391
 8718SOL     OW27052   1.505   2.937   6.362
 8718SOL    HW127053   1.528   2.877   6.286
 8718SOL    HW227054   1.464   3.021   6.327
 8719SOL     OW27055   4.340   1.312   0.141
 8719SOL    HW127056   4.328   1.393   0.198
 8719SOL    HW227057   4.419   1.260   0.174
 8720SOL     OW27058   6.932   5.530   5.553
 8720SOL    HW127059   6.904   5.626   5.552
 8720SOL    HW227060   6.996   5.516   5.628
 8721SOL     OW27061   6.246   6.921   6.880
 8721SOL    HW127062   6.290   6.951   6.964
 8721SOL    HW227063   6.282   6.975   6.803
 8722SOL     OW27064   3.015   0.536   0.608
 8722SOL    HW127065   3.095   0.485   0.638
 8722SOL    HW227066   3.039   0.596   0.533
 8723SOL     OW27067   5.630   6.513   2.037
 8723SOL    HW127068   5.576   6.536   2.118
 8723SOL    HW227069   5.700   6.583   2.023
 8724SOL     OW27070   5.300   0.024   4.464
 8724SOL    HW127071   5.387   0.016   4.415
 8724SOL    HW227072   5.289   6.968   4.524
 8725SOL     OW27073   0.071   6.329   4.616
 8725SOL    HW127074   0.112   6.344   4.526
 8725SOL    HW227075   0.142   6.312   4.684
 8726SOL     OW27076   6.846   1.298   0.486
 8726SOL    HW127077   6.832   1.200   0.500
 8726SOL    HW227078   6.779   1.332   0.420
 8727SOL     OW27079   6.040   0.137   7.011
 8727SOL    HW127080   6.060   0.044   0.019
 8727SOL    HW227081   6.003   0.134   6.918
 8728SOL     OW27082   5.339   1.453   2.388
 8728SOL    HW127083   5.277   1.378   2.410
 8728SOL    HW227084   5.417   1.417   2.335
 8729SOL     OW27085   3.165   5.214   5.398
 8729SOL    HW127086   3.135   5.126   5.360
 8729SOL    HW227087   3.246   5.200   5.454
 8730SOL     OW27088   5.494   4.185   3.271
 8730SOL    HW127089   5.453   4.187   3.180
 8730SOL    HW227090   5.460   4.261   3.325
 8731SOL     OW27091   0.366   2.880   2.670
 8731SOL    HW127092   0.379   2.966   2.719
 8731SOL    HW227093   0.288   2.830   2.708
 8732SOL     OW27094   5.008   4.564   1.111
 8732SOL    HW127095   4.963   4.653   1.121
 8732SOL    HW227096   5.081   4.556   1.179
 8733SOL     OW27097   0.471   5.593   1.135
 8733SOL    HW127098   0.428   5.584   1.224
 8733SOL    HW227099   0.552   5.535   1.130
 8734SOL     OW27100   6.795   3.365   1.901
 8734SOL    HW127101   6.830   3.417   1.979
 8734SOL    HW227102   6.869   3.310   1.863
 8735SOL     OW27103   1.309   3.626   5.269
 8735SOL    HW127104   1.226   3.594   5.314
 8735SOL    HW227105   1.285   3.693   5.198
 8736SOL     OW27106   0.697   5.520   1.869
 8736SOL    HW127107   0.623   5.569   1.822
 8736SOL    HW227108   0.768   5.496   1.804
 8737SOL     OW27109   2.914   5.608   6.201
 8737SOL    HW127110   2.879   5.594   6.293
 8737SOL    HW227111   3.002   5.561   6.192
 8738SOL     OW27112   1.605   3.865   3.681
 8738SOL    HW127113   1.579   3.828   3.770
 8738SOL    HW227114   1.705   3.873   3.676
 8739SOL     OW27115   5.189   4.290   5.103
 8739SOL    HW127116   5.215   4.193   5.103
 8739SOL    HW227117   5.270   4.346   5.086
 8740SOL     OW27118   3.767   2.054   2.776
 8740SOL    HW127119   3.832   2.122   2.811
 8740SOL    HW227120   3.796   2.026   2.684
 8741SOL     OW27121   2.131   6.990   2.281
 8741SOL    HW127122   2.134   6.941   2.369
 8741SOL    HW227123   2.207   0.031   2.276
 8742SOL     OW27124   3.817   0.987   2.574
 8742SOL    HW127125   3.767   0.924   2.516
 8742SOL    HW227126   3.756   1.060   2.604
 8743SOL     OW27127   1.813   1.124   1.711
 8743SOL    HW127128   1.831   1.026   1.703
 8743SOL    HW227129   1.879   1.164   1.775
 8744SOL     OW27130   4.675   3.014   0.046
 8744SOL    HW127131   4.580   3.016   0.013
 8744SOL    HW227132   4.704   3.107   0.069
 8745SOL     OW27133   6.716   2.063   6.450
 8745SOL    HW127134   6.815   2.050   6.457
 8745SOL    HW227135   6.697   2.156   6.419
 8746SOL     OW27136   4.918   5.111   4.141
 8746SOL    HW127137   4.902   5.129   4.044
 8746SOL    HW227138   4.988   5.039   4.150
 8747SOL     OW27139   6.407   1.261   2.407
 8747SOL    HW127140   6.490   1.273   2.461
 8747SOL    HW227141   6.393   1.343   2.350
 8748SOL     OW27142   1.040   1.337   3.874
 8748SOL    HW127143   1.037   1.238   3.867
 8748SOL    HW227144   1.094   1.375   3.799
 8749SOL     OW27145   2.374   1.383   5.415
 8749SOL    HW127146   2.359   1.431   5.501
 8749SOL    HW227147   2.436   1.306   5.430
 8750SOL     OW27148   4.090   2.791   5.862
 8750SOL    HW127149   4.088   2.691   5.855
 8750SOL    HW227150   3.997   2.826   5.869
 8751SOL     OW27151   6.644   0.109   0.315
 8751SOL    HW127152   6.623   0.041   0.245
 8751SOL    HW227153   6.577   0.103   0.389
 8752SOL     OW27154   5.458   3.160   6.887
 8752SOL    HW127155   5.493   3.095   6.955
 8752SOL    HW227156   5.401   3.229   6.932
 8753SOL     OW27157   2.151   3.306   6.740
 8753SOL    HW127158   2.184   3.353   6.822
 8753SOL    HW227159   2.078   3.242   6.766
 8754SOL     OW27160   2.888   5.029   6.153
 8754SOL    HW127161   2.864   5.093   6.080
 8754SOL    HW227162   2.815   5.028   6.222
 8755SOL     OW27163   0.909   0.989   0.733
 8755SOL    HW127164   0.965   0.961   0.811
 8755SOL    HW227165   0.818   0.948   0.741
 8756SOL     OW27166   2.184   3.102   3.686
 8756SOL    HW127167   2.182   3.020   3.629
 8756SOL    HW227168   2.182   3.184   3.628
 8757SOL     OW27169   4.952   6.194   5.874
 8757SOL    HW127170   5.024   6.176   5.942
 8757SOL    HW227171   4.926   6.291   5.878
 8758SOL     OW27172   4.317   6.870   3.540
 8758SOL    HW127173   4.222   6.842   3.524
 8758SOL    HW227174   4.370   6.854   3.457
 8759SOL     OW27175   6.378   1.936   7.021
 8759SOL    HW127176   6.470   1.959   0.029
 8759SOL    HW227177   6.343   1.860   0.054
 8760SOL     OW27178   2.248   2.161   3.715
 8760SOL    HW127179   2.215   2.116   3.798
 8760SOL    HW227180   2.339   2.125   3.691
 8761SOL     OW27181   5.039   1.760   2.094
 8761SOL    HW127182   5.056   1.691   2.165
 8761SOL    HW227183   5.010   1.715   2.010
 8762SOL     OW27184   2.015   6.192   4.050
 8762SOL    HW127185   2.047   6.097   4.046
 8762SOL    HW227186   1.983   6.212   4.143
 8763SOL     OW27187   6.763   1.020   4.688
 8763SOL    HW127188   6.834   1.054   4.626
 8763SOL    HW227189   6.696   1.093   4.704
 8764SOL     OW27190   4.277   6.145   6.160
 8764SOL    HW127191   4.194   6.127   6.107
 8764SOL    HW227192   4.344   6.192   6.102
 8765SOL     OW27193   6.024   1.029   5.243
 8765SOL    HW127194   5.940   1.043   5.296
 8765SOL    HW227195   6.091   0.980   5.300
 8766SOL     OW27196   4.337   3.938   5.689
 8766SOL    HW127197   4.343   4.038   5.694
 8766SOL    HW227198   4.418   3.902   5.643
 8767SOL     OW27199   3.207   0.186   3.612
 8767SOL    HW127200   3.274   0.126   3.569
 8767SOL    HW227201   3.139   0.131   3.660
 8768SOL     OW27202   0.872   2.115   6.939
 8768SOL    HW127203   0.786   2.159   6.963
 8768SOL    HW227204   0.863   2.071   6.850
 8769SOL     OW27205   6.383   1.278   1.753
 8769SOL    HW127206   6.472   1.303   1.790
 8769SOL    HW227207   6.392   1.197   1.695
 8770SOL     OW27208   5.397   4.104   2.289
 8770SOL    HW127209   5.305   4.090   2.251
 8770SOL    HW227210   5.403   4.197   2.326
 8771SOL     OW27211   0.381   3.297   6.561
 8771SOL    HW127212   0.470   3.255   6.577
 8771SOL    HW227213   0.366   3.306   6.462
 8772SOL     OW27214   5.398   0.719   4.702
 8772SOL    HW127215   5.447   0.747   4.785
 8772SOL    HW227216   5.399   0.620   4.694
 8773SOL     OW27217   5.763   2.424   3.707
 8773SOL    HW127218   5.687   2.383   3.656
 8773SOL    HW227219   5.848   2.409   3.657
 8774SOL     OW27220   0.428   6.987   6.876
 8774SOL    HW127221   0.423   6.966   6.778
 8774SOL    HW227222   0.515   6.954   6.912
 8775SOL     OW27223   5.724   1.711   5.008
 8775SOL    HW127224   5.802   1.769   5.032
 8775SOL    HW227225   5.752   1.645   4.938
 8776SOL     OW27226   4.817   3.625   1.092
 8776SOL    HW127227   4.878   3.620   1.013
 8776SOL    HW227228   4.785   3.533   1.115
 8777SOL     OW27229   0.870   3.391   2.900
 8777SOL    HW127230   0.922   3.338   2.832
 8777SOL    HW227231   0.867   3.340   2.986
 8778SOL     OW27232   4.185   4.184   6.009
 8778SOL    HW127233   4.220   4.096   6.040
 8778SOL    HW227234   4.251   4.256   6.030
 8779SOL     OW27235   2.950   5.075   2.370
 8779SOL    HW127236   2.983   5.057   2.277
 8779SOL    HW227237   2.852   5.056   2.374
 8780SOL     OW27238   0.254   5.622   2.326
 8780SOL    HW127239   0.162   5.622   2.287
 8780SOL    HW227240   0.248   5.641   2.424
 8781SOL     OW27241   4.664   0.215   2.707
 8781SOL    HW127242   4.605   0.260   2.773
 8781SOL    HW227243   4.661   0.265   2.620
 8782SOL     OW27244   5.562   1.455   1.847
 8782SOL    HW127245   5.611   1.538   1.821
 8782SOL    HW227246   5.600   1.419   1.932
 8783SOL     OW27247   5.722   2.682   4.088
 8783SOL    HW127248   5.728   2.624   4.169
 8783SOL    HW227249   5.812   2.716   4.063
 8784SOL     OW27250   6.246   5.997   0.860
 8784SOL    HW127251   6.305   5.983   0.781
 8784SOL    HW227252   6.161   6.041   0.831
 8785SOL     OW27253   0.621   5.424   6.174
 8785SOL    HW127254   0.544   5.475   6.212
 8785SOL    HW227255   0.707   5.468   6.202
 8786SOL     OW27256   3.908   2.017   2.536
 8786SOL    HW127257   3.969   2.064   2.472
 8786SOL    HW227258   3.814   2.022   2.502
 8787SOL     OW27259   3.537   0.611   1.285
 8787SOL    HW127260   3.497   0.579   1.371
 8787SOL    HW227261   3.537   0.535   1.219
 8788SOL     OW27262   6.778   1.242   5.065
 8788SOL    HW127263   6.725   1.159   5.079
 8788SOL    HW227264   6.749   1.286   4.980
 8789SOL     OW27265   0.148   3.800   5.350
 8789SOL    HW127266   0.095   3.818   5.433
 8789SOL    HW227267   0.236   3.847   5.356
 8790SOL     OW27268   6.332   2.069   0.300
 8790SOL    HW127269   6.428   2.090   0.315
 8790SOL    HW227270   6.316   1.971   0.317
 8791SOL     OW27271   4.713   6.069   5.179
 8791SOL    HW127272   4.749   6.041   5.090
 8791SOL    HW227273   4.693   6.167   5.178
 8792SOL     OW27274   4.048   5.498   2.098
 8792SOL    HW127275   3.959   5.463   2.069
 8792SOL    HW227276   4.086   5.438   2.169
 8793SOL     OW27277   1.068   5.144   4.461
 8793SOL    HW127278   1.010   5.093   4.397
 8793SOL    HW227279   1.047   5.241   4.455
 8794SOL     OW27280   5.946   1.247   3.339
 8794SOL    HW127281   5.973   1.252   3.435
 8794SOL    HW227282   5.846   1.240   3.333
 8795SOL     OW27283   1.052   5.237   5.412
 8795SOL    HW127284   1.078   5.157   5.466
 8795SOL    HW227285   0.967   5.219   5.363
 8796SOL     OW27286   6.202   3.764   2.857
 8796SOL    HW127287   6.245   3.734   2.942
 8796SOL    HW227288   6.229   3.859   2.838
 8797SOL     OW27289   0.038   0.158   4.091
 8797SOL    HW127290   0.009   0.082   4.148
 8797SOL    HW227291   0.129   0.189   4.120
 8798SOL     OW27292   4.574   6.642   5.415
 8798SOL    HW127293   4.645   6.605   5.475
 8798SOL    HW227294   4.577   6.742   5.417
 8799SOL     OW27295   2.091   4.689   2.119
 8799SOL    HW127296   2.115   4.601   2.159
 8799SOL    HW227297   1.992   4.697   2.114
 8800SOL     OW27298   6.510   6.162   5.064
 8800SOL    HW127299   6.514   6.121   4.973
 8800SOL    HW227300   6.579   6.118   5.123
 8801SOL     OW27301   5.883   1.920   5.266
 8801SOL    HW127302   5.909   1.840   5.212
 8801SOL    HW227303   5.960   1.946   5.325
 8802SOL     OW27304   1.269   5.733   5.748
 8802SOL    HW127305   1.266   5.676   5.666
 8802SOL    HW227306   1.180   5.730   5.794
 8803SOL     OW27307   6.805   0.769   0.221
 8803SOL    HW127308   6.756   0.740   0.303
 8803SOL    HW227309   6.774   0.714   0.143
 8804SOL     OW27310   2.021   5.985   1.547
 8804SOL    HW127311   2.005   5.919   1.473
 8804SOL    HW227312   2.065   5.940   1.624
 8805SOL     OW27313   4.178   5.464   3.918
 8805SOL    HW127314   4.177   5.400   3.841
 8805SOL    HW227315   4.257   5.444   3.976
 8806SOL     OW27316   2.316   6.084   0.534
 8806SOL    HW127317   2.300   6.045   0.443
 8806SOL    HW227318   2.310   6.184   0.529
 8807SOL     OW27319   4.848   2.314   0.306
 8807SOL    HW127320   4.836   2.258   0.224
 8807SOL    HW227321   4.785   2.282   0.377
 8808SOL     OW27322   1.665   2.399   0.583
 8808SOL    HW127323   1.693   2.462   0.510
 8808SOL    HW227324   1.688   2.305   0.556
 8809SOL     OW27325   2.203   4.043   3.382
 8809SOL    HW127326   2.269   4.097   3.331
 8809SOL    HW227327   2.243   4.015   3.469
 8810SOL     OW27328   5.877   1.400   5.071
 8810SOL    HW127329   5.969   1.384   5.036
 8810SOL    HW227330   5.822   1.446   5.001
 8811SOL     OW27331   4.519   0.051   2.434
 8811SOL    HW127332   4.532   0.148   2.454
 8811SOL    HW227333   4.608   0.007   2.423
 8812SOL     OW27334   3.302   0.448   6.665
 8812SOL    HW127335   3.281   0.363   6.617
 8812SOL    HW227336   3.217   0.490   6.697
 8813SOL     OW27337   2.174   4.349   2.619
 8813SOL    HW127338   2.098   4.411   2.603
 8813SOL    HW227339   2.259   4.390   2.586
 8814SOL     OW27340   5.876   6.921   0.628
 8814SOL    HW127341   5.798   6.975   0.596
 8814SOL    HW227342   5.842   6.837   0.672
 8815SOL     OW27343   5.820   1.064   0.565
 8815SOL    HW127344   5.898   1.096   0.617
 8815SOL    HW227345   5.804   1.125   0.487
 8816SOL     OW27346   7.000   6.584   6.437
 8816SOL    HW127347   0.025   6.500   6.411
 8816SOL    HW227348   6.906   6.562   6.464
 8817SOL     OW27349   0.907   3.846   4.583
 8817SOL    HW127350   0.854   3.875   4.504
 8817SOL    HW227351   0.913   3.746   4.584
 8818SOL     OW27352   1.598   6.900   3.350
 8818SOL    HW127353   1.648   6.931   3.431
 8818SOL    HW227354   1.503   6.929   3.356
 8819SOL     OW27355   5.632   4.278   5.334
 8819SOL    HW127356   5.566   4.327   5.392
 8819SOL    HW227357   5.614   4.180   5.339
 8820SOL     OW27358   3.648   1.037   4.605
 8820SOL    HW127359   3.588   1.069   4.677
 8820SOL    HW227360   3.603   0.964   4.553
 8821SOL     OW27361   0.839   4.959   0.414
 8821SOL    HW127362   0.845   5.048   0.368
 8821SOL    HW227363   0.743   4.934   0.427
 8822SOL     OW27364   0.047   7.022   3.445
 8822SOL    HW127365   6.978   7.007   3.484
 8822SOL    HW227366   0.091   0.074   3.494
 8823SOL     OW27367   2.828   0.655   2.770
 8823SOL    HW127368   2.747   0.596   2.780
 8823SOL    HW227369   2.878   0.629   2.687
 8824SOL     OW27370   1.455   0.210   1.572
 8824SOL    HW127371   1.547   0.244   1.550
 8824SOL    HW227372   1.428   0.142   1.504
 8825SOL     OW27373   0.478   0.748   1.628
 8825SOL    HW127374   0.420   0.822   1.594
 8825SOL    HW227375   0.423   0.667   1.646
 8826SOL     OW27376   0.955   3.464   0.568
 8826SOL    HW127377   1.025   3.441   0.636
 8826SOL    HW227378   0.886   3.392   0.565
 8827SOL     OW27379   3.971   0.381   2.396
 8827SOL    HW127380   3.951   0.344   2.487
 8827SOL    HW227381   4.046   0.330   2.355
 8828SOL     OW27382   4.127   4.496   6.321
 8828SOL    HW127383   4.064   4.573   6.333
 8828SOL    HW227384   4.074   4.411   6.311
 8829SOL     OW27385   6.392   1.891   1.988
 8829SOL    HW127386   6.404   1.868   2.085
 8829SOL    HW227387   6.366   1.987   1.980
 8830SOL     OW27388   2.291   1.337   1.733
 8830SOL    HW127389   2.268   1.378   1.645
 8830SOL    HW227390   2.347   1.255   1.718
 8831SOL     OW27391   0.329   2.929   2.154
 8831SOL    HW127392   0.258   2.870   2.115
 8831SOL    HW227393   0.346   2.902   2.249
 8832SOL     OW27394   6.983   6.468   4.259
 8832SOL    HW127395   6.920   6.391   4.255
 8832SOL    HW227396   6.932   6.553   4.267
 8833SOL     OW27397   3.871   3.117   1.127
 8833SOL    HW127398   3.971   3.124   1.126
 8833SOL    HW227399   3.844   3.028   1.164
 8834SOL     OW27400   5.904   3.838   4.969
 8834SOL    HW127401   5.864   3.784   4.895
 8834SOL    HW227402   5.887   3.935   4.953
 8835SOL     OW27403   5.887   1.090   6.060
 8835SOL    HW127404   5.948   1.076   5.982
 8835SOL    HW227405   5.877   1.004   6.111
 8836SOL     OW27406   6.047   2.728   0.086
 8836SOL    HW127407   6.100   2.645   0.104
 8836SOL    HW227408   6.106   2.798   0.046
 8837SOL     OW27409   6.942   6.687   1.945
 8837SOL    HW127410   6.903   6.603   1.906
 8837SOL    HW227411   0.014   6.670   1.972
 8838SOL     OW27412   0.953   3.678   2.914
 8838SOL    HW127413   0.902   3.593   2.905
 8838SOL    HW227414   0.916   3.746   2.851
 8839SOL     OW27415   5.082   5.309   2.389
 8839SOL    HW127416   5.174   5.281   2.360
 8839SOL    HW227417   5.084   5.404   2.420
 8840SOL     OW27418   6.302   0.525   2.085
 8840SOL    HW127419   6.303   0.622   2.106
 8840SOL    HW227420   6.341   0.511   1.993
 8841SOL     OW27421   3.929   1.027   2.072
 8841SOL    HW127422   3.862   0.954   2.090
 8841SOL    HW227423   3.922   1.096   2.144
 8842SOL     OW27424   3.255   3.988   4.083
 8842SOL    HW127425   3.287   4.022   4.171
 8842SOL    HW227426   3.155   3.979   4.085
 8843SOL     OW27427   2.079   3.324   5.043
 8843SOL    HW127428   2.110   3.407   4.997
 8843SOL    HW227429   2.128   3.313   5.130
 8844SOL     OW27430   6.403   2.124   5.374
 8844SOL    HW127431   6.361   2.039   5.405
 8844SOL    HW227432   6.494   2.133   5.416
 8845SOL     OW27433   2.262   5.317   1.055
 8845SOL    HW127434   2.304   5.230   1.030
 8845SOL    HW227435   2.320   5.365   1.121
 8846SOL     OW27436   5.744   4.587   4.365
 8846SOL    HW127437   5.781   4.585   4.272
 8846SOL    HW227438   5.652   4.626   4.363
 8847SOL     OW27439   1.559   1.209   2.375
 8847SOL    HW127440   1.519   1.268   2.305
 8847SOL    HW227441   1.658   1.224   2.379
 8848SOL     OW27442   3.223   1.823   1.937
 8848SOL    HW127443   3.233   1.922   1.937
 8848SOL    HW227444   3.127   1.798   1.927
 8849SOL     OW27445   2.611   5.265   3.919
 8849SOL    HW127446   2.591   5.169   3.935
 8849SOL    HW227447   2.569   5.295   3.833
 8850SOL     OW27448   2.510   1.504   0.419
 8850SOL    HW127449   2.568   1.439   0.370
 8850SOL    HW227450   2.535   1.505   0.516
 8851SOL     OW27451   0.709   4.599   2.955
 8851SOL    HW127452   0.739   4.504   2.966
 8851SOL    HW227453   0.709   4.623   2.858
 8852SOL     OW27454   5.255   3.097   6.355
 8852SOL    HW127455   5.156   3.103   6.371
 8852SOL    HW227456   5.303   3.150   6.424
 8853SOL     OW27457   3.316   0.776   5.042
 8853SOL    HW127458   3.400   0.723   5.036
 8853SOL    HW227459   3.337   0.873   5.033
 8854SOL     OW27460   2.047   0.402   5.799
 8854SOL    HW127461   2.075   0.308   5.820
 8854SOL    HW227462   2.006   0.444   5.880
 8855SOL     OW27463   5.898   5.556   6.708
 8855SOL    HW127464   5.890   5.477   6.768
 8855SOL    HW227465   5.994   5.578   6.694
 8856SOL     OW27466   6.510   0.247   4.808
 8856SOL    HW127467   6.583   0.316   4.815
 8856SOL    HW227468   6.545   0.159   4.838
 8857SOL     OW27469   6.182   2.032   3.119
 8857SOL    HW127470   6.240   2.083   3.182
 8857SOL    HW227471   6.109   1.987   3.171
 8858SOL     OW27472   1.229   3.560   6.018
 8858SOL    HW127473   1.202   3.656   6.010
 8858SOL    HW227474   1.329   3.554   6.030
 8859SOL     OW27475   1.119   6.917   5.168
 8859SOL    HW127476   1.165   6.936   5.082
 8859SOL    HW227477   1.075   7.000   5.202
 8860SOL     OW27478   1.461   3.756   2.499
 8860SOL    HW127479   1.496   3.711   2.581
 8860SOL    HW227480   1.534   3.763   2.431
 8861SOL     OW27481   3.202   2.783   6.308
 8861SOL    HW127482   3.116   2.744   6.276
 8861SOL    HW227483   3.275   2.762   6.243
 8862SOL     OW27484   5.806   1.560   4.313
 8862SOL    HW127485   5.758   1.601   4.236
 8862SOL    HW227486   5.860   1.630   4.359
 8863SOL     OW27487   2.144   5.784   4.591
 8863SOL    HW127488   2.111   5.693   4.613
 8863SOL    HW227489   2.092   5.852   4.644
 8864SOL     OW27490   2.221   3.081   6.353
 8864SOL    HW127491   2.233   3.042   6.262
 8864SOL    HW227492   2.305   3.127   6.381
 8865SOL     OW27493   3.194   0.922   4.402
 8865SOL    HW127494   3.114   0.978   4.379
 8865SOL    HW227495   3.180   0.878   4.490
 8866SOL     OW27496   4.374   6.677   3.105
 8866SOL    HW127497   4.409   6.704   3.195
 8866SOL    HW227498   4.445   6.629   3.055
 8867SOL     OW27499   5.588   2.445   2.816
 8867SOL    HW127500   5.624   2.537   2.801
 8867SOL    HW227501   5.494   2.452   2.851
 8868SOL     OW27502   5.254   3.390   0.080
 8868SOL    HW127503   5.181   3.425   0.140
 8868SOL    HW227504   5.340   3.437   0.102
 8869SOL     OW27505   4.659   4.235   3.151
 8869SOL    HW127506   4.611   4.313   3.111
 8869SOL    HW227507   4.683   4.170   3.079
 8870SOL     OW27508   3.450   0.384   1.078
 8870SOL    HW127509   3.437   0.287   1.058
 8870SOL    HW227510   3.485   0.431   0.997
 8871SOL     OW27511   2.922   1.750   3.713
 8871SOL    HW127512   2.951   1.711   3.801
 8871SOL    HW227513   2.991   1.730   3.643
 8872SOL     OW27514   1.760   4.150   4.368
 8872SOL    HW127515   1.728   4.095   4.446
 8872SOL    HW227516   1.851   4.118   4.342
 8873SOL     OW27517   6.672   5.987   2.302
 8873SOL    HW127518   6.742   5.920   2.280
 8873SOL    HW227519   6.621   6.011   2.219
 8874SOL     OW27520   1.910   0.041   1.115
 8874SOL    HW127521   1.911   6.971   1.078
 8874SOL    HW227522   1.835   0.050   1.181
 8875SOL     OW27523   1.280   2.780   4.542
 8875SOL    HW127524   1.253   2.819   4.630
 8875SOL    HW227525   1.233   2.828   4.468
 8876SOL     OW27526   6.975   0.199   4.377
 8876SOL    HW127527   6.893   0.148   4.349
 8876SOL    HW227528   7.011   0.161   4.462
 8877SOL     OW27529   2.754   0.654   4.509
 8877SOL    HW127530   2.748   0.571   4.453
 8877SOL    HW227531   2.799   0.632   4.596
 8878SOL     OW27532   0.267   5.074   1.054
 8878SOL    HW127533   0.192   5.040   1.111
 8878SOL    HW227534   0.352   5.070   1.106
 8879SOL     OW27535   5.238   5.253   1.234
 8879SOL    HW127536   5.201   5.341   1.206
 8879SOL    HW227537   5.187   5.219   1.313
 8880SOL     OW27538   0.500   5.585   4.783
 8880SOL    HW127539   0.441   5.521   4.831
 8880SOL    HW227540   0.548   5.643   4.849
 8881SOL     OW27541   5.796   0.625   3.416
 8881SOL    HW127542   5.791   0.641   3.515
 8881SOL    HW227543   5.807   0.712   3.369
 8882SOL     OW27544   5.284   0.735   0.149
 8882SOL    HW127545   5.312   0.746   0.244
 8882SOL    HW227546   5.222   0.809   0.123
 8883SOL     OW27547   0.605   1.254   6.092
 8883SOL    HW127548   0.604   1.237   5.993
 8883SOL    HW227549   0.533   1.201   6.136
 8884SOL     OW27550   5.630   6.391   6.616
 8884SOL    HW127551   5.689   6.468   6.593
 8884SOL    HW227552   5.568   6.372   6.540
 8885SOL     OW27553   6.129   3.735   1.264
 8885SOL    HW127554   6.199   3.800   1.234
 8885SOL    HW227555   6.051   3.784   1.302
 8886SOL     OW27556   2.948   5.827   5.316
 8886SOL    HW127557   3.000   5.844   5.400
 8886SOL    HW227558   2.923   5.914   5.274
 8887SOL     OW27559   3.041   0.936   0.872
 8887SOL    HW127560   3.087   0.955   0.786
 8887SOL    HW227561   3.109   0.926   0.945
 8888SOL     OW27562   1.464   2.017   0.968
 8888SOL    HW127563   1.374   2.055   0.946
 8888SOL    HW227564   1.477   2.017   1.067
 8889SOL     OW27565   4.814   6.649   5.586
 8889SOL    HW127566   4.850   6.620   5.498
 8889SOL    HW227567   4.816   6.572   5.650
 8890SOL     OW27568   6.580   5.968   4.858
 8890SOL    HW127569   6.621   6.046   4.809
 8890SOL    HW227570   6.648   5.926   4.917
 8891SOL     OW27571   5.912   3.171   5.834
 8891SOL    HW127572   5.819   3.187   5.867
 8891SOL    HW227573   5.971   3.152   5.913
 8892SOL     OW27574   2.948   6.655   3.587
 8892SOL    HW127575   3.007   6.721   3.539
 8892SOL    HW227576   2.868   6.635   3.531
 8893SOL     OW27577   0.399   0.893   2.392
 8893SOL    HW127578   0.448   0.963   2.339
 8893SOL    HW227579   0.462   0.850   2.457
 8894SOL     OW27580   4.382   2.945   6.198
 8894SOL    HW127581   4.383   2.969   6.295
 8894SOL    HW227582   4.454   2.878   6.180
 8895SOL     OW27583   0.213   0.744   2.256
 8895SOL    HW127584   0.279   0.798   2.309
 8895SOL    HW227585   0.247   0.650   2.248
 8896SOL     OW27586   1.130   3.511   4.914
 8896SOL    HW127587   1.167   3.427   4.875
 8896SOL    HW227588   1.153   3.516   5.011
 8897SOL     OW27589   1.643   1.582   1.834
 8897SOL    HW127590   1.661   1.572   1.932
 8897SOL    HW227591   1.678   1.671   1.804
 8898SOL     OW27592   6.216   3.298   4.716
 8898SOL    HW127593   6.141   3.238   4.743
 8898SOL    HW227594   6.186   3.358   4.642
 8899SOL     OW27595   1.825   4.130   6.647
 8899SOL    HW127596   1.897   4.074   6.688
 8899SOL    HW227597   1.736   4.102   6.684
 8900SOL     OW27598   5.687   3.329   3.280
 8900SOL    HW127599   5.763   3.294   3.224
 8900SOL    HW227600   5.603   3.330   3.225
 8901SOL     OW27601   2.417   0.833   3.565
 8901SOL    HW127602   2.406   0.843   3.664
 8901SOL    HW227603   2.497   0.884   3.535
 8902SOL     OW27604   3.020   5.830   6.051
 8902SOL    HW127605   2.972   5.751   6.091
 8902SOL    HW227606   2.984   5.848   5.960
 8903SOL     OW27607   2.337   1.586   3.837
 8903SOL    HW127608   2.293   1.543   3.916
 8903SOL    HW227609   2.435   1.594   3.853
 8904SOL     OW27610   6.872   4.740   3.588
 8904SOL    HW127611   6.924   4.757   3.671
 8904SOL    HW227612   6.787   4.794   3.590
 8905SOL     OW27613   1.779   4.389   4.868
 8905SOL    HW127614   1.718   4.339   4.806
 8905SOL    HW227615   1.822   4.464   4.818
 8906SOL     OW27616   6.647   0.152   6.566
 8906SOL    HW127617   6.594   0.193   6.492
 8906SOL    HW227618   6.622   0.056   6.576
 8907SOL     OW27619   3.420   2.143   5.140
 8907SOL    HW127620   3.410   2.112   5.235
 8907SOL    HW227621   3.344   2.204   5.117
 8908SOL     OW27622   1.656   2.816   0.611
 8908SOL    HW127623   1.559   2.799   0.594
 8908SOL    HW227624   1.708   2.798   0.527
 8909SOL     OW27625   2.090   0.752   5.104
 8909SOL    HW127626   2.056   0.661   5.126
 8909SOL    HW227627   2.068   0.774   5.009
 8910SOL     OW27628   2.006   3.027   6.012
 8910SOL    HW127629   1.965   3.041   6.102
 8910SOL    HW227630   2.096   3.071   6.009
 8911SOL     OW27631   3.645   2.121   4.697
 8911SOL    HW127632   3.599   2.188   4.755
 8911SOL    HW227633   3.685   2.049   4.753
 8912SOL     OW27634   4.000   1.583   6.946
 8912SOL    HW127635   4.034   1.535   6.866
 8912SOL    HW227636   4.005   1.522   0.003
 8913SOL     OW27637   5.191   4.178   1.767
 8913SOL    HW127638   5.279   4.223   1.786
 8913SOL    HW227639   5.134   4.239   1.712
 8914SOL     OW27640   4.625   1.367   5.830
 8914SOL    HW127641   4.640   1.306   5.907
 8914SOL    HW227642   4.613   1.313   5.746
 8915SOL     OW27643   1.242   2.446   4.089
 8915SOL    HW127644   1.220   2.367   4.146
 8915SOL    HW227645   1.328   2.487   4.119
 8916SOL     OW27646   0.354   3.682   1.604
 8916SOL    HW127647   0.378   3.649   1.695
 8916SOL    HW227648   0.357   3.782   1.603
 8917SOL     OW27649   6.080   4.733   6.089
 8917SOL    HW127650   6.151   4.663   6.089
 8917SOL    HW227651   6.108   4.809   6.148
 8918SOL     OW27652   6.680   6.044   0.184
 8918SOL    HW127653   6.769   6.077   0.218
 8918SOL    HW227654   6.689   6.018   0.087
 8919SOL     OW27655   4.445   3.655   0.594
 8919SOL    HW127656   4.406   3.580   0.647
 8919SOL    HW227657   4.378   3.730   0.588
 8920SOL     OW27658   6.699   6.283   6.571
 8920SOL    HW127659   6.613   6.287   6.520
 8920SOL    HW227660   6.759   6.214   6.530
 8921SOL     OW27661   1.552   1.506   2.980
 8921SOL    HW127662   1.553   1.575   3.053
 8921SOL    HW227663   1.645   1.482   2.955
 8922SOL     OW27664   2.226   5.236   0.592
 8922SOL    HW127665   2.212   5.169   0.519
 8922SOL    HW227666   2.324   5.251   0.605
 8923SOL     OW27667   2.311   3.796   6.301
 8923SOL    HW127668   2.235   3.842   6.349
 8923SOL    HW227669   2.277   3.715   6.254
 8924SOL     OW27670   2.978   5.563   5.416
 8924SOL    HW127671   2.943   5.633   5.354
 8924SOL    HW227672   3.064   5.526   5.379
 8925SOL     OW27673   0.985   0.909   2.264
 8925SOL    HW127674   1.061   0.970   2.286
 8925SOL    HW227675   0.907   0.962   2.232
 8926SOL     OW27676   5.604   2.598   1.153
 8926SOL    HW127677   5.700   2.613   1.175
 8926SOL    HW227678   5.596   2.519   1.092
 8927SOL     OW27679   2.679   2.406   4.794
 8927SOL    HW127680   2.639   2.429   4.882
 8927SOL    HW227681   2.763   2.459   4.780
 8928SOL     OW27682   6.970   1.060   5.183
 8928SOL    HW127683   6.921   1.129   5.129
 8928SOL    HW227684   0.045   1.078   5.180
 8929SOL     OW27685   0.203   3.499   3.945
 8929SOL    HW127686   0.300   3.500   3.969
 8929SOL    HW227687   0.173   3.592   3.922
 8930SOL     OW27688   1.783   4.973   4.863
 8930SOL    HW127689   1.833   5.017   4.788
 8930SOL    HW227690   1.833   4.987   4.948
 8931SOL     OW27691   4.170   2.677   0.848
 8931SOL    HW127692   4.144   2.586   0.881
 8931SOL    HW227693   4.171   2.677   0.748
 8932SOL     OW27694   5.191   6.958   6.773
 8932SOL    HW127695   5.269   6.918   6.822
 8932SOL    HW227696   5.224   7.007   6.692
 8933SOL     OW27697   0.783   1.713   5.402
 8933SOL    HW127698   0.842   1.716   5.482
 8933SOL    HW227699   0.761   1.618   5.380
 8934SOL     OW27700   3.043   5.164   3.076
 8934SOL    HW127701   3.051   5.238   3.143
 8934SOL    HW227702   2.991   5.088   3.115
 8935SOL     OW27703   4.896   3.428   2.336
 8935SOL    HW127704   4.908   3.336   2.373
 8935SOL    HW227705   4.873   3.422   2.239
 8936SOL     OW27706   0.523   3.418   0.866
 8936SOL    HW127707   0.565   3.352   0.804
 8936SOL    HW227708   0.551   3.398   0.960
 8937SOL     OW27709   0.442   0.769   3.885
 8937SOL    HW127710   0.528   0.772   3.937
 8937SOL    HW227711   0.446   0.835   3.810
 8938SOL     OW27712   6.096   1.263   0.459
 8938SOL    HW127713   6.093   1.231   0.554
 8938SOL    HW227714   6.191   1.261   0.427
 8939SOL     OW27715   6.315   2.953   4.887
 8939SOL    HW127716   6.234   2.975   4.942
 8939SOL    HW227717   6.314   3.010   4.804
 8940SOL     OW27718   6.252   2.929   7.006
 8940SOL    HW127719   6.328   2.863   7.009
 8940SOL    HW227720   6.252   2.975   6.917
 8941SOL     OW27721   5.037   2.058   1.719
 8941SOL    HW127722   5.016   2.130   1.784
 8941SOL    HW227723   5.000   2.083   1.629
 8942SOL     OW27724   0.214   4.665   4.096
 8942SOL    HW127725   0.204   4.615   4.181
 8942SOL    HW227726   0.151   4.743   4.095
 8943SOL     OW27727   4.333   4.197   0.246
 8943SOL    HW127728   4.393   4.161   0.317
 8943SOL    HW227729   4.240   4.205   0.282
 8944SOL     OW27730   4.778   4.875   4.291
 8944SOL    HW127731   4.871   4.910   4.306
 8944SOL    HW227732   4.732   4.933   4.223
 8945SOL     OW27733   6.692   3.180   5.047
 8945SOL    HW127734   6.694   3.170   4.948
 8945SOL    HW227735   6.773   3.137   5.086
 8946SOL     OW27736   4.458   0.431   4.811
 8946SOL    HW127737   4.448   0.503   4.879
 8946SOL    HW227738   4.499   0.470   4.728
 8947SOL     OW27739   1.355   4.381   6.743
 8947SOL    HW127740   1.392   4.350   6.655
 8947SOL    HW227741   1.291   4.457   6.727
 8948SOL     OW27742   6.689   6.029   4.034
 8948SOL    HW127743   6.769   6.084   4.059
 8948SOL    HW227744   6.716   5.933   4.025
 8949SOL     OW27745   4.227   5.934   0.188
 8949SOL    HW127746   4.241   6.033   0.181
 8949SOL    HW227747   4.134   5.915   0.218
 8950SOL     OW27748   4.859   4.055   0.946
 8950SOL    HW127749   4.790   4.099   1.004
 8950SOL    HW227750   4.926   4.008   1.004
 8951SOL     OW27751   2.088   1.009   3.882
 8951SOL    HW127752   2.027   1.040   3.955
 8951SOL    HW227753   2.175   0.980   3.921
 8952SOL     OW27754   2.276   4.316   3.551
 8952SOL    HW127755   2.312   4.384   3.488
 8952SOL    HW227756   2.176   4.319   3.550
 8953SOL     OW27757   2.739   5.191   1.526
 8953SOL    HW127758   2.818   5.145   1.567
 8953SOL    HW227759   2.655   5.147   1.558
 8954SOL     OW27760   0.969   5.906   4.113
 8954SOL    HW127761   1.066   5.881   4.106
 8954SOL    HW227762   0.959   6.004   4.097
 8955SOL     OW27763   6.644   2.945   2.694
 8955SOL    HW127764   6.578   3.014   2.724
 8955SOL    HW227765   6.599   2.856   2.688
 8956SOL     OW27766   0.171   6.887   6.806
 8956SOL    HW127767   0.172   6.867   6.708
 8956SOL    HW227768   0.259   6.925   6.833
 8957SOL     OW27769   1.529   5.390   1.740
 8957SOL    HW127770   1.506   5.312   1.682
 8957SOL    HW227771   1.618   5.427   1.713
 8958SOL     OW27772   1.197   3.210   5.362
 8958SOL    HW127773   1.152   3.266   5.292
 8958SOL    HW227774   1.283   3.254   5.389
 8959SOL     OW27775   1.012   3.502   2.123
 8959SOL    HW127776   0.948   3.541   2.188
 8959SOL    HW227777   0.963   3.439   2.062
 8960SOL     OW27778   6.723   4.269   4.007
 8960SOL    HW127779   6.799   4.222   3.962
 8960SOL    HW227780   6.639   4.253   3.956
 8961SOL     OW27781   3.023   0.159   4.257
 8961SOL    HW127782   3.028   0.177   4.159
 8961SOL    HW227783   3.097   0.098   4.285
 8962SOL     OW27784   0.931   6.104   1.603
 8962SOL    HW127785   0.986   6.033   1.560
 8962SOL    HW227786   0.836   6.074   1.610
 8963SOL     OW27787   3.473   5.650   4.707
 8963SOL    HW127788   3.485   5.552   4.694
 8963SOL    HW227789   3.376   5.669   4.726
 8964SOL     OW27790   5.730   4.025   2.965
 8964SOL    HW127791   5.790   4.086   2.913
 8964SOL    HW227792   5.647   4.006   2.913
 8965SOL     OW27793   3.530   4.779   0.365
 8965SOL    HW127794   3.522   4.696   0.421
 8965SOL    HW227795   3.489   4.856   0.413
 8966SOL     OW27796   6.547   5.552   5.954
 8966SOL    HW127797   6.454   5.541   5.919
 8966SOL    HW227798   6.593   5.463   5.958
 8967SOL     OW27799   3.693   0.737   3.482
 8967SOL    HW127800   3.628   0.759   3.409
 8967SOL    HW227801   3.659   0.659   3.534
 8968SOL     OW27802   2.554   4.791   1.796
 8968SOL    HW127803   2.573   4.700   1.758
 8968SOL    HW227804   2.559   4.787   1.896
 8969SOL     OW27805   0.228   6.792   3.516
 8969SOL    HW127806   0.206   6.882   3.480
 8969SOL    HW227807   0.163   6.767   3.588
 8970SOL     OW27808   1.525   2.371   5.925
 8970SOL    HW127809   1.517   2.413   5.834
 8970SOL    HW227810   1.586   2.427   5.981
 8971SOL     OW27811   4.366   6.635   1.089
 8971SOL    HW127812   4.313   6.694   1.151
 8971SOL    HW227813   4.306   6.603   1.015
 8972SOL     OW27814   5.566   4.876   0.204
 8972SOL    HW127815   5.661   4.894   0.229
 8972SOL    HW227816   5.528   4.956   0.157
 8973SOL     OW27817   0.573   2.566   2.051
 8973SOL    HW127818   0.482   2.555   2.011
 8973SOL    HW227819   0.642   2.538   1.984
 8974SOL     OW27820   2.126   3.611   4.247
 8974SOL    HW127821   2.127   3.667   4.330
 8974SOL    HW227822   2.109   3.516   4.270
 8975SOL     OW27823   0.328   6.736   6.414
 8975SOL    HW127824   0.332   6.644   6.453
 8975SOL    HW227825   0.235   6.770   6.419
 8976SOL     OW27826   5.864   6.217   0.933
 8976SOL    HW127827   5.830   6.169   1.014
 8976SOL    HW227828   5.947   6.267   0.957
 8977SOL     OW27829   0.043   5.357   6.116
 8977SOL    HW127830   0.115   5.426   6.117
 8977SOL    HW227831   0.033   5.318   6.207
 8978SOL     OW27832   5.650   6.081   5.315
 8978SOL    HW127833   5.712   6.160   5.316
 8978SOL    HW227834   5.686   6.010   5.376
 8979SOL     OW27835   0.942   5.251   6.324
 8979SOL    HW127836   0.947   5.305   6.408
 8979SOL    HW227837   0.888   5.169   6.341
 8980SOL     OW27838   4.529   2.049   5.950
 8980SOL    HW127839   4.446   2.097   5.978
 8980SOL    HW227840   4.575   2.011   6.030
 8981SOL     OW27841   4.767   2.173   5.799
 8981SOL    HW127842   4.772   2.136   5.707
 8981SOL    HW227843   4.681   2.145   5.843
 8982SOL     OW27844   5.977   1.614   1.730
 8982SOL    HW127845   6.007   1.707   1.709
 8982SOL    HW227846   6.057   1.555   1.742
 8983SOL     OW27847   1.260   5.109   2.314
 8983SOL    HW127848   1.251   5.181   2.383
 8983SOL    HW227849   1.327   5.041   2.345
 8984SOL     OW27850   5.642   0.373   4.286
 8984SOL    HW127851   5.550   0.374   4.325
 8984SOL    HW227852   5.691   0.455   4.314
 8985SOL     OW27853   4.955   1.789   0.940
 8985SOL    HW127854   4.881   1.761   1.001
 8985SOL    HW227855   4.933   1.877   0.898
 8986SOL     OW27856   5.458   4.145   1.737
 8986SOL    HW127857   5.552   4.129   1.766
 8986SOL    HW227858   5.410   4.057   1.731
 8987SOL     OW27859   2.804   0.318   0.982
 8987SOL    HW127860   2.712   0.357   0.972
 8987SOL    HW227861   2.872   0.391   0.981
 8988SOL     OW27862   1.969   5.622   0.874
 8988SOL    HW127863   2.046   5.681   0.851
 8988SOL    HW227864   1.883   5.673   0.868
 8989SOL     OW27865   5.232   2.895   3.069
 8989SOL    HW127866   5.319   2.930   3.105
 8989SOL    HW227867   5.249   2.832   2.994
 8990SOL     OW27868   2.878   6.212   0.420
 8990SOL    HW127869   2.851   6.121   0.387
 8990SOL    HW227870   2.808   6.247   0.482
 8991SOL     OW27871   2.306   2.893   0.755
 8991SOL    HW127872   2.348   2.930   0.838
 8991SOL    HW227873   2.218   2.937   0.740
 8992SOL     OW27874   0.352   3.184   0.608
 8992SOL    HW127875   0.449   3.207   0.607
 8992SOL    HW227876   0.299   3.261   0.572
 8993SOL     OW27877   4.936   2.189   3.834
 8993SOL    HW127878   4.948   2.280   3.873
 8993SOL    HW227879   5.012   2.130   3.864
 8994SOL     OW27880   1.621   5.180   4.492
 8994SOL    HW127881   1.656   5.087   4.486
 8994SOL    HW227882   1.523   5.180   4.475
 8995SOL     OW27883   1.065   2.654   5.012
 8995SOL    HW127884   0.973   2.690   5.028
 8995SOL    HW227885   1.058   2.563   4.972
 8996SOL     OW27886   0.109   3.776   1.071
 8996SOL    HW127887   0.105   3.678   1.048
 8996SOL    HW227888   0.193   3.795   1.121
 8997SOL     OW27889   5.108   1.032   5.915
 8997SOL    HW127890   5.038   0.987   5.859
 8997SOL    HW227891   5.141   0.969   5.985
 8998SOL     OW27892   0.113   2.430   5.200
 8998SOL    HW127893   0.150   2.459   5.112
 8998SOL    HW227894   0.023   2.471   5.213
 8999SOL     OW27895   4.910   1.354   6.319
 8999SOL    HW127896   4.825   1.395   6.288
 8999SOL    HW227897   4.895   1.259   6.344
 9000SOL     OW27898   3.290   3.835   6.847
 9000SOL    HW127899   3.358   3.876   6.908
 9000SOL    HW227900   3.337   3.789   6.771
 9001SOL     OW27901   1.745   4.850   3.362
 9001SOL    HW127902   1.668   4.893   3.315
 9001SOL    HW227903   1.728   4.752   3.372
 9002SOL     OW27904   6.774   5.156   5.531
 9002SOL    HW127905   6.762   5.057   5.522
 9002SOL    HW227906   6.872   5.177   5.538
 9003SOL     OW27907   6.462   2.409   0.354
 9003SOL    HW127908   6.451   2.315   0.384
 9003SOL    HW227909   6.437   2.416   0.257
 9004SOL     OW27910   5.061   6.466   1.436
 9004SOL    HW127911   5.088   6.535   1.503
 9004SOL    HW227912   5.090   6.494   1.345
 9005SOL     OW27913   5.132   2.071   4.170
 9005SOL    HW127914   5.112   1.981   4.208
 9005SOL    HW227915   5.134   2.066   4.070
 9006SOL     OW27916   1.302   5.495   1.324
 9006SOL    HW127917   1.243   5.414   1.320
 9006SOL    HW227918   1.365   5.495   1.247
 9007SOL     OW27919   2.764   5.116   3.588
 9007SOL    HW127920   2.827   5.135   3.663
 9007SOL    HW227921   2.730   5.202   3.550
 9008SOL     OW27922   6.880   4.583   2.602
 9008SOL    HW127923   6.890   4.498   2.653
 9008SOL    HW227924   6.817   4.570   2.526
 9009SOL     OW27925   2.401   6.883   1.001
 9009SOL    HW127926   2.432   6.972   1.035
 9009SOL    HW227927   2.418   6.877   0.902
 9010SOL     OW27928   1.144   6.421   4.683
 9010SOL    HW127929   1.167   6.359   4.758
 9010SOL    HW227930   1.083   6.373   4.619
 9011SOL     OW27931   3.984   1.873   1.292
 9011SOL    HW127932   3.931   1.894   1.374
 9011SOL    HW227933   4.022   1.958   1.255
 9012SOL     OW27934   1.231   4.866   0.965
 9012SOL    HW127935   1.234   4.848   0.867
 9012SOL    HW227936   1.324   4.868   1.002
 9013SOL     OW27937   6.811   5.707   4.507
 9013SOL    HW127938   6.718   5.730   4.536
 9013SOL    HW227939   6.851   5.785   4.458
 9014SOL     OW27940   1.433   1.353   6.971
 9014SOL    HW127941   1.474   1.402   6.894
 9014SOL    HW227942   1.408   1.419   0.020
 9015SOL     OW27943   0.227   1.407   6.570
 9015SOL    HW127944   0.283   1.355   6.635
 9015SOL    HW227945   0.283   1.436   6.493
 9016SOL     OW27946   6.605   6.553   6.003
 9016SOL    HW127947   6.588   6.501   5.919
 9016SOL    HW227948   6.520   6.596   6.033
 9017SOL     OW27949   6.260   1.989   4.116
 9017SOL    HW127950   6.242   2.024   4.208
 9017SOL    HW227951   6.175   1.952   4.077
 9018SOL     OW27952   3.841   0.805   4.648
 9018SOL    HW127953   3.925   0.813   4.701
 9018SOL    HW227954   3.810   0.896   4.621
 9019SOL     OW27955   2.568   6.452   6.692
 9019SOL    HW127956   2.477   6.451   6.649
 9019SOL    HW227957   2.592   6.359   6.721
 9020SOL     OW27958   1.713   4.588   2.355
 9020SOL    HW127959   1.696   4.502   2.404
 9020SOL    HW227960   1.681   4.664   2.411
 9021SOL     OW27961   6.592   6.797   3.976
 9021SOL    HW127962   6.503   6.842   3.988
 9021SOL    HW227963   6.577   6.699   3.960
 9022SOL     OW27964   2.506   0.346   0.332
 9022SOL    HW127965   2.450   0.376   0.255
 9022SOL    HW227966   2.478   0.395   0.415
 9023SOL     OW27967   3.125   3.525   3.788
 9023SOL    HW127968   3.216   3.498   3.818
 9023SOL    HW227969   3.120   3.625   3.781
 9024SOL     OW27970   1.959   6.073   6.117
 9024SOL    HW127971   1.939   6.065   6.215
 9024SOL    HW227972   2.058   6.063   6.103
 9025SOL     OW27973   6.392   5.215   1.193
 9025SOL    HW127974   6.477   5.256   1.226
 9025SOL    HW227975   6.315   5.249   1.247
 9026SOL     OW27976   4.003   3.216   4.304
 9026SOL    HW127977   3.908   3.192   4.288
 9026SOL    HW227978   4.035   3.173   4.389
 9027SOL     OW27979   3.028   2.080   3.099
 9027SOL    HW127980   2.954   2.141   3.126
 9027SOL    HW227981   3.101   2.084   3.168
 9028SOL     OW27982   1.997   4.576   6.251
 9028SOL    HW127983   2.069   4.581   6.320
 9028SOL    HW227984   2.019   4.505   6.184
 9029SOL     OW27985   4.170   4.779   4.695
 9029SOL    HW127986   4.162   4.806   4.791
 9029SOL    HW227987   4.186   4.680   4.690
 9030SOL     OW27988   2.333   0.873   2.554
 9030SOL    HW127989   2.275   0.944   2.514
 9030SOL    HW227990   2.394   0.915   2.622
 9031SOL     OW27991   2.677   6.107   5.302
 9031SOL    HW127992   2.644   6.020   5.338
 9031SOL    HW227993   2.706   6.165   5.378
 9032SOL     OW27994   3.061   2.701   1.496
 9032SOL    HW127995   3.132   2.708   1.567
 9032SOL    HW227996   3.018   2.791   1.483
 9033SOL     OW27997   2.108   3.243   4.364
 9033SOL    HW127998   2.130   3.148   4.341
 9033SOL    HW227999   2.083   3.293   4.282
 9034SOL     OW28000   2.969   6.842   5.119
 9034SOL    HW128001   2.965   6.889   5.207
 9034SOL    HW228002   2.888   6.866   5.065
 9035SOL     OW28003   0.162   6.818   5.158
 9035SOL    HW128004   0.143   6.720   5.169
 9035SOL    HW228005   0.124   6.868   5.236
 9036SOL     OW28006   2.061   2.684   5.213
 9036SOL    HW128007   2.150   2.720   5.185
 9036SOL    HW228008   2.074   2.608   5.276
 9037SOL     OW28009   2.120   3.911   6.468
 9037SOL    HW128010   2.024   3.883   6.465
 9037SOL    HW228011   2.134   3.975   6.544
 9038SOL     OW28012   5.269   1.229   6.271
 9038SOL    HW128013   5.223   1.280   6.344
 9038SOL    HW228014   5.256   1.278   6.184
 9039SOL     OW28015   1.337   4.555   5.506
 9039SOL    HW128016   1.372   4.469   5.468
 9039SOL    HW228017   1.411   4.603   5.553
 9040SOL     OW28018   3.001   0.789   2.981
 9040SOL    HW128019   2.934   0.743   2.923
 9040SOL    HW228020   3.062   0.844   2.924
 9041SOL     OW28021   0.388   1.943   1.755
 9041SOL    HW128022   0.328   1.867   1.731
 9041SOL    HW228023   0.335   2.013   1.804
 9042SOL     OW28024   2.759   6.476   3.228
 9042SOL    HW128025   2.741   6.565   3.270
 9042SOL    HW228026   2.803   6.416   3.295
 9043SOL     OW28027   1.836   2.225   5.924
 9043SOL    HW128028   1.750   2.271   5.945
 9043SOL    HW228029   1.890   2.283   5.862
 9044SOL     OW28030   6.064   0.675   0.667
 9044SOL    HW128031   6.097   0.760   0.625
 9044SOL    HW228032   5.990   0.637   0.612
 9045SOL     OW28033   3.807   0.529   3.130
 9045SOL    HW128034   3.843   0.537   3.223
 9045SOL    HW228035   3.718   0.484   3.131
 9046SOL     OW28036   3.319   4.438   5.368
 9046SOL    HW128037   3.371   4.366   5.321
 9046SOL    HW228038   3.237   4.458   5.316
 9047SOL     OW28039   1.644   4.193   5.295
 9047SOL    HW128040   1.620   4.097   5.278
 9047SOL    HW228041   1.715   4.221   5.230
 9048SOL     OW28042   1.488   3.586   6.018
 9048SOL    HW128043   1.563   3.524   5.997
 9048SOL    HW228044   1.522   3.681   6.015
 9049SOL     OW28045   5.142   6.197   6.338
 9049SOL    HW128046   5.082   6.176   6.416
 9049SOL    HW228047   5.146   6.296   6.325
 9050SOL     OW28048   0.895   5.182   0.286
 9050SOL    HW128049   0.833   5.254   0.315
 9050SOL    HW228050   0.953   5.216   0.211
 9051SOL     OW28051   4.453   5.961   0.788
 9051SOL    HW128052   4.397   6.043   0.795
 9051SOL    HW228053   4.409   5.896   0.725
 9052SOL     OW28054   2.766   4.784   4.649
 9052SOL    HW128055   2.863   4.795   4.669
 9052SOL    HW228056   2.720   4.743   4.727
 9053SOL     OW28057   2.456   2.683   3.990
 9053SOL    HW128058   2.525   2.666   4.061
 9053SOL    HW228059   2.376   2.725   4.032
 9054SOL     OW28060   1.563   0.385   1.870
 9054SOL    HW128061   1.613   0.371   1.784
 9054SOL    HW228062   1.488   0.319   1.876
 9055SOL     OW28063   0.676   3.273   3.855
 9055SOL    HW128064   0.723   3.254   3.942
 9055SOL    HW228065   0.688   3.195   3.793
 9056SOL     OW28066   5.227   0.563   1.719
 9056SOL    HW128067   5.260   0.482   1.671
 9056SOL    HW228068   5.302   0.629   1.727
 9057SOL     OW28069   6.059   4.908   6.880
 9057SOL    HW128070   6.117   4.972   6.830
 9057SOL    HW228071   6.112   4.827   6.905
 9058SOL     OW28072   1.832   1.862   4.687
 9058SOL    HW128073   1.838   1.890   4.783
 9058SOL    HW228074   1.809   1.942   4.631
 9059SOL     OW28075   6.161   0.861   3.275
 9059SOL    HW128076   6.165   0.779   3.218
 9059SOL    HW228077   6.154   0.942   3.215
 9060SOL     OW28078   6.582   3.669   2.120
 9060SOL    HW128079   6.575   3.646   2.023
 9060SOL    HW228080   6.542   3.760   2.135
 9061SOL     OW28081   4.514   5.425   3.387
 9061SOL    HW128082   4.493   5.514   3.428
 9061SOL    HW228083   4.445   5.403   3.319
 9062SOL     OW28084   1.388   4.705   2.008
 9062SOL    HW128085   1.289   4.709   2.017
 9062SOL    HW228086   1.427   4.655   2.085
 9063SOL     OW28087   2.812   1.553   2.611
 9063SOL    HW128088   2.762   1.502   2.541
 9063SOL    HW228089   2.821   1.497   2.693
 9064SOL     OW28090   6.761   4.540   4.099
 9064SOL    HW128091   6.852   4.559   4.137
 9064SOL    HW228092   6.761   4.449   4.057
 9065SOL     OW28093   2.587   6.330   5.162
 9065SOL    HW128094   2.562   6.388   5.240
 9065SOL    HW228095   2.641   6.252   5.193
 9066SOL     OW28096   6.415   0.141   6.019
 9066SOL    HW128097   6.342   0.199   5.983
 9066SOL    HW228098   6.415   0.054   5.971
 9067SOL     OW28099   6.690   6.204   4.796
 9067SOL    HW128100   6.766   6.186   4.733
 9067SOL    HW228101   6.716   6.277   4.860
 9068SOL     OW28102   4.212   0.330   4.816
 9068SOL    HW128103   4.170   0.355   4.903
 9068SOL    HW228104   4.303   0.371   4.810
 9069SOL     OW28105   5.084   2.390   2.343
 9069SOL    HW128106   5.060   2.416   2.436
 9069SOL    HW228107   5.090   2.472   2.286
 9070SOL     OW28108   1.603   2.160   6.289
 9070SOL    HW128109   1.660   2.234   6.254
 9070SOL    HW228110   1.658   2.078   6.300
 9071SOL     OW28111   5.078   0.683   6.175
 9071SOL    HW128112   5.053   0.711   6.082
 9071SOL    HW228113   5.119   0.761   6.223
 9072SOL     OW28114   4.909   0.042   1.670
 9072SOL    HW128115   4.931   0.047   1.767
 9072SOL    HW228116   4.963   0.109   1.619
 9073SOL     OW28117   4.104   6.786   0.824
 9073SOL    HW128118   4.037   6.748   0.761
 9073SOL    HW228119   4.174   6.836   0.772
 9074SOL     OW28120   1.613   0.700   1.037
 9074SOL    HW128121   1.575   0.709   0.945
 9074SOL    HW228122   1.580   0.775   1.094
 9075SOL     OW28123   6.859   0.832   2.451
 9075SOL    HW128124   6.816   0.857   2.538
 9075SOL    HW228125   6.935   0.769   2.468
 9076SOL     OW28126   4.804   1.645   3.692
 9076SOL    HW128127   4.741   1.595   3.751
 9076SOL    HW228128   4.769   1.646   3.599
 9077SOL     OW28129   4.631   1.446   6.240
 9077SOL    HW128130   4.694   1.512   6.200
 9077SOL    HW228131   4.549   1.493   6.272
 9078SOL     OW28132   5.568   5.031   6.304
 9078SOL    HW128133   5.534   4.997   6.391
 9078SOL    HW228134   5.554   5.130   6.299
 9079SOL     OW28135   1.256   0.310   5.136
 9079SOL    HW128136   1.296   0.224   5.166
 9079SOL    HW228137   1.330   0.373   5.109
 9080SOL     OW28138   6.527   3.070   6.802
 9080SOL    HW128139   6.514   3.007   6.726
 9080SOL    HW228140   6.590   3.143   6.774
 9081SOL     OW28141   3.693   1.711   1.480
 9081SOL    HW128142   3.652   1.800   1.500
 9081SOL    HW228143   3.645   1.641   1.534
 9082SOL     OW28144   2.762   6.593   4.741
 9082SOL    HW128145   2.858   6.610   4.764
 9082SOL    HW228146   2.756   6.515   4.679
 9083SOL     OW28147   4.722   4.651   6.178
 9083SOL    HW128148   4.740   4.553   6.188
 9083SOL    HW228149   4.666   4.667   6.096
 9084SOL     OW28150   0.374   2.430   6.061
 9084SOL    HW128151   0.375   2.445   6.160
 9084SOL    HW228152   0.466   2.405   6.030
 9085SOL     OW28153   2.803   5.530   1.104
 9085SOL    HW128154   2.787   5.468   1.181
 9085SOL    HW228155   2.732   5.517   1.035
 9086SOL     OW28156   6.109   4.215   1.159
 9086SOL    HW128157   6.023   4.186   1.119
 9086SOL    HW228158   6.181   4.213   1.089
 9087SOL     OW28159   5.577   3.132   2.678
 9087SOL    HW128160   5.600   3.201   2.746
 9087SOL    HW228161   5.656   3.072   2.663
 9088SOL     OW28162   5.679   6.823   1.897
 9088SOL    HW128163   5.773   6.806   1.926
 9088SOL    HW228164   5.624   6.851   1.976
 9089SOL     OW28165   4.395   5.675   4.396
 9089SOL    HW128166   4.411   5.689   4.494
 9089SOL    HW228167   4.483   5.671   4.349
 9090SOL     OW28168   5.077   6.398   4.801
 9090SOL    HW128169   5.174   6.374   4.791
 9090SOL    HW228170   5.021   6.325   4.762
 9091SOL     OW28171   2.904   2.447   0.866
 9091SOL    HW128172   2.981   2.508   0.845
 9091SOL    HW228173   2.938   2.354   0.879
 9092SOL     OW28174   1.455   0.834   6.369
 9092SOL    HW128175   1.462   0.761   6.301
 9092SOL    HW228176   1.380   0.895   6.345
 9093SOL     OW28177   1.626   6.363   6.807
 9093SOL    HW128178   1.635   6.448   6.755
 9093SOL    HW228179   1.547   6.312   6.773
 9094SOL     OW28180   0.702   5.505   2.908
 9094SOL    HW128181   0.671   5.600   2.912
 9094SOL    HW228182   0.689   5.470   2.815
 9095SOL     OW28183   5.340   4.051   6.279
 9095SOL    HW128184   5.384   4.034   6.190
 9095SOL    HW228185   5.336   4.150   6.295
 9096SOL     OW28186   5.096   3.314   2.815
 9096SOL    HW128187   5.008   3.341   2.855
 9096SOL    HW228188   5.115   3.372   2.736
 9097SOL     OW28189   0.143   3.069   0.079
 9097SOL    HW128190   0.091   2.995   0.121
 9097SOL    HW228191   0.085   3.116   0.011
 9098SOL     OW28192   3.358   3.142   0.805
 9098SOL    HW128193   3.370   3.043   0.794
 9098SOL    HW228194   3.437   3.189   0.766
 9099SOL     OW28195   3.167   3.185   0.569
 9099SOL    HW128196   3.106   3.106   0.563
 9099SOL    HW228197   3.235   3.170   0.640
 9100SOL     OW28198   0.750   2.509   2.618
 9100SOL    HW128199   0.686   2.485   2.691
 9100SOL    HW228200   0.835   2.541   2.658
 9101SOL     OW28201   2.172   3.006   2.569
 9101SOL    HW128202   2.204   3.049   2.484
 9101SOL    HW228203   2.072   3.002   2.568
 9102SOL     OW28204   3.522   6.210   1.915
 9102SOL    HW128205   3.576   6.151   1.855
 9102SOL    HW228206   3.554   6.199   2.009
 9103SOL     OW28207   6.887   3.719   0.221
 9103SOL    HW128208   6.932   3.635   0.250
 9103SOL    HW228209   6.951   3.796   0.229
 9104SOL     OW28210   3.918   6.232   2.158
 9104SOL    HW128211   3.923   6.263   2.063
 9104SOL    HW228212   3.960   6.299   2.218
 9105SOL     OW28213   1.530   0.865   0.454
 9105SOL    HW128214   1.543   0.865   0.355
 9105SOL    HW228215   1.432   0.870   0.475
 9106SOL     OW28216   5.218   3.996   6.683
 9106SOL    HW128217   5.316   3.983   6.676
 9106SOL    HW228218   5.197   4.048   6.766
 9107SOL     OW28219   4.256   0.319   6.503
 9107SOL    HW128220   4.192   0.333   6.427
 9107SOL    HW228221   4.209   0.337   6.590
 9108SOL     OW28222   4.655   4.635   5.696
 9108SOL    HW128223   4.730   4.657   5.634
 9108SOL    HW228224   4.664   4.540   5.726
 9109SOL     OW28225   1.340   2.565   2.679
 9109SOL    HW128226   1.388   2.625   2.742
 9109SOL    HW228227   1.298   2.490   2.730
 9110SOL     OW28228   2.178   4.214   3.999
 9110SOL    HW128229   2.237   4.202   3.919
 9110SOL    HW228230   2.202   4.147   4.069
 9111SOL     OW28231   4.578   3.585   0.384
 9111SOL    HW128232   4.613   3.672   0.348
 9111SOL    HW228233   4.527   3.603   0.469
 9112SOL     OW28234   0.482   4.643   4.533
 9112SOL    HW128235   0.386   4.665   4.517
 9112SOL    HW228236   0.539   4.723   4.513
 9113SOL     OW28237   4.360   6.216   0.811
 9113SOL    HW128238   4.410   6.235   0.896
 9113SOL    HW228239   4.356   6.300   0.755
 9114SOL     OW28240   1.957   5.155   1.849
 9114SOL    HW128241   2.035   5.182   1.905
 9114SOL    HW228242   1.989   5.109   1.766
 9115SOL     OW28243   1.006   5.748   5.818
 9115SOL    HW128244   0.973   5.762   5.725
 9115SOL    HW228245   0.943   5.790   5.883
 9116SOL     OW28246   6.315   2.475   0.724
 9116SOL    HW128247   6.323   2.543   0.651
 9116SOL    HW228248   6.294   2.385   0.685
 9117SOL     OW28249   5.856   2.865   6.983
 9117SOL    HW128250   5.925   2.816   0.014
 9117SOL    HW228251   5.888   2.877   6.889
 9118SOL     OW28252   6.602   5.843   0.828
 9118SOL    HW128253   6.568   5.794   0.909
 9118SOL    HW228254   6.525   5.866   0.769
 9119SOL     OW28255   5.137   1.467   2.756
 9119SOL    HW128256   5.112   1.436   2.664
 9119SOL    HW228257   5.074   1.540   2.784
 9120SOL     OW28258   5.530   3.376   5.591
 9120SOL    HW128259   5.515   3.350   5.687
 9120SOL    HW228260   5.447   3.357   5.538
 9121SOL     OW28261   1.662   2.734   6.956
 9121SOL    HW128262   1.709   2.804   6.901
 9121SOL    HW228263   1.701   2.645   6.935
 9122SOL     OW28264   1.516   3.069   1.971
 9122SOL    HW128265   1.544   3.163   1.956
 9122SOL    HW228266   1.439   3.046   1.912
 9123SOL     OW28267   4.026   0.215   4.611
 9123SOL    HW128268   4.111   0.234   4.661
 9123SOL    HW228269   4.044   0.146   4.541
 9124SOL     OW28270   5.686   6.902   5.416
 9124SOL    HW128271   5.666   6.950   5.330
 9124SOL    HW228272   5.601   6.889   5.467
 9125SOL     OW28273   5.180   3.501   2.293
 9125SOL    HW128274   5.082   3.483   2.299
 9125SOL    HW228275   5.209   3.497   2.198
 9126SOL     OW28276   5.566   2.323   2.127
 9126SOL    HW128277   5.624   2.243   2.112
 9126SOL    HW228278   5.470   2.297   2.112
 9127SOL     OW28279   6.388   0.994   5.783
 9127SOL    HW128280   6.338   1.059   5.840
 9127SOL    HW228281   6.437   0.929   5.842
 9128SOL     OW28282   4.294   1.378   5.068
 9128SOL    HW128283   4.222   1.315   5.094
 9128SOL    HW228284   4.296   1.455   5.132
 9129SOL     OW28285   0.683   2.868   1.400
 9129SOL    HW128286   0.601   2.814   1.416
 9129SOL    HW228287   0.699   2.877   1.302
 9130SOL     OW28288   6.777   3.311   0.529
 9130SOL    HW128289   6.682   3.282   0.518
 9130SOL    HW228290   6.780   3.399   0.575
 9131SOL     OW28291   0.147   3.390   6.184
 9131SOL    HW128292   0.139   3.489   6.172
 9131SOL    HW228293   0.236   3.367   6.224
 9132SOL     OW28294   0.330   5.017   4.923
 9132SOL    HW128295   0.303   4.920   4.921
 9132SOL    HW228296   0.391   5.036   4.846
 9133SOL     OW28297   3.380   6.204   1.507
 9133SOL    HW128298   3.353   6.220   1.601
 9133SOL    HW228299   3.461   6.145   1.505
 9134SOL     OW28300   4.290   5.879   6.921
 9134SOL    HW128301   4.227   5.956   6.930
 9134SOL    HW228302   4.324   5.852   7.011
 9135SOL     OW28303   6.542   5.975   2.053
 9135SOL    HW128304   6.532   6.073   2.035
 9135SOL    HW228305   6.462   5.943   2.103
 9136SOL     OW28306   5.435   5.240   5.791
 9136SOL    HW128307   5.455   5.336   5.772
 9136SOL    HW228308   5.354   5.234   5.849
 9137SOL     OW28309   4.929   2.343   1.309
 9137SOL    HW128310   5.008   2.397   1.281
 9137SOL    HW228311   4.916   2.267   1.245
 9138SOL     OW28312   6.302   5.422   5.696
 9138SOL    HW128313   6.312   5.383   5.788
 9138SOL    HW228314   6.226   5.487   5.696
 9139SOL     OW28315   2.497   1.756   4.709
 9139SOL    HW128316   2.518   1.674   4.656
 9139SOL    HW228317   2.423   1.806   4.664
 9140SOL     OW28318   6.076   2.835   2.691
 9140SOL    HW128319   6.167   2.806   2.662
 9140SOL    HW228320   6.007   2.779   2.647
 9141SOL     OW28321   5.811   0.295   6.722
 9141SOL    HW128322   5.738   0.328   6.662
 9141SOL    HW228323   5.771   0.261   6.807
 9142SOL     OW28324   1.012   2.266   0.954
 9142SOL    HW128325   0.988   2.334   0.884
 9142SOL    HW228326   0.930   2.243   1.006
 9143SOL     OW28327   5.339   3.044   1.156
 9143SOL    HW128328   5.374   3.127   1.113
 9143SOL    HW228329   5.345   2.968   1.091
 9144SOL     OW28330   2.662   5.403   5.558
 9144SOL    HW128331   2.578   5.384   5.609
 9144SOL    HW228332   2.685   5.324   5.500
 9145SOL     OW28333   6.336   5.451   0.071
 9145SOL    HW128334   6.367   5.544   0.050
 9145SOL    HW228335   6.388   5.415   0.148
 9146SOL     OW28336   5.250   2.723   2.884
 9146SOL    HW128337   5.288   2.633   2.864
 9146SOL    HW228338   5.215   2.764   2.800
 9147SOL     OW28339   6.163   0.186   3.800
 9147SOL    HW128340   6.205   0.277   3.805
 9147SOL    HW228341   6.208   0.133   3.728
 9148SOL     OW28342   4.905   6.458   0.586
 9148SOL    HW128343   4.939   6.449   0.680
 9148SOL    HW228344   4.913   6.553   0.557
 9149SOL     OW28345   5.196   3.126   3.507
 9149SOL    HW128346   5.291   3.124   3.539
 9149SOL    HW228347   5.170   3.035   3.474
 9150SOL     OW28348   2.932   5.248   2.583
 9150SOL    HW128349   2.964   5.197   2.663
 9150SOL    HW228350   2.948   5.194   2.500
 9151SOL     OW28351   1.758   4.638   3.918
 9151SOL    HW128352   1.788   4.559   3.971
 9151SOL    HW228353   1.735   4.713   3.980
 9152SOL     OW28354   2.454   4.677   5.080
 9152SOL    HW128355   2.514   4.616   5.133
 9152SOL    HW228356   2.473   4.772   5.103
 9153SOL     OW28357   0.911   3.091   1.041
 9153SOL    HW128358   0.949   3.078   1.133
 9153SOL    HW228359   0.884   3.187   1.030
 9154SOL     OW28360   4.479   5.156   6.176
 9154SOL    HW128361   4.385   5.187   6.163
 9154SOL    HW228362   4.484   5.095   6.254
 9155SOL     OW28363   1.160   3.482   1.840
 9155SOL    HW128364   1.182   3.514   1.932
 9155SOL    HW228365   1.061   3.481   1.828
 9156SOL     OW28366   1.459   2.528   1.013
 9156SOL    HW128367   1.511   2.608   0.984
 9156SOL    HW228368   1.379   2.517   0.954
 9157SOL     OW28369   6.721   4.481   6.355
 9157SOL    HW128370   6.740   4.508   6.449
 9157SOL    HW228371   6.795   4.422   6.322
 9158SOL     OW28372   5.703   3.584   4.305
 9158SOL    HW128373   5.607   3.611   4.318
 9158SOL    HW228374   5.725   3.585   4.208
 9159SOL     OW28375   1.895   0.095   2.241
 9159SOL    HW128376   1.978   0.040   2.253
 9159SOL    HW228377   1.914   0.190   2.264
 9160SOL     OW28378   6.328   0.496   5.030
 9160SOL    HW128379   6.307   0.505   4.932
 9160SOL    HW228380   6.408   0.438   5.041
 9161SOL     OW28381   4.620   4.465   4.910
 9161SOL    HW128382   4.626   4.561   4.937
 9161SOL    HW228383   4.552   4.455   4.837
 9162SOL     OW28384   4.681   0.795   4.800
 9162SOL    HW128385   4.695   0.721   4.734
 9162SOL    HW228386   4.611   0.858   4.765
 9163SOL     OW28387   1.588   2.987   4.377
 9163SOL    HW128388   1.581   2.896   4.417
 9163SOL    HW228389   1.676   3.028   4.403
 9164SOL     OW28390   2.685   1.026   6.578
 9164SOL    HW128391   2.767   1.065   6.537
 9164SOL    HW228392   2.705   0.994   6.671
 9165SOL     OW28393   5.654   1.955   5.405
 9165SOL    HW128394   5.740   1.952   5.355
 9165SOL    HW228395   5.666   2.003   5.491
 9166SOL     OW28396   3.985   6.046   0.799
 9166SOL    HW128397   3.905   6.087   0.757
 9166SOL    HW228398   4.025   5.978   0.737
 9167SOL     OW28399   2.189   2.567   0.028
 9167SOL    HW128400   2.254   2.592   0.100
 9167SOL    HW228401   2.110   2.628   0.031
 9168SOL     OW28402   0.029   0.159   6.433
 9168SOL    HW128403   0.074   0.155   6.522
 9168SOL    HW228404   6.954   0.178   6.445
 9169SOL     OW28405   6.072   1.129   4.484
 9169SOL    HW128406   6.166   1.151   4.511
 9169SOL    HW228407   6.074   1.054   4.417
 9170SOL     OW28408   1.386   5.534   6.835
 9170SOL    HW128409   1.362   5.472   6.760
 9170SOL    HW228410   1.473   5.504   6.876
 9171SOL     OW28411   3.867   5.292   1.001
 9171SOL    HW128412   3.817   5.363   0.950
 9171SOL    HW228413   3.877   5.211   0.943
 9172SOL     OW28414   3.445   0.819   3.911
 9172SOL    HW128415   3.362   0.874   3.910
 9172SOL    HW228416   3.491   0.831   3.999
 9173SOL     OW28417   6.562   3.897   4.822
 9173SOL    HW128418   6.620   3.931   4.748
 9173SOL    HW228419   6.561   3.964   4.897
 9174SOL     OW28420   5.432   3.362   1.814
 9174SOL    HW128421   5.389   3.272   1.805
 9174SOL    HW228422   5.403   3.420   1.739
 9175SOL     OW28423   0.507   0.374   4.806
 9175SOL    HW128424   0.538   0.279   4.808
 9175SOL    HW228425   0.573   0.430   4.756
 9176SOL     OW28426   3.082   0.919   5.400
 9176SOL    HW128427   3.094   0.990   5.469
 9176SOL    HW228428   3.056   0.833   5.445
 9177SOL     OW28429   0.704   5.139   5.000
 9177SOL    HW128430   0.704   5.039   4.992
 9177SOL    HW228431   0.611   5.172   5.017
 9178SOL     OW28432   1.723   5.236   0.335
 9178SOL    HW128433   1.694   5.184   0.254
 9178SOL    HW228434   1.823   5.231   0.344
 9179SOL     OW28435   2.918   5.091   4.595
 9179SOL    HW128436   2.880   5.097   4.503
 9179SOL    HW228437   2.928   5.183   4.633
 9180SOL     OW28438   6.297   2.608   2.999
 9180SOL    HW128439   6.375   2.670   2.990
 9180SOL    HW228440   6.242   2.611   2.915
 9181SOL     OW28441   4.363   2.014   5.157
 9181SOL    HW128442   4.267   2.032   5.139
 9181SOL    HW228443   4.374   1.974   5.248
 9182SOL     OW28444   2.477   6.942   2.239
 9182SOL    HW128445   2.522   7.019   2.194
 9182SOL    HW228446   2.446   6.969   2.330
 9183SOL     OW28447   4.708   5.833   0.682
 9183SOL    HW128448   4.740   5.923   0.654
 9183SOL    HW228449   4.682   5.835   0.779
 9184SOL     OW28450   4.871   1.369   0.845
 9184SOL    HW128451   4.927   1.290   0.822
 9184SOL    HW228452   4.930   1.446   0.871
 9185SOL     OW28453   4.100   0.006   4.424
 9185SOL    HW128454   4.117   6.967   4.501
 9185SOL    HW228455   4.022   6.995   4.371
 9186SOL     OW28456   5.838   5.957   4.226
 9186SOL    HW128457   5.837   6.033   4.290
 9186SOL    HW228458   5.929   5.951   4.184
 9187SOL     OW28459   2.619   1.439   0.667
 9187SOL    HW128460   2.716   1.462   0.675
 9187SOL    HW228461   2.587   1.397   0.752
 9188SOL     OW28462   1.455   6.485   1.483
 9188SOL    HW128463   1.542   6.494   1.434
 9188SOL    HW228464   1.400   6.568   1.469
 9189SOL     OW28465   4.389   5.837   1.603
 9189SOL    HW128466   4.431   5.919   1.641
 9189SOL    HW228467   4.295   5.830   1.636
 9190SOL     OW28468   2.932   4.557   6.306
 9190SOL    HW128469   2.977   4.617   6.239
 9190SOL    HW228470   2.835   4.548   6.283
 9191SOL     OW28471   6.631   2.750   5.975
 9191SOL    HW128472   6.561   2.810   5.936
 9191SOL    HW228473   6.587   2.683   6.036
 9192SOL     OW28474   0.749   3.160   6.292
 9192SOL    HW128475   0.785   3.151   6.200
 9192SOL    HW228476   0.662   3.110   6.299
 9193SOL     OW28477   4.518   4.369   6.916
 9193SOL    HW128478   4.487   4.296   6.854
 9193SOL    HW228479   4.573   4.330   6.989
 9194SOL     OW28480   3.047   0.751   3.640
 9194SOL    HW128481   3.075   0.655   3.633
 9194SOL    HW228482   2.973   0.769   3.575
 9195SOL     OW28483   1.685   1.706   3.861
 9195SOL    HW128484   1.613   1.756   3.910
 9195SOL    HW228485   1.655   1.691   3.766
 9196SOL     OW28486   5.207   6.819   2.441
 9196SOL    HW128487   5.168   6.861   2.523
 9196SOL    HW228488   5.134   6.802   2.374
 9197SOL     OW28489   1.656   5.230   1.491
 9197SOL    HW128490   1.620   5.316   1.455
 9197SOL    HW228491   1.735   5.201   1.437
 9198SOL     OW28492   6.535   5.089   6.856
 9198SOL    HW128493   6.472   5.153   6.901
 9198SOL    HW228494   6.508   5.077   6.761
 9199SOL     OW28495   0.874   4.253   6.095
 9199SOL    HW128496   0.880   4.172   6.153
 9199SOL    HW228497   0.910   4.332   6.146
 9200SOL     OW28498   2.714   6.653   6.847
 9200SOL    HW128499   2.664   6.597   6.781
 9200SOL    HW228500   2.651   6.684   6.919
 9201SOL     OW28501   0.207   2.571   0.509
 9201SOL    HW128502   0.208   2.510   0.588
 9201SOL    HW228503   0.131   2.546   0.448
 9202SOL     OW28504   1.576   6.547   2.375
 9202SOL    HW128505   1.663   6.523   2.418
 9202SOL    HW228506   1.570   6.504   2.285
 9203SOL     OW28507   0.671   4.046   6.709
 9203SOL    HW128508   0.646   4.142   6.694
 9203SOL    HW228509   0.708   4.008   6.624
 9204SOL     OW28510   5.050   2.851   6.226
 9204SOL    HW128511   5.025   2.800   6.144
 9204SOL    HW228512   5.027   2.947   6.214
 9205SOL     OW28513   5.852   4.490   3.345
 9205SOL    HW128514   5.840   4.538   3.258
 9205SOL    HW228515   5.943   4.448   3.347
 9206SOL     OW28516   3.929   5.878   2.717
 9206SOL    HW128517   3.928   5.860   2.816
 9206SOL    HW228518   3.851   5.833   2.675
 9207SOL     OW28519   5.177   3.861   5.862
 9207SOL    HW128520   5.158   3.909   5.777
 9207SOL    HW228521   5.271   3.878   5.890
 9208SOL     OW28522   5.869   4.222   3.597
 9208SOL    HW128523   5.901   4.293   3.660
 9208SOL    HW228524   5.781   4.250   3.557
 9209SOL     OW28525   4.193   0.795   6.620
 9209SOL    HW128526   4.129   0.832   6.554
 9209SOL    HW228527   4.146   0.728   6.678
 9210SOL     OW28528   7.006   0.662   2.625
 9210SOL    HW128529   6.991   0.634   2.530
 9210SOL    HW228530   6.930   0.631   2.682
 9211SOL     OW28531   0.656   2.292   5.963
 9211SOL    HW128532   0.613   2.281   5.874
 9211SOL    HW228533   0.696   2.205   5.992
 9212SOL     OW28534   5.367   5.383   4.243
 9212SOL    HW128535   5.425   5.399   4.163
 9212SOL    HW228536   5.276   5.420   4.226
 9213SOL     OW28537   5.314   3.450   5.137
 9213SOL    HW128538   5.249   3.375   5.138
 9213SOL    HW228539   5.374   3.444   5.217
 9214SOL     OW28540   6.785   3.513   6.625
 9214SOL    HW128541   6.714   3.558   6.679
 9214SOL    HW228542   6.750   3.492   6.534
 9215SOL     OW28543   0.903   2.447   1.316
 9215SOL    HW128544   0.833   2.439   1.246
 9215SOL    HW228545   0.880   2.523   1.377
 9216SOL     OW28546   3.152   0.392   2.129
 9216SOL    HW128547   3.237   0.395   2.075
 9216SOL    HW228548   3.089   0.326   2.088
 9217SOL     OW28549   0.270   2.354   0.254
 9217SOL    HW128550   0.299   2.313   0.340
 9217SOL    HW228551   0.262   2.283   0.184
 9218SOL     OW28552   1.858   0.085   0.078
 9218SOL    HW128553   1.908   0.133   0.150
 9218SOL    HW228554   1.811   0.152   0.020
 9219SOL     OW28555   6.414   3.098   0.898
 9219SOL    HW128556   6.409   3.186   0.945
 9219SOL    HW228557   6.326   3.053   0.901
 9220SOL     OW28558   1.253   6.287   1.508
 9220SOL    HW128559   1.317   6.362   1.496
 9220SOL    HW228560   1.189   6.310   1.582
 9221SOL     OW28561   3.305   0.690   3.051
 9221SOL    HW128562   3.323   0.618   2.983
 9221SOL    HW228563   3.244   0.654   3.122
 9222SOL     OW28564   2.173   6.703   6.072
 9222SOL    HW128565   2.221   6.668   6.153
 9222SOL    HW228566   2.148   6.626   6.013
 9223SOL     OW28567   0.730   1.062   3.892
 9223SOL    HW128568   0.764   1.089   3.801
 9223SOL    HW228569   0.635   1.092   3.901
 9224SOL     OW28570   1.418   4.937   5.042
 9224SOL    HW128571   1.391   5.027   5.007
 9224SOL    HW228572   1.492   4.901   4.986
 9225SOL     OW28573   2.972   6.788   6.013
 9225SOL    HW128574   2.992   6.886   6.018
 9225SOL    HW228575   3.046   6.737   6.058
 9226SOL     OW28576   5.983   6.382   0.681
 9226SOL    HW128577   6.046   6.331   0.622
 9226SOL    HW228578   6.012   6.373   0.776
 9227SOL     OW28579   0.983   5.477   0.263
 9227SOL    HW128580   0.894   5.469   0.310
 9227SOL    HW228581   1.039   5.545   0.310
 9228SOL     OW28582   1.114   1.994   5.397
 9228SOL    HW128583   1.105   1.990   5.497
 9228SOL    HW228584   1.042   1.938   5.356
 9229SOL     OW28585   0.648   5.692   5.013
 9229SOL    HW128586   0.687   5.784   5.024
 9229SOL    HW228587   0.708   5.637   4.955
 9230SOL     OW28588   4.686   1.178   3.569
 9230SOL    HW128589   4.750   1.117   3.615
 9230SOL    HW228590   4.614   1.125   3.525
 9231SOL     OW28591   0.436   4.408   4.677
 9231SOL    HW128592   0.513   4.351   4.708
 9231SOL    HW228593   0.471   4.496   4.645
 9232SOL     OW28594   3.837   5.081   0.369
 9232SOL    HW128595   3.924   5.124   0.393
 9232SOL    HW228596   3.836   4.987   0.403
 9233SOL     OW28597   5.577   5.427   2.126
 9233SOL    HW128598   5.531   5.443   2.038
 9233SOL    HW228599   5.639   5.350   2.118
 9234SOL     OW28600   3.682   5.968   5.832
 9234SOL    HW128601   3.726   5.967   5.922
 9234SOL    HW228602   3.600   5.911   5.834
 9235SOL     OW28603   1.412   3.247   3.479
 9235SOL    HW128604   1.457   3.277   3.564
 9235SOL    HW228605   1.357   3.322   3.443
 9236SOL     OW28606   2.537   4.437   5.550
 9236SOL    HW128607   2.453   4.383   5.553
 9236SOL    HW228608   2.588   4.415   5.466
 9237SOL     OW28609   1.733   5.660   4.735
 9237SOL    HW128610   1.690   5.592   4.676
 9237SOL    HW228611   1.829   5.638   4.746
 9238SOL     OW28612   3.510   1.452   0.107
 9238SOL    HW128613   3.574   1.520   0.143
 9238SOL    HW228614   3.417   1.475   0.135
 9239SOL     OW28615   6.799   4.536   0.480
 9239SOL    HW128616   6.868   4.608   0.487
 9239SOL    HW228617   6.839   4.449   0.510
 9240SOL     OW28618   5.273   1.749   1.468
 9240SOL    HW128619   5.211   1.827   1.455
 9240SOL    HW228620   5.344   1.774   1.535
 9241SOL     OW28621   0.547   4.985   5.581
 9241SOL    HW128622   0.496   5.015   5.662
 9241SOL    HW228623   0.605   4.907   5.605
 9242SOL     OW28624   0.409   5.554   0.375
 9242SOL    HW128625   0.453   5.481   0.323
 9242SOL    HW228626   0.458   5.639   0.361
 9243SOL     OW28627   5.723   6.739   1.582
 9243SOL    HW128628   5.678   6.676   1.518
 9243SOL    HW228629   5.694   6.832   1.562
 9244SOL     OW28630   4.252   5.748   6.500
 9244SOL    HW128631   4.288   5.832   6.460
 9244SOL    HW228632   4.255   5.675   6.432
 9245SOL     OW28633   1.252   4.739   3.370
 9245SOL    HW128634   1.178   4.698   3.423
 9245SOL    HW228635   1.340   4.712   3.410
 9246SOL     OW28636   0.354   5.241   2.583
 9246SOL    HW128637   0.254   5.233   2.578
 9246SOL    HW228638   0.396   5.162   2.540
 9247SOL     OW28639   1.283   6.551   2.725
 9247SOL    HW128640   1.336   6.631   2.699
 9247SOL    HW228641   1.302   6.476   2.661
 9248SOL     OW28642   1.613   2.415   4.809
 9248SOL    HW128643   1.604   2.513   4.825
 9248SOL    HW228644   1.597   2.366   4.894
 9249SOL     OW28645   4.627   3.923   6.955
 9249SOL    HW128646   4.687   3.888   0.005
 9249SOL    HW228647   4.616   3.854   6.884
 9250SOL     OW28648   5.670   3.009   4.402
 9250SOL    HW128649   5.677   3.104   4.432
 9250SOL    HW228650   5.631   3.006   4.310
 9251SOL     OW28651   4.124   2.244   3.156
 9251SOL    HW128652   4.154   2.291   3.239
 9251SOL    HW228653   4.119   2.146   3.173
 9252SOL     OW28654   5.837   0.549   4.414
 9252SOL    HW128655   5.808   0.645   4.410
 9252SOL    HW228656   5.929   0.541   4.378
 9253SOL     OW28657   5.884   6.233   5.871
 9253SOL    HW128658   5.794   6.216   5.832
 9253SOL    HW228659   5.926   6.311   5.824
 9254SOL     OW28660   6.579   4.277   2.771
 9254SOL    HW128661   6.604   4.208   2.838
 9254SOL    HW228662   6.495   4.249   2.723
 9255SOL     OW28663   4.658   3.815   0.297
 9255SOL    HW128664   4.710   3.786   0.217
 9255SOL    HW228665   4.680   3.911   0.318
 9256SOL     OW28666   4.283   6.736   2.399
 9256SOL    HW128667   4.299   6.815   2.459
 9256SOL    HW228668   4.278   6.653   2.455
 9257SOL     OW28669   0.951   3.763   3.190
 9257SOL    HW128670   0.962   3.721   3.100
 9257SOL    HW228671   1.009   3.845   3.196
 9258SOL     OW28672   3.463   3.529   3.719
 9258SOL    HW128673   3.500   3.571   3.801
 9258SOL    HW228674   3.426   3.439   3.742
 9259SOL     OW28675   1.452   2.589   0.020
 9259SOL    HW128676   1.493   2.664   6.990
 9259SOL    HW228677   1.497   2.583   0.109
 9260SOL     OW28678   5.007   1.750   5.014
 9260SOL    HW128679   5.023   1.670   4.955
 9260SOL    HW228680   5.075   1.821   4.993
 9261SOL     OW28681   4.741   0.423   6.419
 9261SOL    HW128682   4.777   0.511   6.388
 9261SOL    HW228683   4.647   0.434   6.449
 9262SOL     OW28684   0.302   3.587   5.645
 9262SOL    HW128685   0.341   3.558   5.557
 9262SOL    HW228686   0.212   3.545   5.657
 9263SOL     OW28687   5.694   5.262   1.695
 9263SOL    HW128688   5.643   5.253   1.609
 9263SOL    HW228689   5.781   5.307   1.677
 9264SOL     OW28690   5.644   4.245   0.304
 9264SOL    HW128691   5.653   4.344   0.317
 9264SOL    HW228692   5.569   4.227   0.241
 9265SOL     OW28693   3.718   1.625   0.199
 9265SOL    HW128694   3.742   1.668   0.286
 9265SOL    HW228695   3.718   1.694   0.127
 9266SOL     OW28696   2.301   6.596   2.047
 9266SOL    HW128697   2.331   6.517   2.099
 9266SOL    HW228698   2.364   6.613   1.971
 9267SOL     OW28699   0.604   3.955   5.505
 9267SOL    HW128700   0.595   4.041   5.556
 9267SOL    HW228701   0.698   3.922   5.512
 9268SOL     OW28702   1.501   5.068   1.676
 9268SOL    HW128703   1.560   5.041   1.753
 9268SOL    HW228704   1.556   5.117   1.609
 9269SOL     OW28705   3.030   1.758   6.042
 9269SOL    HW128706   2.950   1.779   6.097
 9269SOL    HW228707   3.113   1.789   6.090
 9270SOL     OW28708   4.592   6.655   5.900
 9270SOL    HW128709   4.589   6.752   5.878
 9270SOL    HW228710   4.500   6.618   5.902
 9271SOL     OW28711   1.140   6.657   6.563
 9271SOL    HW128712   1.173   6.673   6.656
 9271SOL    HW228713   1.211   6.610   6.510
 9272SOL     OW28714   1.745   5.265   4.955
 9272SOL    HW128715   1.688   5.222   4.885
 9272SOL    HW228716   1.804   5.196   4.997
 9273SOL     OW28717   5.342   6.069   3.654
 9273SOL    HW128718   5.359   6.032   3.745
 9273SOL    HW228719   5.331   6.168   3.660
 9274SOL     OW28720   6.576   2.629   0.168
 9274SOL    HW128721   6.639   2.554   0.148
 9274SOL    HW228722   6.593   2.663   0.261
 9275SOL     OW28723   6.834   1.908   6.935
 9275SOL    HW128724   6.807   2.003   6.920
 9275SOL    HW228725   6.898   1.880   6.864
 9276SOL     OW28726   1.825   4.307   2.701
 9276SOL    HW128727   1.832   4.398   2.744
 9276SOL    HW228728   1.756   4.310   2.629
 9277SOL     OW28729   5.401   3.231   0.566
 9277SOL    HW128730   5.392   3.167   0.642
 9277SOL    HW228731   5.493   3.269   0.565
 9278SOL     OW28732   1.212   0.526   5.570
 9278SOL    HW128733   1.175   0.465   5.500
 9278SOL    HW228734   1.141   0.546   5.638
 9279SOL     OW28735   5.150   1.038   2.247
 9279SOL    HW128736   5.110   0.947   2.239
 9279SOL    HW228737   5.184   1.067   2.158
 9280SOL     OW28738   1.289   0.967   2.580
 9280SOL    HW128739   1.209   0.971   2.641
 9280SOL    HW228740   1.260   0.988   2.487
 9281SOL     OW28741   3.037   4.478   0.995
 9281SOL    HW128742   3.103   4.506   0.926
 9281SOL    HW228743   3.049   4.533   1.078
 9282SOL     OW28744   5.379   1.088   4.668
 9282SOL    HW128745   5.452   1.135   4.618
 9282SOL    HW228746   5.346   1.148   4.741
 9283SOL     OW28747   5.876   0.133   3.834
 9283SOL    HW128748   5.862   0.175   3.924
 9283SOL    HW228749   5.974   0.133   3.812
 9284SOL     OW28750   3.439   4.809   6.452
 9284SOL    HW128751   3.353   4.774   6.416
 9284SOL    HW228752   3.471   4.751   6.527
 9285SOL     OW28753   5.016   2.693   1.154
 9285SOL    HW128754   4.946   2.736   1.211
 9285SOL    HW228755   4.972   2.647   1.077
 9286SOL     OW28756   5.281   6.681   6.476
 9286SOL    HW128757   5.332   6.742   6.416
 9286SOL    HW228758   5.191   6.722   6.496
 9287SOL     OW28759   3.030   5.315   6.596
 9287SOL    HW128760   2.945   5.353   6.631
 9287SOL    HW228761   3.028   5.215   6.605
 9288SOL     OW28762   3.730   1.566   4.246
 9288SOL    HW128763   3.696   1.634   4.181
 9288SOL    HW228764   3.717   1.474   4.209
 9289SOL     OW28765   3.738   1.368   2.382
 9289SOL    HW128766   3.671   1.417   2.326
 9289SOL    HW228767   3.792   1.433   2.434
 9290SOL     OW28768   4.810   1.410   3.488
 9290SOL    HW128769   4.734   1.469   3.461
 9290SOL    HW228770   4.773   1.327   3.530
 9291SOL     OW28771   2.015   0.148   4.031
 9291SOL    HW128772   1.919   0.159   4.056
 9291SOL    HW228773   2.026   0.067   3.974
 9292SOL     OW28774   0.968   3.500   6.600
 9292SOL    HW128775   0.912   3.556   6.538
 9292SOL    HW228776   0.908   3.447   6.660
 9293SOL     OW28777   5.151   4.090   6.931
 9293SOL    HW128778   5.068   4.132   6.966
 9293SOL    HW228779   5.166   4.003   6.977
 9294SOL     OW28780   3.194   6.884   4.632
 9294SOL    HW128781   3.216   6.898   4.536
 9294SOL    HW228782   3.142   6.800   4.643
 9295SOL     OW28783   5.319   2.496   4.005
 9295SOL    HW128784   5.328   2.428   4.078
 9295SOL    HW228785   5.290   2.583   4.045
 9296SOL     OW28786   0.865   6.650   6.150
 9296SOL    HW128787   0.808   6.569   6.141
 9296SOL    HW228788   0.887   6.666   6.246
 9297SOL     OW28789   6.329   1.517   0.467
 9297SOL    HW128790   6.234   1.499   0.492
 9297SOL    HW228791   6.384   1.523   0.550
 9298SOL     OW28792   1.701   0.780   4.532
 9298SOL    HW128793   1.709   0.789   4.433
 9298SOL    HW228794   1.792   0.783   4.573
 9299SOL     OW28795   0.910   2.431   3.758
 9299SOL    HW128796   0.872   2.467   3.673
 9299SOL    HW228797   0.852   2.355   3.790
 9300SOL     OW28798   0.974   4.566   5.674
 9300SOL    HW128799   0.910   4.580   5.599
 9300SOL    HW228800   1.041   4.496   5.649
 9301SOL     OW28801   5.008   4.264   3.625
 9301SOL    HW128802   4.910   4.247   3.621
 9301SOL    HW228803   5.049   4.242   3.537
 9302SOL     OW28804   2.229   2.890   4.574
 9302SOL    HW128805   2.221   2.875   4.673
 9302SOL    HW228806   2.317   2.855   4.542
 9303SOL     OW28807   3.394   5.490   0.495
 9303SOL    HW128808   3.311   5.460   0.542
 9303SOL    HW228809   3.380   5.582   0.459
 9304SOL     OW28810   4.643   4.299   2.259
 9304SOL    HW128811   4.741   4.316   2.267
 9304SOL    HW228812   4.623   4.261   2.168
 9305SOL     OW28813   3.583   1.050   1.825
 9305SOL    HW128814   3.545   1.037   1.733
 9305SOL    HW228815   3.683   1.047   1.821
 9306SOL     OW28816   0.302   4.762   4.897
 9306SOL    HW128817   0.379   4.704   4.870
 9306SOL    HW228818   0.259   4.725   4.980
 9307SOL     OW28819   0.931   3.598   0.993
 9307SOL    HW128820   0.923   3.643   0.904
 9307SOL    HW228821   1.028   3.585   1.016
 9308SOL     OW28822   2.015   4.348   0.891
 9308SOL    HW128823   2.050   4.302   0.809
 9308SOL    HW228824   2.000   4.280   0.963
 9309SOL     OW28825   3.403   4.798   5.916
 9309SOL    HW128826   3.310   4.792   5.879
 9309SOL    HW228827   3.417   4.889   5.956
 9310SOL     OW28828   4.497   5.379   5.904
 9310SOL    HW128829   4.515   5.285   5.935
 9310SOL    HW228830   4.412   5.412   5.945
 9311SOL     OW28831   4.119   4.762   2.273
 9311SOL    HW128832   4.092   4.753   2.177
 9311SOL    HW228833   4.207   4.809   2.279
 9312SOL     OW28834   1.010   3.059   1.304
 9312SOL    HW128835   1.081   2.994   1.279
 9312SOL    HW228836   0.987   3.047   1.401
 9313SOL     OW28837   0.100   0.539   1.059
 9313SOL    HW128838   0.018   0.594   1.040
 9313SOL    HW228839   0.149   0.578   1.137
 9314SOL     OW28840   4.659   6.127   5.940
 9314SOL    HW128841   4.686   6.180   5.860
 9314SOL    HW228842   4.741   6.098   5.990
 9315SOL     OW28843   6.582   1.068   5.339
 9315SOL    HW128844   6.644   1.116   5.278
 9315SOL    HW228845   6.492   1.060   5.296
 9316SOL     OW28846   4.143   5.829   5.478
 9316SOL    HW128847   4.102   5.755   5.425
 9316SOL    HW228848   4.114   5.917   5.441
 9317SOL     OW28849   6.652   4.972   3.338
 9317SOL    HW128850   6.752   4.971   3.327
 9317SOL    HW228851   6.612   4.900   3.281
 9318SOL     OW28852   6.514   0.583   5.910
 9318SOL    HW128853   6.463   0.574   5.995
 9318SOL    HW228854   6.573   0.664   5.916
 9319SOL     OW28855   1.447   2.887   0.344
 9319SOL    HW128856   1.416   2.856   0.434
 9319SOL    HW228857   1.386   2.959   0.311
 9320SOL     OW28858   3.777   0.956   5.885
 9320SOL    HW128859   3.809   1.051   5.890
 9320SOL    HW228860   3.685   0.953   5.847
 9321SOL     OW28861   5.880   0.030   3.402
 9321SOL    HW128862   5.957   7.020   3.457
 9321SOL    HW228863   5.900   0.018   3.305
 9322SOL     OW28864   1.381   4.726   6.833
 9322SOL    HW128865   1.333   4.803   6.876
 9322SOL    HW228866   1.358   4.642   6.882
 9323SOL     OW28867   1.231   0.707   5.282
 9323SOL    HW128868   1.131   0.708   5.286
 9323SOL    HW228869   1.265   0.624   5.327
 9324SOL     OW28870   1.158   4.687   0.379
 9324SOL    HW128871   1.101   4.682   0.297
 9324SOL    HW228872   1.136   4.770   0.430
 9325SOL     OW28873   4.717   1.201   6.630
 9325SOL    HW128874   4.629   1.181   6.673
 9325SOL    HW228875   4.786   1.213   6.701
 9326SOL     OW28876   2.103   6.529   0.653
 9326SOL    HW128877   2.013   6.554   0.687
 9326SOL    HW228878   2.173   6.571   0.710
 9327SOL     OW28879   5.261   6.749   2.897
 9327SOL    HW128880   5.174   6.703   2.876
 9327SOL    HW228881   5.334   6.681   2.901
 9328SOL     OW28882   3.247   0.633   5.722
 9328SOL    HW128883   3.170   0.579   5.756
 9328SOL    HW228884   3.265   0.609   5.627
 9329SOL     OW28885   6.016   4.185   1.835
 9329SOL    HW128886   6.043   4.121   1.764
 9329SOL    HW228887   5.941   4.147   1.889
 9330SOL     OW28888   6.020   6.731   6.824
 9330SOL    HW128889   6.084   6.796   6.865
 9330SOL    HW228890   6.045   6.638   6.852
 9331SOL     OW28891   1.463   1.213   6.494
 9331SOL    HW128892   1.455   1.143   6.565
 9331SOL    HW228893   1.430   1.176   6.407
 9332SOL     OW28894   3.926   4.038   1.799
 9332SOL    HW128895   3.986   4.102   1.752
 9332SOL    HW228896   3.842   4.026   1.746
 9333SOL     OW28897   4.027   3.938   1.406
 9333SOL    HW128898   3.989   3.906   1.319
 9333SOL    HW228899   3.975   3.899   1.482
 9334SOL     OW28900   5.460   5.773   3.782
 9334SOL    HW128901   5.393   5.842   3.809
 9334SOL    HW228902   5.537   5.818   3.736
 9335SOL     OW28903   1.035   1.149   6.315
 9335SOL    HW128904   1.004   1.160   6.220
 9335SOL    HW228905   1.093   1.226   6.340
 9336SOL     OW28906   2.835   4.969   5.282
 9336SOL    HW128907   2.800   4.881   5.252
 9336SOL    HW228908   2.861   4.964   5.379
 9337SOL     OW28909   5.063   1.802   4.221
 9337SOL    HW128910   4.989   1.767   4.165
 9337SOL    HW228911   5.123   1.727   4.249
 9338SOL     OW28912   4.093   0.825   2.113
 9338SOL    HW128913   4.185   0.831   2.152
 9338SOL    HW228914   4.055   0.917   2.104
 9339SOL     OW28915   5.671   0.223   1.344
 9339SOL    HW128916   5.748   0.257   1.291
 9339SOL    HW228917   5.659   0.280   1.425
 9340SOL     OW28918   5.687   3.445   3.971
 9340SOL    HW128919   5.715   3.536   4.001
 9340SOL    HW228920   5.607   3.416   4.023
 9341SOL     OW28921   6.772   5.578   0.685
 9341SOL    HW128922   6.811   5.599   0.595
 9341SOL    HW228923   6.740   5.663   0.727
 9342SOL     OW28924   1.845   0.056   3.430
 9342SOL    HW128925   1.887   6.998   3.472
 9342SOL    HW228926   1.901   0.136   3.449
 9343SOL     OW28927   6.105   3.999   2.417
 9343SOL    HW128928   6.189   4.051   2.401
 9343SOL    HW228929   6.128   3.909   2.454
 9344SOL     OW28930   4.491   6.105   2.317
 9344SOL    HW128931   4.487   6.197   2.278
 9344SOL    HW228932   4.539   6.044   2.255
 9345SOL     OW28933   6.223   4.579   2.218
 9345SOL    HW128934   6.299   4.644   2.221
 9345SOL    HW228935   6.142   4.623   2.181
 9346SOL     OW28936   6.320   0.861   0.901
 9346SOL    HW128937   6.412   0.861   0.863
 9346SOL    HW228938   6.276   0.949   0.882
 9347SOL     OW28939   1.280   3.675   0.654
 9347SOL    HW128940   1.369   3.720   0.664
 9347SOL    HW228941   1.253   3.676   0.558
 9348SOL     OW28942   3.579   5.921   2.298
 9348SOL    HW128943   3.493   5.902   2.345
 9348SOL    HW228944   3.591   5.858   2.222
 9349SOL     OW28945   0.657   6.144   3.428
 9349SOL    HW128946   0.743   6.189   3.404
 9349SOL    HW228947   0.658   6.120   3.525
 9350SOL     OW28948   0.650   3.579   5.331
 9350SOL    HW128949   0.674   3.590   5.428
 9350SOL    HW228950   0.734   3.562   5.278
 9351SOL     OW28951   2.573   0.202   6.434
 9351SOL    HW128952   2.495   0.214   6.372
 9351SOL    HW228953   2.605   0.291   6.465
 9352SOL     OW28954   3.414   2.087   6.921
 9352SOL    HW128955   3.394   2.184   6.929
 9352SOL    HW228956   3.406   2.058   6.826
 9353SOL     OW28957   0.450   4.316   0.487
 9353SOL    HW128958   0.496   4.328   0.400
 9353SOL    HW228959   0.360   4.362   0.484
 9354SOL     OW28960   6.965   1.947   6.444
 9354SOL    HW128961   6.950   1.931   6.541
 9354SOL    HW228962   0.035   1.919   6.419
 9355SOL     OW28963   0.566   2.425   4.387
 9355SOL    HW128964   0.637   2.474   4.337
 9355SOL    HW228965   0.608   2.371   4.460
 9356SOL     OW28966   4.826   0.660   2.216
 9356SOL    HW128967   4.760   0.600   2.171
 9356SOL    HW228968   4.883   0.605   2.278
 9357SOL     OW28969   1.017   3.185   6.127
 9357SOL    HW128970   0.938   3.237   6.097
 9357SOL    HW228971   1.066   3.149   6.047
 9358SOL     OW28972   6.692   4.035   2.068
 9358SOL    HW128973   6.604   4.056   2.024
 9358SOL    HW228974   6.697   4.081   2.157
 9359SOL     OW28975   1.578   4.708   6.645
 9359SOL    HW128976   1.490   4.711   6.692
 9359SOL    HW228977   1.631   4.630   6.678
 9360SOL     OW28978   1.450   5.327   6.275
 9360SOL    HW128979   1.354   5.299   6.271
 9360SOL    HW228980   1.484   5.341   6.182
 9361SOL     OW28981   1.773   4.924   3.683
 9361SOL    HW128982   1.742   4.898   3.592
 9361SOL    HW228983   1.832   4.853   3.720
 9362SOL     OW28984   0.863   1.058   2.712
 9362SOL    HW128985   0.904   1.101   2.632
 9362SOL    HW228986   0.932   1.045   2.782
 9363SOL     OW28987   3.194   5.170   2.078
 9363SOL    HW128988   3.221   5.081   2.116
 9363SOL    HW228989   3.132   5.215   2.142
 9364SOL     OW28990   2.442   2.238   0.277
 9364SOL    HW128991   2.385   2.185   0.340
 9364SOL    HW228992   2.495   2.175   0.219
 9365SOL     OW28993   3.182   1.836   3.354
 9365SOL    HW128994   3.094   1.799   3.384
 9365SOL    HW228995   3.253   1.813   3.420
 9366SOL     OW28996   3.147   5.481   0.207
 9366SOL    HW128997   3.189   5.433   0.131
 9366SOL    HW228998   3.209   5.553   0.240
 9367SOL     OW28999   6.296   6.938   1.657
 9367SOL    HW129000   6.203   6.937   1.621
 9367SOL    HW229001   6.292   6.952   1.756
 9368SOL     OW29002   3.251   0.189   2.499
 9368SOL    HW129003   3.263   0.287   2.512
 9368SOL    HW229004   3.312   0.157   2.426
 9369SOL     OW29005   6.661   6.381   4.208
 9369SOL    HW129006   6.588   6.362   4.142
 9369SOL    HW229007   6.629   6.450   4.274
 9370SOL     OW29008   5.402   6.686   4.497
 9370SOL    HW129009   5.474   6.756   4.499
 9370SOL    HW229010   5.444   6.595   4.504
 9371SOL     OW29011   2.671   5.956   0.841
 9371SOL    HW129012   2.650   5.913   0.929
 9371SOL    HW229013   2.760   6.003   0.848
 9372SOL     OW29014   5.309   0.364   1.535
 9372SOL    HW129015   5.347   0.274   1.555
 9372SOL    HW229016   5.210   0.362   1.547
 9373SOL     OW29017   5.228   2.001   0.303
 9373SOL    HW129018   5.129   2.001   0.317
 9373SOL    HW229019   5.260   2.094   0.291
 9374SOL     OW29020   0.504   3.078   6.313
 9374SOL    HW129021   0.472   3.143   6.244
 9374SOL    HW229022   0.444   3.081   6.393
 9375SOL     OW29023   6.876   1.797   0.861
 9375SOL    HW129024   6.877   1.773   0.764
 9375SOL    HW229025   6.827   1.726   0.912
 9376SOL     OW29026   2.532   3.884   1.710
 9376SOL    HW129027   2.492   3.826   1.639
 9376SOL    HW229028   2.459   3.924   1.765
 9377SOL     OW29029   1.513   5.029   3.284
 9377SOL    HW129030   1.429   5.021   3.338
 9377SOL    HW229031   1.495   5.083   3.202
 9378SOL     OW29032   3.744   1.115   3.671
 9378SOL    HW129033   3.677   1.185   3.693
 9378SOL    HW229034   3.715   1.028   3.711
 9379SOL     OW29035   4.971   6.979   4.627
 9379SOL    HW129036   4.987   0.040   4.574
 9379SOL    HW229037   5.039   6.911   4.602
 9380SOL     OW29038   3.459   5.697   5.599
 9380SOL    HW129039   3.426   5.762   5.531
 9380SOL    HW229040   3.444   5.735   5.691
 9381SOL     OW29041   5.413   2.932   4.982
 9381SOL    HW129042   5.356   2.950   4.901
 9381SOL    HW229043   5.382   2.989   5.058
 9382SOL     OW29044   3.976   1.331   4.006
 9382SOL    HW129045   4.040   1.408   4.014
 9382SOL    HW229046   3.986   1.288   3.917
 9383SOL     OW29047   5.421   4.374   4.405
 9383SOL    HW129048   5.505   4.374   4.350
 9383SOL    HW229049   5.430   4.439   4.480
 9384SOL     OW29050   3.412   0.100   2.313
 9384SOL    HW129051   3.470   0.021   2.328
 9384SOL    HW229052   3.409   0.121   2.215
 9385SOL     OW29053   4.347   1.396   4.373
 9385SOL    HW129054   4.319   1.459   4.301
 9385SOL    HW229055   4.435   1.424   4.410
 9386SOL     OW29056   3.445   5.522   5.126
 9386SOL    HW129057   3.513   5.451   5.111
 9386SOL    HW229058   3.356   5.492   5.090
 9387SOL     OW29059   3.157   1.993   1.044
 9387SOL    HW129060   3.244   1.993   1.094
 9387SOL    HW229061   3.082   1.977   1.107
 9388SOL     OW29062   1.760   6.683   3.292
 9388SOL    HW129063   1.767   6.666   3.194
 9388SOL    HW229064   1.686   6.748   3.309
 9389SOL     OW29065   3.063   6.233   2.956
 9389SOL    HW129066   3.008   6.242   2.873
 9389SOL    HW229067   3.104   6.142   2.959
 9390SOL     OW29068   6.078   5.215   5.908
 9390SOL    HW129069   6.035   5.214   5.817
 9390SOL    HW229070   6.176   5.199   5.899
 9391SOL     OW29071   0.340   0.781   5.249
 9391SOL    HW129072   0.411   0.742   5.189
 9391SOL    HW229073   0.251   0.746   5.221
 9392SOL     OW29074   4.941   4.346   4.103
 9392SOL    HW129075   4.911   4.440   4.084
 9392SOL    HW229076   4.891   4.282   4.044
 9393SOL     OW29077   3.005   6.898   5.488
 9393SOL    HW129078   3.038   6.942   5.571
 9393SOL    HW229079   2.953   6.815   5.512
 9394SOL     OW29080   6.284   0.409   1.280
 9394SOL    HW129081   6.309   0.396   1.184
 9394SOL    HW229082   6.199   0.361   1.299
 9395SOL     OW29083   2.395   1.095   0.679
 9395SOL    HW129084   2.316   1.107   0.618
 9395SOL    HW229085   2.430   1.001   0.671
 9396SOL     OW29086   2.055   4.408   5.205
 9396SOL    HW129087   2.108   4.438   5.284
 9396SOL    HW229088   2.029   4.488   5.150
 9397SOL     OW29089   2.732   6.637   5.477
 9397SOL    HW129090   2.792   6.658   5.554
 9397SOL    HW229091   2.776   6.568   5.419
 9398SOL     OW29092   5.898   1.674   5.676
 9398SOL    HW129093   5.818   1.707   5.626
 9398SOL    HW229094   5.954   1.618   5.615
 9399SOL     OW29095   0.926   2.833   4.047
 9399SOL    HW129096   0.992   2.759   4.030
 9399SOL    HW229097   0.887   2.823   4.138
 9400SOL     OW29098   4.700   0.282   0.451
 9400SOL    HW129099   4.672   0.186   0.445
 9400SOL    HW229100   4.699   0.311   0.547
 9401SOL     OW29101   0.292   2.165   1.864
 9401SOL    HW129102   0.285   2.212   1.952
 9401SOL    HW229103   0.246   2.219   1.794
 9402SOL     OW29104   1.414   4.468   3.249
 9402SOL    HW129105   1.451   4.389   3.201
 9402SOL    HW229106   1.367   4.527   3.184
 9403SOL     OW29107   6.639   1.398   2.147
 9403SOL    HW129108   6.717   1.352   2.190
 9403SOL    HW229109   6.672   1.461   2.077
 9404SOL     OW29110   0.063   2.006   1.363
 9404SOL    HW129111   0.039   1.929   1.303
 9404SOL    HW229112   0.089   2.085   1.307
 9405SOL     OW29113   1.206   4.352   4.598
 9405SOL    HW129114   1.297   4.351   4.637
 9405SOL    HW229115   1.184   4.261   4.562
 9406SOL     OW29116   1.429   3.012   0.036
 9406SOL    HW129117   1.365   3.034   0.109
 9406SOL    HW229118   1.381   2.966   6.984
 9407SOL     OW29119   2.707   5.020   4.249
 9407SOL    HW129120   2.695   4.943   4.312
 9407SOL    HW229121   2.660   5.001   4.163
 9408SOL     OW29122   0.406   2.051   6.240
 9408SOL    HW129123   0.377   2.146   6.236
 9408SOL    HW229124   0.381   2.004   6.156
 9409SOL     OW29125   6.636   5.516   2.362
 9409SOL    HW129126   6.714   5.524   2.300
 9409SOL    HW229127   6.649   5.577   2.441
 9410SOL     OW29128   5.146   1.044   1.877
 9410SOL    HW129129   5.061   0.993   1.875
 9410SOL    HW229130   5.133   1.133   1.833
 9411SOL     OW29131   3.070   3.989   2.669
 9411SOL    HW129132   3.047   3.892   2.677
 9411SOL    HW229133   3.124   4.017   2.748
 9412SOL     OW29134   1.232   0.489   2.191
 9412SOL    HW129135   1.228   0.563   2.123
 9412SOL    HW229136   1.141   0.450   2.203
 9413SOL     OW29137   5.067   4.973   4.777
 9413SOL    HW129138   5.003   4.962   4.702
 9413SOL    HW229139   5.017   4.999   4.860
 9414SOL     OW29140   3.187   1.851   4.459
 9414SOL    HW129141   3.224   1.927   4.511
 9414SOL    HW229142   3.258   1.813   4.399
 9415SOL     OW29143   2.523   0.111   1.792
 9415SOL    HW129144   2.563   0.201   1.775
 9415SOL    HW229145   2.514   0.061   1.706
 9416SOL     OW29146   0.225   1.079   5.192
 9416SOL    HW129147   0.239   1.114   5.099
 9416SOL    HW229148   0.247   0.981   5.194
 9417SOL     OW29149   3.294   6.295   1.746
 9417SOL    HW129150   3.352   6.283   1.826
 9417SOL    HW229151   3.282   6.393   1.728
 9418SOL     OW29152   2.393   1.460   2.692
 9418SOL    HW129153   2.305   1.432   2.728
 9418SOL    HW229154   2.379   1.522   2.615
 9419SOL     OW29155   2.425   3.195   6.726
 9419SOL    HW129156   2.450   3.193   6.823
 9419SOL    HW229157   2.339   3.244   6.716
 9420SOL     OW29158   5.688   4.517   0.312
 9420SOL    HW129159   5.768   4.575   0.293
 9420SOL    HW229160   5.623   4.524   0.236
 9421SOL     OW29161   2.852   5.225   4.361
 9421SOL    HW129162   2.947   5.207   4.336
 9421SOL    HW229163   2.793   5.162   4.311
 9422SOL     OW29164   2.867   5.920   4.015
 9422SOL    HW129165   2.840   6.016   4.023
 9422SOL    HW229166   2.789   5.865   3.985
 9423SOL     OW29167   4.263   6.542   2.582
 9423SOL    HW129168   4.230   6.450   2.562
 9423SOL    HW229169   4.331   6.537   2.655
 9424SOL     OW29170   5.204   1.438   4.518
 9424SOL    HW129171   5.194   1.482   4.607
 9424SOL    HW229172   5.151   1.353   4.517
 9425SOL     OW29173   5.553   5.226   1.446
 9425SOL    HW129174   5.546   5.176   1.360
 9425SOL    HW229175   5.574   5.322   1.428
 9426SOL     OW29176   2.102   1.415   5.953
 9426SOL    HW129177   2.133   1.502   5.913
 9426SOL    HW229178   2.014   1.390   5.912
 9427SOL     OW29179   2.283   6.159   2.921
 9427SOL    HW129180   2.311   6.115   3.006
 9427SOL    HW229181   2.288   6.094   2.846
 9428SOL     OW29182   6.322   6.991   0.116
 9428SOL    HW129183   6.287   6.898   0.126
 9428SOL    HW229184   6.291   0.024   0.193
 9429SOL     OW29185   1.334   2.302   3.834
 9429SOL    HW129186   1.254   2.298   3.775
 9429SOL    HW229187   1.311   2.351   3.918
 9430SOL     OW29188   0.616   2.675   4.038
 9430SOL    HW129189   0.673   2.603   4.078
 9430SOL    HW229190   0.614   2.664   3.939
 9431SOL     OW29191   6.405   4.540   0.987
 9431SOL    HW129192   6.491   4.585   1.013
 9431SOL    HW229193   6.390   4.550   0.889
 9432SOL     OW29194   6.706   1.742   4.328
 9432SOL    HW129195   6.800   1.726   4.295
 9432SOL    HW229196   6.646   1.756   4.250
 9433SOL     OW29197   3.840   5.766   3.465
 9433SOL    HW129198   3.763   5.827   3.484
 9433SOL    HW229199   3.867   5.719   3.549
 9434SOL     OW29200   5.530   5.224   3.494
 9434SOL    HW129201   5.526   5.253   3.589
 9434SOL    HW229202   5.437   5.215   3.458
 9435SOL     OW29203   0.178   2.002   2.356
 9435SOL    HW129204   0.278   2.008   2.355
 9435SOL    HW229205   0.150   1.908   2.374
 9436SOL     OW29206   1.184   1.093   2.323
 9436SOL    HW129207   1.164   1.161   2.253
 9436SOL    HW229208   1.278   1.062   2.314
 9437SOL     OW29209   1.053   5.194   3.650
 9437SOL    HW129210   1.018   5.183   3.743
 9437SOL    HW229211   0.994   5.256   3.599
 9438SOL     OW29212   0.786   7.012   2.106
 9438SOL    HW129213   0.786   7.008   2.206
 9438SOL    HW229214   0.750   0.077   2.076
 9439SOL     OW29215   0.359   3.053   0.866
 9439SOL    HW129216   0.444   3.012   0.831
 9439SOL    HW229217   0.329   3.126   0.805
 9440SOL     OW29218   2.573   4.834   3.241
 9440SOL    HW129219   2.566   4.921   3.289
 9440SOL    HW229220   2.571   4.759   3.306
 9441SOL     OW29221   6.595   5.862   5.612
 9441SOL    HW129222   6.539   5.781   5.596
 9441SOL    HW229223   6.549   5.942   5.573
 9442SOL     OW29224   4.493   3.398   1.449
 9442SOL    HW129225   4.519   3.320   1.506
 9442SOL    HW229226   4.420   3.450   1.495
 9443SOL     OW29227   2.623   5.864   1.434
 9443SOL    HW129228   2.715   5.845   1.468
 9443SOL    HW229229   2.567   5.781   1.441
 9444SOL     OW29230   1.849   3.854   0.590
 9444SOL    HW129231   1.777   3.918   0.565
 9444SOL    HW229232   1.896   3.886   0.672
 9445SOL     OW29233   6.549   2.287   3.548
 9445SOL    HW129234   6.643   2.315   3.531
 9445SOL    HW229235   6.489   2.323   3.476
 9446SOL     OW29236   0.034   4.840   4.148
 9446SOL    HW129237   7.016   4.924   4.110
 9446SOL    HW229238   6.986   4.789   4.198
 9447SOL     OW29239   4.964   4.928   2.932
 9447SOL    HW129240   4.966   4.853   2.998
 9447SOL    HW229241   4.877   4.926   2.882
 9448SOL     OW29242   6.113   6.990   6.001
 9448SOL    HW129243   6.166   6.988   6.086
 9448SOL    HW229244   6.024   0.009   6.018
 9449SOL     OW29245   5.343   6.692   0.580
 9449SOL    HW129246   5.375   6.773   0.531
 9449SOL    HW229247   5.349   6.612   0.520
 9450SOL     OW29248   1.636   5.351   4.007
 9450SOL    HW129249   1.663   5.257   4.022
 9450SOL    HW229250   1.607   5.363   3.911
 9451SOL     OW29251   4.145   5.995   5.927
 9451SOL    HW129252   4.077   5.948   5.871
 9451SOL    HW229253   4.158   6.088   5.893
 9452SOL     OW29254   0.448   3.682   0.313
 9452SOL    HW129255   0.534   3.717   0.350
 9452SOL    HW229256   0.433   3.721   0.222
 9453SOL     OW29257   2.240   4.707   3.163
 9453SOL    HW129258   2.195   4.701   3.074
 9453SOL    HW229259   2.336   4.732   3.150
 9454SOL     OW29260   4.330   3.585   0.131
 9454SOL    HW129261   4.241   3.540   0.135
 9454SOL    HW229262   4.377   3.576   0.219
 9455SOL     OW29263   2.555   1.725   2.131
 9455SOL    HW129264   2.513   1.815   2.146
 9455SOL    HW229265   2.635   1.735   2.072
 9456SOL     OW29266   6.166   4.271   2.034
 9456SOL    HW129267   6.118   4.281   2.121
 9456SOL    HW229268   6.102   4.240   1.964
 9457SOL     OW29269   0.734   4.772   4.496
 9457SOL    HW129270   0.810   4.825   4.534
 9457SOL    HW229271   0.735   4.781   4.396
 9458SOL     OW29272   0.107   3.944   0.429
 9458SOL    HW129273   0.128   4.035   0.465
 9458SOL    HW229274   0.102   3.948   0.329
 9459SOL     OW29275   5.413   4.225   3.846
 9459SOL    HW129276   5.446   4.268   3.930
 9459SOL    HW229277   5.315   4.206   3.854
 9460SOL     OW29278   2.008   3.040   4.610
 9460SOL    HW129279   2.089   2.982   4.603
 9460SOL    HW229280   2.029   3.120   4.666
 9461SOL     OW29281   1.045   1.282   0.947
 9461SOL    HW129282   0.947   1.304   0.945
 9461SOL    HW229283   1.077   1.264   0.854
 9462SOL     OW29284   1.647   2.786   3.612
 9462SOL    HW129285   1.639   2.688   3.597
 9462SOL    HW229286   1.743   2.809   3.628
 9463SOL     OW29287   5.355   6.907   1.330
 9463SOL    HW129288   5.342   6.842   1.406
 9463SOL    HW229289   5.385   6.857   1.249
 9464SOL     OW29290   5.970   0.532   1.470
 9464SOL    HW129291   5.974   0.566   1.376
 9464SOL    HW229292   5.951   0.609   1.532
 9465SOL     OW29293   0.304   3.964   1.579
 9465SOL    HW129294   0.284   4.040   1.641
 9465SOL    HW229295   0.237   3.963   1.505
 9466SOL     OW29296   4.162   5.132   6.285
 9466SOL    HW129297   4.156   5.152   6.187
 9466SOL    HW229298   4.155   5.217   6.337
 9467SOL     OW29299   1.698   2.664   0.881
 9467SOL    HW129300   1.778   2.671   0.940
 9467SOL    HW229301   1.723   2.684   0.786
 9468SOL     OW29302   6.640   3.406   6.395
 9468SOL    HW129303   6.580   3.337   6.353
 9468SOL    HW229304   6.725   3.412   6.343
 9469SOL     OW29305   7.008   6.333   0.590
 9469SOL    HW129306   6.917   6.372   0.603
 9469SOL    HW229307   0.052   6.407   0.581
 9470SOL     OW29308   4.648   3.754   6.582
 9470SOL    HW129309   4.601   3.771   6.669
 9470SOL    HW229310   4.580   3.750   6.508
 9471SOL     OW29311   5.597   2.151   5.653
 9471SOL    HW129312   5.645   2.211   5.589
 9471SOL    HW229313   5.499   2.158   5.638
 9472SOL     OW29314   1.099   4.437   6.235
 9472SOL    HW129315   1.122   4.461   6.141
 9472SOL    HW229316   1.156   4.490   6.298
 9473SOL     OW29317   3.009   3.580   6.725
 9473SOL    HW129318   2.957   3.586   6.640
 9473SOL    HW229319   3.068   3.661   6.735
 9474SOL     OW29320   5.895   3.153   1.641
 9474SOL    HW129321   5.953   3.195   1.711
 9474SOL    HW229322   5.800   3.153   1.672
 9475SOL     OW29323   4.604   3.283   6.945
 9475SOL    HW129324   4.703   3.270   6.951
 9475SOL    HW229325   4.581   3.325   6.857
 9476SOL     OW29326   3.499   4.149   5.507
 9476SOL    HW129327   3.472   4.225   5.565
 9476SOL    HW229328   3.441   4.070   5.526
 9477SOL     OW29329   1.691   3.167   1.027
 9477SOL    HW129330   1.601   3.185   1.066
 9477SOL    HW229331   1.715   3.071   1.041
 9478SOL     OW29332   4.478   2.973   1.179
 9478SOL    HW129333   4.388   2.941   1.149
 9478SOL    HW229334   4.475   2.991   1.277
 9479SOL     OW29335   3.936   0.109   1.383
 9479SOL    HW129336   3.901   0.166   1.457
 9479SOL    HW229337   3.922   0.156   1.296
 9480SOL     OW29338   6.174   5.126   0.277
 9480SOL    HW129339   6.090   5.157   0.232
 9480SOL    HW229340   6.163   5.133   0.376
 9481SOL     OW29341   4.964   2.201   3.113
 9481SOL    HW129342   5.017   2.286   3.107
 9481SOL    HW229343   5.024   2.127   3.143
 9482SOL     OW29344   6.396   6.971   2.086
 9482SOL    HW129345   6.397   6.946   2.183
 9482SOL    HW229346   6.438   6.898   2.032
 9483SOL     OW29347   1.726   0.962   6.540
 9483SOL    HW129348   1.717   0.941   6.638
 9483SOL    HW229349   1.638   0.952   6.495
 9484SOL     OW29350   2.495   0.430   4.565
 9484SOL    HW129351   2.400   0.400   4.570
 9484SOL    HW229352   2.547   0.391   4.641
 9485SOL     OW29353   6.024   1.792   1.145
 9485SOL    HW129354   6.099   1.856   1.127
 9485SOL    HW229355   6.062   1.704   1.173
 9486SOL     OW29356   5.087   5.702   0.979
 9486SOL    HW129357   5.055   5.743   0.893
 9486SOL    HW229358   5.054   5.758   1.056
 9487SOL     OW29359   3.061   4.021   4.430
 9487SOL    HW129360   3.067   4.111   4.387
 9487SOL    HW229361   3.140   4.007   4.489
 9488SOL     OW29362   2.341   0.319   0.978
 9488SOL    HW129363   2.384   0.405   0.950
 9488SOL    HW229364   2.248   0.314   0.943
 9489SOL     OW29365   5.151   4.294   1.147
 9489SOL    HW129366   5.111   4.329   1.062
 9489SOL    HW229367   5.224   4.229   1.125
 9490SOL     OW29368   7.001   6.056   3.332
 9490SOL    HW129369   6.910   6.020   3.313
 9490SOL    HW229370   7.001   6.155   3.319
 9491SOL     OW29371   5.968   5.486   4.149
 9491SOL    HW129372   5.955   5.565   4.089
 9491SOL    HW229373   5.887   5.429   4.147
 9492SOL     OW29374   4.555   3.380   5.795
 9492SOL    HW129375   4.617   3.432   5.736
 9492SOL    HW229376   4.463   3.383   5.757
 9493SOL     OW29377   3.325   5.744   3.877
 9493SOL    HW129378   3.265   5.810   3.923
 9493SOL    HW229379   3.273   5.663   3.852
 9494SOL     OW29380   5.846   2.962   2.459
 9494SOL    HW129381   5.867   3.034   2.525
 9494SOL    HW229382   5.929   2.910   2.439
 9495SOL     OW29383   6.646   1.368   2.521
 9495SOL    HW129384   6.643   1.429   2.599
 9495SOL    HW229385   6.741   1.338   2.505
 9496SOL     OW29386   4.706   2.212   2.025
 9496SOL    HW129387   4.746   2.242   1.939
 9496SOL    HW229388   4.622   2.265   2.043
 9497SOL     OW29389   5.663   6.189   5.758
 9497SOL    HW129390   5.601   6.115   5.786
 9497SOL    HW229391   5.621   6.277   5.780
 9498SOL     OW29392   6.776   4.560   5.338
 9498SOL    HW129393   6.842   4.485   5.348
 9498SOL    HW229394   6.760   4.578   5.241
 9499SOL     OW29395   0.274   6.040   5.067
 9499SOL    HW129396   0.296   5.950   5.104
 9499SOL    HW229397   0.198   6.032   5.002
 9500SOL     OW29398   3.644   6.413   0.963
 9500SOL    HW129399   3.611   6.388   0.872
 9500SOL    HW229400   3.606   6.502   0.989
 9501SOL     OW29401   1.533   1.606   4.366
 9501SOL    HW129402   1.484   1.568   4.445
 9501SOL    HW229403   1.468   1.655   4.308
 9502SOL     OW29404   6.017   3.794   4.103
 9502SOL    HW129405   6.058   3.884   4.094
 9502SOL    HW229406   6.082   3.724   4.073
 9503SOL     OW29407   6.991   2.182   0.701
 9503SOL    HW129408   0.038   2.254   0.706
 9503SOL    HW229409   6.999   2.122   0.781
 9504SOL     OW29410   6.610   3.918   1.690
 9504SOL    HW129411   6.590   3.847   1.622
 9504SOL    HW229412   6.524   3.956   1.725
 9505SOL     OW29413   5.169   4.659   5.497
 9505SOL    HW129414   5.221   4.646   5.581
 9505SOL    HW229415   5.167   4.573   5.445
 9506SOL     OW29416   2.230   2.284   0.610
 9506SOL    HW129417   2.214   2.188   0.586
 9506SOL    HW229418   2.326   2.306   0.595
 9507SOL     OW29419   6.556   0.509   1.056
 9507SOL    HW129420   6.651   0.512   1.086
 9507SOL    HW229421   6.524   0.414   1.055
 9508SOL     OW29422   5.834   2.142   2.480
 9508SOL    HW129423   5.780   2.189   2.549
 9508SOL    HW229424   5.929   2.173   2.484
 9509SOL     OW29425   6.809   0.060   3.597
 9509SOL    HW129426   6.857   0.063   3.685
 9509SOL    HW229427   6.713   0.040   3.612
 9510SOL     OW29428   0.978   3.561   3.435
 9510SOL    HW129429   0.978   3.599   3.527
 9510SOL    HW229430   0.966   3.635   3.368
 9511SOL     OW29431   1.077   1.236   1.392
 9511SOL    HW129432   1.065   1.188   1.306
 9511SOL    HW229433   1.112   1.172   1.461
 9512SOL     OW29434   6.607   2.304   1.446
 9512SOL    HW129435   6.565   2.214   1.445
 9512SOL    HW229436   6.546   2.370   1.403
 9513SOL     OW29437   3.010   4.744   6.111
 9513SOL    HW129438   3.028   4.736   6.013
 9513SOL    HW229439   2.956   4.827   6.128
 9514SOL     OW29440   3.158   4.323   6.921
 9514SOL    HW129441   3.173   4.403   6.979
 9514SOL    HW229442   3.063   4.295   6.929
 9515SOL     OW29443   2.133   5.528   3.164
 9515SOL    HW129444   2.201   5.600   3.157
 9515SOL    HW229445   2.141   5.466   3.086
 9516SOL     OW29446   5.544   4.211   0.629
 9516SOL    HW129447   5.501   4.259   0.552
 9516SOL    HW229448   5.614   4.149   0.595
 9517SOL     OW29449   1.453   4.061   1.038
 9517SOL    HW129450   1.380   4.128   1.030
 9517SOL    HW229451   1.496   4.046   0.949
 9518SOL     OW29452   2.536   1.683   0.223
 9518SOL    HW129453   2.546   1.641   0.313
 9518SOL    HW229454   2.626   1.696   0.182
 9519SOL     OW29455   2.452   2.510   5.823
 9519SOL    HW129456   2.361   2.512   5.864
 9519SOL    HW229457   2.472   2.599   5.782
 9520SOL     OW29458   3.078   0.270   2.713
 9520SOL    HW129459   3.128   0.246   2.630
 9520SOL    HW229460   3.036   0.360   2.702
 9521SOL     OW29461   5.468   5.292   3.060
 9521SOL    HW129462   5.482   5.305   2.962
 9521SOL    HW229463   5.447   5.380   3.103
 9522SOL     OW29464   3.794   5.707   0.978
 9522SOL    HW129465   3.734   5.631   1.003
 9522SOL    HW229466   3.882   5.696   1.024
 9523SOL     OW29467   3.326   4.931   4.192
 9523SOL    HW129468   3.425   4.929   4.196
 9523SOL    HW229469   3.294   5.025   4.184
 9524SOL     OW29470   4.258   2.807   1.660
 9524SOL    HW129471   4.164   2.816   1.693
 9524SOL    HW229472   4.261   2.827   1.562
 9525SOL     OW29473   2.365   1.835   6.073
 9525SOL    HW129474   2.309   1.803   5.996
 9525SOL    HW229475   2.370   1.934   6.071
 9526SOL     OW29476   5.994   5.363   2.619
 9526SOL    HW129477   5.938   5.369   2.702
 9526SOL    HW229478   6.039   5.451   2.603
 9527SOL     OW29479   1.137   1.062   1.621
 9527SOL    HW129480   1.136   1.010   1.706
 9527SOL    HW229481   1.211   1.027   1.562
 9528SOL     OW29482   6.696   0.650   0.649
 9528SOL    HW129483   6.737   0.730   0.692
 9528SOL    HW229484   6.736   0.567   0.688
 9529SOL     OW29485   0.941   2.835   5.472
 9529SOL    HW129486   0.992   2.918   5.493
 9529SOL    HW229487   0.855   2.859   5.427
 9530SOL     OW29488   1.723   3.045   3.069
 9530SOL    HW129489   1.818   3.076   3.078
 9530SOL    HW229490   1.672   3.069   3.152
 9531SOL     OW29491   4.180   5.942   3.057
 9531SOL    HW129492   4.255   5.964   3.120
 9531SOL    HW229493   4.198   5.984   2.968
 9532SOL     OW29494   1.168   5.640   1.634
 9532SOL    HW129495   1.156   5.543   1.613
 9532SOL    HW229496   1.264   5.665   1.624
 9533SOL     OW29497   0.127   1.225   5.553
 9533SOL    HW129498   0.053   1.291   5.544
 9533SOL    HW229499   0.190   1.235   5.476
 9534SOL     OW29500   5.009   3.294   5.405
 9534SOL    HW129501   4.998   3.195   5.391
 9534SOL    HW229502   5.008   3.341   5.317
 9535SOL     OW29503   2.380   0.978   5.827
 9535SOL    HW129504   2.335   0.967   5.915
 9535SOL    HW229505   2.391   0.888   5.784
 9536SOL     OW29506   2.406   5.848   5.360
 9536SOL    HW129507   2.401   5.914   5.285
 9536SOL    HW229508   2.495   5.804   5.360
 9537SOL     OW29509   3.102   0.861   2.646
 9537SOL    HW129510   3.195   0.882   2.675
 9537SOL    HW229511   3.045   0.943   2.652
 9538SOL     OW29512   6.764   1.077   4.147
 9538SOL    HW129513   6.730   1.138   4.075
 9538SOL    HW229514   6.864   1.076   4.144
 9539SOL     OW29515   2.311   4.511   6.327
 9539SOL    HW129516   2.331   4.586   6.391
 9539SOL    HW229517   2.342   4.425   6.366
 9540SOL     OW29518   4.591   4.433   5.316
 9540SOL    HW129519   4.655   4.462   5.387
 9540SOL    HW229520   4.532   4.361   5.352
 9541SOL     OW29521   1.870   2.014   5.208
 9541SOL    HW129522   1.827   2.051   5.291
 9541SOL    HW229523   1.945   1.954   5.234
 9542SOL     OW29524   4.961   3.425   5.140
 9542SOL    HW129525   4.911   3.495   5.089
 9542SOL    HW229526   4.921   3.335   5.121
 9543SOL     OW29527   4.587   0.298   5.006
 9543SOL    HW129528   4.558   0.327   4.914
 9543SOL    HW229529   4.511   0.312   5.070
 9544SOL     OW29530   5.810   0.482   2.026
 9544SOL    HW129531   5.848   0.422   2.096
 9544SOL    HW229532   5.740   0.433   1.975
 9545SOL     OW29533   6.562   6.162   2.926
 9545SOL    HW129534   6.517   6.216   2.997
 9545SOL    HW229535   6.644   6.119   2.964
 9546SOL     OW29536   3.065   3.916   6.714
 9546SOL    HW129537   2.976   3.882   6.743
 9546SOL    HW229538   3.136   3.877   6.774
 9547SOL     OW29539   2.384   6.545   3.959
 9547SOL    HW129540   2.316   6.580   4.023
 9547SOL    HW229541   2.349   6.461   3.917
 9548SOL     OW29542   6.410   5.290   4.788
 9548SOL    HW129543   6.382   5.239   4.706
 9548SOL    HW229544   6.476   5.235   4.840
 9549SOL     OW29545   3.404   5.295   1.251
 9549SOL    HW129546   3.342   5.322   1.325
 9549SOL    HW229547   3.351   5.279   1.167
 9550SOL     OW29548   0.110   1.600   6.775
 9550SOL    HW129549   0.086   1.504   6.791
 9550SOL    HW229550   0.209   1.612   6.783
 9551SOL     OW29551   0.282   7.016   4.596
 9551SOL    HW129552   0.343   7.009   4.675
 9551SOL    HW229553   0.219   6.939   4.595
 9552SOL     OW29554   1.763   6.479   2.917
 9552SOL    HW129555   1.737   6.436   3.003
 9552SOL    HW229556   1.705   6.444   2.843
 9553SOL     OW29557   6.335   5.233   6.947
 9553SOL    HW129558   6.316   5.298   7.021
 9553SOL    HW229559   6.251   5.212   6.898
 9554SOL     OW29560   3.003   0.971   1.543
 9554SOL    HW129561   3.007   1.019   1.630
 9554SOL    HW229562   3.093   0.930   1.523
 9555SOL     OW29563   6.429   2.635   1.398
 9555SOL    HW129564   6.387   2.554   1.356
 9555SOL    HW229565   6.474   2.609   1.483
 9556SOL     OW29566   2.773   1.416   1.490
 9556SOL    HW129567   2.682   1.426   1.531
 9556SOL    HW229568   2.789   1.320   1.466
 9557SOL     OW29569   6.166   0.167   2.776
 9557SOL    HW129570   6.067   0.163   2.766
 9557SOL    HW229571   6.210   0.118   2.702
 9558SOL     OW29572   0.112   5.351   2.972
 9558SOL    HW129573   0.061   5.272   3.004
 9558SOL    HW229574   0.187   5.320   2.913
 9559SOL     OW29575   0.485   4.183   2.226
 9559SOL    HW129576   0.524   4.113   2.167
 9559SOL    HW229577   0.557   4.219   2.286
 9560SOL     OW29578   2.500   1.260   2.457
 9560SOL    HW129579   2.538   1.343   2.416
 9560SOL    HW229580   2.533   1.180   2.408
 9561SOL     OW29581   2.667   6.361   0.557
 9561SOL    HW129582   2.729   6.430   0.594
 9561SOL    HW229583   2.592   6.347   0.621
 9562SOL     OW29584   3.680   5.332   4.197
 9562SOL    HW129585   3.768   5.287   4.210
 9562SOL    HW229586   3.636   5.348   4.286
 9563SOL     OW29587   6.477   6.679   6.978
 9563SOL    HW129588   6.454   6.619   6.902
 9563SOL    HW229589   6.529   6.628   0.024
 9564SOL     OW29590   2.609   6.793   6.573
 9564SOL    HW129591   2.623   6.891   6.587
 9564SOL    HW229592   2.672   6.742   6.632
 9565SOL     OW29593   4.233   5.927   4.613
 9565SOL    HW129594   4.284   5.856   4.661
 9565SOL    HW229595   4.206   5.894   4.522
 9566SOL     OW29596   3.722   4.594   6.469
 9566SOL    HW129597   3.748   4.655   6.544
 9566SOL    HW229598   3.716   4.500   6.503
 9567SOL     OW29599   6.451   5.779   6.521
 9567SOL    HW129600   6.517   5.772   6.596
 9567SOL    HW229601   6.396   5.695   6.518
 9568SOL     OW29602   4.984   3.714   5.995
 9568SOL    HW129603   5.042   3.780   5.946
 9568SOL    HW229604   4.895   3.709   5.950
 9569SOL     OW29605   6.593   1.101   0.274
 9569SOL    HW129606   6.552   1.192   0.280
 9569SOL    HW229607   6.657   1.089   0.350
 9570SOL     OW29608   0.200   1.512   1.187
 9570SOL    HW129609   0.243   1.444   1.129
 9570SOL    HW229610   0.203   1.482   1.282
 9571SOL     OW29611   2.795   3.869   0.004
 9571SOL    HW129612   2.799   3.966   0.029
 9571SOL    HW229613   2.805   3.860   6.928
 9572SOL     OW29614   1.095   4.310   1.300
 9572SOL    HW129615   1.101   4.383   1.368
 9572SOL    HW229616   0.998   4.292   1.279
 9573SOL     OW29617   0.768   1.136   6.358
 9573SOL    HW129618   0.716   1.219   6.378
 9573SOL    HW229619   0.866   1.157   6.362
 9574SOL     OW29620   3.467   3.614   6.113
 9574SOL    HW129621   3.468   3.642   6.017
 9574SOL    HW229622   3.474   3.514   6.119
 9575SOL     OW29623   5.979   0.826   1.553
 9575SOL    HW129624   6.017   0.819   1.460
 9575SOL    HW229625   6.035   0.888   1.607
 9576SOL     OW29626   3.679   1.436   3.967
 9576SOL    HW129627   3.776   1.413   3.976
 9576SOL    HW229628   3.649   1.420   3.873
 9577SOL     OW29629   0.733   0.269   2.449
 9577SOL    HW129630   0.810   0.327   2.478
 9577SOL    HW229631   0.674   0.322   2.387
 9578SOL     OW29632   6.103   2.879   2.216
 9578SOL    HW129633   6.107   2.967   2.264
 9578SOL    HW229634   6.045   2.816   2.267
 9579SOL     OW29635   1.181   0.047   1.963
 9579SOL    HW129636   1.263   7.013   1.977
 9579SOL    HW229637   1.155   0.089   2.050
 9580SOL     OW29638   4.798   3.724   0.060
 9580SOL    HW129639   4.715   3.669   0.050
 9580SOL    HW229640   4.868   3.690   7.019
 9581SOL     OW29641   1.769   5.382   6.071
 9581SOL    HW129642   1.826   5.434   6.008
 9581SOL    HW229643   1.827   5.333   6.136
 9582SOL     OW29644   4.455   4.629   4.139
 9582SOL    HW129645   4.433   4.654   4.234
 9582SOL    HW229646   4.477   4.532   4.135
 9583SOL     OW29647   2.281   3.661   1.696
 9583SOL    HW129648   2.282   3.620   1.787
 9583SOL    HW229649   2.299   3.591   1.627
 9584SOL     OW29650   6.425   4.991   6.621
 9584SOL    HW129651   6.472   5.040   6.547
 9584SOL    HW229652   6.446   4.894   6.616
 9585SOL     OW29653   5.509   7.015   2.657
 9585SOL    HW129654   5.549   0.064   2.714
 9585SOL    HW229655   5.412   7.003   2.681
 9586SOL     OW29656   5.235   3.635   3.685
 9586SOL    HW129657   5.241   3.550   3.632
 9586SOL    HW229658   5.285   3.624   3.771
 9587SOL     OW29659   5.687   0.473   1.600
 9587SOL    HW129660   5.629   0.532   1.544
 9587SOL    HW229661   5.782   0.502   1.592
 9588SOL     OW29662   7.020   0.305   1.492
 9588SOL    HW129663   0.052   0.282   1.572
 9588SOL    HW229664   6.988   0.400   1.499
 9589SOL     OW29665   2.291   6.458   5.667
 9589SOL    HW129666   2.358   6.402   5.715
 9589SOL    HW229667   2.325   6.552   5.660
 9590SOL     OW29668   0.580   3.912   2.967
 9590SOL    HW129669   0.581   4.004   3.006
 9590SOL    HW229670   0.613   3.847   3.036
 9591SOL     OW29671   2.497   6.405   1.185
 9591SOL    HW129672   2.469   6.336   1.118
 9591SOL    HW229673   2.461   6.494   1.157
 9592SOL     OW29674   4.352   5.703   2.870
 9592SOL    HW129675   4.379   5.705   2.966
 9592SOL    HW229676   4.396   5.625   2.824
 9593SOL     OW29677   5.882   2.567   4.533
 9593SOL    HW129678   5.792   2.543   4.499
 9593SOL    HW229679   5.897   2.524   4.622
 9594SOL     OW29680   6.352   6.323   2.719
 9594SOL    HW129681   6.446   6.301   2.694
 9594SOL    HW229682   6.349   6.414   2.761
 9595SOL     OW29683   1.190   5.633   4.308
 9595SOL    HW129684   1.127   5.616   4.384
 9595SOL    HW229685   1.269   5.571   4.316
 9596SOL     OW29686   6.599   6.274   5.436
 9596SOL    HW129687   6.540   6.308   5.364
 9596SOL    HW229688   6.552   6.203   5.488
 9597SOL     OW29689   0.556   4.298   1.630
 9597SOL    HW129690   0.630   4.325   1.692
 9597SOL    HW229691   0.581   4.211   1.586
 9598SOL     OW29692   0.371   4.591   6.227
 9598SOL    HW129693   0.398   4.494   6.220
 9598SOL    HW229694   0.430   4.646   6.168
 9599SOL     OW29695   3.400   0.300   5.709
 9599SOL    HW129696   3.307   0.297   5.675
 9599SOL    HW229697   3.459   0.344   5.642
 9600SOL     OW29698   1.557   0.502   5.965
 9600SOL    HW129699   1.542   0.565   5.889
 9600SOL    HW229700   1.531   0.409   5.937
 9601SOL     OW29701   0.462   4.879   6.337
 9601SOL    HW129702   0.546   4.825   6.331
 9601SOL    HW229703   0.460   4.928   6.424
 9602SOL     OW29704   0.214   5.205   6.350
 9602SOL    HW129705   0.274   5.199   6.271
 9602SOL    HW229706   0.269   5.224   6.432
 9603SOL     OW29707   2.537   6.238   3.948
 9603SOL    HW129708   2.448   6.266   3.909
 9603SOL    HW229709   2.530   6.235   4.047
 9604SOL     OW29710   4.858   1.140   6.856
 9604SOL    HW129711   4.946   1.092   6.859
 9604SOL    HW229712   4.825   1.154   6.949
 9605SOL     OW29713   2.303   5.718   5.603
 9605SOL    HW129714   2.331   5.747   5.511
 9605SOL    HW229715   2.307   5.796   5.665
 9606SOL     OW29716   0.511   6.405   3.445
 9606SOL    HW129717   0.543   6.310   3.439
 9606SOL    HW229718   0.588   6.466   3.460
 9607SOL     OW29719   0.619   1.023   2.206
 9607SOL    HW129720   0.683   1.100   2.213
 9607SOL    HW229721   0.564   1.033   2.123
 9608SOL     OW29722   6.566   6.925   2.535
 9608SOL    HW129723   6.576   6.829   2.507
 9608SOL    HW229724   6.606   6.984   2.465
 9609SOL     OW29725   2.313   4.362   4.821
 9609SOL    HW129726   2.243   4.292   4.809
 9609SOL    HW229727   2.314   4.394   4.915
 9610SOL     OW29728   2.021   1.721   5.966
 9610SOL    HW129729   1.987   1.809   6.000
 9610SOL    HW229730   1.950   1.652   5.975
 9611SOL     OW29731   6.822   0.524   1.168
 9611SOL    HW129732   6.774   0.554   1.250
 9611SOL    HW229733   6.872   0.601   1.128
 9612SOL     OW29734   5.683   3.181   0.895
 9612SOL    HW129735   5.779   3.155   0.886
 9612SOL    HW229736   5.660   3.185   0.992
 9613SOL     OW29737   6.044   6.784   5.122
 9613SOL    HW129738   6.100   6.715   5.075
 9613SOL    HW229739   6.103   6.850   5.168
 9614SOL     OW29740   3.431   3.918   2.296
 9614SOL    HW129741   3.463   3.953   2.208
 9614SOL    HW229742   3.336   3.946   2.311
 9615SOL     OW29743   1.500   5.868   2.681
 9615SOL    HW129744   1.526   5.854   2.585
 9615SOL    HW229745   1.540   5.954   2.714
 9616SOL     OW29746   3.506   2.158   0.896
 9616SOL    HW129747   3.559   2.074   0.910
 9616SOL    HW229748   3.472   2.190   0.985
 9617SOL     OW29749   1.382   2.850   3.265
 9617SOL    HW129750   1.350   2.902   3.344
 9617SOL    HW229751   1.305   2.806   3.220
 9618SOL     OW29752   3.631   6.657   6.415
 9618SOL    HW129753   3.624   6.752   6.385
 9618SOL    HW229754   3.723   6.623   6.396
 9619SOL     OW29755   1.892   6.121   0.376
 9619SOL    HW129756   1.964   6.145   0.441
 9619SOL    HW229757   1.804   6.118   0.423
 9620SOL     OW29758   3.079   0.627   6.996
 9620SOL    HW129759   3.093   0.601   6.900
 9620SOL    HW229760   3.167   0.629   0.020
 9621SOL     OW29761   0.262   0.744   2.666
 9621SOL    HW129762   0.247   0.835   2.628
 9621SOL    HW229763   0.176   0.693   2.668
 9622SOL     OW29764   6.056   0.714   7.019
 9622SOL    HW129765   6.065   0.794   6.960
 9622SOL    HW229766   6.052   0.631   6.964
 9623SOL     OW29767   5.296   5.524   6.662
 9623SOL    HW129768   5.257   5.443   6.706
 9623SOL    HW229769   5.308   5.507   6.564
 9624SOL     OW29770   4.976   5.607   5.075
 9624SOL    HW129771   4.932   5.604   4.985
 9624SOL    HW229772   4.911   5.576   5.145
 9625SOL     OW29773   5.304   4.786   6.961
 9625SOL    HW129774   5.292   4.788   0.037
 9625SOL    HW229775   5.264   4.703   6.923
 9626SOL     OW29776   1.726   4.616   5.398
 9626SOL    HW129777   1.651   4.623   5.464
 9626SOL    HW229778   1.773   4.529   5.410
 9627SOL     OW29779   2.037   4.917   5.918
 9627SOL    HW129780   2.118   4.860   5.922
 9627SOL    HW229781   2.062   5.012   5.937
 9628SOL     OW29782   5.733   4.296   6.599
 9628SOL    HW129783   5.816   4.243   6.620
 9628SOL    HW229784   5.740   4.387   6.639
 9629SOL     OW29785   6.865   5.946   2.589
 9629SOL    HW129786   6.795   5.956   2.660
 9629SOL    HW229787   6.876   6.033   2.541
 9630SOL     OW29788   6.407   6.512   5.521
 9630SOL    HW129789   6.380   6.597   5.567
 9630SOL    HW229790   6.475   6.533   5.451
 9631SOL     OW29791   4.454   1.060   0.966
 9631SOL    HW129792   4.436   0.970   1.005
 9631SOL    HW229793   4.455   1.129   1.039
 9632SOL     OW29794   2.482   5.080   1.759
 9632SOL    HW129795   2.533   5.123   1.833
 9632SOL    HW229796   2.475   4.982   1.775
 9633SOL     OW29797   3.977   3.109   2.120
 9633SOL    HW129798   3.896   3.151   2.161
 9633SOL    HW229799   4.045   3.180   2.100
 9634SOL     OW29800   5.276   4.812   2.458
 9634SOL    HW129801   5.222   4.838   2.538
 9634SOL    HW229802   5.219   4.816   2.376
 9635SOL     OW29803   0.807   3.900   4.345
 9635SOL    HW129804   0.801   3.988   4.299
 9635SOL    HW229805   0.831   3.829   4.279
 9636SOL     OW29806   4.150   1.991   5.662
 9636SOL    HW129807   4.234   1.953   5.702
 9636SOL    HW229808   4.077   1.923   5.665
 9637SOL     OW29809   2.305   3.277   1.418
 9637SOL    HW129810   2.376   3.261   1.349
 9637SOL    HW229811   2.326   3.224   1.500
 9638SOL     OW29812   0.297   4.386   6.479
 9638SOL    HW129813   0.230   4.311   6.477
 9638SOL    HW229814   0.330   4.399   6.573
 9639SOL     OW29815   4.428   2.268   1.601
 9639SOL    HW129816   4.420   2.232   1.694
 9639SOL    HW229817   4.523   2.260   1.570
 9640SOL     OW29818   4.138   1.405   2.483
 9640SOL    HW129819   4.150   1.352   2.567
 9640SOL    HW229820   4.063   1.470   2.495
 9641SOL     OW29821   5.490   4.854   2.775
 9641SOL    HW129822   5.498   4.754   2.769
 9641SOL    HW229823   5.407   4.878   2.824
 9642SOL     OW29824   1.569   7.008   3.802
 9642SOL    HW129825   1.469   7.007   3.805
 9642SOL    HW229826   1.601   0.063   3.747
 9643SOL     OW29827   4.873   4.062   4.064
 9643SOL    HW129828   4.834   3.997   4.000
 9643SOL    HW229829   4.923   4.013   4.136
 9644SOL     OW29830   2.186   6.651   5.014
 9644SOL    HW129831   2.236   6.663   4.928
 9644SOL    HW229832   2.093   6.686   5.004
 9645SOL     OW29833   1.546   5.320   5.724
 9645SOL    HW129834   1.542   5.397   5.660
 9645SOL    HW229835   1.551   5.354   5.818
 9646SOL     OW29836   2.935   6.968   4.478
 9646SOL    HW129837   2.990   6.940   4.557
 9646SOL    HW229838   2.995   7.009   4.409
 9647SOL     OW29839   6.157   6.238   3.239
 9647SOL    HW129840   6.213   6.156   3.227
 9647SOL    HW229841   6.186   6.308   3.174
 9648SOL     OW29842   5.316   2.362   1.575
 9648SOL    HW129843   5.410   2.332   1.560
 9648SOL    HW229844   5.275   2.389   1.488
 9649SOL     OW29845   2.175   3.501   6.552
 9649SOL    HW129846   2.170   3.423   6.615
 9649SOL    HW229847   2.267   3.541   6.556
 9650SOL     OW29848   6.408   4.699   3.865
 9650SOL    HW129849   6.427   4.678   3.961
 9650SOL    HW229850   6.463   4.641   3.806
 9651SOL     OW29851   2.568   1.361   6.984
 9651SOL    HW129852   2.485   1.368   6.930
 9651SOL    HW229853   2.550   1.311   0.046
 9652SOL     OW29854   0.371   4.254   1.104
 9652SOL    HW129855   0.405   4.344   1.132
 9652SOL    HW229856   0.337   4.260   1.010
 9653SOL     OW29857   4.630   4.384   5.839
 9653SOL    HW129858   4.711   4.401   5.895
 9653SOL    HW229859   4.551   4.368   5.898
 9654SOL     OW29860   4.037   3.452   3.485
 9654SOL    HW129861   4.050   3.449   3.585
 9654SOL    HW229862   4.058   3.363   3.446
 9655SOL     OW29863   6.291   0.656   1.392
 9655SOL    HW129864   6.259   0.648   1.486
 9655SOL    HW229865   6.284   0.568   1.346
 9656SOL     OW29866   5.209   3.337   0.410
 9656SOL    HW129867   5.294   3.324   0.461
 9656SOL    HW229868   5.161   3.250   0.403
 9657SOL     OW29869   5.251   3.879   4.013
 9657SOL    HW129870   5.331   3.818   4.009
 9657SOL    HW229871   5.229   3.912   3.921
 9658SOL     OW29872   4.787   1.840   2.887
 9658SOL    HW129873   4.735   1.804   2.965
 9658SOL    HW229874   4.791   1.940   2.893
 9659SOL     OW29875   3.416   2.091   0.654
 9659SOL    HW129876   3.321   2.114   0.675
 9659SOL    HW229877   3.469   2.088   0.738
 9660SOL     OW29878   0.468   5.845   0.526
 9660SOL    HW129879   0.565   5.862   0.513
 9660SOL    HW229880   0.437   5.889   0.610
 9661SOL     OW29881   4.607   5.495   1.155
 9661SOL    HW129882   4.704   5.494   1.178
 9661SOL    HW229883   4.584   5.411   1.106
 9662SOL     OW29884   5.826   5.007   6.802
 9662SOL    HW129885   5.910   4.958   6.826
 9662SOL    HW229886   5.783   5.042   6.885
 9663SOL     OW29887   1.049   4.543   3.416
 9663SOL    HW129888   0.964   4.587   3.446
 9663SOL    HW229889   1.031   4.447   3.396
 9664SOL     OW29890   5.493   3.893   3.337
 9664SOL    HW129891   5.570   3.876   3.399
 9664SOL    HW229892   5.508   3.979   3.288
 9665SOL     OW29893   6.280   7.021   5.791
 9665SOL    HW129894   6.203   0.020   5.851
 9665SOL    HW229895   6.332   6.945   5.831
 9666SOL     OW29896   6.196   4.577   1.572
 9666SOL    HW129897   6.149   4.551   1.656
 9666SOL    HW229898   6.210   4.676   1.571
 9667SOL     OW29899   4.552   4.843   0.804
 9667SOL    HW129900   4.647   4.845   0.774
 9667SOL    HW229901   4.492   4.841   0.725
 9668SOL     OW29902   1.274   7.017   5.814
 9668SOL    HW129903   1.266   6.928   5.770
 9668SOL    HW229904   1.267   0.066   5.745
 9669SOL     OW29905   2.512   6.856   0.766
 9669SOL    HW129906   2.610   6.840   0.768
 9669SOL    HW229907   2.464   6.771   0.743
 9670SOL     OW29908   0.542   0.026   5.794
 9670SOL    HW129909   0.623   0.071   5.757
 9670SOL    HW229910   0.546   6.951   5.772
 9671SOL     OW29911   0.902   4.744   0.232
 9671SOL    HW129912   0.869   4.821   0.286
 9671SOL    HW229913   0.937   4.777   0.144
 9672SOL     OW29914   0.973   4.475   3.052
 9672SOL    HW129915   0.912   4.547   3.086
 9672SOL    HW229916   0.920   4.411   2.996
 9673SOL     OW29917   3.279   4.377   1.689
 9673SOL    HW129918   3.302   4.296   1.744
 9673SOL    HW229919   3.181   4.374   1.667
 9674SOL     OW29920   3.861   6.868   2.859
 9674SOL    HW129921   3.940   6.818   2.823
 9674SOL    HW229922   3.811   6.809   2.923
 9675SOL     OW29923   4.737   4.049   0.388
 9675SOL    HW129924   4.681   4.089   0.460
 9675SOL    HW229925   4.832   4.046   0.418
 9676SOL     OW29926   1.699   2.516   6.359
 9676SOL    HW129927   1.604   2.489   6.377
 9676SOL    HW229928   1.761   2.459   6.413
 9677SOL     OW29929   6.427   5.094   0.150
 9677SOL    HW129930   6.344   5.101   0.205
 9677SOL    HW229931   6.407   5.122   0.056
 9678SOL     OW29932   2.949   3.748   4.801
 9678SOL    HW129933   2.934   3.650   4.814
 9678SOL    HW229934   3.033   3.776   4.848
 9679SOL     OW29935   2.923   1.835   4.496
 9679SOL    HW129936   3.020   1.835   4.474
 9679SOL    HW229937   2.886   1.928   4.484
 9680SOL     OW29938   4.890   6.255   4.651
 9680SOL    HW129939   4.796   6.279   4.677
 9680SOL    HW229940   4.890   6.165   4.607
 9681SOL     OW29941   2.953   1.243   0.992
 9681SOL    HW129942   2.971   1.341   1.004
 9681SOL    HW229943   2.952   1.220   0.895
 9682SOL     OW29944   5.661   5.216   3.990
 9682SOL    HW129945   5.685   5.246   4.082
 9682SOL    HW229946   5.711   5.132   3.969
 9683SOL     OW29947   1.748   6.519   0.422
 9683SOL    HW129948   1.803   6.568   0.489
 9683SOL    HW229949   1.804   6.502   0.340
 9684SOL     OW29950   1.058   3.621   5.369
 9684SOL    HW129951   1.053   3.719   5.391
 9684SOL    HW229952   0.983   3.597   5.307
 9685SOL     OW29953   4.905   3.672   0.780
 9685SOL    HW129954   4.972   3.608   0.743
 9685SOL    HW229955   4.819   3.625   0.796
 9686SOL     OW29956   0.216   1.901   6.423
 9686SOL    HW129957   0.213   1.938   6.516
 9686SOL    HW229958   0.297   1.936   6.375
 9687SOL     OW29959   6.259   6.567   1.301
 9687SOL    HW129960   6.244   6.611   1.390
 9687SOL    HW229961   6.357   6.551   1.287
 9688SOL     OW29962   1.246   4.475   0.848
 9688SOL    HW129963   1.306   4.414   0.796
 9688SOL    HW229964   1.283   4.568   0.847
 9689SOL     OW29965   0.978   5.005   6.590
 9689SOL    HW129966   0.905   5.021   6.524
 9689SOL    HW229967   1.066   5.027   6.549
 9690SOL     OW29968   4.793   5.514   5.255
 9690SOL    HW129969   4.858   5.511   5.331
 9690SOL    HW229970   4.755   5.606   5.246
 9691SOL     OW29971   3.430   4.128   2.581
 9691SOL    HW129972   3.403   4.215   2.539
 9691SOL    HW229973   3.361   4.058   2.560
 9692SOL     OW29974   4.973   5.398   0.151
 9692SOL    HW129975   4.896   5.418   0.212
 9692SOL    HW229976   5.047   5.356   0.204
 9693SOL     OW29977   5.970   3.808   4.474
 9693SOL    HW129978   5.992   3.754   4.393
 9693SOL    HW229979   6.024   3.775   4.551
 9694SOL     OW29980   2.979   0.340   1.527
 9694SOL    HW129981   2.934   0.346   1.616
 9694SOL    HW229982   2.919   0.293   1.462
 9695SOL     OW29983   0.073   4.016   2.811
 9695SOL    HW129984   0.064   3.920   2.836
 9695SOL    HW229985   0.161   4.031   2.766
 9696SOL     OW29986   5.879   1.838   2.728
 9696SOL    HW129987   5.920   1.789   2.806
 9696SOL    HW229988   5.780   1.828   2.731
 9697SOL     OW29989   6.672   6.470   0.051
 9697SOL    HW129990   6.720   6.454   6.987
 9697SOL    HW229991   6.666   6.384   0.102
 9698SOL     OW29992   5.860   3.284   6.427
 9698SOL    HW129993   5.823   3.375   6.406
 9698SOL    HW229994   5.793   3.232   6.481
 9699SOL     OW29995   0.542   5.890   6.965
 9699SOL    HW129996   0.633   5.864   6.997
 9699SOL    HW229997   0.503   5.958   0.004
 9700SOL     OW29998   6.953   6.241   3.826
 9700SOL    HW129999   0.024   6.239   3.790
 9700SOL    HW230000   6.890   6.210   3.756
 9701SOL     OW30001   4.958   3.517   6.416
 9701SOL    HW130002   4.890   3.581   6.379
 9701SOL    HW230003   4.992   3.458   6.343
 9702SOL     OW30004   3.316   2.822   0.623
 9702SOL    HW130005   3.233   2.871   0.597
 9702SOL    HW230006   3.328   2.827   0.722
 9703SOL     OW30007   6.302   3.902   4.049
 9703SOL    HW130008   6.338   3.930   3.960
 9703SOL    HW230009   6.294   3.802   4.052
 9704SOL     OW30010   3.091   4.875   3.034
 9704SOL    HW130011   3.179   4.879   3.083
 9704SOL    HW230012   3.021   4.837   3.095
 9705SOL     OW30013   6.419   4.431   5.260
 9705SOL    HW130014   6.379   4.340   5.275
 9705SOL    HW230015   6.364   4.499   5.309
 9706SOL     OW30016   1.999   1.323   1.226
 9706SOL    HW130017   2.092   1.308   1.261
 9706SOL    HW230018   1.937   1.340   1.303
 9707SOL     OW30019   5.792   4.666   2.069
 9707SOL    HW130020   5.747   4.576   2.072
 9707SOL    HW230021   5.725   4.737   2.089
 9708SOL     OW30022   1.473   1.405   2.184
 9708SOL    HW130023   1.398   1.470   2.200
 9708SOL    HW230024   1.553   1.455   2.150
 9709SOL     OW30025   5.334   3.902   1.783
 9709SOL    HW130026   5.262   3.931   1.845
 9709SOL    HW230027   5.294   3.858   1.703
 9710SOL     OW30028   6.271   0.571   6.671
 9710SOL    HW130029   6.202   0.547   6.602
 9710SOL    HW230030   6.299   0.489   6.721
 9711SOL     OW30031   3.913   6.385   5.394
 9711SOL    HW130032   3.972   6.420   5.467
 9711SOL    HW230033   3.937   6.289   5.376
 9712SOL     OW30034   5.977   3.262   0.246
 9712SOL    HW130035   5.901   3.248   0.310
 9712SOL    HW230036   6.046   3.192   0.261
 9713SOL     OW30037   2.389   6.438   2.896
 9713SOL    HW130038   2.329   6.363   2.924
 9713SOL    HW230039   2.415   6.426   2.800
 9714SOL     OW30040   4.387   5.670   4.669
 9714SOL    HW130041   4.306   5.648   4.725
 9714SOL    HW230042   4.466   5.621   4.705
 9715SOL     OW30043   6.398   4.949   0.576
 9715SOL    HW130044   6.335   4.872   0.571
 9715SOL    HW230045   6.443   4.949   0.665
 9716SOL     OW30046   4.101   3.907   6.797
 9716SOL    HW130047   4.146   3.961   6.726
 9716SOL    HW230048   4.105   3.957   6.884
 9717SOL     OW30049   4.898   6.408   6.819
 9717SOL    HW130050   4.803   6.438   6.813
 9717SOL    HW230051   4.918   6.343   6.746
 9718SOL     OW30052   4.615   2.284   0.488
 9718SOL    HW130053   4.636   2.229   0.569
 9718SOL    HW230054   4.516   2.293   0.480
 9719SOL     OW30055   5.324   0.051   5.740
 9719SOL    HW130056   5.344   0.099   5.655
 9719SOL    HW230057   5.251   7.006   5.725
 9720SOL     OW30058   1.642   3.677   2.744
 9720SOL    HW130059   1.661   3.699   2.840
 9720SOL    HW230060   1.707   3.607   2.713
 9721SOL     OW30061   0.410   1.627   0.207
 9721SOL    HW130062   0.394   1.593   0.300
 9721SOL    HW230063   0.384   1.556   0.142
 9722SOL     OW30064   3.642   2.124   5.032
 9722SOL    HW130065   3.553   2.126   5.079
 9722SOL    HW230066   3.714   2.154   5.095
 9723SOL     OW30067   6.035   4.810   4.639
 9723SOL    HW130068   6.125   4.787   4.676
 9723SOL    HW230069   6.013   4.905   4.659
 9724SOL     OW30070   2.189   5.203   6.544
 9724SOL    HW130071   2.283   5.221   6.572
 9724SOL    HW230072   2.169   5.105   6.555
 9725SOL     OW30073   4.006   5.926   5.066
 9725SOL    HW130074   4.097   5.918   5.105
 9725SOL    HW230075   3.968   6.016   5.088
 9726SOL     OW30076   5.462   0.912   4.362
 9726SOL    HW130077   5.398   0.873   4.428
 9726SOL    HW230078   5.420   0.914   4.272
 9727SOL     OW30079   0.906   2.867   0.253
 9727SOL    HW130080   0.867   2.854   0.162
 9727SOL    HW230081   0.894   2.783   0.306
 9728SOL     OW30082   6.469   1.605   6.172
 9728SOL    HW130083   6.376   1.590   6.138
 9728SOL    HW230084   6.466   1.652   6.260
 9729SOL     OW30085   1.443   3.585   4.113
 9729SOL    HW130086   1.378   3.513   4.089
 9729SOL    HW230087   1.447   3.593   4.213
 9730SOL     OW30088   1.104   4.128   3.708
 9730SOL    HW130089   1.181   4.069   3.685
 9730SOL    HW230090   1.088   4.126   3.806
 9731SOL     OW30091   4.945   4.764   1.932
 9731SOL    HW130092   4.905   4.678   1.961
 9731SOL    HW230093   5.041   4.767   1.961
 9732SOL     OW30094   0.334   3.214   2.111
 9732SOL    HW130095   0.328   3.116   2.127
 9732SOL    HW230096   0.245   3.256   2.131
 9733SOL     OW30097   5.936   5.376   1.672
 9733SOL    HW130098   5.934   5.441   1.748
 9733SOL    HW230099   5.966   5.423   1.589
 9734SOL     OW30100   6.457   6.444   0.386
 9734SOL    HW130101   6.375   6.502   0.384
 9734SOL    HW230102   6.536   6.498   0.359
 9735SOL     OW30103   1.495   2.603   3.301
 9735SOL    HW130104   1.532   2.552   3.223
 9735SOL    HW230105   1.487   2.699   3.277
 9736SOL     OW30106   4.748   2.315   6.045
 9736SOL    HW130107   4.754   2.299   5.946
 9736SOL    HW230108   4.815   2.383   6.072
 9737SOL     OW30109   5.766   2.097   3.233
 9737SOL    HW130110   5.756   2.133   3.140
 9737SOL    HW230111   5.797   2.003   3.229
 9738SOL     OW30112   1.979   6.817   0.165
 9738SOL    HW130113   1.961   6.738   0.225
 9738SOL    HW230114   1.897   6.874   0.161
 9739SOL     OW30115   4.814   6.187   7.010
 9739SOL    HW130116   4.901   6.154   6.972
 9739SOL    HW230117   4.798   6.281   6.980
 9740SOL     OW30118   5.241   0.356   2.651
 9740SOL    HW130119   5.307   0.425   2.680
 9740SOL    HW230120   5.171   0.345   2.721
 9741SOL     OW30121   2.412   0.999   3.811
 9741SOL    HW130122   2.411   0.987   3.911
 9741SOL    HW230123   2.393   1.095   3.789
 9742SOL     OW30124   4.806   0.854   0.230
 9742SOL    HW130125   4.711   0.864   0.201
 9742SOL    HW230126   4.811   0.793   0.309
 9743SOL     OW30127   0.258   3.550   3.466
 9743SOL    HW130128   0.233   3.564   3.370
 9743SOL    HW230129   0.357   3.555   3.476
 9744SOL     OW30130   2.244   6.840   3.175
 9744SOL    HW130131   2.144   6.839   3.169
 9744SOL    HW230132   2.281   6.910   3.115
 9745SOL     OW30133   5.379   2.576   6.121
 9745SOL    HW130134   5.332   2.663   6.109
 9745SOL    HW230135   5.460   2.573   6.061
 9746SOL     OW30136   5.301   6.500   6.672
 9746SOL    HW130137   5.366   6.551   6.728
 9746SOL    HW230138   5.288   6.547   6.585
 9747SOL     OW30139   2.584   2.254   1.776
 9747SOL    HW130140   2.566   2.257   1.677
 9747SOL    HW230141   2.674   2.213   1.792
 9748SOL     OW30142   7.000   6.776   3.128
 9748SOL    HW130143   6.980   6.699   3.189
 9748SOL    HW230144   0.058   6.754   3.072
 9749SOL     OW30145   0.718   1.418   2.373
 9749SOL    HW130146   0.661   1.497   2.352
 9749SOL    HW230147   0.678   1.368   2.450
 9750SOL     OW30148   6.256   4.927   3.927
 9750SOL    HW130149   6.303   4.844   3.898
 9750SOL    HW230150   6.307   5.007   3.894
 9751SOL     OW30151   2.182   0.042   0.397
 9751SOL    HW130152   2.142   0.121   0.351
 9751SOL    HW230153   2.201   0.065   0.493
 9752SOL     OW30154   4.157   2.417   6.896
 9752SOL    HW130155   4.137   2.326   6.861
 9752SOL    HW230156   4.099   2.437   6.975
 9753SOL     OW30157   1.300   6.134   5.934
 9753SOL    HW130158   1.368   6.174   5.996
 9753SOL    HW230159   1.265   6.205   5.873
 9754SOL     OW30160   4.015   0.127   0.106
 9754SOL    HW130161   3.992   0.097   0.199
 9754SOL    HW230162   3.933   0.162   0.061
 9755SOL     OW30163   3.154   3.921   4.934
 9755SOL    HW130164   3.119   3.960   5.020
 9755SOL    HW230165   3.217   3.986   4.892
 9756SOL     OW30166   5.911   1.627   6.038
 9756SOL    HW130167   5.826   1.679   6.046
 9756SOL    HW230168   5.891   1.534   6.009
 9757SOL     OW30169   5.319   4.520   4.683
 9757SOL    HW130170   5.407   4.536   4.726
 9757SOL    HW230171   5.282   4.607   4.650
 9758SOL     OW30172   1.091   1.565   6.781
 9758SOL    HW130173   1.132   1.575   6.872
 9758SOL    HW230174   1.130   1.485   6.736
 9759SOL     OW30175   0.873   1.763   6.914
 9759SOL    HW130176   0.854   1.681   6.968
 9759SOL    HW230177   0.943   1.817   6.960
 9760SOL     OW30178   5.267   2.901   6.854
 9760SOL    HW130179   5.190   2.838   6.866
 9760SOL    HW230180   5.239   2.976   6.794
 9761SOL     OW30181   1.318   1.639   2.121
 9761SOL    HW130182   1.251   1.652   2.049
 9761SOL    HW230183   1.273   1.643   2.210
 9762SOL     OW30184   3.573   1.635   4.869
 9762SOL    HW130185   3.509   1.568   4.831
 9762SOL    HW230186   3.530   1.725   4.870
 9763SOL     OW30187   5.921   1.120   2.918
 9763SOL    HW130188   5.960   1.212   2.914
 9763SOL    HW230189   5.921   1.080   2.826
 9764SOL     OW30190   6.399   1.853   3.054
 9764SOL    HW130191   6.462   1.908   3.108
 9764SOL    HW230192   6.307   1.891   3.061
 9765SOL     OW30193   6.337   0.679   2.718
 9765SOL    HW130194   6.307   0.585   2.733
 9765SOL    HW230195   6.269   0.743   2.753
 9766SOL     OW30196   2.207   0.260   2.983
 9766SOL    HW130197   2.246   0.168   2.983
 9766SOL    HW230198   2.278   0.326   3.011
 9767SOL     OW30199   2.079   2.617   4.910
 9767SOL    HW130200   2.170   2.656   4.895
 9767SOL    HW230201   2.048   2.639   5.002
 9768SOL     OW30202   5.168   1.921   1.042
 9768SOL    HW130203   5.243   1.908   0.977
 9768SOL    HW230204   5.090   1.864   1.014
 9769SOL     OW30205   3.518   0.785   5.442
 9769SOL    HW130206   3.523   0.831   5.353
 9769SOL    HW230207   3.602   0.802   5.494
 9770SOL     OW30208   4.125   1.565   5.323
 9770SOL    HW130209   4.221   1.576   5.296
 9770SOL    HW230210   4.107   1.621   5.404
 9771SOL     OW30211   2.705   6.588   1.449
 9771SOL    HW130212   2.732   6.629   1.536
 9771SOL    HW230213   2.676   6.660   1.386
 9772SOL     OW30214   2.093   6.434   1.934
 9772SOL    HW130215   2.074   6.483   1.849
 9772SOL    HW230216   2.157   6.487   1.989
 9773SOL     OW30217   5.841   4.894   3.536
 9773SOL    HW130218   5.832   4.936   3.626
 9773SOL    HW230219   5.783   4.943   3.470
 9774SOL     OW30220   0.642   4.369   3.502
 9774SOL    HW130221   0.677   4.457   3.468
 9774SOL    HW230222   0.683   4.294   3.451
 9775SOL     OW30223   2.800   0.266   3.509
 9775SOL    HW130224   2.710   0.240   3.475
 9775SOL    HW230225   2.806   0.366   3.513
 9776SOL     OW30226   1.365   4.565   6.298
 9776SOL    HW130227   1.437   4.634   6.311
 9776SOL    HW230228   1.397   4.477   6.335
 9777SOL     OW30229   5.275   6.239   0.301
 9777SOL    HW130230   5.370   6.215   0.324
 9777SOL    HW230231   5.223   6.252   0.385
 9778SOL     OW30232   0.209   2.194   4.484
 9778SOL    HW130233   0.113   2.170   4.497
 9778SOL    HW230234   0.219   2.293   4.478
 9779SOL     OW30235   0.379   2.550   3.720
 9779SOL    HW130236   0.437   2.471   3.702
 9779SOL    HW230237   0.296   2.544   3.666
 9780SOL     OW30238   2.177   1.492   0.916
 9780SOL    HW130239   2.130   1.574   0.883
 9780SOL    HW230240   2.244   1.518   0.985
 9781SOL     OW30241   2.080   3.219   4.804
 9781SOL    HW130242   2.086   3.261   4.895
 9781SOL    HW230243   2.074   3.291   4.734
 9782SOL     OW30244   0.797   1.960   0.881
 9782SOL    HW130245   0.707   1.983   0.844
 9782SOL    HW230246   0.819   2.022   0.956
 9783SOL     OW30247   4.387   1.704   3.513
 9783SOL    HW130248   4.334   1.634   3.562
 9783SOL    HW230249   4.332   1.741   3.438
 9784SOL     OW30250   3.560   1.133   5.756
 9784SOL    HW130251   3.622   1.198   5.800
 9784SOL    HW230252   3.593   1.111   5.665
 9785SOL     OW30253   5.796   2.350   5.415
 9785SOL    HW130254   5.776   2.447   5.428
 9785SOL    HW230255   5.881   2.339   5.364
 9786SOL     OW30256   2.487   4.190   0.232
 9786SOL    HW130257   2.461   4.206   0.328
 9786SOL    HW230258   2.415   4.138   0.186
 9787SOL     OW30259   3.889   3.131   3.944
 9787SOL    HW130260   3.878   3.196   4.020
 9787SOL    HW230261   3.809   3.072   3.939
 9788SOL     OW30262   0.807   6.185   1.977
 9788SOL    HW130263   0.772   6.248   1.908
 9788SOL    HW230264   0.739   6.114   1.995
 9789SOL     OW30265   2.271   6.907   6.855
 9789SOL    HW130266   2.252   6.936   6.949
 9789SOL    HW230267   2.318   6.980   6.806
 9790SOL     OW30268   6.196   4.521   6.278
 9790SOL    HW130269   6.203   4.488   6.184
 9790SOL    HW230270   6.178   4.444   6.339
 9791SOL     OW30271   1.185   0.725   0.143
 9791SOL    HW130272   1.232   0.768   0.065
 9791SOL    HW230273   1.136   0.795   0.195
 9792SOL     OW30274   3.644   4.690   1.404
 9792SOL    HW130275   3.626   4.740   1.489
 9792SOL    HW230276   3.637   4.753   1.327
 9793SOL     OW30277   4.261   0.064   2.297
 9793SOL    HW130278   4.192   0.027   2.359
 9793SOL    HW230279   4.352   0.038   2.330
 9794SOL     OW30280   5.564   4.173   4.923
 9794SOL    HW130281   5.563   4.088   4.976
 9794SOL    HW230282   5.489   4.171   4.856
 9795SOL     OW30283   0.869   3.268   4.556
 9795SOL    HW130284   0.906   3.361   4.556
 9795SOL    HW230285   0.859   3.236   4.650
 9796SOL     OW30286   3.487   3.902   3.704
 9796SOL    HW130287   3.554   3.847   3.655
 9796SOL    HW230288   3.511   3.906   3.801
 9797SOL     OW30289   2.295   6.025   0.279
 9797SOL    HW130290   2.335   5.964   0.210
 9797SOL    HW230291   2.254   6.104   0.233
 9798SOL     OW30292   2.273   1.266   1.273
 9798SOL    HW130293   2.324   1.240   1.355
 9798SOL    HW230294   2.337   1.293   1.201
 9799SOL     OW30295   3.420   4.024   6.286
 9799SOL    HW130296   3.514   4.024   6.321
 9799SOL    HW230297   3.361   3.975   6.350
 9800SOL     OW30298   5.840   3.980   4.256
 9800SOL    HW130299   5.877   3.903   4.204
 9800SOL    HW230300   5.875   3.977   4.350
 9801SOL     OW30301   5.157   5.252   0.276
 9801SOL    HW130302   5.248   5.293   0.287
 9801SOL    HW230303   5.160   5.157   0.309
 9802SOL     OW30304   4.443   4.640   0.440
 9802SOL    HW130305   4.379   4.563   0.443
 9802SOL    HW230306   4.446   4.678   0.348
 9803SOL     OW30307   2.168   3.496   6.134
 9803SOL    HW130308   2.111   3.482   6.054
 9803SOL    HW230309   2.111   3.520   6.213
 9804SOL     OW30310   0.013   5.791   2.991
 9804SOL    HW130311   7.004   5.770   2.898
 9804SOL    HW230312   6.999   5.880   3.019
 9805SOL     OW30313   0.594   6.387   3.051
 9805SOL    HW130314   0.587   6.287   3.056
 9805SOL    HW230315   0.619   6.423   3.140
 9806SOL     OW30316   1.948   1.834   6.873
 9806SOL    HW130317   2.023   1.799   6.929
 9806SOL    HW230318   1.972   1.924   6.837
 9807SOL     OW30319   3.519   3.223   2.522
 9807SOL    HW130320   3.576   3.244   2.601
 9807SOL    HW230321   3.428   3.194   2.553
 9808SOL     OW30322   3.601   5.626   4.222
 9808SOL    HW130323   3.629   5.636   4.126
 9808SOL    HW230324   3.682   5.624   4.280
 9809SOL     OW30325   0.949   3.521   0.283
 9809SOL    HW130326   0.925   3.439   0.231
 9809SOL    HW230327   0.940   3.502   0.381
 9810SOL     OW30328   2.986   2.161   4.880
 9810SOL    HW130329   2.968   2.200   4.789
 9810SOL    HW230330   3.059   2.214   4.924
 9811SOL     OW30331   6.055   4.280   3.371
 9811SOL    HW130332   6.041   4.184   3.349
 9811SOL    HW230333   6.012   4.302   3.458
 9812SOL     OW30334   2.633   1.244   4.533
 9812SOL    HW130335   2.652   1.147   4.519
 9812SOL    HW230336   2.711   1.287   4.579
 9813SOL     OW30337   5.380   1.960   0.874
 9813SOL    HW130338   5.451   1.890   0.877
 9813SOL    HW230339   5.422   2.050   0.858
 9814SOL     OW30340   5.357   1.222   0.174
 9814SOL    HW130341   5.429   1.279   0.134
 9814SOL    HW230342   5.270   1.241   0.129
 9815SOL     OW30343   4.679   2.737   4.386
 9815SOL    HW130344   4.630   2.689   4.459
 9815SOL    HW230345   4.661   2.693   4.299
 9816SOL     OW30346   0.987   0.874   5.955
 9816SOL    HW130347   1.050   0.827   6.017
 9816SOL    HW230348   0.913   0.915   6.007
 9817SOL     OW30349   1.080   0.179   3.234
 9817SOL    HW130350   1.008   0.210   3.171
 9817SOL    HW230351   1.116   0.091   3.202
 9818SOL     OW30352   6.423   2.157   4.789
 9818SOL    HW130353   6.449   2.061   4.783
 9818SOL    HW230354   6.325   2.167   4.769
 9819SOL     OW30355   4.778   2.904   3.113
 9819SOL    HW130356   4.807   2.922   3.207
 9819SOL    HW230357   4.710   2.971   3.086
 9820SOL     OW30358   3.685   3.203   6.386
 9820SOL    HW130359   3.717   3.125   6.440
 9820SOL    HW230360   3.589   3.221   6.406
 9821SOL     OW30361   5.524   0.607   6.477
 9821SOL    HW130362   5.469   0.664   6.538
 9821SOL    HW230363   5.591   0.665   6.430
 9822SOL     OW30364   1.119   6.652   3.295
 9822SOL    HW130365   1.214   6.636   3.271
 9822SOL    HW230366   1.061   6.633   3.216
 9823SOL     OW30367   3.692   0.119   0.971
 9823SOL    HW130368   3.758   0.161   1.034
 9823SOL    HW230369   3.736   0.042   0.925
 9824SOL     OW30370   1.780   4.238   5.938
 9824SOL    HW130371   1.749   4.301   5.867
 9824SOL    HW230372   1.831   4.164   5.896
 9825SOL     OW30373   3.178   4.895   5.350
 9825SOL    HW130374   3.218   4.900   5.258
 9825SOL    HW230375   3.250   4.898   5.419
 9826SOL     OW30376   5.468   5.281   6.117
 9826SOL    HW130377   5.463   5.371   6.161
 9826SOL    HW230378   5.376   5.246   6.101
 9827SOL     OW30379   2.053   3.363   4.139
 9827SOL    HW130380   2.103   3.313   4.068
 9827SOL    HW230381   2.021   3.450   4.102
 9828SOL     OW30382   2.769   3.034   6.354
 9828SOL    HW130383   2.785   2.946   6.309
 9828SOL    HW230384   2.690   3.027   6.414
 9829SOL     OW30385   3.129   6.429   0.585
 9829SOL    HW130386   3.189   6.425   0.665
 9829SOL    HW230387   3.177   6.391   0.506
 9830SOL     OW30388   5.219   2.538   1.331
 9830SOL    HW130389   5.134   2.588   1.350
 9830SOL    HW230390   5.220   2.510   1.236
 9831SOL     OW30391   1.339   6.211   0.821
 9831SOL    HW130392   1.277   6.162   0.882
 9831SOL    HW230393   1.391   6.278   0.872
 9832SOL     OW30394   5.242   5.135   2.645
 9832SOL    HW130395   5.222   5.037   2.657
 9832SOL    HW230396   5.197   5.168   2.562
 9833SOL     OW30397   3.494   2.879   4.703
 9833SOL    HW130398   3.458   2.800   4.752
 9833SOL    HW230399   3.430   2.905   4.631
 9834SOL     OW30400   3.031   4.358   5.792
 9834SOL    HW130401   2.931   4.368   5.789
 9834SOL    HW230402   3.071   4.395   5.709
 9835SOL     OW30403   3.706   2.645   6.022
 9835SOL    HW130404   3.758   2.717   5.976
 9835SOL    HW230405   3.754   2.558   6.012
 9836SOL     OW30406   6.218   4.704   3.647
 9836SOL    HW130407   6.124   4.689   3.675
 9836SOL    HW230408   6.279   4.695   3.726
 9837SOL     OW30409   2.721   0.173   2.360
 9837SOL    HW130410   2.768   0.261   2.355
 9837SOL    HW230411   2.788   0.099   2.363
 9838SOL     OW30412   0.527   0.086   6.053
 9838SOL    HW130413   0.547   0.060   5.959
 9838SOL    HW230414   0.599   0.146   6.087
 9839SOL     OW30415   5.288   1.269   3.500
 9839SOL    HW130416   5.316   1.293   3.407
 9839SOL    HW230417   5.262   1.173   3.504
 9840SOL     OW30418   0.444   1.046   1.468
 9840SOL    HW130419   0.528   1.017   1.515
 9840SOL    HW230420   0.365   1.005   1.514
 9841SOL     OW30421   1.408   3.913   4.734
 9841SOL    HW130422   1.392   3.920   4.833
 9841SOL    HW230423   1.341   3.849   4.695
 9842SOL     OW30424   3.801   3.940   3.085
 9842SOL    HW130425   3.865   3.955   3.009
 9842SOL    HW230426   3.707   3.953   3.052
 9843SOL     OW30427   6.135   2.088   1.796
 9843SOL    HW130428   6.046   2.130   1.813
 9843SOL    HW230429   6.193   2.098   1.876
 9844SOL     OW30430   5.575   0.711   2.617
 9844SOL    HW130431   5.536   0.650   2.687
 9844SOL    HW230432   5.634   0.657   2.556
 9845SOL     OW30433   2.843   1.428   3.858
 9845SOL    HW130434   2.825   1.331   3.839
 9845SOL    HW230435   2.758   1.480   3.851
 9846SOL     OW30436   4.094   3.777   2.157
 9846SOL    HW130437   4.103   3.826   2.071
 9846SOL    HW230438   4.109   3.680   2.142
 9847SOL     OW30439   3.572   2.652   5.376
 9847SOL    HW130440   3.478   2.626   5.355
 9847SOL    HW230441   3.606   2.714   5.305
 9848SOL     OW30442   3.737   2.745   6.374
 9848SOL    HW130443   3.749   2.828   6.321
 9848SOL    HW230444   3.640   2.736   6.400
 9849SOL     OW30445   6.292   0.641   0.258
 9849SOL    HW130446   6.384   0.670   0.287
 9849SOL    HW230447   6.241   0.721   0.227
 9850SOL     OW30448   5.604   6.417   2.821
 9850SOL    HW130449   5.632   6.507   2.786
 9850SOL    HW230450   5.652   6.399   2.907
 9851SOL     OW30451   4.556   2.666   5.743
 9851SOL    HW130452   4.576   2.606   5.665
 9851SOL    HW230453   4.641   2.706   5.777
 9852SOL     OW30454   4.228   1.879   2.747
 9852SOL    HW130455   4.231   1.977   2.727
 9852SOL    HW230456   4.133   1.847   2.744
 9853SOL     OW30457   5.099   4.132   3.398
 9853SOL    HW130458   5.022   4.070   3.416
 9853SOL    HW230459   5.178   4.079   3.369
 9854SOL     OW30460   6.887   5.268   4.442
 9854SOL    HW130461   6.944   5.316   4.376
 9854SOL    HW230462   6.943   5.209   4.500
 9855SOL     OW30463   2.499   4.288   1.684
 9855SOL    HW130464   2.488   4.291   1.585
 9855SOL    HW230465   2.447   4.210   1.721
 9856SOL     OW30466   5.042   3.845   6.847
 9856SOL    HW130467   5.099   3.887   6.776
 9856SOL    HW230468   5.100   3.798   6.913
 9857SOL     OW30469   4.052   1.670   4.591
 9857SOL    HW130470   3.993   1.666   4.510
 9857SOL    HW230471   4.003   1.636   4.670
 9858SOL     OW30472   0.053   0.753   1.510
 9858SOL    HW130473   6.990   0.795   1.480
 9858SOL    HW230474   0.101   0.716   1.430
 9859SOL     OW30475   6.039   6.907   1.604
 9859SOL    HW130476   6.021   6.922   1.701
 9859SOL    HW230477   5.975   6.961   1.549
 9860SOL     OW30478   6.838   1.105   3.078
 9860SOL    HW130479   6.748   1.085   3.038
 9860SOL    HW230480   6.909   1.093   3.010
 9861SOL     OW30481   3.394   6.924   3.031
 9861SOL    HW130482   3.400   6.839   2.979
 9861SOL    HW230483   3.303   6.932   3.071
 9862SOL     OW30484   2.508   5.180   0.677
 9862SOL    HW130485   2.520   5.277   0.657
 9862SOL    HW230486   2.553   5.125   0.607
 9863SOL     OW30487   3.061   0.295   3.377
 9863SOL    HW130488   3.130   0.240   3.423
 9863SOL    HW230489   2.973   0.282   3.422
 9864SOL     OW30490   3.877   5.843   3.970
 9864SOL    HW130491   3.780   5.868   3.973
 9864SOL    HW230492   3.920   5.888   3.892
 9865SOL     OW30493   1.733   1.085   3.894
 9865SOL    HW130494   1.717   1.157   3.825
 9865SOL    HW230495   1.647   1.065   3.941
 9866SOL     OW30496   5.707   4.637   5.200
 9866SOL    HW130497   5.661   4.643   5.289
 9866SOL    HW230498   5.803   4.614   5.215
 9867SOL     OW30499   6.247   0.588   0.875
 9867SOL    HW130500   6.194   0.580   0.790
 9867SOL    HW230501   6.310   0.666   0.868
 9868SOL     OW30502   1.111   3.907   5.680
 9868SOL    HW130503   1.058   3.987   5.709
 9868SOL    HW230504   1.093   3.888   5.584
 9869SOL     OW30505   1.787   3.170   2.325
 9869SOL    HW130506   1.809   3.247   2.266
 9869SOL    HW230507   1.687   3.165   2.337
 9870SOL     OW30508   4.750   5.957   2.960
 9870SOL    HW130509   4.703   5.882   3.007
 9870SOL    HW230510   4.726   5.956   2.863
 9871SOL     OW30511   0.925   6.863   5.966
 9871SOL    HW130512   0.941   6.954   6.004
 9871SOL    HW230513   0.888   6.803   6.037
 9872SOL     OW30514   2.547   4.542   4.375
 9872SOL    HW130515   2.474   4.488   4.333
 9872SOL    HW230516   2.577   4.497   4.459
 9873SOL     OW30517   2.862   2.210   1.195
 9873SOL    HW130518   2.792   2.282   1.195
 9873SOL    HW230519   2.876   2.177   1.288
 9874SOL     OW30520   0.842   3.694   4.134
 9874SOL    HW130521   0.811   3.603   4.160
 9874SOL    HW230522   0.791   3.724   4.053
 9875SOL     OW30523   6.690   6.710   2.188
 9875SOL    HW130524   6.648   6.692   2.099
 9875SOL    HW230525   6.620   6.709   2.259
 9876SOL     OW30526   5.840   0.746   2.851
 9876SOL    HW130527   5.871   0.691   2.772
 9876SOL    HW230528   5.767   0.807   2.822
 9877SOL     OW30529   0.333   6.119   3.487
 9877SOL    HW130530   0.291   6.152   3.402
 9877SOL    HW230531   0.418   6.071   3.466
 9878SOL     OW30532   2.848   5.167   5.110
 9878SOL    HW130533   2.858   5.111   5.193
 9878SOL    HW230534   2.758   5.152   5.070
 9879SOL     OW30535   5.466   5.422   3.984
 9879SOL    HW130536   5.514   5.334   3.990
 9879SOL    HW230537   5.515   5.483   3.921
 9880SOL     OW30538   3.052   1.483   5.629
 9880SOL    HW130539   3.106   1.563   5.603
 9880SOL    HW230540   2.971   1.477   5.570
 9881SOL     OW30541   1.494   1.451   5.017
 9881SOL    HW130542   1.521   1.486   5.106
 9881SOL    HW230543   1.564   1.388   4.983
 9882SOL     OW30544   0.756   2.509   3.554
 9882SOL    HW130545   0.715   2.419   3.542
 9882SOL    HW230546   0.794   2.540   3.468
 9883SOL     OW30547   1.308   5.704   0.018
 9883SOL    HW130548   1.378   5.773   0.033
 9883SOL    HW230549   1.343   5.634   6.977
 9884SOL     OW30550   4.323   1.816   3.004
 9884SOL    HW130551   4.355   1.906   3.034
 9884SOL    HW230552   4.299   1.820   2.906
 9885SOL     OW30553   6.804   2.998   5.592
 9885SOL    HW130554   6.725   2.942   5.565
 9885SOL    HW230555   6.820   2.987   5.690
 9886SOL     OW30556   0.961   3.675   1.644
 9886SOL    HW130557   0.997   3.718   1.727
 9886SOL    HW230558   0.903   3.597   1.670
 9887SOL     OW30559   4.032   0.950   6.270
 9887SOL    HW130560   4.040   0.918   6.175
 9887SOL    HW230561   4.000   0.875   6.327
 9888SOL     OW30562   5.695   4.411   2.057
 9888SOL    HW130563   5.729   4.334   2.112
 9888SOL    HW230564   5.694   4.384   1.960
 9889SOL     OW30565   0.309   5.570   1.577
 9889SOL    HW130566   0.254   5.509   1.634
 9889SOL    HW230567   0.345   5.519   1.498
 9890SOL     OW30568   1.604   1.873   0.447
 9890SOL    HW130569   1.609   1.951   0.385
 9890SOL    HW230570   1.664   1.890   0.526
 9891SOL     OW30571   5.759   3.081   1.979
 9891SOL    HW130572   5.753   3.166   2.030
 9891SOL    HW230573   5.690   3.017   2.013
 9892SOL     OW30574   6.915   4.729   0.950
 9892SOL    HW130575   6.983   4.708   0.880
 9892SOL    HW230576   6.831   4.761   0.907
 9893SOL     OW30577   1.032   0.193   1.528
 9893SOL    HW130578   0.955   0.158   1.582
 9893SOL    HW230579   1.111   0.134   1.541
 9894SOL     OW30580   2.688   2.791   1.645
 9894SOL    HW130581   2.692   2.717   1.712
 9894SOL    HW230582   2.773   2.843   1.648
 9895SOL     OW30583   6.642   4.150   5.316
 9895SOL    HW130584   6.664   4.218   5.245
 9895SOL    HW230585   6.713   4.153   5.387
 9896SOL     OW30586   6.361   0.793   6.799
 9896SOL    HW130587   6.324   0.715   6.749
 9896SOL    HW230588   6.386   0.764   6.891
 9897SOL     OW30589   6.209   5.909   2.904
 9897SOL    HW130590   6.121   5.874   2.875
 9897SOL    HW230591   6.282   5.864   2.852
 9898SOL     OW30592   1.472   6.123   4.155
 9898SOL    HW130593   1.565   6.153   4.132
 9898SOL    HW230594   1.406   6.186   4.116
 9899SOL     OW30595   0.768   5.855   0.049
 9899SOL    HW130596   0.847   5.816   0.000
 9899SOL    HW230597   0.800   5.925   0.112
 9900SOL     OW30598   2.111   3.502   3.245
 9900SOL    HW130599   2.119   3.581   3.306
 9900SOL    HW230600   2.082   3.531   3.154
 9901SOL     OW30601   2.902   0.334   6.551
 9901SOL    HW130602   2.922   0.329   6.453
 9901SOL    HW230603   2.855   0.420   6.570
 9902SOL     OW30604   3.360   4.927   1.017
 9902SOL    HW130605   3.291   4.939   1.088
 9902SOL    HW230606   3.408   5.014   1.003
 9903SOL     OW30607   4.882   1.860   2.447
 9903SOL    HW130608   4.971   1.864   2.401
 9903SOL    HW230609   4.844   1.768   2.438
 9904SOL     OW30610   1.508   4.077   0.143
 9904SOL    HW130611   1.429   4.089   0.203
 9904SOL    HW230612   1.487   4.009   0.073
 9905SOL     OW30613   2.129   0.052   6.218
 9905SOL    HW130614   2.037   0.049   6.257
 9905SOL    HW230615   2.131   0.001   6.132
 9906SOL     OW30616   2.532   3.454   1.640
 9906SOL    HW130617   2.464   3.445   1.713
 9906SOL    HW230618   2.594   3.530   1.662
 9907SOL     OW30619   6.653   0.568   1.400
 9907SOL    HW130620   6.565   0.538   1.437
 9907SOL    HW230621   6.725   0.550   1.466
 9908SOL     OW30622   5.809   1.274   4.727
 9908SOL    HW130623   5.816   1.310   4.634
 9908SOL    HW230624   5.740   1.324   4.777
 9909SOL     OW30625   4.383   0.364   3.507
 9909SOL    HW130626   4.439   0.432   3.459
 9909SOL    HW230627   4.443   0.294   3.547
 9910SOL     OW30628   1.621   4.760   2.550
 9910SOL    HW130629   1.567   4.733   2.629
 9910SOL    HW230630   1.662   4.850   2.567
 9911SOL     OW30631   2.858   5.655   2.127
 9911SOL    HW130632   2.859   5.650   2.028
 9911SOL    HW230633   2.783   5.599   2.163
 9912SOL     OW30634   3.844   0.238   1.642
 9912SOL    HW130635   3.900   0.202   1.716
 9912SOL    HW230636   3.760   0.183   1.634
 9913SOL     OW30637   5.824   3.405   1.144
 9913SOL    HW130638   5.894   3.405   1.072
 9913SOL    HW230639   5.867   3.420   1.232
 9914SOL     OW30640   5.476   1.384   4.627
 9914SOL    HW130641   5.539   1.318   4.585
 9914SOL    HW230642   5.384   1.371   4.589
 9915SOL     OW30643   5.208   0.298   3.313
 9915SOL    HW130644   5.188   0.294   3.411
 9915SOL    HW230645   5.211   0.394   3.284
 9916SOL     OW30646   2.277   2.362   2.829
 9916SOL    HW130647   2.201   2.379   2.766
 9916SOL    HW230648   2.296   2.264   2.831
 9917SOL     OW30649   5.451   4.196   6.732
 9917SOL    HW130650   5.466   4.258   6.655
 9917SOL    HW230651   5.514   4.119   6.725
 9918SOL     OW30652   3.354   1.420   3.264
 9918SOL    HW130653   3.362   1.497   3.328
 9918SOL    HW230654   3.446   1.393   3.233
 9919SOL     OW30655   0.470   5.190   1.400
 9919SOL    HW130656   0.449   5.092   1.396
 9919SOL    HW230657   0.441   5.226   1.488
 9920SOL     OW30658   4.649   1.540   2.203
 9920SOL    HW130659   4.556   1.577   2.197
 9920SOL    HW230660   4.685   1.523   2.112
 9921SOL     OW30661   3.903   0.233   5.421
 9921SOL    HW130662   3.909   0.154   5.361
 9921SOL    HW230663   3.822   0.286   5.399
 9922SOL     OW30664   2.476   4.254   0.533
 9922SOL    HW130665   2.534   4.225   0.609
 9922SOL    HW230666   2.420   4.331   0.562
 9923SOL     OW30667   5.347   5.016   6.530
 9923SOL    HW130668   5.302   5.104   6.515
 9923SOL    HW230669   5.340   4.991   6.626
 9924SOL     OW30670   6.389   1.656   4.374
 9924SOL    HW130671   6.453   1.619   4.307
 9924SOL    HW230672   6.327   1.720   4.329
 9925SOL     OW30673   0.381   3.739   4.424
 9925SOL    HW130674   0.418   3.660   4.375
 9925SOL    HW230675   0.417   3.823   4.383
 9926SOL     OW30676   3.825   2.421   0.933
 9926SOL    HW130677   3.905   2.388   0.883
 9926SOL    HW230678   3.742   2.391   0.885
 9927SOL     OW30679   6.883   6.856   0.325
 9927SOL    HW130680   6.814   6.913   0.280
 9927SOL    HW230681   6.936   6.912   0.389
 9928SOL     OW30682   4.944   4.041   2.870
 9928SOL    HW130683   4.985   4.039   2.962
 9928SOL    HW230684   4.941   3.947   2.834
 9929SOL     OW30685   3.465   4.408   5.703
 9929SOL    HW130686   3.422   4.489   5.663
 9929SOL    HW230687   3.564   4.416   5.696
 9930SOL     OW30688   6.395   6.473   4.941
 9930SOL    HW130689   6.332   6.550   4.926
 9930SOL    HW230690   6.442   6.452   4.855
 9931SOL     OW30691   0.534   5.744   4.278
 9931SOL    HW130692   0.553   5.665   4.219
 9931SOL    HW230693   0.545   5.717   4.374
 9932SOL     OW30694   3.633   3.613   6.776
 9932SOL    HW130695   3.703   3.544   6.758
 9932SOL    HW230696   3.676   3.703   6.786
 9933SOL     OW30697   6.864   6.052   3.037
 9933SOL    HW130698   6.807   6.044   3.119
 9933SOL    HW230699   6.948   6.102   3.060
 9934SOL     OW30700   6.312   2.194   5.854
 9934SOL    HW130701   6.411   2.205   5.843
 9934SOL    HW230702   6.278   2.132   5.783
 9935SOL     OW30703   2.839   6.436   6.578
 9935SOL    HW130704   2.751   6.461   6.619
 9935SOL    HW230705   2.907   6.422   6.650
 9936SOL     OW30706   6.691   5.508   0.097
 9936SOL    HW130707   6.649   5.487   0.186
 9936SOL    HW230708   6.650   5.592   0.061
 9937SOL     OW30709   6.571   1.789   0.925
 9937SOL    HW130710   6.611   1.850   0.993
 9937SOL    HW230711   6.542   1.843   0.846
 9938SOL     OW30712   6.845   4.937   2.863
 9938SOL    HW130713   6.816   4.918   2.769
 9938SOL    HW230714   6.798   4.876   2.926
 9939SOL     OW30715   4.472   2.106   1.216
 9939SOL    HW130716   4.475   2.041   1.292
 9939SOL    HW230717   4.522   2.068   1.137
 9940SOL     OW30718   1.043   0.324   1.259
 9940SOL    HW130719   0.954   0.357   1.227
 9940SOL    HW230720   1.034   0.287   1.351
 9941SOL     OW30721   3.232   3.397   5.661
 9941SOL    HW130722   3.145   3.372   5.618
 9941SOL    HW230723   3.296   3.427   5.591
 9942SOL     OW30724   2.278   5.120   2.839
 9942SOL    HW130725   2.313   5.193   2.779
 9942SOL    HW230726   2.340   5.109   2.916
 9943SOL     OW30727   0.561   4.681   6.063
 9943SOL    HW130728   0.632   4.628   6.017
 9943SOL    HW230729   0.516   4.741   5.996
 9944SOL     OW30730   0.953   4.320   6.431
 9944SOL    HW130731   0.974   4.224   6.411
 9944SOL    HW230732   0.999   4.379   6.365
 9945SOL     OW30733   5.678   5.353   7.013
 9945SOL    HW130734   5.626   5.405   0.058
 9945SOL    HW230735   5.631   5.356   6.925
 9946SOL     OW30736   5.547   0.965   4.006
 9946SOL    HW130737   5.560   0.971   3.908
 9946SOL    HW230738   5.511   0.874   4.029
 9947SOL     OW30739   2.186   2.197   4.549
 9947SOL    HW130740   2.277   2.237   4.552
 9947SOL    HW230741   2.130   2.235   4.623
 9948SOL     OW30742   5.828   4.158   5.016
 9948SOL    HW130743   5.740   4.165   4.969
 9948SOL    HW230744   5.898   4.203   4.961
 9949SOL     OW30745   6.708   4.967   4.690
 9949SOL    HW130746   6.649   4.950   4.769
 9949SOL    HW230747   6.682   4.907   4.615
 9950SOL     OW30748   5.993   5.885   5.532
 9950SOL    HW130749   6.071   5.865   5.473
 9950SOL    HW230750   5.989   5.983   5.551
 9951SOL     OW30751   6.918   1.236   3.815
 9951SOL    HW130752   6.908   1.331   3.843
 9951SOL    HW230753   6.990   1.193   3.870
 9952SOL     OW30754   1.064   3.780   0.798
 9952SOL    HW130755   0.972   3.776   0.760
 9952SOL    HW230756   1.130   3.750   0.729
 9953SOL     OW30757   5.533   2.531   4.773
 9953SOL    HW130758   5.589   2.600   4.820
 9953SOL    HW230759   5.583   2.498   4.692
 9954SOL     OW30760   6.822   0.963   6.398
 9954SOL    HW130761   6.836   1.053   6.356
 9954SOL    HW230762   6.906   0.933   6.442
 9955SOL     OW30763   6.284   3.503   5.165
 9955SOL    HW130764   6.234   3.494   5.079
 9955SOL    HW230765   6.245   3.442   5.233
 9956SOL     OW30766   1.404   6.962   2.027
 9956SOL    HW130767   1.496   6.925   2.011
 9956SOL    HW230768   1.404   7.016   2.111
 9957SOL     OW30769   4.874   5.649   2.617
 9957SOL    HW130770   4.937   5.725   2.602
 9957SOL    HW230771   4.868   5.629   2.715
 9958SOL     OW30772   3.303   5.389   7.021
 9958SOL    HW130773   3.305   5.311   6.958
 9958SOL    HW230774   3.351   5.467   6.980
 9959SOL     OW30775   4.086   3.606   5.311
 9959SOL    HW130776   4.053   3.617   5.217
 9959SOL    HW230777   4.075   3.692   5.360
 9960SOL     OW30778   6.850   0.432   1.850
 9960SOL    HW130779   6.928   0.387   1.806
 9960SOL    HW230780   6.881   0.520   1.888
 9961SOL     OW30781   1.386   4.976   4.695
 9961SOL    HW130782   1.305   4.921   4.712
 9961SOL    HW230783   1.467   4.926   4.727
 9962SOL     OW30784   6.336   5.935   2.227
 9962SOL    HW130785   6.280   5.852   2.229
 9962SOL    HW230786   6.338   5.977   2.318
 9963SOL     OW30787   2.847   3.203   6.588
 9963SOL    HW130788   2.889   3.154   6.512
 9963SOL    HW230789   2.766   3.154   6.619
 9964SOL     OW30790   5.434   4.439   5.479
 9964SOL    HW130791   5.412   4.444   5.576
 9964SOL    HW230792   5.485   4.520   5.451
 9965SOL     OW30793   3.831   6.662   6.053
 9965SOL    HW130794   3.829   6.577   6.106
 9965SOL    HW230795   3.770   6.729   6.096
 9966SOL     OW30796   1.904   5.935   1.907
 9966SOL    HW130797   1.885   5.840   1.883
 9966SOL    HW230798   1.819   5.982   1.928
 9967SOL     OW30799   0.014   0.216   2.116
 9967SOL    HW130800   6.962   0.169   2.069
 9967SOL    HW230801   7.010   0.234   2.211
 9968SOL     OW30802   3.512   3.912   0.977
 9968SOL    HW130803   3.427   3.912   1.030
 9968SOL    HW230804   3.492   3.895   0.881
 9969SOL     OW30805   1.824   2.891   2.810
 9969SOL    HW130806   1.795   2.916   2.902
 9969SOL    HW230807   1.880   2.964   2.771
 9970SOL     OW30808   5.426   3.618   2.685
 9970SOL    HW130809   5.373   3.548   2.636
 9970SOL    HW230810   5.417   3.705   2.637
 9971SOL     OW30811   2.244   5.640   1.168
 9971SOL    HW130812   2.289   5.558   1.203
 9971SOL    HW230813   2.195   5.617   1.084
 9972SOL     OW30814   4.308   4.721   1.699
 9972SOL    HW130815   4.363   4.749   1.621
 9972SOL    HW230816   4.307   4.621   1.705
 9973SOL     OW30817   4.639   1.866   3.986
 9973SOL    HW130818   4.638   1.914   3.898
 9973SOL    HW230819   4.591   1.779   3.977
 9974SOL     OW30820   0.406   3.090   2.884
 9974SOL    HW130821   0.346   3.086   2.964
 9974SOL    HW230822   0.382   3.170   2.829
 9975SOL     OW30823   6.064   4.382   0.092
 9975SOL    HW130824   6.159   4.397   0.118
 9975SOL    HW230825   6.027   4.306   0.145
 9976SOL     OW30826   0.267   6.400   5.400
 9976SOL    HW130827   0.283   6.404   5.499
 9976SOL    HW230828   0.256   6.305   5.372
 9977SOL     OW30829   6.886   5.928   5.350
 9977SOL    HW130830   6.927   5.869   5.281
 9977SOL    HW230831   6.847   5.871   5.423
 9978SOL     OW30832   0.181   2.480   3.558
 9978SOL    HW130833   0.148   2.406   3.499
 9978SOL    HW230834   0.115   2.554   3.558
 9979SOL     OW30835   6.123   5.534   5.051
 9979SOL    HW130836   6.184   5.566   5.124
 9979SOL    HW230837   6.151   5.442   5.022
 9980SOL     OW30838   1.759   1.287   5.557
 9980SOL    HW130839   1.759   1.314   5.461
 9980SOL    HW230840   1.740   1.189   5.565
 9981SOL     OW30841   2.224   1.874   1.751
 9981SOL    HW130842   2.223   1.888   1.652
 9981SOL    HW230843   2.264   1.785   1.771
 9982SOL     OW30844   6.623   6.987   4.206
 9982SOL    HW130845   6.619   6.888   4.216
 9982SOL    HW230846   6.530   0.002   4.197
 9983SOL     OW30847   6.908   2.432   2.616
 9983SOL    HW130848   6.837   2.474   2.673
 9983SOL    HW230849   6.959   2.503   2.569
 9984SOL     OW30850   1.920   0.924   6.907
 9984SOL    HW130851   2.004   0.971   6.880
 9984SOL    HW230852   1.901   0.941   7.004
 9985SOL     OW30853   1.733   1.328   0.777
 9985SOL    HW130854   1.816   1.300   0.823
 9985SOL    HW230855   1.756   1.369   0.688
 9986SOL     OW30856   5.935   4.216   5.593
 9986SOL    HW130857   6.006   4.148   5.608
 9986SOL    HW230858   5.930   4.238   5.495
 9987SOL     OW30859   6.855   3.192   4.381
 9987SOL    HW130860   6.931   3.129   4.369
 9987SOL    HW230861   6.870   3.246   4.464
 9988SOL     OW30862   6.902   5.559   4.710
 9988SOL    HW130863   6.883   5.609   4.625
 9988SOL    HW230864   6.831   5.490   4.724
 9989SOL     OW30865   6.348   3.694   3.078
 9989SOL    HW130866   6.393   3.611   3.043
 9989SOL    HW230867   6.361   3.700   3.177
 9990SOL     OW30868   2.533   5.382   1.755
 9990SOL    HW130869   2.527   5.480   1.735
 9990SOL    HW230870   2.499   5.330   1.677
 9991SOL     OW30871   2.149   2.865   3.536
 9991SOL    HW130872   2.206   2.813   3.600
 9991SOL    HW230873   2.070   2.810   3.509
 9992SOL     OW30874   5.837   4.967   0.304
 9992SOL    HW130875   5.909   4.917   0.256
 9992SOL    HW230876   5.839   4.942   0.401
 9993SOL     OW30877   3.046   0.177   0.140
 9993SOL    HW130878   3.038   0.276   0.155
 9993SOL    HW230879   3.061   0.132   0.228
 9994SOL     OW30880   6.652   4.423   3.278
 9994SOL    HW130881   6.704   4.361   3.219
 9994SOL    HW230882   6.581   4.372   3.326
 9995SOL     OW30883   4.676   0.924   2.994
 9995SOL    HW130884   4.644   0.865   2.920
 9995SOL    HW230885   4.614   1.001   3.005
 9996SOL     OW30886   2.886   3.170   1.278
 9996SOL    HW130887   2.865   3.261   1.315
 9996SOL    HW230888   2.809   3.137   1.225
 9997SOL     OW30889   3.507   1.365   0.558
 9997SOL    HW130890   3.606   1.377   0.571
 9997SOL    HW230891   3.462   1.354   0.647
 9998SOL     OW30892   5.421   4.771   6.075
 9998SOL    HW130893   5.386   4.677   6.068
 9998SOL    HW230894   5.393   4.810   6.163
 9999SOL     OW30895   6.458   3.272   5.235
 9999SOL    HW130896   6.524   3.244   5.166
 9999SOL    HW230897   6.405   3.350   5.202
10000SOL     OW30898   0.334   4.409   6.749
10000SOL    HW130899   0.433   4.395   6.761
10000SOL    HW230900   0.301   4.470   6.820
10001SOL     OW30901   4.663   6.942   1.633
10001SOL    HW130902   4.690   6.853   1.598
10001SOL    HW230903   4.744   6.999   1.648
10002SOL     OW30904   1.903   0.345   2.842
10002SOL    HW130905   1.832   0.278   2.823
10002SOL    HW230906   1.957   0.361   2.759
10003SOL     OW30907   3.852   1.306   3.167
10003SOL    HW130908   3.790   1.367   3.215
10003SOL    HW230909   3.813   1.214   3.163
10004SOL     OW30910   6.085   2.306   4.400
10004SOL    HW130911   5.988   2.318   4.421
10004SOL    HW230912   6.129   2.395   4.394
10005SOL     OW30913   5.064   0.127   4.919
10005SOL    HW130914   5.099   0.212   4.879
10005SOL    HW230915   4.988   0.148   4.981
10006SOL     OW30916   5.323   5.963   3.916
10006SOL    HW130917   5.336   6.015   4.000
10006SOL    HW230918   5.225   5.951   3.899
10007SOL     OW30919   6.840   4.926   5.894
10007SOL    HW130920   6.847   4.892   5.800
10007SOL    HW230921   6.865   4.853   5.958
10008SOL     OW30922   4.107   1.416   4.512
10008SOL    HW130923   4.196   1.408   4.467
10008SOL    HW230924   4.090   1.512   4.536
10009SOL     OW30925   1.685   3.823   1.701
10009SOL    HW130926   1.596   3.805   1.744
10009SOL    HW230927   1.671   3.874   1.616
10010SOL     OW30928   2.403   0.758   5.674
10010SOL    HW130929   2.375   0.739   5.579
10010SOL    HW230930   2.444   0.676   5.713
10011SOL     OW30931   5.438   1.100   5.745
10011SOL    HW130932   5.521   1.085   5.801
10011SOL    HW230933   5.390   1.013   5.734
10012SOL     OW30934   5.760   1.621   3.380
10012SOL    HW130935   5.783   1.554   3.451
10012SOL    HW230936   5.665   1.610   3.353
10013SOL     OW30937   0.228   0.978   3.310
10013SOL    HW130938   0.274   1.066   3.313
10013SOL    HW230939   0.278   0.912   3.367
10014SOL     OW30940   6.600   3.870   0.488
10014SOL    HW130941   6.694   3.862   0.523
10014SOL    HW230942   6.577   3.966   0.474
10015SOL     OW30943   1.622   4.964   0.432
10015SOL    HW130944   1.613   4.948   0.530
10015SOL    HW230945   1.668   5.052   0.416
10016SOL     OW30946   1.018   0.435   6.502
10016SOL    HW130947   0.986   0.529   6.502
10016SOL    HW230948   0.951   0.377   6.548
10017SOL     OW30949   2.665   1.802   2.760
10017SOL    HW130950   2.618   1.853   2.689
10017SOL    HW230951   2.610   1.723   2.787
10018SOL     OW30952   4.517   0.152   6.415
10018SOL    HW130953   4.435   0.096   6.413
10018SOL    HW230954   4.517   0.215   6.338
10019SOL     OW30955   0.589   1.042   3.034
10019SOL    HW130956   0.581   1.068   2.938
10019SOL    HW230957   0.592   1.124   3.091
10020SOL     OW30958   1.918   2.718   1.041
10020SOL    HW130959   2.005   2.669   1.028
10020SOL    HW230960   1.885   2.704   1.134
10021SOL     OW30961   0.264   2.206   1.502
10021SOL    HW130962   0.345   2.150   1.487
10021SOL    HW230963   0.195   2.152   1.551
10022SOL     OW30964   2.545   1.156   6.046
10022SOL    HW130965   2.529   1.110   5.959
10022SOL    HW230966   2.509   1.249   6.042
10023SOL     OW30967   0.562   5.203   1.014
10023SOL    HW130968   0.538   5.113   1.052
10023SOL    HW230969   0.661   5.212   1.011
10024SOL     OW30970   2.243   5.709   2.075
10024SOL    HW130971   2.342   5.698   2.084
10024SOL    HW230972   2.207   5.644   2.008
10025SOL     OW30973   1.311   1.488   0.328
10025SOL    HW130974   1.218   1.526   0.335
10025SOL    HW230975   1.358   1.496   0.416
10026SOL     OW30976   4.994   6.230   3.856
10026SOL    HW130977   4.915   6.178   3.824
10026SOL    HW230978   5.073   6.207   3.799
10027SOL     OW30979   6.939   3.984   4.435
10027SOL    HW130980   0.014   3.993   4.455
10027SOL    HW230981   6.924   3.998   4.337
10028SOL     OW30982   1.256   0.618   2.648
10028SOL    HW130983   1.173   0.665   2.618
10028SOL    HW230984   1.233   0.524   2.673
10029SOL     OW30985   4.539   1.517   4.519
10029SOL    HW130986   4.565   1.593   4.460
10029SOL    HW230987   4.528   1.550   4.613
10030SOL     OW30988   1.768   0.387   3.091
10030SOL    HW130989   1.782   0.462   3.155
10030SOL    HW230990   1.821   0.404   3.008
10031SOL     OW30991   5.583   4.549   4.779
10031SOL    HW130992   5.577   4.479   4.851
10031SOL    HW230993   5.671   4.595   4.784
10032SOL     OW30994   2.916   1.118   4.936
10032SOL    HW130995   2.877   1.162   5.016
10032SOL    HW230996   2.887   1.168   4.853
10033SOL     OW30997   6.362   3.073   4.659
10033SOL    HW130998   6.304   3.155   4.665
10033SOL    HW230999   6.409   3.072   4.570
10034SOL     OW31000   3.551   0.361   4.376
10034SOL    HW131001   3.498   0.382   4.459
10034SOL    HW231002   3.612   0.438   4.356
10035SOL     OW31003   6.705   5.334   1.572
10035SOL    HW131004   6.640   5.310   1.644
10035SOL    HW231005   6.766   5.256   1.556
10036SOL     OW31006   6.205   2.209   0.613
10036SOL    HW131007   6.118   2.235   0.571
10036SOL    HW231008   6.214   2.110   0.614
10037SOL     OW31009   0.089   1.598   0.408
10037SOL    HW131010   0.128   1.677   0.361
10037SOL    HW231011   7.019   1.581   0.374
10038SOL     OW31012   6.215   0.358   0.260
10038SOL    HW131013   6.123   0.341   0.226
10038SOL    HW231014   6.226   0.455   0.281
10039SOL     OW31015   3.600   0.539   3.620
10039SOL    HW131016   3.639   0.447   3.628
10039SOL    HW231017   3.502   0.535   3.634
10040SOL     OW31018   5.861   5.112   6.343
10040SOL    HW131019   5.882   5.140   6.249
10040SOL    HW231020   5.769   5.073   6.346
10041SOL     OW31021   3.521   6.152   6.823
10041SOL    HW131022   3.487   6.074   6.769
10041SOL    HW231023   3.616   6.134   6.850
10042SOL     OW31024   0.491   1.695   3.659
10042SOL    HW131025   0.578   1.646   3.656
10042SOL    HW231026   0.436   1.670   3.578
10043SOL     OW31027   6.010   1.732   5.108
10043SOL    HW131028   6.090   1.671   5.107
10043SOL    HW231029   6.033   1.819   5.066
10044SOL     OW31030   2.386   2.907   5.439
10044SOL    HW131031   2.479   2.938   5.422
10044SOL    HW231032   2.321   2.978   5.412
10045SOL     OW31033   4.188   0.447   1.625
10045SOL    HW131034   4.233   0.536   1.628
10045SOL    HW231035   4.096   0.454   1.662
10046SOL     OW31036   2.070   3.693   1.174
10046SOL    HW131037   2.044   3.703   1.078
10046SOL    HW231038   1.989   3.670   1.228
10047SOL     OW31039   0.547   2.878   5.865
10047SOL    HW131040   0.507   2.871   5.957
10047SOL    HW231041   0.639   2.916   5.872
10048SOL     OW31042   6.645   6.486   2.798
10048SOL    HW131043   6.592   6.555   2.848
10048SOL    HW231044   6.719   6.453   2.856
10049SOL     OW31045   1.516   1.502   5.909
10049SOL    HW131046   1.519   1.494   5.809
10049SOL    HW231047   1.519   1.410   5.950
10050SOL     OW31048   5.616   3.515   4.835
10050SOL    HW131049   5.554   3.444   4.868
10050SOL    HW231050   5.709   3.479   4.832
10051SOL     OW31051   0.701   4.433   5.056
10051SOL    HW131052   0.790   4.476   5.069
10051SOL    HW231053   0.697   4.389   4.966
10052SOL     OW31054   1.645   1.162   3.166
10052SOL    HW131055   1.569   1.174   3.101
10052SOL    HW231056   1.649   1.067   3.195
10053SOL     OW31057   4.842   5.432   4.050
10053SOL    HW131058   4.779   5.414   3.974
10053SOL    HW231059   4.811   5.383   4.132
10054SOL     OW31060   5.314   4.028   5.114
10054SOL    HW131061   5.307   3.992   5.021
10054SOL    HW231062   5.409   4.028   5.143
10055SOL     OW31063   6.882   2.740   6.592
10055SOL    HW131064   6.883   2.830   6.637
10055SOL    HW231065   6.965   2.730   6.537
10056SOL     OW31066   5.457   3.889   2.968
10056SOL    HW131067   5.451   3.797   3.006
10056SOL    HW231068   5.383   3.903   2.902
10057SOL     OW31069   5.710   4.099   5.689
10057SOL    HW131070   5.788   4.142   5.643
10057SOL    HW231071   5.637   4.083   5.623
10058SOL     OW31072   6.755   3.431   4.265
10058SOL    HW131073   6.755   3.332   4.280
10058SOL    HW231074   6.827   3.473   4.321
10059SOL     OW31075   6.222   1.923   0.622
10059SOL    HW131076   6.188   1.853   0.558
10059SOL    HW231077   6.255   1.879   0.705
10060SOL     OW31078   2.422   1.652   2.490
10060SOL    HW131079   2.486   1.721   2.522
10060SOL    HW231080   2.472   1.584   2.435
10061SOL     OW31081   4.226   1.095   3.932
10061SOL    HW131082   4.281   1.129   4.008
10061SOL    HW231083   4.286   1.078   3.853
10062SOL     OW31084   6.813   6.672   4.269
10062SOL    HW131085   6.853   6.683   4.178
10062SOL    HW231086   6.715   6.656   4.261
10063SOL     OW31087   2.140   1.994   4.373
10063SOL    HW131088   2.156   2.058   4.449
10063SOL    HW231089   2.135   1.901   4.409
10064SOL     OW31090   3.800   6.126   6.848
10064SOL    HW131091   3.784   6.027   6.843
10064SOL    HW231092   3.861   6.153   6.773
10065SOL     OW31093   1.491   0.841   1.722
10065SOL    HW131094   1.438   0.917   1.760
10065SOL    HW231095   1.454   0.818   1.631
10066SOL     OW31096   0.202   3.451   5.232
10066SOL    HW131097   0.182   3.356   5.209
10066SOL    HW231098   0.175   3.510   5.157
10067SOL     OW31099   0.932   3.128   6.492
10067SOL    HW131100   0.893   3.168   6.575
10067SOL    HW231101   0.864   3.133   6.418
10068SOL     OW31102   1.816   3.477   2.931
10068SOL    HW131103   1.801   3.569   2.969
10068SOL    HW231104   1.804   3.480   2.831
10069SOL     OW31105   3.461   5.166   1.813
10069SOL    HW131106   3.480   5.240   1.749
10069SOL    HW231107   3.429   5.204   1.900
10070SOL     OW31108   2.168   5.684   4.324
10070SOL    HW131109   2.081   5.696   4.277
10070SOL    HW231110   2.162   5.722   4.416
10071SOL     OW31111   0.597   6.608   4.064
10071SOL    HW131112   0.635   6.606   3.971
10071SOL    HW231113   0.498   6.616   4.059
10072SOL     OW31114   0.185   1.560   2.603
10072SOL    HW131115   0.105   1.588   2.549
10072SOL    HW231116   0.154   1.517   2.688
10073SOL     OW31117   6.266   2.714   3.879
10073SOL    HW131118   6.285   2.657   3.959
10073SOL    HW231119   6.352   2.748   3.841
10074SOL     OW31120   1.405   5.420   0.372
10074SOL    HW131121   1.460   5.343   0.340
10074SOL    HW231122   1.364   5.466   0.293
10075SOL     OW31123   2.250   1.358   2.319
10075SOL    HW131124   2.259   1.410   2.235
10075SOL    HW231125   2.339   1.324   2.348
10076SOL     OW31126   4.814   5.265   3.052
10076SOL    HW131127   4.905   5.231   3.077
10076SOL    HW231128   4.773   5.311   3.131
10077SOL     OW31129   5.819   3.194   0.025
10077SOL    HW131130   5.737   3.236   0.064
10077SOL    HW231131   5.894   3.199   0.092
10078SOL     OW31132   6.677   6.571   5.109
10078SOL    HW131133   6.775   6.555   5.112
10078SOL    HW231134   6.652   6.610   5.021
10079SOL     OW31135   5.734   2.703   3.624
10079SOL    HW131136   5.669   2.723   3.550
10079SOL    HW231137   5.694   2.634   3.684
10080SOL     OW31138   5.652   1.027   5.911
10080SOL    HW131139   5.722   1.068   5.969
10080SOL    HW231140   5.677   0.932   5.891
10081SOL     OW31141   1.329   1.582   6.487
10081SOL    HW131142   1.370   1.632   6.411
10081SOL    HW231143   1.245   1.537   6.456
10082SOL     OW31144   1.072   5.047   2.684
10082SOL    HW131145   1.010   5.110   2.636
10082SOL    HW231146   1.159   5.093   2.701
10083SOL     OW31147   3.512   5.609   3.438
10083SOL    HW131148   3.541   5.692   3.392
10083SOL    HW231149   3.413   5.612   3.454
10084SOL     OW31150   0.557   0.304   5.341
10084SOL    HW131151   0.568   0.234   5.271
10084SOL    HW231152   0.509   0.266   5.419
10085SOL     OW31153   4.064   6.378   0.023
10085SOL    HW131154   3.974   6.390   7.004
10085SOL    HW231155   4.135   6.406   6.980
10086SOL     OW31156   5.977   6.465   2.152
10086SOL    HW131157   6.046   6.489   2.084
10086SOL    HW231158   5.990   6.369   2.180
10087SOL     OW31159   0.260   6.590   4.552
10087SOL    HW131160   0.360   6.593   4.559
10087SOL    HW231161   0.222   6.672   4.595
10088SOL     OW31162   6.778   2.217   0.098
10088SOL    HW131163   6.681   2.242   0.103
10088SOL    HW231164   6.833   2.291   0.136
10089SOL     OW31165   4.024   1.771   2.345
10089SOL    HW131166   3.977   1.823   2.273
10089SOL    HW231167   4.115   1.809   2.359
10090SOL     OW31168   1.133   5.313   1.585
10090SOL    HW131169   1.146   5.284   1.490
10090SOL    HW231170   1.195   5.262   1.644
10091SOL     OW31171   6.606   5.558   6.402
10091SOL    HW131172   6.661   5.500   6.463
10091SOL    HW231173   6.666   5.603   6.336
10092SOL     OW31174   0.812   3.333   5.735
10092SOL    HW131175   0.738   3.400   5.743
10092SOL    HW231176   0.888   3.374   5.686
10093SOL     OW31177   5.172   3.556   5.777
10093SOL    HW131178   5.098   3.522   5.719
10093SOL    HW231179   5.145   3.644   5.818
10094SOL     OW31180   3.267   6.687   0.927
10094SOL    HW131181   3.215   6.764   0.892
10094SOL    HW231182   3.355   6.681   0.879
10095SOL     OW31183   5.127   2.630   4.986
10095SOL    HW131184   5.110   2.673   4.897
10095SOL    HW231185   5.219   2.590   4.986
10096SOL     OW31186   4.925   0.823   2.648
10096SOL    HW131187   4.956   0.879   2.571
10096SOL    HW231188   4.991   0.750   2.665
10097SOL     OW31189   2.246   1.700   5.839
10097SOL    HW131190   2.249   1.761   5.760
10097SOL    HW231191   2.157   1.709   5.885
10098SOL     OW31192   3.080   5.378   4.557
10098SOL    HW131193   3.039   5.410   4.472
10098SOL    HW231194   3.032   5.418   4.635
10099SOL     OW31195   6.091   4.021   1.638
10099SOL    HW131196   6.067   4.053   1.546
10099SOL    HW231197   6.175   4.067   1.668
10100SOL     OW31198   5.368   5.672   5.360
10100SOL    HW131199   5.445   5.610   5.346
10100SOL    HW231200   5.383   5.756   5.308
10101SOL     OW31201   0.034   2.704   1.497
10101SOL    HW131202   6.982   2.644   1.468
10101SOL    HW231203   0.106   2.705   1.428
10102SOL     OW31204   6.084   0.086   0.636
10102SOL    HW131205   6.000   0.043   0.668
10102SOL    HW231206   6.069   0.185   0.627
10103SOL     OW31207   0.607   0.396   5.959
10103SOL    HW131208   0.594   0.448   5.875
10103SOL    HW231209   0.606   0.459   6.038
10104SOL     OW31210   2.012   0.531   6.116
10104SOL    HW131211   2.029   0.604   6.181
10104SOL    HW231212   2.092   0.470   6.113
10105SOL     OW31213   3.051   1.493   5.902
10105SOL    HW131214   3.056   1.591   5.920
10105SOL    HW231215   3.056   1.477   5.803
10106SOL     OW31216   5.080   6.168   1.509
10106SOL    HW131217   5.111   6.263   1.501
10106SOL    HW231218   5.013   6.161   1.583
10107SOL     OW31219   5.328   4.792   6.330
10107SOL    HW131220   5.316   4.705   6.379
10107SOL    HW231221   5.356   4.862   6.395
10108SOL     OW31222   1.466   3.216   0.601
10108SOL    HW131223   1.483   3.314   0.600
10108SOL    HW231224   1.369   3.198   0.585
10109SOL     OW31225   0.401   1.312   0.155
10109SOL    HW131226   0.345   1.365   0.091
10109SOL    HW231227   0.413   1.219   0.120
10110SOL     OW31228   4.609   5.213   2.873
10110SOL    HW131229   4.685   5.250   2.928
10110SOL    HW231230   4.639   5.131   2.825
10111SOL     OW31231   1.315   1.985   1.992
10111SOL    HW131232   1.271   2.037   2.065
10111SOL    HW231233   1.299   1.887   2.007
10112SOL     OW31234   6.501   2.804   3.748
10112SOL    HW131235   6.601   2.804   3.744
10112SOL    HW231236   6.466   2.895   3.725
10113SOL     OW31237   5.031   1.328   6.731
10113SOL    HW131238   5.018   1.406   6.671
10113SOL    HW231239   4.943   1.297   6.767
10114SOL     OW31240   4.074   1.996   3.224
10114SOL    HW131241   3.986   2.000   3.177
10114SOL    HW231242   4.120   1.910   3.201
10115SOL     OW31243   3.209   1.072   4.774
10115SOL    HW131244   3.241   1.154   4.727
10115SOL    HW231245   3.156   1.097   4.854
10116SOL     OW31246   6.379   0.840   5.481
10116SOL    HW131247   6.372   0.861   5.384
10116SOL    HW231248   6.331   0.911   5.533
10117SOL     OW31249   6.573   5.437   5.200
10117SOL    HW131250   6.605   5.437   5.295
10117SOL    HW231251   6.493   5.497   5.192
10118SOL     OW31252   3.135   5.231   5.002
10118SOL    HW131253   3.035   5.226   5.003
10118SOL    HW231254   3.163   5.325   5.021
10119SOL     OW31255   0.425   5.066   4.437
10119SOL    HW131256   0.437   5.109   4.348
10119SOL    HW231257   0.328   5.046   4.451
10120SOL     OW31258   1.547   2.984   2.284
10120SOL    HW131259   1.455   2.949   2.265
10120SOL    HW231260   1.558   2.998   2.382
10121SOL     OW31261   6.219   4.478   1.192
10121SOL    HW131262   6.180   4.387   1.181
10121SOL    HW231263   6.306   4.483   1.143
10122SOL     OW31264   0.526   2.009   3.323
10122SOL    HW131265   0.547   2.000   3.226
10122SOL    HW231266   0.484   2.098   3.340
10123SOL     OW31267   5.768   6.051   1.154
10123SOL    HW131268   5.787   6.125   1.217
10123SOL    HW231269   5.758   5.965   1.205
10124SOL     OW31270   1.477   4.676   2.763
10124SOL    HW131271   1.488   4.583   2.798
10124SOL    HW231272   1.388   4.711   2.789
10125SOL     OW31273   1.705   2.060   0.247
10125SOL    HW131274   1.787   2.116   0.252
10125SOL    HW231275   1.709   2.001   0.166
10126SOL     OW31276   5.764   0.658   6.751
10126SOL    HW131277   5.692   0.627   6.812
10126SOL    HW231278   5.734   0.739   6.702
10127SOL     OW31279   1.782   4.893   5.972
10127SOL    HW131280   1.873   4.885   5.931
10127SOL    HW231281   1.737   4.976   5.937
10128SOL     OW31282   3.350   0.585   0.489
10128SOL    HW131283   3.373   0.499   0.444
10128SOL    HW231284   3.432   0.625   0.529
10129SOL     OW31285   6.164   1.996   3.478
10129SOL    HW131286   6.131   1.907   3.447
10129SOL    HW231287   6.090   2.046   3.522
10130SOL     OW31288   1.597   2.040   2.073
10130SOL    HW131289   1.597   2.091   2.159
10130SOL    HW231290   1.506   2.002   2.057
10131SOL     OW31291   2.025   0.575   4.541
10131SOL    HW131292   2.073   0.613   4.462
10131SOL    HW231293   1.937   0.537   4.512
10132SOL     OW31294   6.535   0.324   2.231
10132SOL    HW131295   6.485   0.406   2.258
10132SOL    HW231296   6.578   0.283   2.312
10133SOL     OW31297   4.722   5.831   1.216
10133SOL    HW131298   4.692   5.870   1.129
10133SOL    HW231299   4.663   5.864   1.289
10134SOL     OW31300   5.675   0.594   2.390
10134SOL    HW131301   5.740   0.637   2.326
10134SOL    HW231302   5.617   0.529   2.339
10135SOL     OW31303   5.614   0.018   3.808
10135SOL    HW131304   5.684   0.083   3.836
10135SOL    HW231305   5.619   0.003   3.710
10136SOL     OW31306   4.891   2.109   2.729
10136SOL    HW131307   4.828   2.099   2.806
10136SOL    HW231308   4.848   2.165   2.658
10137SOL     OW31309   0.260   5.871   5.721
10137SOL    HW131310   0.170   5.913   5.717
10137SOL    HW231311   0.251   5.774   5.742
10138SOL     OW31312   5.404   1.273   6.893
10138SOL    HW131313   5.478   1.313   6.946
10138SOL    HW231314   5.328   1.337   6.888
10139SOL     OW31315   3.390   3.454   5.453
10139SOL    HW131316   3.321   3.483   5.386
10139SOL    HW231317   3.481   3.473   5.418
10140SOL     OW31318   6.904   5.494   5.947
10140SOL    HW131319   6.973   5.435   5.988
10140SOL    HW231320   6.817   5.446   5.942
10141SOL     OW31321   2.997   1.631   3.950
10141SOL    HW131322   3.017   1.640   4.047
10141SOL    HW231323   2.950   1.545   3.933
10142SOL     OW31324   6.231   6.100   4.302
10142SOL    HW131325   6.329   6.096   4.287
10142SOL    HW231326   6.191   6.010   4.285
10143SOL     OW31327   5.641   3.611   0.448
10143SOL    HW131328   5.588   3.593   0.365
10143SOL    HW231329   5.736   3.627   0.423
10144SOL     OW31330   3.539   6.247   5.394
10144SOL    HW131331   3.580   6.336   5.417
10144SOL    HW231332   3.539   6.188   5.475
10145SOL     OW31333   5.122   6.092   0.946
10145SOL    HW131334   5.154   6.033   1.020
10145SOL    HW231335   5.201   6.130   0.897
10146SOL     OW31336   0.464   3.560   4.056
10146SOL    HW131337   0.473   3.656   4.029
10146SOL    HW231338   0.436   3.555   4.151
10147SOL     OW31339   4.356   5.986   6.390
10147SOL    HW131340   4.343   6.039   6.306
10147SOL    HW231341   4.365   6.049   6.468
10148SOL     OW31342   1.198   4.963   6.868
10148SOL    HW131343   1.222   4.981   6.964
10148SOL    HW231344   1.231   5.038   6.811
10149SOL     OW31345   4.568   4.432   0.808
10149SOL    HW131346   4.655   4.413   0.762
10149SOL    HW231347   4.585   4.441   0.906
10150SOL     OW31348   4.402   4.034   0.484
10150SOL    HW131349   4.326   4.001   0.539
10150SOL    HW231350   4.477   4.063   0.545
10151SOL     OW31351   6.458   0.393   5.264
10151SOL    HW131352   6.407   0.405   5.350
10151SOL    HW231353   6.407   0.332   5.204
10152SOL     OW31354   5.562   6.186   2.688
10152SOL    HW131355   5.563   6.264   2.751
10152SOL    HW231356   5.636   6.196   2.621
10153SOL     OW31357   5.611   4.712   4.131
10153SOL    HW131358   5.580   4.753   4.045
10153SOL    HW231359   5.561   4.755   4.207
10154SOL     OW31360   4.029   5.366   5.532
10154SOL    HW131361   4.060   5.439   5.592
10154SOL    HW231362   3.942   5.330   5.564
10155SOL     OW31363   4.413   1.913   5.727
10155SOL    HW131364   4.486   1.845   5.732
10155SOL    HW231365   4.434   1.989   5.789
10156SOL     OW31366   4.846   0.561   1.062
10156SOL    HW131367   4.789   0.612   0.999
10156SOL    HW231368   4.921   0.517   1.012
10157SOL     OW31369   0.163   3.013   1.185
10157SOL    HW131370   0.251   3.061   1.185
10157SOL    HW231371   0.090   3.078   1.166
10158SOL     OW31372   5.569   6.414   1.764
10158SOL    HW131373   5.605   6.344   1.703
10158SOL    HW231374   5.640   6.442   1.829
10159SOL     OW31375   3.393   3.424   3.338
10159SOL    HW131376   3.377   3.390   3.431
10159SOL    HW231377   3.310   3.466   3.303
10160SOL     OW31378   2.266   4.051   3.078
10160SOL    HW131379   2.198   3.984   3.108
10160SOL    HW231380   2.251   4.072   2.982
10161SOL     OW31381   4.129   4.859   6.208
10161SOL    HW131382   4.124   4.945   6.259
10161SOL    HW231383   4.080   4.788   6.258
10162SOL     OW31384   1.630   4.328   2.472
10162SOL    HW131385   1.661   4.245   2.425
10162SOL    HW231386   1.534   4.316   2.500
10163SOL     OW31387   1.211   6.397   5.104
10163SOL    HW131388   1.262   6.374   5.187
10163SOL    HW231389   1.249   6.347   5.027
10164SOL     OW31390   6.903   2.754   3.409
10164SOL    HW131391   6.910   2.689   3.333
10164SOL    HW231392   6.945   2.714   3.491
10165SOL     OW31393   6.286   3.074   4.249
10165SOL    HW131394   6.190   3.096   4.233
10165SOL    HW231395   6.342   3.109   4.173
10166SOL     OW31396   1.214   2.535   0.829
10166SOL    HW131397   1.280   2.512   0.758
10166SOL    HW231398   1.121   2.522   0.794
10167SOL     OW31399   0.769   6.312   6.480
10167SOL    HW131400   0.740   6.216   6.474
10167SOL    HW231401   0.701   6.369   6.435
10168SOL     OW31402   5.884   1.195   0.072
10168SOL    HW131403   5.859   1.246   7.012
10168SOL    HW231404   5.980   1.166   0.066
10169SOL     OW31405   6.893   3.755   3.303
10169SOL    HW131406   6.927   3.699   3.228
10169SOL    HW231407   6.948   3.739   3.385
10170SOL     OW31408   6.178   5.669   0.228
10170SOL    HW131409   6.134   5.579   0.232
10170SOL    HW231410   6.111   5.739   0.208
10171SOL     OW31411   1.780   2.832   5.136
10171SOL    HW131412   1.814   2.813   5.044
10171SOL    HW231413   1.819   2.918   5.170
10172SOL     OW31414   6.513   0.326   3.646
10172SOL    HW131415   6.457   0.245   3.661
10172SOL    HW231416   6.488   0.368   3.559
10173SOL     OW31417   3.466   5.152   0.024
10173SOL    HW131418   3.553   5.195   0.046
10173SOL    HW231419   3.445   5.080   0.090
10174SOL     OW31420   4.564   6.638   2.472
10174SOL    HW131421   4.538   6.721   2.520
10174SOL    HW231422   4.610   6.661   2.386
10175SOL     OW31423   6.849   2.152   3.790
10175SOL    HW131424   6.760   2.143   3.746
10175SOL    HW231425   6.844   2.225   3.859
10176SOL     OW31426   6.001   3.073   5.591
10176SOL    HW131427   5.953   3.108   5.672
10176SOL    HW231428   6.099   3.071   5.608
10177SOL     OW31429   1.983   0.275   1.660
10177SOL    HW131430   2.030   0.361   1.644
10177SOL    HW231431   2.022   0.204   1.602
10178SOL     OW31432   1.444   1.662   0.029
10178SOL    HW131433   1.466   1.747   7.005
10178SOL    HW231434   1.515   1.643   0.098
10179SOL     OW31435   6.625   4.239   0.722
10179SOL    HW131436   6.692   4.250   0.796
10179SOL    HW231437   6.672   4.242   0.634
10180SOL     OW31438   4.305   6.795   6.294
10180SOL    HW131439   4.304   6.889   6.326
10180SOL    HW231440   4.328   6.734   6.370
10181SOL     OW31441   6.503   4.176   1.045
10181SOL    HW131442   6.499   4.194   1.143
10181SOL    HW231443   6.424   4.218   1.000
10182SOL     OW31444   5.119   1.273   0.041
10182SOL    HW131445   5.085   1.184   0.012
10182SOL    HW231446   5.047   1.322   0.091
10183SOL     OW31447   6.640   1.920   6.208
10183SOL    HW131448   6.654   1.822   6.224
10183SOL    HW231449   6.644   1.969   6.295
10184SOL     OW31450   6.049   3.605   5.850
10184SOL    HW131451   6.106   3.635   5.774
10184SOL    HW231452   6.061   3.668   5.927
10185SOL     OW31453   4.059   5.947   2.425
10185SOL    HW131454   4.151   5.947   2.462
10185SOL    HW231455   4.005   6.018   2.470
10186SOL     OW31456   5.150   4.154   5.498
10186SOL    HW131457   5.181   4.224   5.434
10186SOL    HW231458   5.061   4.179   5.535
10187SOL     OW31459   2.688   4.714   6.075
10187SOL    HW131460   2.639   4.627   6.066
10187SOL    HW231461   2.783   4.702   6.047
10188SOL     OW31462   2.688   6.876   0.215
10188SOL    HW131463   2.743   6.885   0.132
10188SOL    HW231464   2.593   6.858   0.190
10189SOL     OW31465   1.200   1.403   5.986
10189SOL    HW131466   1.145   1.332   5.942
10189SOL    HW231467   1.144   1.453   6.052
10190SOL     OW31468   3.101   4.604   1.214
10190SOL    HW131469   3.197   4.627   1.229
10190SOL    HW231470   3.054   4.599   1.303
10191SOL     OW31471   5.958   5.626   6.983
10191SOL    HW131472   6.053   5.655   6.970
10191SOL    HW231473   5.940   5.546   6.927
10192SOL     OW31474   2.107   1.892   5.279
10192SOL    HW131475   2.179   1.949   5.239
10192SOL    HW231476   2.083   1.926   5.369
10193SOL     OW31477   4.078   3.796   2.926
10193SOL    HW131478   4.097   3.830   3.019
10193SOL    HW231479   4.015   3.859   2.880
10194SOL     OW31480   3.746   0.089   4.495
10194SOL    HW131481   3.764   0.185   4.470
10194SOL    HW231482   3.801   0.066   4.575
10195SOL     OW31483   5.182   6.980   2.058
10195SOL    HW131484   5.245   0.006   2.119
10195SOL    HW231485   5.219   6.890   2.037
10196SOL     OW31486   5.691   1.661   3.000
10196SOL    HW131487   5.677   1.721   2.922
10196SOL    HW231488   5.687   1.714   3.085
10197SOL     OW31489   6.268   0.015   2.975
10197SOL    HW131490   6.211   0.061   2.906
10197SOL    HW231491   6.328   0.083   3.019
10198SOL     OW31492   3.304   6.571   1.727
10198SOL    HW131493   3.375   6.602   1.789
10198SOL    HW231494   3.261   6.649   1.682
10199SOL     OW31495   1.244   1.768   6.659
10199SOL    HW131496   1.178   1.714   6.710
10199SOL    HW231497   1.300   1.708   6.602
10200SOL     OW31498   5.158   4.396   5.343
10200SOL    HW131499   5.149   4.345   5.258
10200SOL    HW231500   5.251   4.432   5.351
10201SOL     OW31501   0.751   5.115   2.339
10201SOL    HW131502   0.841   5.133   2.301
10201SOL    HW231503   0.722   5.023   2.313
10202SOL     OW31504   0.575   4.022   1.506
10202SOL    HW131505   0.496   3.977   1.547
10202SOL    HW231506   0.657   3.966   1.523
10203SOL     OW31507   2.093   3.053   2.129
10203SOL    HW131508   2.130   3.092   2.213
10203SOL    HW231509   2.133   2.962   2.114
10204SOL     OW31510   2.924   4.785   5.665
10204SOL    HW131511   2.923   4.764   5.567
10204SOL    HW231512   2.876   4.871   5.681
10205SOL     OW31513   5.699   1.849   3.954
10205SOL    HW131514   5.681   1.773   3.891
10205SOL    HW231515   5.667   1.934   3.913
10206SOL     OW31516   5.681   6.698   6.273
10206SOL    HW131517   5.725   6.690   6.184
10206SOL    HW231518   5.750   6.709   6.344
10207SOL     OW31519   2.640   0.497   2.819
10207SOL    HW131520   2.579   0.515   2.742
10207SOL    HW231521   2.619   0.408   2.858
10208SOL     OW31522   5.785   5.228   5.105
10208SOL    HW131523   5.746   5.136   5.106
10208SOL    HW231524   5.853   5.236   5.179
10209SOL     OW31525   6.679   1.165   6.269
10209SOL    HW131526   6.683   1.144   6.172
10209SOL    HW231527   6.585   1.153   6.303
10210SOL     OW31528   5.577   6.879   2.415
10210SOL    HW131529   5.523   6.952   2.372
10210SOL    HW231530   5.584   6.896   2.513
10211SOL     OW31531   4.012   6.965   5.397
10211SOL    HW131532   3.966   6.956   5.485
10211SOL    HW231533   3.948   6.944   5.323
10212SOL     OW31534   0.556   1.201   3.637
10212SOL    HW131535   0.631   1.217   3.573
10212SOL    HW231536   0.546   1.279   3.698
10213SOL     OW31537   6.037   1.679   2.956
10213SOL    HW131538   6.134   1.656   2.953
10213SOL    HW231539   5.986   1.599   2.988
10214SOL     OW31540   6.384   0.518   2.344
10214SOL    HW131541   6.352   0.516   2.249
10214SOL    HW231542   6.392   0.613   2.374
10215SOL     OW31543   3.586   3.378   5.999
10215SOL    HW131544   3.579   3.280   6.016
10215SOL    HW231545   3.620   3.393   5.906
10216SOL     OW31546   6.234   6.904   0.988
10216SOL    HW131547   6.181   6.986   0.966
10216SOL    HW231548   6.301   6.926   1.058
10217SOL     OW31549   2.954   1.977   4.183
10217SOL    HW131550   2.948   2.044   4.109
10217SOL    HW231551   2.962   1.886   4.145
10218SOL     OW31552   1.664   0.918   1.329
10218SOL    HW131553   1.649   0.998   1.388
10218SOL    HW231554   1.599   0.919   1.254
10219SOL     OW31555   0.946   1.848   2.217
10219SOL    HW131556   0.922   1.919   2.150
10219SOL    HW231557   0.957   1.761   2.169
10220SOL     OW31558   4.138   1.778   1.691
10220SOL    HW131559   4.097   1.861   1.730
10220SOL    HW231560   4.071   1.703   1.696
10221SOL     OW31561   2.800   0.636   5.138
10221SOL    HW131562   2.708   0.675   5.150
10221SOL    HW231563   2.865   0.711   5.121
10222SOL     OW31564   1.113   4.214   5.484
10222SOL    HW131565   1.107   4.241   5.580
10222SOL    HW231566   1.208   4.194   5.461
10223SOL     OW31567   1.855   4.889   6.780
10223SOL    HW131568   1.758   4.869   6.768
10223SOL    HW231569   1.909   4.820   6.733
10224SOL     OW31570   0.964   0.683   4.245
10224SOL    HW131571   1.011   0.594   4.250
10224SOL    HW231572   0.938   0.712   4.337
10225SOL     OW31573   0.330   5.906   4.447
10225SOL    HW131574   0.326   5.863   4.537
10225SOL    HW231575   0.419   5.885   4.405
10226SOL     OW31576   2.813   1.231   6.859
10226SOL    HW131577   2.740   1.278   6.909
10226SOL    HW231578   2.846   1.289   6.785
10227SOL     OW31579   4.756   4.365   0.188
10227SOL    HW131580   4.713   4.390   0.274
10227SOL    HW231581   4.728   4.272   0.162
10228SOL     OW31582   0.468   5.465   2.451
10228SOL    HW131583   0.407   5.520   2.394
10228SOL    HW231584   0.414   5.399   2.503
10229SOL     OW31585   0.606   0.225   3.150
10229SOL    HW131586   0.542   0.298   3.172
10229SOL    HW231587   0.700   0.259   3.160
10230SOL     OW31588   6.316   0.055   3.607
10230SOL    HW131589   6.398   0.009   3.641
10230SOL    HW231590   6.341   0.118   3.533
10231SOL     OW31591   6.179   6.952   4.706
10231SOL    HW131592   6.238   0.007   4.685
10231SOL    HW231593   6.088   6.985   4.732
10232SOL     OW31594   3.524   0.933   4.134
10232SOL    HW131595   3.495   1.025   4.158
10232SOL    HW231596   3.623   0.925   4.147
10233SOL     OW31597   4.069   2.907   6.215
10233SOL    HW131598   4.133   2.909   6.138
10233SOL    HW231599   4.049   2.812   6.238
10234SOL     OW31600   5.058   0.397   0.686
10234SOL    HW131601   4.993   0.324   0.663
10234SOL    HW231602   5.137   0.392   0.625
10235SOL     OW31603   4.551   1.135   0.214
10235SOL    HW131604   4.637   1.148   0.165
10235SOL    HW231605   4.549   1.195   0.294
10236SOL     OW31606   2.241   6.385   1.281
10236SOL    HW131607   2.234   6.319   1.356
10236SOL    HW231608   2.337   6.399   1.258
10237SOL     OW31609   6.481   4.383   1.792
10237SOL    HW131610   6.547   4.446   1.751
10237SOL    HW231611   6.412   4.434   1.842
10238SOL     OW31612   3.687   4.426   5.360
10238SOL    HW131613   3.602   4.394   5.317
10238SOL    HW231614   3.737   4.347   5.397
10239SOL     OW31615   0.680   4.239   5.315
10239SOL    HW131616   0.696   4.143   5.290
10239SOL    HW231617   0.710   4.298   5.241
10240SOL     OW31618   0.832   4.287   2.907
10240SOL    HW131619   0.837   4.210   2.969
10240SOL    HW231620   0.825   4.254   2.813
10241SOL     OW31621   0.582   1.281   2.023
10241SOL    HW131622   0.563   1.183   2.011
10241SOL    HW231623   0.506   1.334   1.986
10242SOL     OW31624   0.234   1.329   5.810
10242SOL    HW131625   0.192   1.271   5.740
10242SOL    HW231626   0.322   1.364   5.776
10243SOL     OW31627   0.105   5.505   1.316
10243SOL    HW131628   0.148   5.576   1.260
10243SOL    HW231629   0.154   5.496   1.402
10244SOL     OW31630   2.477   4.984   6.973
10244SOL    HW131631   2.523   4.973   0.039
10244SOL    HW231632   2.462   5.081   6.954
10245SOL     OW31633   1.894   3.146   6.811
10245SOL    HW131634   1.944   3.060   6.818
10245SOL    HW231635   1.880   3.184   6.903
10246SOL     OW31636   2.958   3.778   4.529
10246SOL    HW131637   2.944   3.773   4.628
10246SOL    HW231638   2.992   3.869   4.504
10247SOL     OW31639   0.360   5.638   5.579
10247SOL    HW131640   0.298   5.714   5.561
10247SOL    HW231641   0.389   5.598   5.492
10248SOL     OW31642   3.230   0.468   2.405
10248SOL    HW131643   3.227   0.565   2.380
10248SOL    HW231644   3.179   0.414   2.339
10249SOL     OW31645   3.830   0.701   5.564
10249SOL    HW131646   3.777   0.659   5.638
10249SOL    HW231647   3.904   0.756   5.603
10250SOL     OW31648   6.437   1.056   1.596
10250SOL    HW131649   6.505   1.006   1.649
10250SOL    HW231650   6.426   1.012   1.507
10251SOL     OW31651   2.766   2.799   6.230
10251SOL    HW131652   2.722   2.839   6.150
10251SOL    HW231653   2.704   2.733   6.273
10252SOL     OW31654   5.844   6.591   0.946
10252SOL    HW131655   5.936   6.623   0.969
10252SOL    HW231656   5.834   6.586   0.847
10253SOL     OW31657   4.674   5.104   0.472
10253SOL    HW131658   4.624   5.017   0.474
10253SOL    HW231659   4.772   5.086   0.464
10254SOL     OW31660   3.106   1.906   4.884
10254SOL    HW131661   3.062   1.827   4.927
10254SOL    HW231662   3.045   1.984   4.887
10255SOL     OW31663   1.853   6.383   2.060
10255SOL    HW131664   1.815   6.308   2.115
10255SOL    HW231665   1.949   6.364   2.039
10256SOL     OW31666   5.093   7.006   0.758
10256SOL    HW131667   5.014   0.023   0.711
10256SOL    HW231668   5.149   0.056   0.796
10257SOL     OW31669   1.126   5.020   5.539
10257SOL    HW131670   1.125   5.032   5.638
10257SOL    HW231671   1.125   4.923   5.517
10258SOL     OW31672   4.995   6.048   3.491
10258SOL    HW131673   4.900   6.025   3.511
10258SOL    HW231674   5.008   6.147   3.502
10259SOL     OW31675   0.133   5.057   3.843
10259SOL    HW131676   0.211   5.011   3.886
10259SOL    HW231677   0.167   5.121   3.773
10260SOL     OW31678   0.100   6.174   2.916
10260SOL    HW131679   0.189   6.216   2.928
10260SOL    HW231680   0.107   6.101   2.848
10261SOL     OW31681   6.832   6.198   2.459
10261SOL    HW131682   6.782   6.154   2.385
10261SOL    HW231683   6.771   6.212   2.538
10262SOL     OW31684   3.491   4.952   4.527
10262SOL    HW131685   3.507   4.970   4.430
10262SOL    HW231686   3.503   5.037   4.579
10263SOL     OW31687   5.094   2.014   6.948
10263SOL    HW131688   5.068   2.012   6.851
10263SOL    HW231689   5.044   1.943   6.997
10264SOL     OW31690   5.975   1.680   6.559
10264SOL    HW131691   5.993   1.693   6.461
10264SOL    HW231692   5.892   1.730   6.584
10265SOL     OW31693   3.343   1.754   3.143
10265SOL    HW131694   3.284   1.778   3.220
10265SOL    HW231695   3.385   1.837   3.106
10266SOL     OW31696   3.863   3.823   6.117
10266SOL    HW131697   3.945   3.870   6.149
10266SOL    HW231698   3.782   3.869   6.152
10267SOL     OW31699   6.521   2.321   0.087
10267SOL    HW131700   6.446   2.257   0.075
10267SOL    HW231701   6.530   2.378   0.005
10268SOL     OW31702   5.632   6.191   1.530
10268SOL    HW131703   5.536   6.185   1.501
10268SOL    HW231704   5.685   6.239   1.461
10269SOL     OW31705   2.607   2.038   5.440
10269SOL    HW131706   2.612   2.136   5.420
10269SOL    HW231707   2.546   1.994   5.374
10270SOL     OW31708   1.837   5.799   0.632
10270SOL    HW131709   1.925   5.757   0.610
10270SOL    HW231710   1.841   5.897   0.608
10271SOL     OW31711   3.400   3.610   0.476
10271SOL    HW131712   3.364   3.700   0.452
10271SOL    HW231713   3.385   3.547   0.400
10272SOL     OW31714   1.298   1.036   3.922
10272SOL    HW131715   1.224   0.999   3.979
10272SOL    HW231716   1.372   1.069   3.981
10273SOL     OW31717   3.732   5.490   3.923
10273SOL    HW131718   3.671   5.432   3.869
10273SOL    HW231719   3.751   5.445   4.010
10274SOL     OW31720   1.171   5.124   5.813
10274SOL    HW131721   1.178   5.208   5.865
10274SOL    HW231722   1.255   5.070   5.825
10275SOL     OW31723   0.802   6.447   3.257
10275SOL    HW131724   0.844   6.361   3.283
10275SOL    HW231725   0.856   6.490   3.185
10276SOL     OW31726   6.753   5.741   5.873
10276SOL    HW131727   6.834   5.682   5.879
10276SOL    HW231728   6.671   5.686   5.891
10277SOL     OW31729   2.994   6.358   3.949
10277SOL    HW131730   3.051   6.421   3.896
10277SOL    HW231731   3.017   6.364   4.046
10278SOL     OW31732   6.703   1.460   6.072
10278SOL    HW131733   6.640   1.530   6.106
10278SOL    HW231734   6.752   1.419   6.149
10279SOL     OW31735   3.350   0.136   4.297
10279SOL    HW131736   3.312   0.165   4.208
10279SOL    HW231737   3.424   0.198   4.323
10280SOL     OW31738   2.272   4.754   0.684
10280SOL    HW131739   2.205   4.816   0.644
10280SOL    HW231740   2.227   4.693   0.750
10281SOL     OW31741   4.855   1.675   3.272
10281SOL    HW131742   4.871   1.577   3.264
10281SOL    HW231743   4.909   1.711   3.348
10282SOL     OW31744   0.196   2.908   3.637
10282SOL    HW131745   0.177   2.963   3.555
10282SOL    HW231746   0.285   2.863   3.627
10283SOL     OW31747   0.824   3.348   1.035
10283SOL    HW131748   0.850   3.444   1.021
10283SOL    HW231749   0.734   3.345   1.079
10284SOL     OW31750   5.393   3.930   4.862
10284SOL    HW131751   5.475   3.873   4.861
10284SOL    HW231752   5.364   3.948   4.768
10285SOL     OW31753   4.972   0.348   1.374
10285SOL    HW131754   4.996   0.328   1.469
10285SOL    HW231755   4.881   0.310   1.354
10286SOL     OW31756   3.958   1.588   2.544
10286SOL    HW131757   3.969   1.654   2.470
10286SOL    HW231758   3.962   1.635   2.632
10287SOL     OW31759   1.620   6.483   2.080
10287SOL    HW131760   1.566   6.492   1.996
10287SOL    HW231761   1.711   6.449   2.057
10288SOL     OW31762   5.065   5.561   2.936
10288SOL    HW131763   5.123   5.643   2.934
10288SOL    HW231764   5.100   5.494   2.871
10289SOL     OW31765   2.969   1.265   1.259
10289SOL    HW131766   2.914   1.219   1.328
10289SOL    HW231767   2.941   1.235   1.168
10290SOL     OW31768   3.884   3.970   2.807
10290SOL    HW131769   3.951   3.984   2.734
10290SOL    HW231770   3.796   4.009   2.779
10291SOL     OW31771   4.053   0.909   3.547
10291SOL    HW131772   3.982   0.919   3.478
10291SOL    HW231773   4.011   0.881   3.634
10292SOL     OW31774   0.399   2.196   4.804
10292SOL    HW131775   0.414   2.229   4.711
10292SOL    HW231776   0.471   2.231   4.864
10293SOL     OW31777   1.598   6.193   2.889
10293SOL    HW131778   1.665   6.162   2.956
10293SOL    HW231779   1.513   6.143   2.900
10294SOL     OW31780   4.835   2.538   2.822
10294SOL    HW131781   4.786   2.594   2.754
10294SOL    HW231782   4.805   2.564   2.914
10295SOL     OW31783   6.233   4.465   5.632
10295SOL    HW131784   6.320   4.502   5.663
10295SOL    HW231785   6.230   4.366   5.651
10296SOL     OW31786   6.015   4.223   6.036
10296SOL    HW131787   5.952   4.179   5.974
10296SOL    HW231788   5.976   4.224   6.128
10297SOL     OW31789   2.714   6.704   4.420
10297SOL    HW131790   2.736   6.665   4.330
10297SOL    HW231791   2.738   6.801   4.421
10298SOL     OW31792   4.922   4.165   3.207
10298SOL    HW131793   4.981   4.189   3.284
10298SOL    HW231794   4.834   4.210   3.217
10299SOL     OW31795   4.711   4.355   3.414
10299SOL    HW131796   4.647   4.396   3.479
10299SOL    HW231797   4.664   4.284   3.362
10300SOL     OW31798   1.433   3.462   1.810
10300SOL    HW131799   1.337   3.436   1.817
10300SOL    HW231800   1.445   3.553   1.851
10301SOL     OW31801   5.951   1.690   3.647
10301SOL    HW131802   6.036   1.651   3.680
10301SOL    HW231803   5.960   1.789   3.638
10302SOL     OW31804   1.083   6.294   2.524
10302SOL    HW131805   1.047   6.210   2.483
10302SOL    HW231806   1.179   6.281   2.549
10303SOL     OW31807   3.680   3.405   1.792
10303SOL    HW131808   3.632   3.475   1.740
10303SOL    HW231809   3.658   3.314   1.756
10304SOL     OW31810   6.219   0.092   4.065
10304SOL    HW131811   6.202   7.016   4.051
10304SOL    HW231812   6.213   0.139   3.977
10305SOL     OW31813   1.672   5.649   0.040
10305SOL    HW131814   1.763   5.638   0.079
10305SOL    HW231815   1.603   5.624   0.108
10306SOL     OW31816   4.473   5.622   6.813
10306SOL    HW131817   4.394   5.632   6.754
10306SOL    HW231818   4.556   5.617   6.757
10307SOL     OW31819   1.600   1.078   5.459
10307SOL    HW131820   1.624   1.005   5.524
10307SOL    HW231821   1.579   1.037   5.370
10308SOL     OW31822   3.163   5.033   3.485
10308SOL    HW131823   3.203   5.002   3.398
10308SOL    HW231824   3.064   5.024   3.481
10309SOL     OW31825   5.676   6.299   3.385
10309SOL    HW131826   5.674   6.284   3.286
10309SOL    HW231827   5.727   6.382   3.405
10310SOL     OW31828   2.996   3.478   2.150
10310SOL    HW131829   2.957   3.465   2.241
10310SOL    HW231830   3.066   3.409   2.134
10311SOL     OW31831   0.428   5.942   0.777
10311SOL    HW131832   0.421   6.040   0.792
10311SOL    HW231833   0.481   5.901   0.852
10312SOL     OW31834   3.582   4.725   0.769
10312SOL    HW131835   3.484   4.721   0.789
10312SOL    HW231836   3.615   4.818   0.784
10313SOL     OW31837   4.919   0.039   2.255
10313SOL    HW131838   4.995   0.098   2.281
10313SOL    HW231839   4.952   6.968   2.242
10314SOL     OW31840   6.472   0.101   0.528
10314SOL    HW131841   6.487   0.190   0.570
10314SOL    HW231842   6.408   0.048   0.583
10315SOL     OW31843   6.408   6.083   5.533
10315SOL    HW131844   6.374   6.113   5.622
10315SOL    HW231845   6.333   6.086   5.466
10316SOL     OW31846   0.227   3.842   4.860
10316SOL    HW131847   0.282   3.799   4.789
10316SOL    HW231848   0.180   3.771   4.913
10317SOL     OW31849   3.979   5.273   6.586
10317SOL    HW131850   4.054   5.315   6.535
10317SOL    HW231851   3.917   5.228   6.522
10318SOL     OW31852   6.571   4.999   1.166
10318SOL    HW131853   6.511   5.078   1.178
10318SOL    HW231854   6.655   5.028   1.121
10319SOL     OW31855   0.615   4.343   3.802
10319SOL    HW131856   0.518   4.331   3.818
10319SOL    HW231857   0.638   4.311   3.710
10320SOL     OW31858   0.810   6.673   1.192
10320SOL    HW131859   0.812   6.664   1.092
10320SOL    HW231860   0.837   6.766   1.217
10321SOL     OW31861   4.589   5.994   4.443
10321SOL    HW131862   4.508   5.946   4.408
10321SOL    HW231863   4.633   6.044   4.368
10322SOL     OW31864   6.339   5.408   0.868
10322SOL    HW131865   6.417   5.449   0.914
10322SOL    HW231866   6.332   5.445   0.775
10323SOL     OW31867   6.408   3.341   6.006
10323SOL    HW131868   6.481   3.410   6.006
10323SOL    HW231869   6.408   3.293   6.094
10324SOL     OW31870   3.265   2.957   3.677
10324SOL    HW131871   3.295   2.902   3.755
10324SOL    HW231872   3.345   2.987   3.625
10325SOL     OW31873   6.382   3.697   3.338
10325SOL    HW131874   6.475   3.696   3.373
10325SOL    HW231875   6.330   3.623   3.380
10326SOL     OW31876   5.045   3.099   0.275
10326SOL    HW131877   5.117   3.061   0.218
10326SOL    HW231878   4.980   3.149   0.217
10327SOL     OW31879   1.256   1.004   3.146
10327SOL    HW131880   1.325   0.932   3.141
10327SOL    HW231881   1.300   1.093   3.138
10328SOL     OW31882   5.811   3.890   2.393
10328SOL    HW131883   5.833   3.793   2.377
10328SOL    HW231884   5.890   3.946   2.374
10329SOL     OW31885   3.364   0.454   2.934
10329SOL    HW131886   3.294   0.394   2.972
10329SOL    HW231887   3.372   0.439   2.836
10330SOL     OW31888   3.656   5.509   2.739
10330SOL    HW131889   3.724   5.519   2.666
10330SOL    HW231890   3.590   5.584   2.733
10331SOL     OW31891   5.410   0.738   3.608
10331SOL    HW131892   5.418   0.831   3.645
10331SOL    HW231893   5.422   0.672   3.682
10332SOL     OW31894   0.033   2.014   0.927
10332SOL    HW131895   0.104   1.943   0.932
10332SOL    HW231896   6.967   1.971   0.908
10333SOL     OW31897   5.946   5.179   4.338
10333SOL    HW131898   6.025   5.188   4.278
10333SOL    HW231899   5.966   5.223   4.426
10334SOL     OW31900   2.358   4.923   4.317
10334SOL    HW131901   2.354   4.880   4.227
10334SOL    HW231902   2.336   4.855   4.387
10335SOL     OW31903   2.059   5.855   6.795
10335SOL    HW131904   2.087   5.809   6.880
10335SOL    HW231905   1.999   5.794   6.743
10336SOL     OW31906   4.310   6.878   1.977
10336SOL    HW131907   4.361   6.797   1.949
10336SOL    HW231908   4.363   6.960   1.958
10337SOL     OW31909   0.354   5.384   4.898
10337SOL    HW131910   0.389   5.314   4.960
10337SOL    HW231911   0.302   5.341   4.824
10338SOL     OW31912   3.156   6.885   2.025
10338SOL    HW131913   3.177   6.924   2.115
10338SOL    HW231914   3.233   6.902   1.963
10339SOL     OW31915   3.418   6.090   0.988
10339SOL    HW131916   3.470   6.143   1.055
10339SOL    HW231917   3.464   6.003   0.970
10340SOL     OW31918   2.452   6.190   6.952
10340SOL    HW131919   2.374   6.188   6.890
10340SOL    HW231920   2.451   6.275   7.005
10341SOL     OW31921   2.464   1.990   2.123
10341SOL    HW131922   2.411   2.053   2.180
10341SOL    HW231923   2.465   2.022   2.029
10342SOL     OW31924   2.523   0.092   5.473
10342SOL    HW131925   2.487   0.185   5.470
10342SOL    HW231926   2.493   0.042   5.392
10343SOL     OW31927   2.555   4.019   6.076
10343SOL    HW131928   2.638   4.049   6.029
10343SOL    HW231929   2.486   3.994   6.008
10344SOL     OW31930   4.132   3.705   5.046
10344SOL    HW131931   4.134   3.719   4.947
10344SOL    HW231932   4.207   3.755   5.089
10345SOL     OW31933   2.352   1.249   0.121
10345SOL    HW131934   2.318   1.307   0.048
10345SOL    HW231935   2.275   1.217   0.177
10346SOL     OW31936   4.988   6.824   6.886
10346SOL    HW131937   5.010   6.727   6.893
10346SOL    HW231938   5.064   6.873   6.843
10347SOL     OW31939   5.563   1.989   1.434
10347SOL    HW131940   5.511   1.957   1.355
10347SOL    HW231941   5.519   1.957   1.518
10348SOL     OW31942   6.079   1.221   6.439
10348SOL    HW131943   6.164   1.235   6.490
10348SOL    HW231944   6.051   1.125   6.448
10349SOL     OW31945   6.363   1.166   1.284
10349SOL    HW131946   6.317   1.223   1.352
10349SOL    HW231947   6.364   1.071   1.316
10350SOL     OW31948   3.413   5.716   4.435
10350SOL    HW131949   3.470   5.655   4.381
10350SOL    HW231950   3.419   5.692   4.532
10351SOL     OW31951   5.868   5.509   4.660
10351SOL    HW131952   5.884   5.474   4.752
10351SOL    HW231953   5.925   5.589   4.644
10352SOL     OW31954   5.213   1.498   6.907
10352SOL    HW131955   5.138   1.431   6.903
10352SOL    HW231956   5.217   1.536   7.000
10353SOL     OW31957   0.720   2.966   3.111
10353SOL    HW131958   0.677   2.990   3.198
10353SOL    HW231959   0.819   2.978   3.119
10354SOL     OW31960   0.204   3.698   0.480
10354SOL    HW131961   0.293   3.724   0.442
10354SOL    HW231962   0.145   3.779   0.483
10355SOL     OW31963   1.091   0.891   0.916
10355SOL    HW131964   1.121   0.811   0.865
10355SOL    HW231965   1.077   0.865   1.012
10356SOL     OW31966   6.989   3.163   6.919
10356SOL    HW131967   6.902   3.151   6.967
10356SOL    HW231968   6.973   3.216   6.835
10357SOL     OW31969   1.648   2.398   6.662
10357SOL    HW131970   1.587   2.400   6.583
10357SOL    HW231971   1.743   2.410   6.631
10358SOL     OW31972   1.525   2.423   2.535
10358SOL    HW131973   1.607   2.459   2.492
10358SOL    HW231974   1.465   2.498   2.563
10359SOL     OW31975   5.453   2.282   3.008
10359SOL    HW131976   5.430   2.286   3.105
10359SOL    HW231977   5.548   2.251   2.997
10360SOL     OW31978   5.312   4.993   3.184
10360SOL    HW131979   5.319   5.075   3.128
10360SOL    HW231980   5.252   5.011   3.262
10361SOL     OW31981   1.786   1.317   1.413
10361SOL    HW131982   1.747   1.227   1.433
10361SOL    HW231983   1.718   1.388   1.432
10362SOL     OW31984   0.407   5.262   1.647
10362SOL    HW131985   0.477   5.334   1.648
10362SOL    HW231986   0.325   5.295   1.694
10363SOL     OW31987   4.791   3.432   0.491
10363SOL    HW131988   4.702   3.470   0.464
10363SOL    HW231989   4.779   3.336   0.518
10364SOL     OW31990   4.659   5.172   1.413
10364SOL    HW131991   4.660   5.080   1.374
10364SOL    HW231992   4.740   5.223   1.381
10365SOL     OW31993   6.032   4.810   0.739
10365SOL    HW131994   6.035   4.908   0.755
10365SOL    HW231995   6.038   4.761   0.826
10366SOL     OW31996   4.061   6.702   2.708
10366SOL    HW131997   4.137   6.668   2.652
10366SOL    HW231998   4.050   6.644   2.789
10367SOL     OW31999   6.539   1.374   1.513
10367SOL    HW132000   6.578   1.452   1.563
10367SOL    HW232001   6.476   1.325   1.573
10368SOL     OW32002   2.156   0.394   2.217
10368SOL    HW132003   2.079   0.443   2.258
10368SOL    HW232004   2.130   0.358   2.128
10369SOL     OW32005   3.234   6.279   5.016
10369SOL    HW132006   3.169   6.224   4.964
10369SOL    HW232007   3.257   6.362   4.964
10370SOL     OW32008   6.926   2.000   4.502
10370SOL    HW132009   6.872   2.053   4.568
10370SOL    HW232010   6.904   2.029   4.409
10371SOL     OW32011   3.982   6.149   3.534
10371SOL    HW132012   4.022   6.086   3.467
10371SOL    HW232013   3.920   6.212   3.486
10372SOL     OW32014   2.988   0.546   1.353
10372SOL    HW132015   3.050   0.527   1.278
10372SOL    HW232016   2.998   0.476   1.424
10373SOL     OW32017   6.938   0.907   5.399
10373SOL    HW132018   6.855   0.851   5.398
10373SOL    HW232019   6.938   0.967   5.320
10374SOL     OW32020   3.209   6.936   4.336
10374SOL    HW132021   3.275   7.008   4.318
10374SOL    HW232022   3.249   6.847   4.312
10375SOL     OW32023   3.335   2.901   6.846
10375SOL    HW132024   3.424   2.859   6.831
10375SOL    HW232025   3.334   2.992   6.804
10376SOL     OW32026   1.152   6.366   3.768
10376SOL    HW132027   1.222   6.411   3.712
10376SOL    HW232028   1.068   6.420   3.765
10377SOL     OW32029   0.392   1.449   1.423
10377SOL    HW132030   0.339   1.471   1.505
10377SOL    HW232031   0.486   1.483   1.433
10378SOL     OW32032   0.181   5.517   5.122
10378SOL    HW132033   0.090   5.534   5.085
10378SOL    HW232034   0.235   5.464   5.057
10379SOL     OW32035   2.445   6.809   3.837
10379SOL    HW132036   2.535   6.782   3.801
10379SOL    HW232037   2.432   6.767   3.927
10380SOL     OW32038   1.510   2.407   4.315
10380SOL    HW132039   1.583   2.427   4.250
10380SOL    HW232040   1.546   2.349   4.388
10381SOL     OW32041   4.006   4.346   1.626
10381SOL    HW132042   4.093   4.298   1.636
10381SOL    HW232043   4.011   4.434   1.672
10382SOL     OW32044   2.941   5.027   2.081
10382SOL    HW132045   2.932   5.126   2.091
10382SOL    HW232046   3.003   5.007   2.005
10383SOL     OW32047   1.454   4.843   0.187
10383SOL    HW132048   1.500   4.886   0.264
10383SOL    HW232049   1.517   4.836   0.110
10384SOL     OW32050   6.318   6.228   1.076
10384SOL    HW132051   6.365   6.282   1.144
10384SOL    HW232052   6.306   6.134   1.109
10385SOL     OW32053   3.482   5.302   6.342
10385SOL    HW132054   3.407   5.324   6.404
10385SOL    HW232055   3.450   5.239   6.272
10386SOL     OW32056   6.826   1.380   6.309
10386SOL    HW132057   6.863   1.388   6.402
10386SOL    HW232058   6.755   1.309   6.308
10387SOL     OW32059   5.280   2.623   3.412
10387SOL    HW132060   5.333   2.558   3.359
10387SOL    HW232061   5.182   2.607   3.396
10388SOL     OW32062   2.918   0.378   6.264
10388SOL    HW132063   2.844   0.351   6.203
10388SOL    HW232064   3.005   0.378   6.214
10389SOL     OW32065   6.446   3.951   6.950
10389SOL    HW132066   6.510   3.951   0.004
10389SOL    HW232067   6.421   3.856   6.928
10390SOL     OW32068   1.825   2.149   0.751
10390SOL    HW132069   1.742   2.203   0.762
10390SOL    HW232070   1.905   2.209   0.756
10391SOL     OW32071   0.941   5.879   3.703
10391SOL    HW132072   0.968   5.893   3.608
10391SOL    HW232073   1.018   5.845   3.756
10392SOL     OW32074   6.379   5.029   5.216
10392SOL    HW132075   6.378   5.002   5.120
10392SOL    HW232076   6.355   5.125   5.225
10393SOL     OW32077   2.174   3.283   3.895
10393SOL    HW132078   2.150   3.201   3.843
10393SOL    HW232079   2.161   3.363   3.837
10394SOL     OW32080   2.637   5.802   3.938
10394SOL    HW132081   2.585   5.723   3.972
10394SOL    HW232082   2.573   5.873   3.907
10395SOL     OW32083   0.413   6.636   1.324
10395SOL    HW132084   0.367   6.553   1.292
10395SOL    HW232085   0.462   6.616   1.408
10396SOL     OW32086   3.904   1.736   4.349
10396SOL    HW132087   3.838   1.664   4.325
10396SOL    HW232088   3.959   1.758   4.268
10397SOL     OW32089   3.464   1.688   2.808
10397SOL    HW132090   3.471   1.624   2.732
10397SOL    HW232091   3.374   1.680   2.851
10398SOL     OW32092   6.292   3.108   1.213
10398SOL    HW132093   6.246   3.131   1.299
10398SOL    HW232094   6.373   3.166   1.201
10399SOL     OW32095   5.200   2.414   3.208
10399SOL    HW132096   5.187   2.338   3.272
10399SOL    HW232097   5.298   2.426   3.192
10400SOL     OW32098   4.211   6.850   0.249
10400SOL    HW132099   4.158   6.888   0.324
10400SOL    HW232100   4.258   6.924   0.200
10401SOL     OW32101   6.003   0.946   3.718
10401SOL    HW132102   6.009   0.975   3.813
10401SOL    HW232103   6.070   0.873   3.701
10402SOL     OW32104   6.872   3.417   5.247
10402SOL    HW132105   6.781   3.450   5.224
10402SOL    HW232106   6.937   3.441   5.175
10403SOL     OW32107   4.349   1.050   3.653
10403SOL    HW132108   4.252   1.026   3.666
10403SOL    HW232109   4.374   1.034   3.557
10404SOL     OW32110   6.330   6.774   5.088
10404SOL    HW132111   6.385   6.696   5.120
10404SOL    HW232112   6.318   6.839   5.163
10405SOL     OW32113   0.194   1.896   5.655
10405SOL    HW132114   0.287   1.915   5.685
10405SOL    HW232115   0.194   1.876   5.557
10406SOL     OW32116   2.665   4.887   2.935
10406SOL    HW132117   2.706   4.854   3.020
10406SOL    HW232118   2.726   4.870   2.859
10407SOL     OW32119   3.209   6.689   6.136
10407SOL    HW132120   3.273   6.759   6.166
10407SOL    HW232121   3.202   6.618   6.205
10408SOL     OW32122   4.974   7.014   1.026
10408SOL    HW132123   5.010   7.013   0.933
10408SOL    HW232124   5.037   6.964   1.086
10409SOL     OW32125   0.057   4.705   0.757
10409SOL    HW132126   0.040   4.755   0.672
10409SOL    HW232127   0.147   4.732   0.793
10410SOL     OW32128   5.640   1.782   0.400
10410SOL    HW132129   5.631   1.830   0.488
10410SOL    HW232130   5.557   1.797   0.346
10411SOL     OW32131   4.074   6.620   3.303
10411SOL    HW132132   4.096   6.687   3.232
10411SOL    HW232133   4.102   6.529   3.273
10412SOL     OW32134   6.994   0.875   0.426
10412SOL    HW132135   0.014   0.791   0.460
10412SOL    HW232136   6.968   0.863   0.330
10413SOL     OW32137   6.322   2.874   0.382
10413SOL    HW132138   6.285   2.936   0.451
10413SOL    HW232139   6.342   2.924   0.299
10414SOL     OW32140   3.833   4.048   5.622
10414SOL    HW132141   3.806   4.080   5.531
10414SOL    HW232142   3.921   4.089   5.647
10415SOL     OW32143   0.687   4.205   4.525
10415SOL    HW132144   0.694   4.304   4.508
10415SOL    HW232145   0.756   4.157   4.472
10416SOL     OW32146   6.245   0.407   4.163
10416SOL    HW132147   6.340   0.377   4.170
10416SOL    HW232148   6.186   0.339   4.205
10417SOL     OW32149   3.474   5.273   4.370
10417SOL    HW132150   3.417   5.323   4.305
10417SOL    HW232151   3.464   5.313   4.461
10418SOL     OW32152   0.126   4.784   6.671
10418SOL    HW132153   0.185   4.759   6.594
10418SOL    HW232154   0.031   4.790   6.639
10419SOL     OW32155   1.537   6.867   6.242
10419SOL    HW132156   1.460   6.841   6.300
10419SOL    HW232157   1.594   6.935   6.289
10420SOL     OW32158   0.298   3.761   2.589
10420SOL    HW132159   0.352   3.756   2.505
10420SOL    HW232160   0.221   3.697   2.583
10421SOL     OW32161   0.099   1.719   3.465
10421SOL    HW132162   0.189   1.755   3.491
10421SOL    HW232163   0.066   1.658   3.536
10422SOL     OW32164   6.148   3.351   5.335
10422SOL    HW132165   6.170   3.261   5.372
10422SOL    HW232166   6.058   3.380   5.368
10423SOL     OW32167   5.920   5.066   4.748
10423SOL    HW132168   5.950   5.138   4.684
10423SOL    HW232169   5.826   5.084   4.777
10424SOL     OW32170   5.781   2.871   0.450
10424SOL    HW132171   5.775   2.964   0.413
10424SOL    HW232172   5.818   2.874   0.542
10425SOL     OW32173   1.315   6.732   1.867
10425SOL    HW132174   1.340   6.785   1.786
10425SOL    HW232175   1.314   6.791   1.947
10426SOL     OW32176   7.020   5.045   0.286
10426SOL    HW132177   0.056   5.120   0.317
10426SOL    HW232178   6.940   5.037   0.346
10427SOL     OW32179   3.513   0.986   6.874
10427SOL    HW132180   3.584   0.940   6.820
10427SOL    HW232181   3.554   1.066   6.919
10428SOL     OW32182   2.854   1.069   4.049
10428SOL    HW132183   2.820   1.106   3.962
10428SOL    HW232184   2.951   1.092   4.059
10429SOL     OW32185   0.094   5.185   0.815
10429SOL    HW132186   0.070   5.110   0.876
10429SOL    HW232187   0.152   5.250   0.863
10430SOL     OW32188   4.647   6.233   3.906
10430SOL    HW132189   4.605   6.145   3.928
10430SOL    HW232190   4.738   6.237   3.948
10431SOL     OW32191   3.526   6.077   3.954
10431SOL    HW132192   3.458   6.048   4.021
10431SOL    HW232193   3.608   6.109   4.001
10432SOL     OW32194   6.214   6.629   4.535
10432SOL    HW132195   6.311   6.609   4.536
10432SOL    HW232196   6.177   6.619   4.627
10433SOL     OW32197   1.679   6.564   1.346
10433SOL    HW132198   1.674   6.577   1.247
10433SOL    HW232199   1.773   6.580   1.377
10434SOL     OW32200   4.057   0.253   3.506
10434SOL    HW132201   4.141   0.223   3.550
10434SOL    HW232202   4.027   0.340   3.545
10435SOL     OW32203   0.187   0.199   4.922
10435SOL    HW132204   0.251   0.224   4.994
10435SOL    HW232205   0.136   0.280   4.893
10436SOL     OW32206   0.912   5.459   6.115
10436SOL    HW132207   0.926   5.553   6.146
10436SOL    HW232208   0.932   5.396   6.190
10437SOL     OW32209   6.576   4.786   6.116
10437SOL    HW132210   6.674   4.771   6.131
10437SOL    HW232211   6.551   4.878   6.146
10438SOL     OW32212   6.138   6.173   0.529
10438SOL    HW132213   6.171   6.084   0.496
10438SOL    HW232214   6.212   6.220   0.578
10439SOL     OW32215   3.693   1.305   5.909
10439SOL    HW132216   3.713   1.263   5.997
10439SOL    HW232217   3.661   1.399   5.923
10440SOL     OW32218   1.302   6.649   0.355
10440SOL    HW132219   1.360   6.716   0.308
10440SOL    HW232220   1.315   6.559   0.313
10441SOL     OW32221   4.101   1.081   0.204
10441SOL    HW132222   4.140   0.994   0.173
10441SOL    HW232223   4.031   1.111   0.140
10442SOL     OW32224   3.744   6.437   5.728
10442SOL    HW132225   3.679   6.387   5.785
10442SOL    HW232226   3.837   6.403   5.745
10443SOL     OW32227   5.032   3.945   4.971
10443SOL    HW132228   4.960   3.959   4.902
10443SOL    HW232229   5.121   3.950   4.927
10444SOL     OW32230   3.827   6.873   4.361
10444SOL    HW132231   3.864   6.800   4.418
10444SOL    HW232232   3.794   6.948   4.419
10445SOL     OW32233   1.019   5.503   4.508
10445SOL    HW132234   1.074   5.473   4.586
10445SOL    HW232235   0.953   5.571   4.538
10446SOL     OW32236   1.065   2.791   5.982
10446SOL    HW132237   1.076   2.729   5.904
10446SOL    HW232238   0.977   2.839   5.974
10447SOL     OW32239   6.812   1.017   2.264
10447SOL    HW132240   6.720   1.008   2.228
10447SOL    HW232241   6.824   0.957   2.342
10448SOL     OW32242   3.910   2.453   1.743
10448SOL    HW132243   3.979   2.385   1.767
10448SOL    HW232244   3.826   2.435   1.794
10449SOL     OW32245   2.659   5.515   4.660
10449SOL    HW132246   2.573   5.565   4.652
10449SOL    HW232247   2.686   5.479   4.571
10450SOL     OW32248   0.937   2.460   0.775
10450SOL    HW132249   0.848   2.501   0.793
10450SOL    HW232250   0.986   2.515   0.708
10451SOL     OW32251   2.092   5.393   3.641
10451SOL    HW132252   2.018   5.392   3.709
10451SOL    HW232253   2.168   5.337   3.673
10452SOL     OW32254   6.331   3.348   3.397
10452SOL    HW132255   6.331   3.252   3.369
10452SOL    HW232256   6.243   3.388   3.375
10453SOL     OW32257   5.084   5.806   1.846
10453SOL    HW132258   5.156   5.850   1.899
10453SOL    HW232259   5.002   5.796   1.904
10454SOL     OW32260   4.245   2.826   1.074
10454SOL    HW132261   4.218   2.779   0.990
10454SOL    HW232262   4.248   2.761   1.149
10455SOL     OW32263   0.206   5.272   2.278
10455SOL    HW132264   0.155   5.236   2.199
10455SOL    HW232265   0.303   5.280   2.254
10456SOL     OW32266   3.116   6.096   1.758
10456SOL    HW132267   3.181   6.159   1.716
10456SOL    HW232268   3.143   6.079   1.854
10457SOL     OW32269   3.729   2.904   3.081
10457SOL    HW132270   3.760   2.811   3.065
10457SOL    HW232271   3.804   2.968   3.066
10458SOL     OW32272   0.361   0.790   6.699
10458SOL    HW132273   0.356   0.870   6.638
10458SOL    HW232274   0.312   0.810   6.784
10459SOL     OW32275   5.530   5.321   2.517
10459SOL    HW132276   5.450   5.316   2.457
10459SOL    HW232277   5.500   5.323   2.613
10460SOL     OW32278   2.008   5.779   1.344
10460SOL    HW132279   1.912   5.755   1.358
10460SOL    HW232280   2.047   5.720   1.273
10461SOL     OW32281   1.614   6.072   5.401
10461SOL    HW132282   1.598   6.035   5.492
10461SOL    HW232283   1.609   6.172   5.403
10462SOL     OW32284   5.630   1.955   2.381
10462SOL    HW132285   5.647   1.882   2.316
10462SOL    HW232286   5.716   2.004   2.399
10463SOL     OW32287   3.505   3.208   5.677
10463SOL    HW132288   3.406   3.211   5.692
10463SOL    HW232289   3.523   3.183   5.582
10464SOL     OW32290   5.358   0.287   0.720
10464SOL    HW132291   5.317   0.223   0.785
10464SOL    HW232292   5.405   0.360   0.771
10465SOL     OW32293   6.124   6.632   1.046
10465SOL    HW132294   6.174   6.603   1.127
10465SOL    HW232295   6.134   6.730   1.033
10466SOL     OW32296   4.487   4.988   5.055
10466SOL    HW132297   4.409   4.947   5.007
10466SOL    HW232298   4.454   5.049   5.127
10467SOL     OW32299   0.989   2.048   5.010
10467SOL    HW132300   1.002   2.021   5.106
10467SOL    HW232301   1.044   2.129   4.991
10468SOL     OW32302   3.286   5.417   3.017
10468SOL    HW132303   3.306   5.346   2.950
10468SOL    HW232304   3.362   5.482   3.021
10469SOL     OW32305   3.351   3.109   0.275
10469SOL    HW132306   3.318   3.201   0.295
10469SOL    HW232307   3.417   3.081   0.345
10470SOL     OW32308   1.865   1.643   2.952
10470SOL    HW132309   1.885   1.556   2.998
10470SOL    HW232310   1.915   1.648   2.866
10471SOL     OW32311   2.255   3.563   1.443
10471SOL    HW132312   2.163   3.565   1.405
10471SOL    HW232313   2.293   3.471   1.433
10472SOL     OW32314   3.534   6.438   1.446
10472SOL    HW132315   3.460   6.376   1.472
10472SOL    HW232316   3.562   6.419   1.352
10473SOL     OW32317   5.723   6.888   1.021
10473SOL    HW132318   5.623   6.889   1.022
10473SOL    HW232319   5.755   6.800   0.985
10474SOL     OW32320   4.862   0.760   5.019
10474SOL    HW132321   4.936   0.694   5.002
10474SOL    HW232322   4.834   0.801   4.932
10475SOL     OW32323   4.801   6.449   1.481
10475SOL    HW132324   4.770   6.437   1.387
10475SOL    HW232325   4.901   6.438   1.485
10476SOL     OW32326   0.420   5.851   6.241
10476SOL    HW132327   0.444   5.815   6.331
10476SOL    HW232328   0.420   5.776   6.174
10477SOL     OW32329   5.912   2.788   5.026
10477SOL    HW132330   5.928   2.758   4.932
10477SOL    HW232331   5.819   2.825   5.034
10478SOL     OW32332   0.823   0.362   6.933
10478SOL    HW132333   0.763   0.287   6.963
10478SOL    HW232334   0.893   0.378   7.002
10479SOL     OW32335   0.830   2.651   1.496
10479SOL    HW132336   0.787   2.729   1.450
10479SOL    HW232337   0.771   2.620   1.571
10480SOL     OW32338   5.449   0.402   1.071
10480SOL    HW132339   5.420   0.458   1.149
10480SOL    HW232340   5.462   0.307   1.101
10481SOL     OW32341   2.736   1.285   5.115
10481SOL    HW132342   2.660   1.344   5.141
10481SOL    HW232343   2.733   1.201   5.169
10482SOL     OW32344   0.589   5.932   4.760
10482SOL    HW132345   0.643   5.948   4.843
10482SOL    HW232346   0.494   5.916   4.784
10483SOL     OW32347   6.732   5.224   0.180
10483SOL    HW132348   6.710   5.128   0.163
10483SOL    HW232349   6.653   5.271   0.217
10484SOL     OW32350   6.828   0.230   0.554
10484SOL    HW132351   6.758   0.161   0.537
10484SOL    HW232352   6.841   0.285   0.471
10485SOL     OW32353   3.771   3.687   3.148
10485SOL    HW132354   3.798   3.775   3.107
10485SOL    HW232355   3.835   3.663   3.220
10486SOL     OW32356   6.204   0.790   6.110
10486SOL    HW132357   6.201   0.886   6.083
10486SOL    HW232358   6.111   0.757   6.127
10487SOL     OW32359   4.359   1.672   1.652
10487SOL    HW132360   4.370   1.650   1.555
10487SOL    HW232361   4.266   1.707   1.667
10488SOL     OW32362   1.546   2.141   5.673
10488SOL    HW132363   1.459   2.096   5.651
10488SOL    HW232364   1.530   2.238   5.691
10489SOL     OW32365   5.679   5.592   3.860
10489SOL    HW132366   5.750   5.644   3.907
10489SOL    HW232367   5.602   5.653   3.841
10490SOL     OW32368   5.881   0.571   0.487
10490SOL    HW132369   5.829   0.656   0.493
10490SOL    HW232370   5.893   0.546   0.391
10491SOL     OW32371   2.430   2.744   6.225
10491SOL    HW132372   2.370   2.783   6.154
10491SOL    HW232373   2.394   2.768   6.315
10492SOL     OW32374   3.745   5.740   0.297
10492SOL    HW132375   3.707   5.649   0.315
10492SOL    HW232376   3.679   5.809   0.327
10493SOL     OW32377   3.136   5.638   1.310
10493SOL    HW132378   3.172   5.558   1.358
10493SOL    HW232379   3.168   5.721   1.356
10494SOL     OW32380   0.707   4.972   6.091
10494SOL    HW132381   0.642   4.906   6.054
10494SOL    HW232382   0.793   4.966   6.040
10495SOL     OW32383   6.508   5.705   0.003
10495SOL    HW132384   6.512   5.705   6.925
10495SOL    HW232385   6.440   5.771   0.033
10496SOL     OW32386   6.665   4.362   5.136
10496SOL    HW132387   6.588   4.406   5.183
10496SOL    HW232388   6.704   4.424   5.069
10497SOL     OW32389   0.938   6.960   1.898
10497SOL    HW132390   0.893   6.973   1.986
10497SOL    HW232391   1.030   6.998   1.902
10498SOL     OW32392   5.285   5.999   1.481
10498SOL    HW132393   5.221   6.072   1.506
10498SOL    HW232394   5.263   5.917   1.533
10499SOL     OW32395   5.877   5.854   1.013
10499SOL    HW132396   5.817   5.774   1.019
10499SOL    HW232397   5.824   5.937   1.027
10500SOL     OW32398   4.954   3.248   4.864
10500SOL    HW132399   4.891   3.227   4.938
10500SOL    HW232400   4.926   3.200   4.781
10501SOL     OW32401   2.402   5.509   2.507
10501SOL    HW132402   2.488   5.546   2.541
10501SOL    HW232403   2.349   5.581   2.462
10502SOL     OW32404   3.161   3.155   1.187
10502SOL    HW132405   3.176   3.212   1.106
10502SOL    HW232406   3.065   3.160   1.213
10503SOL     OW32407   6.647   3.842   6.545
10503SOL    HW132408   6.589   3.762   6.528
10503SOL    HW232409   6.743   3.814   6.547
10504SOL     OW32410   0.744   2.743   6.152
10504SOL    HW132411   0.653   2.783   6.139
10504SOL    HW232412   0.737   2.644   6.159
10505SOL     OW32413   5.899   5.555   1.887
10505SOL    HW132414   5.970   5.556   1.957
10505SOL    HW232415   5.918   5.626   1.819
10506SOL     OW32416   0.458   3.425   0.318
10506SOL    HW132417   0.454   3.524   0.315
10506SOL    HW232418   0.380   3.390   0.370
10507SOL     OW32419   2.471   5.513   0.003
10507SOL    HW132420   2.556   5.563   0.020
10507SOL    HW232421   2.425   5.495   0.090
10508SOL     OW32422   1.544   5.330   3.716
10508SOL    HW132423   1.512   5.385   3.639
10508SOL    HW232424   1.515   5.235   3.704
10509SOL     OW32425   5.453   3.764   4.363
10509SOL    HW132426   5.463   3.863   4.375
10509SOL    HW232427   5.445   3.720   4.452
10510SOL     OW32428   4.335   6.439   6.539
10510SOL    HW132429   4.406   6.510   6.542
10510SOL    HW232430   4.369   6.355   6.580
10511SOL     OW32431   2.728   1.146   2.092
10511SOL    HW132432   2.750   1.241   2.071
10511SOL    HW232433   2.692   1.101   2.010
10512SOL     OW32434   4.505   6.900   5.836
10512SOL    HW132435   4.406   6.884   5.839
10512SOL    HW232436   4.528   6.977   5.897
10513SOL     OW32437   6.350   2.543   2.605
10513SOL    HW132438   6.351   2.598   2.522
10513SOL    HW232439   6.413   2.466   2.594
10514SOL     OW32440   1.753   1.788   1.261
10514SOL    HW132441   1.797   1.866   1.216
10514SOL    HW232442   1.796   1.703   1.231
10515SOL     OW32443   2.262   2.455   3.804
10515SOL    HW132444   2.220   2.370   3.769
10515SOL    HW232445   2.307   2.437   3.891
10516SOL     OW32446   2.768   1.749   0.414
10516SOL    HW132447   2.815   1.713   0.334
10516SOL    HW232448   2.834   1.768   0.486
10517SOL     OW32449   1.692   4.145   2.244
10517SOL    HW132450   1.611   4.179   2.197
10517SOL    HW232451   1.745   4.086   2.182
10518SOL     OW32452   0.256   5.105   1.996
10518SOL    HW132453   0.306   5.046   1.932
10518SOL    HW232454   0.260   5.066   2.088
10519SOL     OW32455   2.940   5.084   1.052
10519SOL    HW132456   2.858   5.138   1.034
10519SOL    HW232457   2.918   5.008   1.114
10520SOL     OW32458   6.677   1.645   6.392
10520SOL    HW132459   6.700   1.688   6.479
10520SOL    HW232460   6.752   1.662   6.327
10521SOL     OW32461   6.282   4.206   1.724
10521SOL    HW132462   6.199   4.248   1.761
10521SOL    HW232463   6.360   4.268   1.737
10522SOL     OW32464   0.284   2.436   3.071
10522SOL    HW132465   0.224   2.458   2.993
10522SOL    HW232466   0.362   2.499   3.072
10523SOL     OW32467   0.041   4.130   3.334
10523SOL    HW132468   0.063   4.055   3.397
10523SOL    HW232469   0.115   4.141   3.268
10524SOL     OW32470   0.189   5.500   3.697
10524SOL    HW132471   0.205   5.586   3.744
10524SOL    HW232472   0.092   5.492   3.673
10525SOL     OW32473   4.067   0.435   5.030
10525SOL    HW132474   4.075   0.474   5.122
10525SOL    HW232475   3.991   0.479   4.982
10526SOL     OW32476   0.252   6.405   1.237
10526SOL    HW132477   0.337   6.380   1.189
10526SOL    HW232478   0.180   6.339   1.214
10527SOL     OW32479   0.358   0.780   5.853
10527SOL    HW132480   0.269   0.756   5.892
10527SOL    HW232481   0.369   0.736   5.764
10528SOL     OW32482   0.702   4.111   0.129
10528SOL    HW132483   0.637   4.045   0.093
10528SOL    HW232484   0.771   4.133   0.060
10529SOL     OW32485   1.513   6.140   4.998
10529SOL    HW132486   1.469   6.058   4.962
10529SOL    HW232487   1.457   6.220   4.977
10530SOL     OW32488   1.653   6.289   6.042
10530SOL    HW132489   1.737   6.321   5.997
10530SOL    HW232490   1.633   6.196   6.013
10531SOL     OW32491   2.623   2.459   4.472
10531SOL    HW132492   2.708   2.423   4.434
10531SOL    HW232493   2.629   2.460   4.571
10532SOL     OW32494   5.753   6.759   6.843
10532SOL    HW132495   5.711   6.669   6.855
10532SOL    HW232496   5.852   6.751   6.851
10533SOL     OW32497   3.370   5.459   4.204
10533SOL    HW132498   3.296   5.526   4.194
10533SOL    HW232499   3.458   5.506   4.194
10534SOL     OW32500   0.303   5.561   2.069
10534SOL    HW132501   0.309   5.588   2.165
10534SOL    HW232502   0.395   5.544   2.033
10535SOL     OW32503   2.520   0.908   1.581
10535SOL    HW132504   2.547   0.834   1.643
10535SOL    HW232505   2.536   0.880   1.486
10536SOL     OW32506   4.357   6.979   3.914
10536SOL    HW132507   4.416   7.015   3.842
10536SOL    HW232508   4.306   6.900   3.880
10537SOL     OW32509   4.950   6.570   3.579
10537SOL    HW132510   4.854   6.594   3.597
10537SOL    HW232511   4.997   6.551   3.665
10538SOL     OW32512   5.729   3.909   2.654
10538SOL    HW132513   5.794   3.852   2.703
10538SOL    HW232514   5.762   3.925   2.561
10539SOL     OW32515   6.306   5.340   2.025
10539SOL    HW132516   6.401   5.316   2.043
10539SOL    HW232517   6.286   5.329   1.928
10540SOL     OW32518   2.411   4.225   6.185
10540SOL    HW132519   2.318   4.199   6.160
10540SOL    HW232520   2.469   4.143   6.187
10541SOL     OW32521   3.779   2.915   4.490
10541SOL    HW132522   3.794   2.898   4.587
10541SOL    HW232523   3.786   2.830   4.439
10542SOL     OW32524   6.648   0.330   4.422
10542SOL    HW132525   6.715   0.388   4.375
10542SOL    HW232526   6.558   0.372   4.416
10543SOL     OW32527   6.945   2.409   5.717
10543SOL    HW132528   6.989   2.427   5.805
10543SOL    HW232529   6.877   2.480   5.698
10544SOL     OW32530   1.652   0.175   3.618
10544SOL    HW132531   1.633   0.268   3.587
10544SOL    HW232532   1.701   0.124   3.547
10545SOL     OW32533   1.075   2.894   2.013
10545SOL    HW132534   1.104   2.987   1.992
10545SOL    HW232535   1.081   2.880   2.112
10546SOL     OW32536   3.293   6.069   1.294
10546SOL    HW132537   3.223   6.132   1.259
10546SOL    HW232538   3.333   6.107   1.377
10547SOL     OW32539   4.612   0.542   4.603
10547SOL    HW132540   4.699   0.583   4.574
10547SOL    HW232541   4.569   0.498   4.524
10548SOL     OW32542   0.687   4.864   4.931
10548SOL    HW132543   0.778   4.829   4.906
10548SOL    HW232544   0.617   4.808   4.887
10549SOL     OW32545   0.090   1.619   0.705
10549SOL    HW132546   0.098   1.570   0.617
10549SOL    HW232547   0.016   1.579   0.759
10550SOL     OW32548   3.790   6.676   3.045
10550SOL    HW132549   3.719   6.606   3.049
10550SOL    HW232550   3.799   6.720   3.134
10551SOL     OW32551   2.706   1.801   6.190
10551SOL    HW132552   2.627   1.739   6.199
10551SOL    HW232553   2.719   1.824   6.094
10552SOL     OW32554   2.336   0.705   4.893
10552SOL    HW132555   2.369   0.710   4.799
10552SOL    HW232556   2.239   0.731   4.896
10553SOL     OW32557   7.015   4.657   1.179
10553SOL    HW132558   6.969   4.685   1.095
10553SOL    HW232559   0.091   4.674   1.172
10554SOL     OW32560   5.856   4.698   2.493
10554SOL    HW132561   5.915   4.620   2.512
10554SOL    HW232562   5.800   4.678   2.413
10555SOL     OW32563   2.819   2.015   0.760
10555SOL    HW132564   2.838   2.101   0.807
10555SOL    HW232565   2.742   2.028   0.698
10556SOL     OW32566   2.663   1.477   3.485
10556SOL    HW132567   2.754   1.438   3.476
10556SOL    HW232568   2.595   1.404   3.481
10557SOL     OW32569   1.781   3.328   4.929
10557SOL    HW132570   1.838   3.367   5.002
10557SOL    HW232571   1.824   3.244   4.895
10558SOL     OW32572   3.129   4.749   5.836
10558SOL    HW132573   3.154   4.653   5.839
10558SOL    HW232574   3.047   4.760   5.779
10559SOL     OW32575   3.495   0.954   0.468
10559SOL    HW132576   3.527   0.969   0.562
10559SOL    HW232577   3.493   1.041   0.419
10560SOL     OW32578   4.222   6.325   1.994
10560SOL    HW132579   4.266   6.296   2.079
10560SOL    HW232580   4.201   6.423   1.999
10561SOL     OW32581   3.962   5.044   2.116
10561SOL    HW132582   3.899   4.972   2.147
10561SOL    HW232583   4.042   5.002   2.074
10562SOL     OW32584   3.569   6.318   1.188
10562SOL    HW132585   3.622   6.241   1.224
10562SOL    HW232586   3.604   6.343   1.097
10563SOL     OW32587   0.854   0.732   0.994
10563SOL    HW132588   0.844   0.830   1.006
10563SOL    HW232589   0.853   0.687   1.083
10564SOL     OW32590   6.359   5.619   3.480
10564SOL    HW132591   6.355   5.665   3.392
10564SOL    HW232592   6.363   5.520   3.467
10565SOL     OW32593   6.527   6.881   6.017
10565SOL    HW132594   6.589   6.942   6.067
10565SOL    HW232595   6.562   6.868   5.924
10566SOL     OW32596   3.012   2.596   0.381
10566SOL    HW132597   3.066   2.614   0.299
10566SOL    HW232598   3.002   2.497   0.393
10567SOL     OW32599   1.792   2.583   5.399
10567SOL    HW132600   1.703   2.605   5.438
10567SOL    HW232601   1.824   2.660   5.343
10568SOL     OW32602   6.289   2.848   6.342
10568SOL    HW132603   6.278   2.748   6.342
10568SOL    HW232604   6.229   2.888   6.411
10569SOL     OW32605   5.361   0.901   1.955
10569SOL    HW132606   5.396   0.871   1.866
10569SOL    HW232607   5.274   0.949   1.942
10570SOL     OW32608   1.879   4.596   4.187
10570SOL    HW132609   1.843   4.557   4.272
10570SOL    HW232610   1.938   4.528   4.142
10571SOL     OW32611   0.417   4.288   6.251
10571SOL    HW132612   0.394   4.338   6.335
10571SOL    HW232613   0.512   4.309   6.226
10572SOL     OW32614   6.816   4.716   1.812
10572SOL    HW132615   6.915   4.704   1.816
10572SOL    HW232616   6.779   4.712   1.905
10573SOL     OW32617   5.058   0.563   4.926
10573SOL    HW132618   5.116   0.528   5.000
10573SOL    HW232619   5.082   0.519   4.840
10574SOL     OW32620   6.575   0.849   3.968
10574SOL    HW132621   6.482   0.870   3.997
10574SOL    HW232622   6.640   0.904   4.021
10575SOL     OW32623   5.498   0.314   3.615
10575SOL    HW132624   5.597   0.317   3.624
10575SOL    HW232625   5.459   0.268   3.695
10576SOL     OW32626   1.310   5.192   2.705
10576SOL    HW132627   1.311   5.234   2.614
10576SOL    HW232628   1.301   5.263   2.774
10577SOL     OW32629   2.856   5.851   0.352
10577SOL    HW132630   2.784   5.891   0.409
10577SOL    HW232631   2.841   5.877   0.256
10578SOL     OW32632   5.698   1.827   3.552
10578SOL    HW132633   5.757   1.768   3.498
10578SOL    HW232634   5.659   1.774   3.628
10579SOL     OW32635   2.703   3.984   1.157
10579SOL    HW132636   2.740   4.048   1.225
10579SOL    HW232637   2.727   4.016   1.065
10580SOL     OW32638   6.237   6.708   6.363
10580SOL    HW132639   6.197   6.758   6.440
10580SOL    HW232640   6.325   6.670   6.390
10581SOL     OW32641   4.793   6.652   2.673
10581SOL    HW132642   4.768   6.597   2.593
10581SOL    HW232643   4.711   6.683   2.720
10582SOL     OW32644   5.579   4.599   6.604
10582SOL    HW132645   5.540   4.528   6.545
10582SOL    HW232646   5.622   4.669   6.547
10583SOL     OW32647   3.606   0.207   4.126
10583SOL    HW132648   3.700   0.194   4.097
10583SOL    HW232649   3.604   0.240   4.221
10584SOL     OW32650   6.443   0.635   6.450
10584SOL    HW132651   6.509   0.562   6.471
10584SOL    HW232652   6.368   0.631   6.516
10585SOL     OW32653   1.557   1.653   6.145
10585SOL    HW132654   1.499   1.601   6.082
10585SOL    HW232655   1.500   1.704   6.209
10586SOL     OW32656   4.723   4.885   5.531
10586SOL    HW132657   4.678   4.974   5.537
10586SOL    HW232658   4.655   4.812   5.536
10587SOL     OW32659   0.584   6.039   6.008
10587SOL    HW132660   0.597   5.993   6.096
10587SOL    HW232661   0.606   6.136   6.018
10588SOL     OW32662   1.859   2.109   4.610
10588SOL    HW132663   1.864   2.163   4.694
10588SOL    HW232664   1.867   2.170   4.531
10589SOL     OW32665   5.391   6.348   4.272
10589SOL    HW132666   5.442   6.397   4.343
10589SOL    HW232667   5.294   6.344   4.297
10590SOL     OW32668   6.996   5.749   1.739
10590SOL    HW132669   6.978   5.845   1.757
10590SOL    HW232670   6.934   5.717   1.667
10591SOL     OW32671   2.211   1.442   1.476
10591SOL    HW132672   2.140   1.382   1.513
10591SOL    HW232673   2.223   1.422   1.379
10592SOL     OW32674   5.788   2.331   4.363
10592SOL    HW132675   5.826   2.381   4.286
10592SOL    HW232676   5.745   2.247   4.329
10593SOL     OW32677   1.081   6.068   0.712
10593SOL    HW132678   1.019   6.112   0.776
10593SOL    HW232679   1.152   6.133   0.685
10594SOL     OW32680   4.053   1.165   3.291
10594SOL    HW132681   4.037   1.253   3.246
10594SOL    HW232682   3.971   1.109   3.286
10595SOL     OW32683   6.107   0.894   0.486
10595SOL    HW132684   6.201   0.920   0.463
10595SOL    HW232685   6.057   0.872   0.403
10596SOL     OW32686   4.842   1.175   0.115
10596SOL    HW132687   4.880   1.147   0.204
10596SOL    HW232688   4.846   1.274   0.107
10597SOL     OW32689   2.652   0.818   6.012
10597SOL    HW132690   2.686   0.887   6.077
10597SOL    HW232691   2.562   0.786   6.043
10598SOL     OW32692   2.749   1.916   6.726
10598SOL    HW132693   2.804   1.964   6.658
10598SOL    HW232694   2.682   1.858   6.679
10599SOL     OW32695   6.673   4.208   6.244
10599SOL    HW132696   6.759   4.258   6.235
10599SOL    HW232697   6.635   4.223   6.336
10600SOL     OW32698   3.732   0.790   1.361
10600SOL    HW132699   3.818   0.742   1.344
10600SOL    HW232700   3.656   0.738   1.323
10601SOL     OW32701   0.360   5.756   5.079
10601SOL    HW132702   0.306   5.673   5.084
10601SOL    HW232703   0.457   5.733   5.078
10602SOL     OW32704   0.763   0.809   0.447
10602SOL    HW132705   0.718   0.809   0.537
10602SOL    HW232706   0.718   0.743   0.387
10603SOL     OW32707   4.564   6.410   1.967
10603SOL    HW132708   4.642   6.384   1.909
10603SOL    HW232709   4.514   6.484   1.924
10604SOL     OW32710   0.408   6.416   4.851
10604SOL    HW132711   0.388   6.325   4.815
10604SOL    HW232712   0.348   6.434   4.929
10605SOL     OW32713   1.708   6.876   7.006
10605SOL    HW132714   1.750   6.951   0.034
10605SOL    HW232715   1.779   6.815   6.970
10606SOL     OW32716   6.873   0.518   1.537
10606SOL    HW132717   6.805   0.483   1.602
10606SOL    HW232718   6.940   0.574   1.586
10607SOL     OW32719   4.143   4.219   0.484
10607SOL    HW132720   4.144   4.119   0.496
10607SOL    HW232721   4.057   4.255   0.521
10608SOL     OW32722   6.668   3.063   3.207
10608SOL    HW132723   6.691   2.988   3.145
10608SOL    HW232724   6.571   3.058   3.231
10609SOL     OW32725   2.674   6.451   0.253
10609SOL    HW132726   2.755   6.509   0.247
10609SOL    HW232727   2.661   6.422   0.348
10610SOL     OW32728   6.755   2.926   4.327
10610SOL    HW132729   6.846   2.944   4.363
10610SOL    HW232730   6.740   2.980   4.244
10611SOL     OW32731   2.962   5.317   5.590
10611SOL    HW132732   2.935   5.389   5.527
10611SOL    HW232733   3.012   5.246   5.539
10612SOL     OW32734   5.242   1.281   4.263
10612SOL    HW132735   5.333   1.246   4.285
10612SOL    HW232736   5.241   1.380   4.277
10613SOL     OW32737   5.274   6.098   4.167
10613SOL    HW132738   5.245   6.089   4.263
10613SOL    HW232739   5.325   6.183   4.155
10614SOL     OW32740   4.997   1.317   4.975
10614SOL    HW132741   4.939   1.275   5.046
10614SOL    HW232742   5.025   1.246   4.910
10615SOL     OW32743   4.021   1.559   5.651
10615SOL    HW132744   4.101   1.509   5.684
10615SOL    HW232745   3.949   1.495   5.623
10616SOL     OW32746   2.811   5.974   6.377
10616SOL    HW132747   2.815   6.073   6.360
10616SOL    HW232748   2.896   5.945   6.422
10617SOL     OW32749   2.125   4.377   1.703
10617SOL    HW132750   2.203   4.426   1.742
10617SOL    HW232751   2.157   4.299   1.649
10618SOL     OW32752   0.727   5.377   5.714
10618SOL    HW132753   0.715   5.335   5.804
10618SOL    HW232754   0.730   5.306   5.644
10619SOL     OW32755   0.574   2.430   2.840
10619SOL    HW132756   0.501   2.363   2.828
10619SOL    HW232757   0.535   2.520   2.858
10620SOL     OW32758   1.530   0.158   5.541
10620SOL    HW132759   1.567   0.248   5.561
10620SOL    HW232760   1.435   0.152   5.571
10621SOL     OW32761   1.063   4.263   2.712
10621SOL    HW132762   1.087   4.246   2.617
10621SOL    HW232763   1.005   4.189   2.746
10622SOL     OW32764   4.165   2.225   1.478
10622SOL    HW132765   4.116   2.312   1.488
10622SOL    HW232766   4.261   2.238   1.505
10623SOL     OW32767   6.178   6.126   5.361
10623SOL    HW132768   6.113   6.051   5.370
10623SOL    HW232769   6.195   6.144   5.264
10624SOL     OW32770   0.819   3.049   4.768
10624SOL    HW132771   0.862   2.992   4.699
10624SOL    HW232772   0.737   3.003   4.803
10625SOL     OW32773   0.181   3.510   0.977
10625SOL    HW132774   0.269   3.525   0.932
10625SOL    HW232775   0.148   3.418   0.957
10626SOL     OW32776   3.354   3.079   1.671
10626SOL    HW132777   3.316   3.015   1.738
10626SOL    HW232778   3.286   3.097   1.600
10627SOL     OW32779   5.503   1.045   6.517
10627SOL    HW132780   5.471   0.984   6.445
10627SOL    HW232781   5.444   1.035   6.597
10628SOL     OW32782   4.424   0.243   0.619
10628SOL    HW132783   4.449   0.151   0.589
10628SOL    HW232784   4.385   0.238   0.711
10629SOL     OW32785   3.358   4.896   4.855
10629SOL    HW132786   3.412   4.840   4.793
10629SOL    HW232787   3.265   4.905   4.819
10630SOL     OW32788   5.514   1.126   2.445
10630SOL    HW132789   5.610   1.146   2.468
10630SOL    HW232790   5.456   1.145   2.524
10631SOL     OW32791   4.130   4.526   6.012
10631SOL    HW132792   4.109   4.621   5.991
10631SOL    HW232793   4.157   4.518   6.108
10632SOL     OW32794   5.048   5.578   3.335
10632SOL    HW132795   5.136   5.584   3.382
10632SOL    HW232796   5.055   5.515   3.258
10633SOL     OW32797   2.720   2.549   1.764
10633SOL    HW132798   2.790   2.495   1.812
10633SOL    HW232799   2.705   2.509   1.673
10634SOL     OW32800   1.584   5.671   0.775
10634SOL    HW132801   1.670   5.709   0.741
10634SOL    HW232802   1.516   5.744   0.786
10635SOL     OW32803   2.129   3.383   0.154
10635SOL    HW132804   2.056   3.430   0.104
10635SOL    HW232805   2.090   3.312   0.212
10636SOL     OW32806   6.776   1.457   0.802
10636SOL    HW132807   6.733   1.504   0.726
10636SOL    HW232808   6.748   1.361   0.802
10637SOL     OW32809   1.840   5.807   6.303
10637SOL    HW132810   1.756   5.752   6.305
10637SOL    HW232811   1.858   5.843   6.394
10638SOL     OW32812   5.792   6.478   2.344
10638SOL    HW132813   5.833   6.449   2.257
10638SOL    HW232814   5.717   6.417   2.368
10639SOL     OW32815   1.889   3.346   1.738
10639SOL    HW132816   1.969   3.322   1.792
10639SOL    HW232817   1.886   3.445   1.724
10640SOL     OW32818   4.694   0.723   3.434
10640SOL    HW132819   4.692   0.797   3.502
10640SOL    HW232820   4.766   0.658   3.457
10641SOL     OW32821   2.132   1.263   3.596
10641SOL    HW132822   2.120   1.328   3.671
10641SOL    HW232823   2.074   1.183   3.612
10642SOL     OW32824   5.800   2.112   0.441
10642SOL    HW132825   5.703   2.102   0.463
10642SOL    HW232826   5.825   2.049   0.367
10643SOL     OW32827   2.195   6.285   4.497
10643SOL    HW132828   2.131   6.333   4.436
10643SOL    HW232829   2.285   6.327   4.492
10644SOL     OW32830   5.646   3.178   1.172
10644SOL    HW132831   5.689   3.109   1.230
10644SOL    HW232832   5.710   3.254   1.157
10645SOL     OW32833   2.458   2.624   3.485
10645SOL    HW132834   2.498   2.602   3.574
10645SOL    HW232835   2.403   2.548   3.452
10646SOL     OW32836   6.124   0.761   5.689
10646SOL    HW132837   6.205   0.704   5.702
10646SOL    HW232838   6.044   0.715   5.727
10647SOL     OW32839   3.192   5.472   5.293
10647SOL    HW132840   3.288   5.497   5.277
10647SOL    HW232841   3.182   5.373   5.291
10648SOL     OW32842   5.871   5.216   6.598
10648SOL    HW132843   5.823   5.145   6.651
10648SOL    HW232844   5.892   5.181   6.507
10649SOL     OW32845   1.029   3.173   3.577
10649SOL    HW132846   1.072   3.256   3.613
10649SOL    HW232847   1.068   3.093   3.622
10650SOL     OW32848   0.716   0.233   4.247
10650SOL    HW132849   0.659   0.175   4.188
10650SOL    HW232850   0.775   0.289   4.190
10651SOL     OW32851   6.071   6.080   6.562
10651SOL    HW132852   6.048   6.147   6.632
10651SOL    HW232853   5.987   6.042   6.523
10652SOL     OW32854   2.128   6.939   5.689
10652SOL    HW132855   2.177   6.900   5.611
10652SOL    HW232856   2.034   6.905   5.690
10653SOL     OW32857   4.055   6.031   4.795
10653SOL    HW132858   4.141   6.013   4.748
10653SOL    HW232859   4.058   5.992   4.887
10654SOL     OW32860   4.742   1.001   5.484
10654SOL    HW132861   4.836   1.036   5.480
10654SOL    HW232862   4.724   0.943   5.405
10655SOL     OW32863   1.638   4.386   0.721
10655SOL    HW132864   1.667   4.402   0.816
10655SOL    HW232865   1.713   4.342   0.671
10656SOL     OW32866   6.537   1.201   2.827
10656SOL    HW132867   6.603   1.152   2.769
10656SOL    HW232868   6.488   1.136   2.884
10657SOL     OW32869   6.426   0.814   4.620
10657SOL    HW132870   6.359   0.740   4.623
10657SOL    HW232871   6.417   0.862   4.532
10658SOL     OW32872   6.563   4.104   5.013
10658SOL    HW132873   6.619   4.186   5.017
10658SOL    HW232874   6.494   4.108   5.085
10659SOL     OW32875   0.948   4.677   0.650
10659SOL    HW132876   0.876   4.643   0.589
10659SOL    HW232877   0.982   4.764   0.615
10660SOL     OW32878   6.136   4.273   5.280
10660SOL    HW132879   6.045   4.313   5.293
10660SOL    HW232880   6.128   4.187   5.230
10661SOL     OW32881   1.528   5.643   0.463
10661SOL    HW132882   1.517   5.670   0.559
10661SOL    HW232883   1.471   5.563   0.444
10662SOL     OW32884   4.425   0.830   2.519
10662SOL    HW132885   4.516   0.791   2.504
10662SOL    HW232886   4.434   0.918   2.565
10663SOL     OW32887   0.640   1.457   2.891
10663SOL    HW132888   0.600   1.474   2.981
10663SOL    HW232889   0.740   1.466   2.897
10664SOL     OW32890   6.874   4.948   4.905
10664SOL    HW132891   6.814   4.934   4.827
10664SOL    HW232892   6.828   4.919   4.989
10665SOL     OW32893   2.109   2.102   7.014
10665SOL    HW132894   2.171   2.180   7.017
10665SOL    HW232895   2.091   2.077   6.919
10666SOL     OW32896   3.197   4.040   2.440
10666SOL    HW132897   3.146   4.060   2.523
10666SOL    HW232898   3.134   4.032   2.363
10667SOL     OW32899   4.767   1.450   4.030
10667SOL    HW132900   4.799   1.495   4.113
10667SOL    HW232901   4.805   1.496   3.950
10668SOL     OW32902   3.429   1.020   4.992
10668SOL    HW132903   3.366   1.067   5.054
10668SOL    HW232904   3.430   1.067   4.904
10669SOL     OW32905   6.135   0.756   1.079
10669SOL    HW132906   6.161   0.673   1.030
10669SOL    HW232907   6.176   0.835   1.034
10670SOL     OW32908   5.851   4.606   4.791
10670SOL    HW132909   5.891   4.597   4.701
10670SOL    HW232910   5.922   4.626   4.858
10671SOL     OW32911   1.855   1.730   4.167
10671SOL    HW132912   1.838   1.644   4.215
10671SOL    HW232913   1.807   1.805   4.214
10672SOL     OW32914   6.684   4.508   1.679
10672SOL    HW132915   6.733   4.450   1.615
10672SOL    HW232916   6.749   4.562   1.731
10673SOL     OW32917   1.237   0.349   0.354
10673SOL    HW132918   1.332   0.367   0.382
10673SOL    HW232919   1.194   0.289   0.421
10674SOL     OW32920   3.842   3.975   4.513
10674SOL    HW132921   3.784   3.967   4.432
10674SOL    HW232922   3.919   4.035   4.493
10675SOL     OW32923   2.559   0.459   6.524
10675SOL    HW132924   2.616   0.533   6.487
10675SOL    HW232925   2.470   0.495   6.551
10676SOL     OW32926   0.417   6.685   4.791
10676SOL    HW132927   0.317   6.686   4.789
10676SOL    HW232928   0.449   6.595   4.819
10677SOL     OW32929   1.927   0.833   1.290
10677SOL    HW132930   1.997   0.902   1.271
10677SOL    HW232931   1.837   0.874   1.280
10678SOL     OW32932   4.274   4.662   3.938
10678SOL    HW132933   4.312   4.688   3.849
10678SOL    HW232934   4.349   4.638   4.000
10679SOL     OW32935   3.753   5.903   6.108
10679SOL    HW132936   3.660   5.923   6.140
10679SOL    HW232937   3.806   5.988   6.107
10680SOL     OW32938   3.715   2.100   3.318
10680SOL    HW132939   3.717   2.194   3.352
10680SOL    HW232940   3.709   2.037   3.395
10681SOL     OW32941   6.683   3.879   0.203
10681SOL    HW132942   6.763   3.820   0.218
10681SOL    HW232943   6.622   3.873   0.281
10682SOL     OW32944   0.038   2.973   5.282
10682SOL    HW132945   6.974   3.009   5.248
10682SOL    HW232946   0.021   2.901   5.349
10683SOL     OW32947   4.730   1.000   4.095
10683SOL    HW132948   4.732   0.995   4.194
10683SOL    HW232949   4.697   1.091   4.067
10684SOL     OW32950   4.516   5.275   2.489
10684SOL    HW132951   4.449   5.264   2.563
10684SOL    HW232952   4.606   5.291   2.527
10685SOL     OW32953   0.192   5.688   1.146
10685SOL    HW132954   0.125   5.674   1.073
10685SOL    HW232955   0.284   5.670   1.110
10686SOL     OW32956   1.397   3.998   5.986
10686SOL    HW132957   1.475   3.992   5.923
10686SOL    HW232958   1.405   4.081   6.041
10687SOL     OW32959   6.233   4.991   4.226
10687SOL    HW132960   6.172   4.930   4.276
10687SOL    HW232961   6.223   4.975   4.128
10688SOL     OW32962   6.043   3.025   2.875
10688SOL    HW132963   6.038   2.948   2.811
10688SOL    HW232964   6.130   3.021   2.925
10689SOL     OW32965   6.177   0.330   2.382
10689SOL    HW132966   6.232   0.406   2.418
10689SOL    HW232967   6.189   0.250   2.440
10690SOL     OW32968   0.468   5.149   3.515
10690SOL    HW132969   0.465   5.053   3.485
10690SOL    HW232970   0.506   5.205   3.442
10691SOL     OW32971   1.795   1.820   1.718
10691SOL    HW132972   1.845   1.831   1.804
10691SOL    HW232973   1.856   1.840   1.641
10692SOL     OW32974   2.463   0.548   3.541
10692SOL    HW132975   2.470   0.508   3.633
10692SOL    HW232976   2.413   0.634   3.546
10693SOL     OW32977   1.394   6.379   1.090
10693SOL    HW132978   1.297   6.358   1.078
10693SOL    HW232979   1.403   6.455   1.155
10694SOL     OW32980   5.354   6.105   6.664
10694SOL    HW132981   5.335   6.177   6.730
10694SOL    HW232982   5.391   6.025   6.711
10695SOL     OW32983   1.348   2.399   2.323
10695SOL    HW132984   1.407   2.429   2.248
10695SOL    HW232985   1.405   2.367   2.399
10696SOL     OW32986   6.395   4.343   4.076
10696SOL    HW132987   6.307   4.297   4.087
10696SOL    HW232988   6.400   4.418   4.142
10697SOL     OW32989   0.201   0.545   5.514
10697SOL    HW132990   0.208   0.504   5.605
10697SOL    HW232991   0.175   0.474   5.448
10698SOL     OW32992   5.242   5.000   6.807
10698SOL    HW132993   5.228   5.059   6.886
10698SOL    HW232994   5.274   4.910   6.838
10699SOL     OW32995   3.759   4.938   1.638
10699SOL    HW132996   3.821   4.972   1.708
10699SOL    HW232997   3.799   4.858   1.593
10700SOL     OW32998   5.504   6.198   0.434
10700SOL    HW132999   5.501   6.107   0.474
10700SOL    HW233000   5.491   6.267   0.506
10701SOL     OW33001   2.461   6.674   5.566
10701SOL    HW133002   2.460   6.737   5.643
10701SOL    HW233003   2.556   6.658   5.537
10702SOL     OW33004   5.662   3.157   2.350
10702SOL    HW133005   5.695   3.241   2.309
10702SOL    HW233006   5.739   3.100   2.377
10703SOL     OW33007   2.706   2.706   5.558
10703SOL    HW133008   2.740   2.773   5.492
10703SOL    HW233009   2.688   2.620   5.511
10704SOL     OW33010   6.509   4.807   1.897
10704SOL    HW133011   6.531   4.789   1.801
10704SOL    HW233012   6.433   4.872   1.903
10705SOL     OW33013   6.654   5.013   1.428
10705SOL    HW133014   6.652   5.110   1.402
10705SOL    HW233015   6.615   4.958   1.355
10706SOL     OW33016   4.517   0.365   2.872
10706SOL    HW133017   4.547   0.419   2.950
10706SOL    HW233018   4.429   0.321   2.894
10707SOL     OW33019   0.541   6.426   4.259
10707SOL    HW133020   0.567   6.459   4.169
10707SOL    HW233021   0.473   6.353   4.250
10708SOL     OW33022   3.970   1.210   1.135
10708SOL    HW133023   3.984   1.202   1.037
10708SOL    HW233024   3.879   1.248   1.153
10709SOL     OW33025   5.404   5.894   5.151
10709SOL    HW133026   5.494   5.907   5.111
10709SOL    HW233027   5.351   5.831   5.094
10710SOL     OW33028   6.063   0.901   4.348
10710SOL    HW133029   5.988   0.893   4.413
10710SOL    HW233030   6.090   0.810   4.317
10711SOL     OW33031   1.945   6.552   4.015
10711SOL    HW133032   1.851   6.583   4.001
10711SOL    HW233033   1.977   6.505   3.933
10712SOL     OW33034   2.988   0.661   1.827
10712SOL    HW133035   3.045   0.579   1.818
10712SOL    HW233036   2.958   0.690   1.736
10713SOL     OW33037   0.576   3.358   1.189
10713SOL    HW133038   0.541   3.275   1.232
10713SOL    HW233039   0.572   3.434   1.254
10714SOL     OW33040   5.297   3.913   5.529
10714SOL    HW133041   5.252   3.824   5.523
10714SOL    HW233042   5.228   3.985   5.524
10715SOL     OW33043   4.635   0.357   2.207
10715SOL    HW133044   4.627   0.373   2.305
10715SOL    HW233045   4.582   0.425   2.157
10716SOL     OW33046   5.851   2.179   4.061
10716SOL    HW133047   5.873   2.167   3.964
10716SOL    HW233048   5.899   2.260   4.096
10717SOL     OW33049   0.980   2.197   1.376
10717SOL    HW133050   0.969   2.290   1.339
10717SOL    HW233051   1.078   2.175   1.381
10718SOL     OW33052   1.011   3.579   6.945
10718SOL    HW133053   0.939   3.523   6.903
10718SOL    HW233054   1.062   3.523   7.011
10719SOL     OW33055   0.099   5.978   2.736
10719SOL    HW133056   0.049   5.899   2.771
10719SOL    HW233057   0.064   6.004   2.647
10720SOL     OW33058   0.478   4.410   5.744
10720SOL    HW133059   0.494   4.504   5.713
10720SOL    HW233060   0.476   4.349   5.664
10721SOL     OW33061   5.177   3.648   5.004
10721SOL    HW133062   5.206   3.657   4.909
10721SOL    HW233063   5.231   3.577   5.050
10722SOL     OW33064   1.603   5.532   6.554
10722SOL    HW133065   1.643   5.551   6.644
10722SOL    HW233066   1.528   5.466   6.565
10723SOL     OW33067   0.571   3.097   6.596
10723SOL    HW133068   0.527   3.046   6.670
10723SOL    HW233069   0.647   3.043   6.559
10724SOL     OW33070   6.273   1.375   0.087
10724SOL    HW133071   6.251   1.378   7.012
10724SOL    HW233072   6.193   1.406   0.140
10725SOL     OW33073   1.291   5.394   4.579
10725SOL    HW133074   1.360   5.322   4.579
10725SOL    HW233075   1.282   5.430   4.672
10726SOL     OW33076   5.474   0.409   4.727
10726SOL    HW133077   5.541   0.480   4.710
10726SOL    HW233078   5.505   0.323   4.687
10727SOL     OW33079   0.281   5.252   5.560
10727SOL    HW133080   0.324   5.317   5.496
10727SOL    HW233081   0.346   5.228   5.632
10728SOL     OW33082   0.678   6.066   6.522
10728SOL    HW133083   0.590   6.077   6.570
10728SOL    HW233084   0.737   6.006   6.575
10729SOL     OW33085   5.030   1.725   2.852
10729SOL    HW133086   4.952   1.786   2.864
10729SOL    HW233087   5.101   1.771   2.798
10730SOL     OW33088   1.822   0.621   0.881
10730SOL    HW133089   1.751   0.656   0.942
10730SOL    HW233090   1.887   0.694   0.859
10731SOL     OW33091   3.135   6.897   0.852
10731SOL    HW133092   3.099   6.946   0.932
10731SOL    HW233093   3.069   6.901   0.777
10732SOL     OW33094   6.281   4.759   4.712
10732SOL    HW133095   6.335   4.769   4.796
10732SOL    HW233096   6.315   4.679   4.661
10733SOL     OW33097   6.206   2.143   0.917
10733SOL    HW133098   6.115   2.157   0.957
10733SOL    HW233099   6.201   2.157   0.818
10734SOL     OW33100   0.888   0.793   6.914
10734SOL    HW133101   0.893   0.853   6.993
10734SOL    HW233102   0.807   0.734   6.923
10735SOL     OW33103   0.750   2.712   2.983
10735SOL    HW133104   0.737   2.805   3.018
10735SOL    HW233105   0.767   2.715   2.884
10736SOL     OW33106   1.067   0.484   3.198
10736SOL    HW133107   1.106   0.404   3.244
10736SOL    HW233108   1.104   0.568   3.240
10737SOL     OW33109   1.527   1.751   0.897
10737SOL    HW133110   1.625   1.755   0.877
10737SOL    HW233111   1.484   1.838   0.873
10738SOL     OW33112   2.815   0.542   3.279
10738SOL    HW133113   2.830   0.473   3.208
10738SOL    HW233114   2.901   0.590   3.297
10739SOL     OW33115   1.363   1.578   0.769
10739SOL    HW133116   1.270   1.613   0.778
10739SOL    HW233117   1.427   1.641   0.813
10740SOL     OW33118   0.087   5.085   5.023
10740SOL    HW133119   0.174   5.055   4.984
10740SOL    HW233120   0.011   5.049   4.969
10741SOL     OW33121   5.378   0.481   1.321
10741SOL    HW133122   5.310   0.535   1.271
10741SOL    HW233123   5.341   0.456   1.411
10742SOL     OW33124   5.832   0.375   0.862
10742SOL    HW133125   5.764   0.441   0.893
10742SOL    HW233126   5.800   0.282   0.880
10743SOL     OW33127   2.810   1.234   5.787
10743SOL    HW133128   2.807   1.312   5.850
10743SOL    HW233129   2.839   1.266   5.697
10744SOL     OW33130   3.697   1.508   0.982
10744SOL    HW133131   3.716   1.579   1.049
10744SOL    HW233132   3.624   1.448   1.016
10745SOL     OW33133   0.239   6.296   6.499
10745SOL    HW133134   0.275   6.245   6.421
10745SOL    HW233135   0.306   6.296   6.573
10746SOL     OW33136   2.411   5.119   0.931
10746SOL    HW133137   2.325   5.073   0.907
10746SOL    HW233138   2.456   5.150   0.847
10747SOL     OW33139   4.054   0.994   4.083
10747SOL    HW133140   4.008   1.060   4.142
10747SOL    HW233141   4.114   1.042   4.019
10748SOL     OW33142   5.455   0.899   1.024
10748SOL    HW133143   5.528   0.889   0.956
10748SOL    HW233144   5.387   0.827   1.010
10749SOL     OW33145   0.659   5.181   3.027
10749SOL    HW133146   0.742   5.126   3.036
10749SOL    HW233147   0.684   5.275   3.002
10750SOL     OW33148   4.271   6.166   4.224
10750SOL    HW133149   4.333   6.244   4.232
10750SOL    HW233150   4.319   6.082   4.250
10751SOL     OW33151   1.617   4.562   4.998
10751SOL    HW133152   1.668   4.489   4.953
10751SOL    HW233153   1.667   4.594   5.078
10752SOL     OW33154   6.359   3.884   5.805
10752SOL    HW133155   6.315   3.825   5.736
10752SOL    HW233156   6.291   3.947   5.842
10753SOL     OW33157   4.992   5.612   4.668
10753SOL    HW133158   4.954   5.670   4.740
10753SOL    HW233159   5.089   5.631   4.657
10754SOL     OW33160   0.852   0.749   2.943
10754SOL    HW133161   0.880   0.844   2.951
10754SOL    HW233162   0.933   0.691   2.929
10755SOL     OW33163   6.868   1.118   0.157
10755SOL    HW133164   6.778   1.117   0.202
10755SOL    HW233165   6.855   1.107   0.059
10756SOL     OW33166   6.710   4.991   0.055
10756SOL    HW133167   6.637   5.008   7.011
10756SOL    HW233168   6.688   4.911   0.109
10757SOL     OW33169   2.581   2.901   0.416
10757SOL    HW133170   2.567   2.995   0.446
10757SOL    HW233171   2.572   2.839   0.495
10758SOL     OW33172   0.562   6.669   4.426
10758SOL    HW133173   0.619   6.714   4.357
10758SOL    HW233174   0.568   6.570   4.415
10759SOL     OW33175   2.033   2.961   1.004
10759SOL    HW133176   2.117   2.944   1.056
10759SOL    HW233177   1.965   2.891   1.027
10760SOL     OW33178   5.388   1.526   2.902
10760SOL    HW133179   5.456   1.566   2.841
10760SOL    HW233180   5.309   1.494   2.849
10761SOL     OW33181   1.258   6.735   5.931
10761SOL    HW133182   1.181   6.689   5.887
10761SOL    HW233183   1.255   6.718   6.029
10762SOL     OW33184   3.653   2.152   4.404
10762SOL    HW133185   3.730   2.196   4.356
10762SOL    HW233186   3.678   2.135   4.499
10763SOL     OW33187   5.372   6.616   2.572
10763SOL    HW133188   5.309   6.686   2.537
10763SOL    HW233189   5.319   6.540   2.610
10764SOL     OW33190   5.002   2.447   6.084
10764SOL    HW133191   5.062   2.432   6.163
10764SOL    HW233192   5.058   2.457   6.002
10765SOL     OW33193   5.074   2.600   0.394
10765SOL    HW133194   5.032   2.561   0.311
10765SOL    HW233195   5.058   2.698   0.396
10766SOL     OW33196   5.131   4.286   0.479
10766SOL    HW133197   5.071   4.210   0.505
10766SOL    HW233198   5.119   4.361   0.543
10767SOL     OW33199   1.317   0.850   6.945
10767SOL    HW133200   1.297   0.877   6.852
10767SOL    HW233201   1.362   0.925   6.994
10768SOL     OW33202   4.454   4.834   2.269
10768SOL    HW133203   4.518   4.776   2.219
10768SOL    HW233204   4.505   4.892   2.333
10769SOL     OW33205   2.410   4.199   5.374
10769SOL    HW133206   2.421   4.124   5.308
10769SOL    HW233207   2.436   4.285   5.331
10770SOL     OW33208   5.770   0.181   4.480
10770SOL    HW133209   5.774   0.257   4.414
10770SOL    HW233210   5.687   0.190   4.535
10771SOL     OW33211   5.887   6.886   3.762
10771SOL    HW133212   5.957   6.887   3.691
10771SOL    HW233213   5.854   6.980   3.777
10772SOL     OW33214   6.106   6.691   4.774
10772SOL    HW133215   6.099   6.791   4.777
10772SOL    HW233216   6.044   6.652   4.842
10773SOL     OW33217   6.367   6.053   6.871
10773SOL    HW133218   6.455   6.099   6.881
10773SOL    HW233219   6.337   6.060   6.776
10774SOL     OW33220   2.523   1.747   6.624
10774SOL    HW133221   2.514   1.740   6.723
10774SOL    HW233222   2.505   1.659   6.582
10775SOL     OW33223   0.602   4.716   1.811
10775SOL    HW133224   0.615   4.795   1.752
10775SOL    HW233225   0.627   4.740   1.905
10776SOL     OW33226   0.113   1.054   6.851
10776SOL    HW133227   0.022   1.015   6.837
10776SOL    HW233228   0.165   0.996   6.914
10777SOL     OW33229   3.844   5.280   2.714
10777SOL    HW133230   3.813   5.186   2.696
10777SOL    HW233231   3.766   5.337   2.739
10778SOL     OW33232   5.421   6.804   4.128
10778SOL    HW133233   5.507   6.796   4.077
10778SOL    HW233234   5.425   6.884   4.188
10779SOL     OW33235   6.097   3.582   3.813
10779SOL    HW133236   6.187   3.618   3.789
10779SOL    HW233237   6.027   3.634   3.764
10780SOL     OW33238   1.994   0.876   3.396
10780SOL    HW133239   2.034   0.951   3.448
10780SOL    HW233240   1.914   0.909   3.346
10781SOL     OW33241   4.449   0.944   4.265
10781SOL    HW133242   4.543   0.977   4.271
10781SOL    HW233243   4.429   0.884   4.342
10782SOL     OW33244   6.401   1.902   1.602
10782SOL    HW133245   6.501   1.902   1.597
10782SOL    HW233246   6.367   1.995   1.589
10783SOL     OW33247   0.214   2.518   2.834
10783SOL    HW133248   0.164   2.604   2.846
10783SOL    HW233249   0.266   2.521   2.748
10784SOL     OW33250   3.714   6.797   3.867
10784SOL    HW133251   3.648   6.844   3.925
10784SOL    HW233252   3.797   6.778   3.920
10785SOL     OW33253   6.988   4.782   0.514
10785SOL    HW133254   0.050   4.792   0.461
10785SOL    HW233255   6.918   4.843   0.476
10786SOL     OW33256   5.645   4.677   3.450
10786SOL    HW133257   5.658   4.776   3.446
10786SOL    HW233258   5.733   4.631   3.435
10787SOL     OW33259   2.404   1.727   5.399
10787SOL    HW133260   2.321   1.671   5.407
10787SOL    HW233261   2.464   1.710   5.477
10788SOL     OW33262   1.731   4.565   6.327
10788SOL    HW133263   1.734   4.479   6.377
10788SOL    HW233264   1.818   4.578   6.278
10789SOL     OW33265   6.858   2.334   6.599
10789SOL    HW133266   6.802   2.346   6.517
10789SOL    HW233267   6.853   2.417   6.655
10790SOL     OW33268   0.860   0.162   1.748
10790SOL    HW133269   0.925   0.235   1.771
10790SOL    HW233270   0.895   0.075   1.782
10791SOL     OW33271   6.683   6.675   1.429
10791SOL    HW133272   6.626   6.599   1.399
10791SOL    HW233273   6.625   6.750   1.461
10792SOL     OW33274   3.408   3.305   4.706
10792SOL    HW133275   3.439   3.386   4.655
10792SOL    HW233276   3.434   3.222   4.656
10793SOL     OW33277   5.721   3.197   4.981
10793SOL    HW133278   5.805   3.236   5.021
10793SOL    HW233279   5.642   3.247   5.014
10794SOL     OW33280   3.335   3.358   3.893
10794SOL    HW133281   3.389   3.274   3.900
10794SOL    HW233282   3.300   3.383   3.983
10795SOL     OW33283   6.975   5.132   2.067
10795SOL    HW133284   6.974   5.044   2.019
10795SOL    HW233285   0.027   5.189   2.033
10796SOL     OW33286   6.013   0.202   6.159
10796SOL    HW133287   6.096   0.206   6.103
10796SOL    HW233288   5.938   0.248   6.111
10797SOL     OW33289   2.956   2.161   1.481
10797SOL    HW133290   3.036   2.120   1.438
10797SOL    HW233291   2.980   2.250   1.519
10798SOL     OW33292   2.489   0.465   6.883
10798SOL    HW133293   2.519   0.384   6.834
10798SOL    HW233294   2.459   0.439   6.975
10799SOL     OW33295   3.849   0.975   1.788
10799SOL    HW133296   3.911   0.988   1.865
10799SOL    HW233297   3.902   0.966   1.704
10800SOL     OW33298   6.777   6.476   6.208
10800SOL    HW133299   6.714   6.478   6.130
10800SOL    HW233300   6.858   6.423   6.183
10801SOL     OW33301   1.386   6.380   6.072
10801SOL    HW133302   1.482   6.370   6.047
10801SOL    HW233303   1.344   6.452   6.017
10802SOL     OW33304   0.897   0.366   2.828
10802SOL    HW133305   0.890   0.278   2.780
10802SOL    HW233306   0.810   0.415   2.820
10803SOL     OW33307   2.502   5.204   6.190
10803SOL    HW133308   2.430   5.265   6.223
10803SOL    HW233309   2.577   5.203   6.256
10804SOL     OW33310   5.915   3.178   2.656
10804SOL    HW133311   5.888   3.265   2.697
10804SOL    HW233312   5.953   3.119   2.728
10805SOL     OW33313   4.742   6.539   6.120
10805SOL    HW133314   4.696   6.566   6.036
10805SOL    HW233315   4.839   6.562   6.114
10806SOL     OW33316   4.075   4.184   5.737
10806SOL    HW133317   4.105   4.123   5.810
10806SOL    HW233318   4.063   4.276   5.773
10807SOL     OW33319   1.909   6.735   2.585
10807SOL    HW133320   1.854   6.765   2.663
10807SOL    HW233321   1.877   6.645   2.555
10808SOL     OW33322   7.000   2.882   6.215
10808SOL    HW133323   0.024   2.971   6.218
10808SOL    HW233324   6.901   2.896   6.211
10809SOL     OW33325   2.602   4.619   3.367
10809SOL    HW133326   2.628   4.600   3.461
10809SOL    HW233327   2.511   4.580   3.349
10810SOL     OW33328   1.078   0.737   3.544
10810SOL    HW133329   1.121   0.721   3.455
10810SOL    HW233330   1.001   0.800   3.534
10811SOL     OW33331   4.034   4.946   5.812
10811SOL    HW133332   4.125   4.946   5.854
10811SOL    HW233333   3.973   4.886   5.864
10812SOL     OW33334   0.205   3.893   0.837
10812SOL    HW133335   0.242   3.808   0.800
10812SOL    HW233336   0.156   3.874   0.922
10813SOL     OW33337   1.459   3.877   6.310
10813SOL    HW133338   1.531   3.843   6.250
10813SOL    HW233339   1.461   3.828   6.397
10814SOL     OW33340   1.666   6.775   6.025
10814SOL    HW133341   1.629   6.782   5.933
10814SOL    HW233342   1.599   6.810   6.091
10815SOL     OW33343   5.189   3.576   3.207
10815SOL    HW133344   5.122   3.609   3.140
10815SOL    HW233345   5.160   3.486   3.240
10816SOL     OW33346   3.303   3.724   2.625
10816SOL    HW133347   3.242   3.720   2.546
10816SOL    HW233348   3.287   3.808   2.676
10817SOL     OW33349   4.140   0.673   3.433
10817SOL    HW133350   4.102   0.764   3.453
10817SOL    HW233351   4.179   0.634   3.516
10818SOL     OW33352   4.809   4.469   5.455
10818SOL    HW133353   4.843   4.556   5.493
10818SOL    HW233354   4.848   4.455   5.364
10819SOL     OW33355   6.259   5.218   6.212
10819SOL    HW133356   6.353   5.188   6.200
10819SOL    HW233357   6.213   5.222   6.123
10820SOL     OW33358   6.895   4.798   4.461
10820SOL    HW133359   6.937   4.876   4.415
10820SOL    HW233360   6.796   4.813   4.468
10821SOL     OW33361   4.677   6.617   3.747
10821SOL    HW133362   4.625   6.543   3.706
10821SOL    HW233363   4.618   6.667   3.812
10822SOL     OW33364   6.043   2.088   2.743
10822SOL    HW133365   6.012   2.113   2.835
10822SOL    HW233366   5.979   2.021   2.703
10823SOL     OW33367   1.103   0.989   1.933
10823SOL    HW133368   1.194   0.972   1.971
10823SOL    HW233369   1.070   1.078   1.964
10824SOL     OW33370   0.045   1.549   2.840
10824SOL    HW133371   6.987   1.609   2.838
10824SOL    HW233372   0.116   1.591   2.896
10825SOL     OW33373   2.093   1.862   6.421
10825SOL    HW133374   2.059   1.844   6.514
10825SOL    HW233375   2.180   1.814   6.408
10826SOL     OW33376   0.661   1.978   3.062
10826SOL    HW133377   0.731   2.036   3.020
10826SOL    HW233378   0.702   1.891   3.090
10827SOL     OW33379   0.420   3.236   4.800
10827SOL    HW133380   0.421   3.189   4.712
10827SOL    HW233381   0.395   3.332   4.786
10828SOL     OW33382   1.351   4.319   0.646
10828SOL    HW133383   1.448   4.313   0.669
10828SOL    HW233384   1.306   4.233   0.671
10829SOL     OW33385   4.807   2.866   0.574
10829SOL    HW133386   4.828   2.925   0.652
10829SOL    HW233387   4.709   2.844   0.574
10830SOL     OW33388   4.265   1.748   3.252
10830SOL    HW133389   4.199   1.675   3.269
10830SOL    HW233390   4.287   1.750   3.154
10831SOL     OW33391   3.261   6.425   2.960
10831SOL    HW133392   3.232   6.512   2.920
10831SOL    HW233393   3.183   6.363   2.964
10832SOL     OW33394   0.058   3.715   5.886
10832SOL    HW133395   0.067   3.631   5.831
10832SOL    HW233396   0.096   3.792   5.835
10833SOL     OW33397   0.591   0.853   1.854
10833SOL    HW133398   0.568   0.808   1.769
10833SOL    HW233399   0.688   0.839   1.874
10834SOL     OW33400   6.463   1.546   0.694
10834SOL    HW133401   6.404   1.589   0.762
10834SOL    HW233402   6.547   1.600   0.684
10835SOL     OW33403   6.193   2.476   0.034
10835SOL    HW133404   6.187   2.414   0.112
10835SOL    HW233405   6.274   2.454   7.002
10836SOL     OW33406   6.730   2.143   4.669
10836SOL    HW133407   6.805   2.178   4.725
10836SOL    HW233408   6.682   2.072   4.720
10837SOL     OW33409   6.615   4.693   1.101
10837SOL    HW133410   6.578   4.781   1.133
10837SOL    HW233411   6.698   4.710   1.047
10838SOL     OW33412   6.991   5.959   3.599
10838SOL    HW133413   0.062   5.972   3.633
10838SOL    HW233414   6.989   5.971   3.500
10839SOL     OW33415   4.703   3.090   1.072
10839SOL    HW133416   4.764   3.011   1.075
10839SOL    HW233417   4.618   3.067   1.120
10840SOL     OW33418   3.053   6.211   2.293
10840SOL    HW133419   3.119   6.136   2.298
10840SOL    HW233420   2.964   6.175   2.262
10841SOL     OW33421   6.756   4.609   5.596
10841SOL    HW133422   6.825   4.551   5.639
10841SOL    HW233423   6.763   4.600   5.497
10842SOL     OW33424   4.638   2.369   1.242
10842SOL    HW133425   4.601   2.278   1.228
10842SOL    HW233426   4.730   2.363   1.279
10843SOL     OW33427   1.487   1.357   0.925
10843SOL    HW133428   1.417   1.414   0.881
10843SOL    HW233429   1.565   1.347   0.863
10844SOL     OW33430   0.856   5.304   3.468
10844SOL    HW133431   0.780   5.291   3.404
10844SOL    HW233432   0.822   5.350   3.550
10845SOL     OW33433   3.663   6.529   5.356
10845SOL    HW133434   3.637   6.619   5.390
10845SOL    HW233435   3.762   6.516   5.368
10846SOL     OW33436   5.460   0.797   6.714
10846SOL    HW133437   5.461   0.735   6.793
10846SOL    HW233438   5.475   0.891   6.746
10847SOL     OW33439   3.725   2.611   0.407
10847SOL    HW133440   3.759   2.692   0.453
10847SOL    HW233441   3.631   2.592   0.437
10848SOL     OW33442   2.219   4.031   0.657
10848SOL    HW133443   2.192   3.935   0.657
10848SOL    HW233444   2.277   4.049   0.578
10849SOL     OW33445   2.338   4.406   4.159
10849SOL    HW133446   2.329   4.306   4.153
10849SOL    HW233447   2.330   4.446   4.068
10850SOL     OW33448   3.097   6.157   5.920
10850SOL    HW133449   3.175   6.219   5.912
10850SOL    HW233450   3.074   6.146   6.017
10851SOL     OW33451   2.835   3.626   0.551
10851SOL    HW133452   2.901   3.557   0.522
10851SOL    HW233453   2.751   3.616   0.498
10852SOL     OW33454   1.541   0.662   6.850
10852SOL    HW133455   1.452   0.697   6.880
10852SOL    HW233456   1.530   0.570   6.812
10853SOL     OW33457   1.659   3.154   5.721
10853SOL    HW133458   1.706   3.239   5.699
10853SOL    HW233459   1.685   3.083   5.655
10854SOL     OW33460   4.377   4.816   5.580
10854SOL    HW133461   4.342   4.909   5.584
10854SOL    HW233462   4.400   4.784   5.672
10855SOL     OW33463   4.128   0.979   0.802
10855SOL    HW133464   4.163   0.923   0.726
10855SOL    HW233465   4.162   0.941   0.888
10856SOL     OW33466   5.243   0.720   0.903
10856SOL    HW133467   5.161   0.742   0.850
10856SOL    HW233468   5.239   0.625   0.933
10857SOL     OW33469   1.006   2.137   2.775
10857SOL    HW133470   0.912   2.116   2.803
10857SOL    HW233471   1.048   2.054   2.737
10858SOL     OW33472   1.054   1.244   0.437
10858SOL    HW133473   1.008   1.305   0.373
10858SOL    HW233474   1.143   1.218   0.401
10859SOL     OW33475   1.073   4.761   4.551
10859SOL    HW133476   1.132   4.817   4.493
10859SOL    HW233477   1.092   4.782   4.647
10860SOL     OW33478   0.311   3.035   4.981
10860SOL    HW133479   0.373   2.963   5.013
10860SOL    HW233480   0.363   3.103   4.930
10861SOL     OW33481   3.438   4.162   3.529
10861SOL    HW133482   3.492   4.108   3.593
10861SOL    HW233483   3.376   4.102   3.479
10862SOL     OW33484   2.246   0.929   6.086
10862SOL    HW133485   2.209   1.022   6.093
10862SOL    HW233486   2.179   0.869   6.044
10863SOL     OW33487   2.421   0.722   3.846
10863SOL    HW133488   2.408   0.821   3.856
10863SOL    HW233489   2.337   0.681   3.812
10864SOL     OW33490   2.177   6.436   0.191
10864SOL    HW133491   2.267   6.472   0.167
10864SOL    HW233492   2.178   6.405   0.287
10865SOL     OW33493   6.885   1.277   1.217
10865SOL    HW133494   6.963   1.263   1.279
10865SOL    HW233495   6.800   1.264   1.268
10866SOL     OW33496   5.400   4.224   0.171
10866SOL    HW133497   5.452   4.264   0.095
10866SOL    HW233498   5.302   4.230   0.152
10867SOL     OW33499   3.529   4.088   0.308
10867SOL    HW133500   3.558   4.102   0.403
10867SOL    HW233501   3.444   4.035   0.307
10868SOL     OW33502   5.113   1.065   4.135
10868SOL    HW133503   5.130   1.138   4.200
10868SOL    HW233504   5.102   1.104   4.043
10869NA      NA33505   6.201   2.880   5.283
10870NA      NA33506   4.494   4.571   5.167
10871NA      NA33507   1.596   2.881   2.070
10872NA      NA33508   4.982   3.785   5.123
10873NA      NA33509   4.203   2.316   5.231
10874NA      NA33510   3.522   4.919   1.819
10875NA      NA33511   6.942   4.996   6.945
10876NA      NA33512   3.678   3.535   4.469
10877NA      NA33513   4.788   6.246   0.213
10878NA      NA33514   3.573   6.601   5.107
10879NA      NA33515   5.783   5.048   2.105
10880NA      NA33516   2.096   0.339   3.917
10881NA      NA33517   4.032   5.452   2.673
10882NA      NA33518   3.624   3.775   2.339
   7.02247   7.02247   7.02247
