Generated by trjconv : CNT in water t= 557.00000
33518
    1C        C    1   2.843   2.770   4.746
    1C        C    2   2.897   2.718   4.865
    1C        C    3   2.848   2.777   4.983
    1C        C    4   2.853   2.782   4.258
    1C        C    5   2.902   2.734   4.381
    1C        C    6   2.849   2.776   4.505
    1C        C    7   3.014   2.642   4.625
    1C        C    8   2.895   2.719   4.625
    1C        C    9   3.079   2.611   4.747
    1C        C   10   3.013   2.639   4.868
    1C        C   11   3.183   2.492   4.973
    1C        C   12   3.061   2.561   4.975
    1C        C   13   2.851   2.774   3.771
    1C        C   14   2.901   2.725   3.893
    1C        C   15   2.852   2.780   4.014
    1C        C   16   3.023   2.655   4.137
    1C        C   17   2.905   2.734   4.136
    1C        C   18   3.082   2.620   4.260
    1C        C   19   3.022   2.659   4.382
    1C        C   20   3.213   2.565   4.504
    1C        C   21   3.081   2.616   4.504
    1C        C   22   3.280   2.538   4.625
    1C        C   23   3.209   2.554   4.746
    1C        C   24   3.416   2.486   4.867
    1C        C   25   3.274   2.509   4.864
    1C        C   26   3.489   2.484   4.986
    1C        C   27   2.851   2.775   3.283
    1C        C   28   2.910   2.730   3.403
    1C        C   29   2.856   2.776   3.525
    1C        C   30   3.021   2.647   3.650
    1C        C   31   2.905   2.727   3.648
    1C        C   32   3.086   2.616   3.772
    1C        C   33   3.019   2.647   3.892
    1C        C   34   3.209   2.557   4.017
    1C        C   35   3.080   2.614   4.015
    1C        C   36   3.280   2.540   4.139
    1C        C   37   3.211   2.563   4.260
    1C        C   38   3.415   2.506   4.382
    1C        C   39   3.277   2.535   4.382
    1C        C   40   3.488   2.498   4.503
    1C        C   41   3.417   2.503   4.626
    1C        C   42   3.631   2.480   4.745
    1C        C   43   3.489   2.482   4.745
    1C        C   44   3.706   2.484   4.864
    1C        C   45   3.628   2.478   4.980
    1C        C   46   2.838   2.755   2.796
    1C        C   47   2.895   2.714   2.918
    1C        C   48   2.845   2.766   3.040
    1C        C   49   3.018   2.641   3.161
    1C        C   50   2.904   2.724   3.162
    1C        C   51   3.084   2.609   3.282
    1C        C   52   3.026   2.650   3.404
    1C        C   53   3.212   2.554   3.527
    1C        C   54   3.083   2.612   3.528
    1C        C   55   3.280   2.537   3.650
    1C        C   56   3.214   2.557   3.773
    1C        C   57   3.418   2.508   3.894
    1C        C   58   3.280   2.535   3.897
    1C        C   59   3.487   2.504   4.017
    1C        C   60   3.417   2.508   4.139
    1C        C   61   3.628   2.502   4.260
    1C        C   62   3.487   2.495   4.261
    1C        C   63   3.702   2.507   4.380
    1C        C   64   3.629   2.503   4.501
    1C        C   65   3.835   2.540   4.624
    1C        C   66   3.699   2.502   4.623
    1C        C   67   3.906   2.563   4.744
    1C        C   68   3.840   2.530   4.864
    1C        C   69   4.054   2.584   4.979
    1C        C   70   3.924   2.533   4.977
    1C        C   71   2.828   2.738   2.308
    1C        C   72   2.884   2.696   2.431
    1C        C   73   2.830   2.746   2.552
    1C        C   74   3.012   2.636   2.675
    1C        C   75   2.892   2.709   2.674
    1C        C   76   3.077   2.602   2.796
    1C        C   77   3.013   2.636   2.918
    1C        C   78   3.208   2.551   3.038
    1C        C   79   3.077   2.602   3.039
    1C        C   80   3.277   2.526   3.159
    1C        C   81   3.212   2.549   3.282
    1C        C   82   3.417   2.500   3.403
    1C        C   83   3.278   2.526   3.405
    1C        C   84   3.487   2.495   3.526
    1C        C   85   3.417   2.505   3.648
    1C        C   86   3.628   2.499   3.769
    1C        C   87   3.486   2.494   3.771
    1C        C   88   3.697   2.506   3.892
    1C        C   89   3.629   2.501   4.015
    1C        C   90   3.835   2.545   4.136
    1C        C   91   3.699   2.506   4.138
    1C        C   92   3.903   2.572   4.257
    1C        C   93   3.839   2.543   4.379
    1C        C   94   4.027   2.633   4.502
    1C        C   95   3.903   2.566   4.503
    1C        C   96   4.091   2.674   4.621
    1C        C   97   4.033   2.628   4.741
    1C        C   98   4.194   2.763   4.865
    1C        C   99   4.099   2.656   4.864
    1C        C  100   4.218   2.843   4.977
    1C        C  101   2.822   2.733   2.071
    1C        C  102   2.994   2.595   2.191
    1C        C  103   2.881   2.683   2.188
    1C        C  104   3.065   2.576   2.313
    1C        C  105   3.003   2.620   2.431
    1C        C  106   3.200   2.539   2.551
    1C        C  107   3.072   2.599   2.553
    1C        C  108   3.272   2.521   2.671
    1C        C  109   3.205   2.542   2.794
    1C        C  110   3.413   2.501   2.913
    1C        C  111   3.274   2.524   2.916
    1C        C  112   3.483   2.492   3.035
    1C        C  113   3.415   2.497   3.159
    1C        C  114   3.627   2.489   3.278
    1C        C  115   3.486   2.486   3.281
    1C        C  116   3.695   2.502   3.401
    1C        C  117   3.629   2.495   3.525
    1C        C  118   3.836   2.537   3.646
    1C        C  119   3.699   2.503   3.647
    1C        C  120   3.899   2.568   3.769
    1C        C  121   3.833   2.546   3.892
    1C        C  122   4.025   2.636   4.012
    1C        C  123   3.901   2.569   4.014
    1C        C  124   4.086   2.675   4.134
    1C        C  125   4.029   2.637   4.257
    1C        C  126   4.195   2.765   4.379
    1C        C  127   4.089   2.672   4.381
    1C        C  128   4.246   2.820   4.499
    1C        C  129   4.192   2.772   4.621
    1C        C  130   4.325   2.936   4.742
    1C        C  131   4.243   2.819   4.744
    1C        C  132   4.359   3.003   4.861
    1C        C  133   4.293   2.960   4.977
    1C        C  134   3.178   2.477   2.078
    1C        C  135   3.043   2.512   2.086
    1C        C  136   3.262   2.487   2.190
    1C        C  137   3.197   2.522   2.311
    1C        C  138   3.406   2.476   2.428
    1C        C  139   3.267   2.505   2.432
    1C        C  140   3.481   2.481   2.547
    1C        C  141   3.411   2.499   2.668
    1C        C  142   3.624   2.492   2.792
    1C        C  143   3.483   2.493   2.790
    1C        C  144   3.696   2.499   2.914
    1C        C  145   3.624   2.491   3.035
    1C        C  146   3.834   2.534   3.157
    1C        C  147   3.697   2.500   3.155
    1C        C  148   3.901   2.557   3.279
    1C        C  149   3.832   2.537   3.401
    1C        C  150   4.025   2.627   3.520
    1C        C  151   3.900   2.561   3.523
    1C        C  152   4.085   2.665   3.642
    1C        C  153   4.025   2.632   3.766
    1C        C  154   4.190   2.765   3.889
    1C        C  155   4.080   2.676   3.889
    1C        C  156   4.245   2.813   4.010
    1C        C  157   4.194   2.766   4.133
    1C        C  158   4.337   2.920   4.253
    1C        C  159   4.245   2.814   4.256
    1C        C  160   4.372   2.984   4.374
    1C        C  161   4.331   2.932   4.499
    1C        C  162   4.440   3.115   4.618
    1C        C  163   4.364   2.996   4.620
    1C        C  164   4.471   3.183   4.738
    1C        C  165   4.434   3.122   4.859
    1C        C  166   4.514   3.323   4.976
    1C        C  167   4.484   3.187   4.973
    1C        C  168   3.477   2.437   2.073
    1C        C  169   3.402   2.468   2.187
    1C        C  170   3.619   2.468   2.306
    1C        C  171   3.477   2.468   2.307
    1C        C  172   3.694   2.485   2.425
    1C        C  173   3.623   2.483   2.547
    1C        C  174   3.828   2.542   2.667
    1C        C  175   3.692   2.501   2.669
    1C        C  176   3.898   2.557   2.788
    1C        C  177   3.833   2.530   2.911
    1C        C  178   4.027   2.617   3.031
    1C        C  179   3.900   2.555   3.033
    1C        C  180   4.087   2.656   3.153
    1C        C  181   4.027   2.620   3.275
    1C        C  182   4.191   2.755   3.397
    1C        C  183   4.085   2.662   3.397
    1C        C  184   4.237   2.809   3.519
    1C        C  185   4.191   2.758   3.643
    1C        C  186   4.333   2.917   3.764
    1C        C  187   4.243   2.808   3.765
    1C        C  188   4.371   2.981   3.885
    1C        C  189   4.332   2.923   4.008
    1C        C  190   4.440   3.105   4.128
    1C        C  191   4.374   2.980   4.130
    1C        C  192   4.464   3.174   4.249
    1C        C  193   4.435   3.111   4.372
    1C        C  194   4.503   3.313   4.491
    1C        C  195   4.464   3.177   4.493
    1C        C  196   4.516   3.387   4.611
    1C        C  197   4.505   3.321   4.736
    1C        C  198   4.552   3.535   4.848
    1C        C  199   4.528   3.394   4.856
    1C        C  200   4.586   3.617   4.960
    1C        C  201   3.616   2.419   2.075
    1C        C  202   3.831   2.505   2.184
    1C        C  203   3.694   2.462   2.186
    1C        C  204   3.902   2.537   2.303
    1C        C  205   3.831   2.520   2.424
    1C        C  206   4.022   2.619   2.543
    1C        C  207   3.894   2.558   2.544
    1C        C  208   4.083   2.659   2.664
    1C        C  209   4.022   2.626   2.787
    1C        C  210   4.198   2.743   2.909
    1C        C  211   4.087   2.656   2.909
    1C        C  212   4.249   2.795   3.030
    1C        C  213   4.197   2.744   3.152
    1C        C  214   4.330   2.911   3.275
    1C        C  215   4.244   2.798   3.274
    1C        C  216   4.364   2.974   3.397
    1C        C  217   4.326   2.918   3.521
    1C        C  218   4.434   3.103   3.639
    1C        C  219   4.369   2.977   3.642
    1C        C  220   4.459   3.171   3.761
    1C        C  221   4.434   3.107   3.884
    1C        C  222   4.500   3.309   4.004
    1C        C  223   4.464   3.172   4.006
    1C        C  224   4.515   3.381   4.125
    1C        C  225   4.502   3.310   4.247
    1C        C  226   4.517   3.522   4.365
    1C        C  227   4.517   3.380   4.368
    1C        C  228   4.517   3.597   4.484
    1C        C  229   4.531   3.528   4.607
    1C        C  230   4.511   3.744   4.727
    1C        C  231   4.537   3.604   4.725
    1C        C  232   4.503   3.821   4.845
    1C        C  233   4.546   3.751   4.958
    1C        C  234   4.016   2.607   2.061
    1C        C  235   3.893   2.544   2.064
    1C        C  236   4.086   2.644   2.176
    1C        C  237   4.025   2.607   2.298
    1C        C  238   4.202   2.727   2.421
    1C        C  239   4.086   2.646   2.420
    1C        C  240   4.253   2.783   2.541
    1C        C  241   4.199   2.739   2.663
    1C        C  242   4.328   2.907   2.783
    1C        C  243   4.247   2.792   2.785
    1C        C  244   4.370   2.964   2.905
    1C        C  245   4.335   2.907   3.030
    1C        C  246   4.432   3.096   3.149
    1C        C  247   4.371   2.969   3.152
    1C        C  248   4.453   3.163   3.271
    1C        C  249   4.423   3.102   3.395
    1C        C  250   4.492   3.304   3.514
    1C        C  251   4.453   3.168   3.515
    1C        C  252   4.504   3.375   3.636
    1C        C  253   4.490   3.309   3.760
    1C        C  254   4.526   3.518   3.876
    1C        C  255   4.511   3.377   3.881
    1C        C  256   4.522   3.590   3.998
    1C        C  257   4.518   3.522   4.121
    1C        C  258   4.495   3.733   4.241
    1C        C  259   4.512   3.593   4.243
    1C        C  260   4.477   3.806   4.361
    1C        C  261   4.490   3.736   4.483
    1C        C  262   4.425   3.937   4.605
    1C        C  263   4.479   3.807   4.604
    1C        C  264   4.399   4.011   4.723
    1C        C  265   4.444   3.950   4.842
    1C        C  266   4.324   4.133   4.958
    1C        C  267   4.400   4.017   4.956
    1C        C  268   4.262   2.776   2.062
    1C        C  269   4.198   2.731   2.178
    1C        C  270   4.343   2.887   2.301
    1C        C  271   4.256   2.775   2.299
    1C        C  272   4.379   2.954   2.419
    1C        C  273   4.337   2.896   2.541
    1C        C  274   4.437   3.088   2.659
    1C        C  275   4.373   2.962   2.661
    1C        C  276   4.463   3.154   2.782
    1C        C  277   4.436   3.088   2.904
    1C        C  278   4.503   3.292   3.023
    1C        C  279   4.463   3.156   3.025
    1C        C  280   4.507   3.367   3.143
    1C        C  281   4.492   3.299   3.266
    1C        C  282   4.515   3.509   3.388
    1C        C  283   4.510   3.368   3.389
    1C        C  284   4.515   3.580   3.510
    1C        C  285   4.522   3.515   3.635
    1C        C  286   4.493   3.728   3.753
    1C        C  287   4.522   3.589   3.755
    1C        C  288   4.471   3.796   3.875
    1C        C  289   4.490   3.728   3.998
    1C        C  290   4.429   3.934   4.115
    1C        C  291   4.476   3.801   4.118
    1C        C  292   4.400   4.001   4.236
    1C        C  293   4.426   3.937   4.360
    1C        C  294   4.329   4.125   4.475
    1C        C  295   4.398   4.002   4.482
    1C        C  296   4.286   4.186   4.595
    1C        C  297   4.327   4.134   4.719
    1C        C  298   4.201   4.313   4.840
    1C        C  299   4.287   4.198   4.840
    1C        C  300   4.172   4.401   4.949
    1C        C  301   4.349   2.885   2.064
    1C        C  302   4.470   3.067   2.178
    1C        C  303   4.392   2.947   2.181
    1C        C  304   4.479   3.145   2.296
    1C        C  305   4.448   3.077   2.417
    1C        C  306   4.503   3.286   2.535
    1C        C  307   4.472   3.148   2.536
    1C        C  308   4.510   3.359   2.656
    1C        C  309   4.497   3.291   2.779
    1C        C  310   4.528   3.501   2.898
    1C        C  311   4.516   3.360   2.900
    1C        C  312   4.523   3.575   3.018
    1C        C  313   4.517   3.507   3.142
    1C        C  314   4.489   3.717   3.262
    1C        C  315   4.513   3.578   3.264
    1C        C  316   4.475   3.787   3.384
    1C        C  317   4.495   3.720   3.508
    1C        C  318   4.429   3.925   3.623
    1C        C  319   4.475   3.791   3.628
    1C        C  320   4.398   3.990   3.745
    1C        C  321   4.425   3.929   3.869
    1C        C  322   4.322   4.114   3.990
    1C        C  323   4.398   3.995   3.991
    1C        C  324   4.279   4.173   4.111
    1C        C  325   4.325   4.120   4.233
    1C        C  326   4.189   4.284   4.354
    1C        C  327   4.287   4.183   4.354
    1C        C  328   4.138   4.337   4.475
    1C        C  329   4.193   4.293   4.598
    1C        C  330   4.030   4.438   4.711
    1C        C  331   4.142   4.351   4.716
    1C        C  332   3.971   4.486   4.830
    1C        C  333   4.049   4.469   4.945
    1C        C  334   4.552   3.267   2.064
    1C        C  335   4.528   3.129   2.062
    1C        C  336   4.540   3.352   2.174
    1C        C  337   4.518   3.282   2.295
    1C        C  338   4.527   3.498   2.413
    1C        C  339   4.520   3.357   2.414
    1C        C  340   4.529   3.572   2.534
    1C        C  341   4.519   3.500   2.655
    1C        C  342   4.501   3.712   2.774
    1C        C  343   4.522   3.573   2.777
    1C        C  344   4.482   3.785   2.894
    1C        C  345   4.496   3.714   3.015
    1C        C  346   4.433   3.916   3.137
    1C        C  347   4.478   3.782   3.137
    1C        C  348   4.400   3.983   3.257
    1C        C  349   4.428   3.920   3.380
    1C        C  350   4.322   4.106   3.502
    1C        C  351   4.396   3.986   3.501
    1C        C  352   4.279   4.166   3.623
    1C        C  353   4.321   4.109   3.745
    1C        C  354   4.179   4.267   3.866
    1C        C  355   4.277   4.166   3.866
    1C        C  356   4.125   4.317   3.987
    1C        C  357   4.177   4.272   4.110
    1C        C  358   4.010   4.400   4.231
    1C        C  359   4.129   4.324   4.232
    1C        C  360   3.953   4.446   4.352
    1C        C  361   4.018   4.411   4.472
    1C        C  362   3.832   4.520   4.592
    1C        C  363   3.961   4.463   4.590
    1C        C  364   3.764   4.549   4.713
    1C        C  365   3.839   4.537   4.832
    1C        C  366   3.628   4.595   4.949
    1C        C  367   3.765   4.572   4.946
    1C        C  368   4.508   3.565   2.052
    1C        C  369   4.526   3.492   2.171
    1C        C  370   4.506   3.708   2.289
    1C        C  371   4.521   3.567   2.290
    1C        C  372   4.491   3.781   2.409
    1C        C  373   4.505   3.711   2.530
    1C        C  374   4.435   3.913   2.651
    1C        C  375   4.483   3.780   2.652
    1C        C  376   4.397   3.976   2.771
    1C        C  377   4.431   3.917   2.895
    1C        C  378   4.319   4.097   3.013
    1C        C  379   4.400   3.982   3.017
    1C        C  380   4.277   4.155   3.135
    1C        C  381   4.318   4.098   3.258
    1C        C  382   4.176   4.258   3.376
    1C        C  383   4.276   4.158   3.379
    1C        C  384   4.125   4.310   3.497
    1C        C  385   4.179   4.266   3.621
    1C        C  386   4.008   4.392   3.742
    1C        C  387   4.126   4.313   3.743
    1C        C  388   3.945   4.423   3.865
    1C        C  389   4.007   4.394   3.988
    1C        C  390   3.817   4.492   4.108
    1C        C  391   3.946   4.434   4.110
    1C        C  392   3.752   4.517   4.231
    1C        C  393   3.822   4.500   4.352
    1C        C  394   3.619   4.560   4.475
    1C        C  395   3.758   4.536   4.473
    1C        C  396   3.547   4.569   4.596
    1C        C  397   3.625   4.570   4.714
    1C        C  398   3.411   4.556   4.840
    1C        C  399   3.550   4.578   4.834
    1C        C  400   3.342   4.524   4.958
    1C        C  401   4.514   3.704   2.053
    1C        C  402   4.459   3.917   2.167
    1C        C  403   4.498   3.781   2.169
    1C        C  404   4.418   3.981   2.286
    1C        C  405   4.447   3.916   2.408
    1C        C  406   4.333   4.096   2.526
    1C        C  407   4.413   3.980   2.529
    1C        C  408   4.279   4.150   2.645
    1C        C  409   4.318   4.093   2.769
    1C        C  410   4.173   4.250   2.889
    1C        C  411   4.271   4.148   2.890
    1C        C  412   4.120   4.297   3.011
    1C        C  413   4.175   4.253   3.133
    1C        C  414   4.001   4.378   3.255
    1C        C  415   4.120   4.302   3.254
    1C        C  416   3.939   4.412   3.377
    1C        C  417   4.005   4.385   3.499
    1C        C  418   3.812   4.474   3.618
    1C        C  419   3.945   4.426   3.620
    1C        C  420   3.747   4.499   3.741
    1C        C  421   3.816   4.479   3.863
    1C        C  422   3.612   4.536   3.986
    1C        C  423   3.750   4.508   3.985
    1C        C  424   3.542   4.541   4.108
    1C        C  425   3.613   4.543   4.230
    1C        C  426   3.405   4.551   4.357
    1C        C  427   3.546   4.556   4.354
    1C        C  428   3.333   4.552   4.479
    1C        C  429   3.406   4.560   4.599
    1C        C  430   3.196   4.520   4.723
    1C        C  431   3.335   4.547   4.721
    1C        C  432   3.127   4.489   4.844
    1C        C  433   3.207   4.490   4.959
    1C        C  434   4.387   4.123   2.050
    1C        C  435   4.450   3.998   2.054
    1C        C  436   4.306   4.163   2.161
    1C        C  437   4.336   4.098   2.284
    1C        C  438   4.185   4.248   2.403
    1C        C  439   4.289   4.153   2.405
    1C        C  440   4.125   4.294   2.523
    1C        C  441   4.182   4.253   2.645
    1C        C  442   4.007   4.377   2.768
    1C        C  443   4.125   4.299   2.765
    1C        C  444   3.945   4.418   2.888
    1C        C  445   4.005   4.379   3.010
    1C        C  446   3.812   4.469   3.130
    1C        C  447   3.941   4.411   3.131
    1C        C  448   3.746   4.493   3.253
    1C        C  449   3.811   4.472   3.376
    1C        C  450   3.606   4.530   3.496
    1C        C  451   3.743   4.497   3.497
    1C        C  452   3.541   4.541   3.621
    1C        C  453   3.610   4.533   3.744
    1C        C  454   3.397   4.546   3.866
    1C        C  455   3.539   4.546   3.865
    1C        C  456   3.330   4.536   3.990
    1C        C  457   3.401   4.542   4.112
    1C        C  458   3.194   4.515   4.238
    1C        C  459   3.333   4.545   4.236
    1C        C  460   3.126   4.497   4.360
    1C        C  461   3.195   4.521   4.481
    1C        C  462   2.998   4.439   4.604
    1C        C  463   3.125   4.502   4.602
    1C        C  464   2.933   4.401   4.723
    1C        C  465   2.992   4.442   4.845
    1C        C  466   2.802   4.338   4.958
    1C        C  467   2.907   4.431   4.960
    1C        C  468   4.121   4.283   2.043
    1C        C  469   4.189   4.246   2.160
    1C        C  470   4.010   4.368   2.280
    1C        C  471   4.132   4.295   2.281
    1C        C  472   3.945   4.405   2.400
    1C        C  473   4.009   4.374   2.523
    1C        C  474   3.816   4.464   2.643
    1C        C  475   3.947   4.410   2.644
    1C        C  476   3.744   4.488   2.763
    1C        C  477   3.813   4.469   2.885
    1C        C  478   3.608   4.519   3.010
    1C        C  479   3.747   4.495   3.007
    1C        C  480   3.534   4.525   3.131
    1C        C  481   3.607   4.518   3.251
    1C        C  482   3.395   4.532   3.377
    1C        C  483   3.537   4.533   3.373
    1C        C  484   3.328   4.530   3.501
    1C        C  485   3.400   4.546   3.622
    1C        C  486   3.192   4.499   3.747
    1C        C  487   3.328   4.537   3.743
    1C        C  488   3.130   4.477   3.872
    1C        C  489   3.192   4.506   3.995
    1C        C  490   3.003   4.415   4.118
    1C        C  491   3.125   4.486   4.118
    1C        C  492   2.946   4.380   4.242
    1C        C  493   3.002   4.429   4.363
    1C        C  494   2.832   4.301   4.483
    1C        C  495   2.941   4.391   4.484
    1C        C  496   2.781   4.252   4.606
    1C        C  497   2.822   4.311   4.727
    1C        C  498   2.665   4.164   4.845
    1C        C  499   2.750   4.277   4.843
    1C        C  500   2.602   4.114   4.959
    1C        C  501   3.999   4.349   2.041
    1C        C  502   3.818   4.464   2.158
    1C        C  503   3.943   4.398   2.160
    1C        C  504   3.747   4.479   2.279
    1C        C  505   3.814   4.456   2.401
    1C        C  506   3.606   4.505   2.520
    1C        C  507   3.745   4.481   2.522
    1C        C  508   3.535   4.514   2.642
    1C        C  509   3.606   4.515   2.765
    1C        C  510   3.397   4.527   2.889
    1C        C  511   3.538   4.531   2.888
    1C        C  512   3.323   4.525   3.009
    1C        C  513   3.393   4.535   3.131
    1C        C  514   3.187   4.502   3.257
    1C        C  515   3.325   4.534   3.255
    1C        C  516   3.124   4.471   3.379
    1C        C  517   3.191   4.496   3.501
    1C        C  518   3.002   4.408   3.626
    1C        C  519   3.125   4.478   3.625
    1C        C  520   2.947   4.370   3.751
    1C        C  521   3.005   4.411   3.873
    1C        C  522   2.840   4.280   3.998
    1C        C  523   2.946   4.373   3.996
    1C        C  524   2.792   4.231   4.121
    1C        C  525   2.839   4.288   4.241
    1C        C  526   2.700   4.130   4.366
    1C        C  527   2.783   4.245   4.364
    1C        C  528   2.655   4.074   4.488
    1C        C  529   2.693   4.142   4.606
    1C        C  530   2.581   3.961   4.731
    1C        C  531   2.642   4.090   4.727
    1C        C  532   2.543   3.899   4.852
    1C        C  533   2.530   3.993   4.959
    1C        C  534   3.615   4.552   2.042
    1C        C  535   3.750   4.514   2.046
    1C        C  536   3.535   4.532   2.159
    1C        C  537   3.607   4.507   2.278
    1C        C  538   3.393   4.518   2.400
    1C        C  539   3.535   4.517   2.399
    1C        C  540   3.322   4.514   2.521
    1C        C  541   3.394   4.518   2.643
    1C        C  542   3.189   4.484   2.767
    1C        C  543   3.327   4.515   2.767
    1C        C  544   3.122   4.465   2.889
    1C        C  545   3.186   4.489   3.013
    1C        C  546   2.998   4.403   3.135
    1C        C  547   3.119   4.474   3.136
    1C        C  548   2.938   4.367   3.258
    1C        C  549   2.999   4.405   3.380
    1C        C  550   2.836   4.275   3.508
    1C        C  551   2.942   4.369   3.504
    1C        C  552   2.789   4.226   3.631
    1C        C  553   2.840   4.278   3.753
    1C        C  554   2.701   4.120   3.873
    1C        C  555   2.789   4.230   3.875
    1C        C  556   2.665   4.063   3.997
    1C        C  557   2.701   4.123   4.120
    1C        C  558   2.598   3.943   4.245
    1C        C  559   2.661   4.070   4.245
    1C        C  560   2.568   3.878   4.367
    1C        C  561   2.591   3.948   4.488
    1C        C  562   2.531   3.750   4.616
    1C        C  563   2.561   3.888   4.612
    1C        C  564   2.515   3.680   4.738
    1C        C  565   2.521   3.758   4.857
    1C        C  566   2.526   3.544   4.982
    1C        C  567   2.528   3.683   4.975
    1C        C  568   3.327   4.478   2.040
    1C        C  569   3.393   4.514   2.158
    1C        C  570   3.182   4.476   2.281
    1C        C  571   3.320   4.512   2.280
    1C        C  572   3.115   4.457   2.404
    1C        C  573   3.184   4.482   2.524
    1C        C  574   2.990   4.403   2.648
    1C        C  575   3.117   4.463   2.647
    1C        C  576   2.931   4.362   2.771
    1C        C  577   2.995   4.402   2.890
    1C        C  578   2.832   4.270   3.017
    1C        C  579   2.937   4.364   3.013
    1C        C  580   2.781   4.222   3.140
    1C        C  581   2.833   4.272   3.261
    1C        C  582   2.700   4.112   3.386
    1C        C  583   2.787   4.223   3.386
    1C        C  584   2.667   4.051   3.509
    1C        C  585   2.704   4.114   3.630
    1C        C  586   2.593   3.934   3.756
    1C        C  587   2.662   4.057   3.753
    1C        C  588   2.569   3.871   3.880
    1C        C  589   2.600   3.938   4.001
    1C        C  590   2.537   3.738   4.127
    1C        C  591   2.572   3.875   4.125
    1C        C  592   2.522   3.671   4.250
    1C        C  593   2.527   3.743   4.371
    1C        C  594   2.506   3.537   4.498
    1C        C  595   2.512   3.679   4.496
    1C        C  596   2.515   3.465   4.619
    1C        C  597   2.514   3.538   4.740
    1C        C  598   2.532   3.329   4.863
    1C        C  599   2.523   3.470   4.863
    1C        C  600   2.532   3.249   4.979
    1C        C  601   3.193   4.443   2.042
    1C        C  602   2.983   4.392   2.163
    1C        C  603   3.117   4.443   2.159
    1C        C  604   2.922   4.358   2.287
    1C        C  605   2.986   4.400   2.405
    1C        C  606   2.824   4.266   2.532
    1C        C  607   2.930   4.359   2.528
    1C        C  608   2.772   4.218   2.654
    1C        C  609   2.823   4.272   2.774
    1C        C  610   2.691   4.107   2.896
    1C        C  611   2.780   4.216   2.897
    1C        C  612   2.662   4.048   3.021
    1C        C  613   2.696   4.109   3.143
    1C        C  614   2.589   3.927   3.267
    1C        C  615   2.657   4.052   3.266
    1C        C  616   2.564   3.864   3.391
    1C        C  617   2.602   3.926   3.513
    1C        C  618   2.524   3.730   3.639
    1C        C  619   2.567   3.865   3.635
    1C        C  620   2.511   3.663   3.762
    1C        C  621   2.531   3.735   3.882
    1C        C  622   2.503   3.527   4.010
    1C        C  623   2.523   3.667   4.005
    1C        C  624   2.505   3.457   4.133
    1C        C  625   2.510   3.530   4.254
    1C        C  626   2.533   3.323   4.380
    1C        C  627   2.512   3.463   4.378
    1C        C  628   2.553   3.254   4.502
    1C        C  629   2.532   3.325   4.623
    1C        C  630   2.597   3.121   4.744
    1C        C  631   2.551   3.256   4.744
    1C        C  632   2.619   3.052   4.866
    1C        C  633   2.559   3.112   4.981
    1C        C  634   2.782   4.304   2.059
    1C        C  635   2.893   4.389   2.052
    1C        C  636   2.752   4.225   2.171
    1C        C  637   2.810   4.270   2.291
    1C        C  638   2.676   4.107   2.411
    1C        C  639   2.763   4.217   2.414
    1C        C  640   2.641   4.046   2.533
    1C        C  641   2.689   4.103   2.653
    1C        C  642   2.586   3.920   2.778
    1C        C  643   2.649   4.046   2.776
    1C        C  644   2.560   3.858   2.902
    1C        C  645   2.592   3.925   3.022
    1C        C  646   2.526   3.726   3.148
    1C        C  647   2.566   3.861   3.145
    1C        C  648   2.509   3.659   3.272
    1C        C  649   2.520   3.730   3.394
    1C        C  650   2.499   3.520   3.518
    1C        C  651   2.507   3.661   3.516
    1C        C  652   2.502   3.452   3.642
    1C        C  653   2.501   3.522   3.764
    1C        C  654   2.526   3.317   3.891
    1C        C  655   2.499   3.455   3.889
    1C        C  656   2.545   3.249   4.013
    1C        C  657   2.528   3.318   4.135
    1C        C  658   2.601   3.121   4.260
    1C        C  659   2.548   3.253   4.259
    1C        C  660   2.629   3.054   4.381
    1C        C  661   2.600   3.121   4.501
    1C        C  662   2.708   2.938   4.626
    1C        C  663   2.629   3.055   4.623
    1C        C  664   2.749   2.877   4.746
    1C        C  665   2.695   2.931   4.867
    1C        C  666   2.747   2.873   4.983
    1C        C  667   2.684   4.021   2.053
    1C        C  668   2.686   4.100   2.169
    1C        C  669   2.591   3.909   2.289
    1C        C  670   2.645   4.041   2.290
    1C        C  671   2.557   3.848   2.412
    1C        C  672   2.586   3.916   2.533
    1C        C  673   2.516   3.718   2.660
    1C        C  674   2.559   3.853   2.657
    1C        C  675   2.505   3.650   2.784
    1C        C  676   2.517   3.723   2.904
    1C        C  677   2.502   3.513   3.031
    1C        C  678   2.514   3.654   3.027
    1C        C  679   2.504   3.443   3.153
    1C        C  680   2.503   3.518   3.273
    1C        C  681   2.527   3.309   3.402
    1C        C  682   2.503   3.448   3.396
    1C        C  683   2.548   3.244   3.525
    1C        C  684   2.528   3.313   3.646
    1C        C  685   2.603   3.117   3.771
    1C        C  686   2.549   3.247   3.770
    1C        C  687   2.636   3.054   3.894
    1C        C  688   2.601   3.119   4.015
    1C        C  689   2.714   2.942   4.140
    1C        C  690   2.636   3.059   4.138
    1C        C  691   2.753   2.882   4.262
    1C        C  692   2.710   2.938   4.384
    1C        C  693   2.758   2.884   4.505
    1C        C  694   2.633   3.890   2.054
    1C        C  695   2.522   3.705   2.176
    1C        C  696   2.581   3.833   2.171
    1C        C  697   2.501   3.637   2.298
    1C        C  698   2.514   3.714   2.416
    1C        C  699   2.484   3.506   2.542
    1C        C  700   2.499   3.646   2.539
    1C        C  701   2.503   3.439   2.664
    1C        C  702   2.503   3.509   2.787
    1C        C  703   2.524   3.300   2.912
    1C        C  704   2.503   3.440   2.910
    1C        C  705   2.544   3.232   3.035
    1C        C  706   2.533   3.305   3.156
    1C        C  707   2.598   3.108   3.279
    1C        C  708   2.546   3.240   3.280
    1C        C  709   2.634   3.051   3.404
    1C        C  710   2.600   3.112   3.527
    1C        C  711   2.711   2.933   3.649
    1C        C  712   2.633   3.051   3.650
    1C        C  713   2.760   2.882   3.772
    1C        C  714   2.715   2.938   3.894
    1C        C  715   2.760   2.888   4.018
    1C        C  716   2.446   3.498   2.064
    1C        C  717   2.495   3.629   2.061
    1C        C  718   2.460   3.421   2.183
    1C        C  719   2.478   3.497   2.302
    1C        C  720   2.501   3.287   2.428
    1C        C  721   2.481   3.427   2.425
    1C        C  722   2.530   3.222   2.549
    1C        C  723   2.521   3.299   2.668
    1C        C  724   2.592   3.099   2.789
    1C        C  725   2.542   3.232   2.790
    1C        C  726   2.624   3.037   2.912
    1C        C  727   2.593   3.100   3.035
    1C        C  728   2.706   2.924   3.160
    1C        C  729   2.628   3.041   3.158
    1C        C  730   2.753   2.876   3.284
    1C        C  731   2.714   2.935   3.407
    1C        C  732   2.757   2.877   3.528
    1C        C  733   2.487   3.199   2.072
    1C        C  734   2.489   3.281   2.186
    1C        C  735   2.587   3.089   2.303
    1C        C  736   2.522   3.216   2.308
    1C        C  737   2.613   3.024   2.426
    1C        C  738   2.583   3.091   2.546
    1C        C  739   2.694   2.911   2.670
    1C        C  740   2.619   3.031   2.669
    1C        C  741   2.742   2.859   2.792
    1C        C  742   2.702   2.919   2.913
    1C        C  743   2.749   2.869   3.037
    1C        C  744   2.539   3.069   2.075
    1C        C  745   2.688   2.901   2.186
    1C        C  746   2.610   3.018   2.184
    1C        C  747   2.734   2.845   2.307
    1C        C  748   2.692   2.907   2.427
    1C        C  749   2.736   2.852   2.549
    1C        C  750   2.740   2.845   2.068
    1C        C  751   3.668   2.317   1.981
    1C        O  752   3.684   2.196   2.015
    1C        O  753   3.633   2.338   1.847
    1C        C  754   4.619   3.051   1.974
    1C        O  755   4.596   3.020   1.854
    1C        O  756   4.757   3.055   1.997
    1C        C  757   4.461   4.217   1.963
    1C        O  758   4.559   4.282   2.011
    1C        O  759   4.518   4.182   1.840
    1C        C  760   3.592   4.671   1.957
    1C        O  761   3.603   4.784   2.011
    1C        O  762   3.574   4.669   1.818
    1C        C  763   2.892   4.502   1.956
    1C        O  764   2.942   4.507   1.840
    1C        O  765   2.862   4.628   2.008
    1C        C  766   2.333   3.478   1.970
    1C        O  767   2.361   3.460   1.848
    1C        O  768   2.206   3.534   1.989
    1C        C  769   4.680   3.572   5.065
    1C        O  770   4.635   3.554   5.182
    1C        O  771   4.797   3.645   5.089
    1C        C  772   4.275   4.471   5.029
    1C        O  773   4.275   4.449   5.153
    1C        O  774   4.313   4.603   5.004
    1C        C  775   4.142   2.541   5.090
    1C        O  776   4.253   2.491   5.060
    1C        O  777   4.133   2.601   5.217
    1C        C  778   2.872   4.545   5.047
    1C        O  779   2.848   4.661   5.003
    1C        O  780   2.919   4.543   5.179
    1C        C  781   2.464   3.034   5.063
    1C        O  782   2.347   3.009   5.024
    1C        O  783   2.499   2.972   5.183
    1C        C  784   2.425   3.992   5.063
    1C        O  785   2.301   3.980   5.040
    1C        O  786   2.459   3.943   5.190
    1C        C  787   2.956   2.429   1.999
    1C        O  788   2.956   2.445   1.874
    1C        O  789   2.951   2.292   2.023
    1C        C  790   3.185   2.362   5.044
    1C        O  791   3.133   2.261   4.990
    1C        O  792   3.189   2.347   5.183
    1C        H  793   4.268   3.028   5.056
    1C        H  794   4.176   2.811   5.071
    1C        H  795   4.547   3.127   5.035
    1C        H  796   4.474   3.374   5.061
    1C        H  797   4.551   3.800   5.053
    1C        H  798   4.386   3.954   5.043
    1C        H  799   4.258   4.145   5.042
    1C        H  800   4.027   4.528   5.031
    1C        H  801   3.818   4.614   5.029
    1C        H  802   3.585   4.634   5.039
    1C        H  803   3.397   4.491   5.043
    1C        H  804   3.183   4.422   5.038
    1C        H  805   3.886   2.489   5.067
    1C        H  806   3.672   2.425   5.062
    1C        H  807   3.016   2.575   5.071
    1C        H  808   3.442   2.479   5.082
    1C        H  809   2.861   2.722   5.074
    1C        H  810   2.715   2.908   5.079
    1C        H  811   2.545   3.292   5.076
    1C        H  812   2.510   3.500   5.078
    1C        H  813   2.576   3.726   5.060
    1C        H  814   2.575   4.190   5.029
    1C        H  815   2.777   4.299   5.054
    1C        H  816   2.731   2.901   1.977
    1C        H  817   2.870   2.712   1.978
    1C        H  818   3.218   2.439   1.986
    1C        H  819   3.431   2.408   1.980
    1C        H  820   3.839   2.524   1.973
    1C        H  821   4.070   2.604   1.968
    1C        H  822   4.262   2.719   1.972
    1C        H  823   4.381   2.931   1.973
    1C        H  824   4.612   3.302   1.982
    1C        H  825   4.477   3.510   1.966
    1C        H  826   4.517   3.750   1.956
    1C        H  827   3.808   4.539   1.960
    1C        H  828   3.938   4.341   1.954
    1C        H  829   4.139   4.224   1.955
    1C        H  830   4.507   3.965   1.970
    1C        H  831   2.655   3.827   1.971
    1C        H  832   2.701   4.067   1.958
    1C        H  833   2.728   4.278   1.970
    1C        H  834   3.384   4.416   1.974
    1C        H  835   3.156   4.415   1.945
    1C        H  836   2.496   2.999   2.007
    1C        H  837   2.464   3.247   1.979
    1C        H  838   2.511   3.674   1.965
    2V3OU   H29  839   2.809   3.552   6.124
    2V3OU   C27  840   2.781   3.504   6.221
    2V3OU   H27  841   2.725   3.575   6.289
    2V3OU   H28  842   2.724   3.409   6.208
    2V3OU   O11  843   2.908   3.479   6.282
    2V3OU   C15  844   2.923   3.396   6.392
    2V3OU   C13  845   3.053   3.378   6.444
    2V3OU   C14  846   3.075   3.270   6.531
    2V3OU   C16  847   2.970   3.190   6.574
    2V3OU    H6  848   2.996   3.101   6.633
    2V3OU   C12  849   3.214   3.230   6.563
    2V3OU    O2  850   3.240   3.122   6.622
    2V3OU   C10  851   3.329   3.314   6.525
    2V3OU    C8  852   3.460   3.274   6.544
    2V3OU   O10  853   3.491   3.150   6.590
    2V3OU   H26  854   3.401   3.113   6.600
    2V3OU    C6  855   3.568   3.353   6.491
    2V3OU    C5  856   3.537   3.465   6.415
    2V3OU    C4  857   3.706   3.297   6.497
    2V3OU    H4  858   3.723   3.228   6.585
    2V3OU    H5  859   3.716   3.230   6.406
    2V3OU    C2  860   3.817   3.402   6.498
    2V3OU    O6  861   3.806   3.478   6.619
    2V3OU   H21  862   3.760   3.558   6.589
    2V3OU    C3  863   3.783   3.497   6.383
    2V3OU    H2  864   3.859   3.579   6.386
    2V3OU    H3  865   3.786   3.440   6.286
    2V3OU   C25  866   3.950   3.330   6.480
    2V3OU    O7  867   3.993   3.292   6.371
    2V3OU   C26  868   4.034   3.292   6.600
    2V3OU   H22  869   4.065   3.386   6.653
    2V3OU   H23  870   4.124   3.234   6.567
    2V3OU    O8  871   3.964   3.216   6.696
    2V3OU   H24  872   3.928   3.274   6.765
    2V3OU    C1  873   3.647   3.564   6.393
    2V3OU    H1  874   3.626   3.617   6.296
    2V3OU    O3  875   3.663   3.657   6.501
    2V3OU   C19  876   3.621   3.793   6.482
    2V3OU    H9  877   3.522   3.796   6.427
    2V3OU    O4  878   3.720   3.850   6.399
    2V3OU   C20  879   3.851   3.875   6.449
    2V3OU   H10  880   3.896   3.776   6.480
    2V3OU   C24  881   3.609   3.858   6.620
    2V3OU   H16  882   3.540   3.799   6.685
    2V3OU   H17  883   3.566   3.961   6.610
    2V3OU   C23  884   3.749   3.873   6.679
    2V3OU   H15  885   3.792   3.770   6.700
    2V3OU    N1  886   3.736   3.950   6.801
    2V3OU   H19  887   3.807   3.919   6.865
    2V3OU   H20  888   3.652   3.928   6.851
    2V3OU   C21  889   3.847   3.949   6.583
    2V3OU   H11  890   3.948   3.931   6.631
    2V3OU    O5  891   3.825   4.089   6.590
    2V3OU   H18  892   3.781   4.105   6.675
    2V3OU   C22  893   3.911   3.946   6.329
    2V3OU   H12  894   3.868   4.049   6.315
    2V3OU   H13  895   3.903   3.885   6.235
    2V3OU   H14  896   4.022   3.952   6.340
    2V3OU   C11  897   3.162   3.474   6.425
    2V3OU    O1  898   3.129   3.590   6.391
    2V3OU    C9  899   3.301   3.428   6.444
    2V3OU    C7  900   3.402   3.503   6.386
    2V3OU    O9  901   3.385   3.619   6.312
    2V3OU   H25  902   3.289   3.627   6.303
    2V3OU   C17  903   2.820   3.310   6.434
    2V3OU    H7  904   2.717   3.337   6.412
    2V3OU   C18  905   2.841   3.208   6.526
    2V3OU    H8  906   2.760   3.143   6.563
    3SOL     OW  907   2.965   3.357   4.388
    3SOL    HW1  908   2.944   3.454   4.383
    3SOL    HW2  909   2.957   3.326   4.483
    4SOL     OW  910   0.909   6.586   0.826
    4SOL    HW1  911   0.929   6.512   0.890
    4SOL    HW2  912   0.953   6.670   0.857
    5SOL     OW  913   3.824   2.401   0.623
    5SOL    HW1  914   3.832   2.497   0.650
    5SOL    HW2  915   3.735   2.386   0.580
    6SOL     OW  916   3.884   1.786   2.504
    6SOL    HW1  917   3.908   1.881   2.483
    6SOL    HW2  918   3.853   1.740   2.421
    7SOL     OW  919   2.361   2.692   4.768
    7SOL    HW1  920   2.434   2.625   4.753
    7SOL    HW2  921   2.311   2.707   4.683
    8SOL     OW  922   0.804   2.132   5.792
    8SOL    HW1  923   0.821   2.095   5.701
    8SOL    HW2  924   0.793   2.057   5.857
    9SOL     OW  925   1.680   2.513   6.211
    9SOL    HW1  926   1.589   2.502   6.250
    9SOL    HW2  927   1.708   2.427   6.167
   10SOL     OW  928   5.962   5.164   1.286
   10SOL    HW1  929   6.009   5.134   1.368
   10SOL    HW2  930   5.876   5.208   1.310
   11SOL     OW  931   3.277   1.500   0.550
   11SOL    HW1  932   3.188   1.514   0.594
   11SOL    HW2  933   3.342   1.568   0.583
   12SOL     OW  934   5.386   5.169   1.664
   12SOL    HW1  935   5.308   5.152   1.603
   12SOL    HW2  936   5.367   5.249   1.721
   13SOL     OW  937   5.391   5.740   1.735
   13SOL    HW1  938   5.329   5.767   1.808
   13SOL    HW2  939   5.469   5.691   1.774
   14SOL     OW  940   3.892   6.055   1.224
   14SOL    HW1  941   3.978   6.029   1.181
   14SOL    HW2  942   3.900   6.148   1.260
   15SOL     OW  943   0.901   6.661   6.940
   15SOL    HW1  944   0.945   6.625   6.857
   15SOL    HW2  945   0.937   6.613   7.020
   16SOL     OW  946   1.886   5.637   5.114
   16SOL    HW1  947   1.846   5.727   5.097
   16SOL    HW2  948   1.962   5.646   5.178
   17SOL     OW  949   0.291   2.091   3.679
   17SOL    HW1  950   0.389   2.071   3.681
   17SOL    HW2  951   0.257   2.102   3.772
   18SOL     OW  952   2.779   1.570   5.594
   18SOL    HW1  953   2.794   1.637   5.521
   18SOL    HW2  954   2.831   1.487   5.574
   19SOL     OW  955   2.627   5.378   2.831
   19SOL    HW1  956   2.713   5.371   2.780
   19SOL    HW2  957   2.550   5.372   2.767
   20SOL     OW  958   0.011   1.577   5.612
   20SOL    HW1  959   0.024   1.481   5.635
   20SOL    HW2  960   6.940   1.603   5.629
   21SOL     OW  961   1.240   3.739   1.565
   21SOL    HW1  962   1.153   3.749   1.613
   21SOL    HW2  963   1.267   3.827   1.527
   22SOL     OW  964   0.799   1.142   0.216
   22SOL    HW1  965   0.795   1.102   0.308
   22SOL    HW2  966   0.706   1.163   0.186
   23SOL     OW  967   6.923   5.171   6.814
   23SOL    HW1  968   6.877   5.196   6.729
   23SOL    HW2  969   6.908   5.074   6.834
   24SOL     OW  970   5.213   1.050   0.035
   24SOL    HW1  971   5.191   1.031   0.130
   24SOL    HW2  972   5.290   1.114   0.030
   25SOL     OW  973   1.357   0.770   4.809
   25SOL    HW1  974   1.421   0.745   4.736
   25SOL    HW2  975   1.361   0.869   4.824
   26SOL     OW  976   2.162   6.970   5.724
   26SOL    HW1  977   2.168   0.005   5.805
   26SOL    HW2  978   2.101   7.011   5.657
   27SOL     OW  979   0.057   6.946   2.557
   27SOL    HW1  980   0.011   6.931   2.470
   27SOL    HW2  981   0.028   0.010   2.595
   28SOL     OW  982   1.855   0.825   5.749
   28SOL    HW1  983   1.882   0.872   5.665
   28SOL    HW2  984   1.755   0.825   5.756
   29SOL     OW  985   5.596   1.021   1.132
   29SOL    HW1  986   5.643   1.090   1.077
   29SOL    HW2  987   5.551   1.065   1.209
   30SOL     OW  988   4.298   0.235   4.724
   30SOL    HW1  989   4.313   0.300   4.798
   30SOL    HW2  990   4.359   0.156   4.738
   31SOL     OW  991   6.381   4.907   4.927
   31SOL    HW1  992   6.420   4.852   4.854
   31SOL    HW2  993   6.291   4.871   4.951
   32SOL     OW  994   3.299   0.987   1.128
   32SOL    HW1  995   3.292   1.086   1.115
   32SOL    HW2  996   3.280   0.965   1.224
   33SOL     OW  997   2.062   4.901   6.081
   33SOL    HW1  998   2.002   4.969   6.123
   33SOL    HW2  999   2.069   4.919   5.983
   34SOL     OW 1000   2.434   6.657   5.073
   34SOL    HW1 1001   2.338   6.638   5.095
   34SOL    HW2 1002   2.475   6.712   5.147
   35SOL     OW 1003   1.402   2.429   4.457
   35SOL    HW1 1004   1.490   2.427   4.506
   35SOL    HW2 1005   1.406   2.498   4.385
   36SOL     OW 1006   5.488   1.278   4.318
   36SOL    HW1 1007   5.394   1.294   4.347
   36SOL    HW2 1008   5.491   1.267   4.219
   37SOL     OW 1009   1.823   6.628   4.565
   37SOL    HW1 1010   1.870   6.576   4.493
   37SOL    HW2 1011   1.830   6.726   4.545
   38SOL     OW 1012   0.834   3.426   1.011
   38SOL    HW1 1013   0.863   3.335   0.981
   38SOL    HW2 1014   0.741   3.421   1.049
   39SOL     OW 1015   6.480   5.335   1.229
   39SOL    HW1 1016   6.419   5.334   1.308
   39SOL    HW2 1017   6.450   5.265   1.164
   40SOL     OW 1018   4.122   0.744   7.011
   40SOL    HW1 1019   4.194   0.768   0.052
   40SOL    HW2 1020   4.115   0.815   6.941
   41SOL     OW 1021   5.751   4.232   1.771
   41SOL    HW1 1022   5.814   4.309   1.759
   41SOL    HW2 1023   5.732   4.191   1.682
   42SOL     OW 1024   2.639   3.730   0.276
   42SOL    HW1 1025   2.542   3.720   0.252
   42SOL    HW2 1026   2.655   3.823   0.311
   43SOL     OW 1027   4.655   0.043   4.045
   43SOL    HW1 1028   4.616   0.090   3.966
   43SOL    HW2 1029   4.629   6.971   4.044
   44SOL     OW 1030   6.711   0.551   0.026
   44SOL    HW1 1031   6.725   0.618   0.099
   44SOL    HW2 1032   6.799   0.529   7.007
   45SOL     OW 1033   2.651   3.985   5.896
   45SOL    HW1 1034   2.746   4.015   5.883
   45SOL    HW2 1035   2.650   3.893   5.934
   46SOL     OW 1036   1.424   4.529   4.402
   46SOL    HW1 1037   1.428   4.629   4.403
   46SOL    HW2 1038   1.384   4.498   4.316
   47SOL     OW 1039   6.356   4.257   6.954
   47SOL    HW1 1040   6.317   4.251   0.021
   47SOL    HW2 1041   6.299   4.208   6.889
   48SOL     OW 1042   0.418   4.484   6.932
   48SOL    HW1 1043   0.446   4.396   6.892
   48SOL    HW2 1044   0.446   4.487   0.003
   49SOL     OW 1045   2.783   1.385   6.801
   49SOL    HW1 1046   2.851   1.452   6.831
   49SOL    HW2 1047   2.694   1.408   6.840
   50SOL     OW 1048   5.107   2.289   6.390
   50SOL    HW1 1049   5.067   2.374   6.426
   50SOL    HW2 1050   5.180   2.258   6.450
   51SOL     OW 1051   1.389   6.330   1.851
   51SOL    HW1 1052   1.460   6.394   1.822
   51SOL    HW2 1053   1.377   6.337   1.950
   52SOL     OW 1054   5.976   2.490   2.685
   52SOL    HW1 1055   5.908   2.489   2.759
   52SOL    HW2 1056   5.929   2.499   2.597
   53SOL     OW 1057   4.294   0.453   0.575
   53SOL    HW1 1058   4.202   0.492   0.574
   53SOL    HW2 1059   4.323   0.437   0.669
   54SOL     OW 1060   0.072   1.104   6.401
   54SOL    HW1 1061   0.023   1.177   6.449
   54SOL    HW2 1062   0.170   1.123   6.404
   55SOL     OW 1063   2.202   3.550   6.196
   55SOL    HW1 1064   2.223   3.453   6.185
   55SOL    HW2 1065   2.172   3.567   6.290
   56SOL     OW 1066   0.604   2.526   6.013
   56SOL    HW1 1067   0.627   2.623   6.004
   56SOL    HW2 1068   0.517   2.517   6.061
   57SOL     OW 1069   4.108   5.326   1.355
   57SOL    HW1 1070   4.190   5.276   1.383
   57SOL    HW2 1071   4.044   5.330   1.432
   58SOL     OW 1072   0.617   1.038   6.876
   58SOL    HW1 1073   0.627   1.080   6.967
   58SOL    HW2 1074   0.655   0.946   6.878
   59SOL     OW 1075   3.686   3.048   0.134
   59SOL    HW1 1076   3.737   3.064   0.219
   59SOL    HW2 1077   3.740   3.081   0.057
   60SOL     OW 1078   6.689   2.551   2.686
   60SOL    HW1 1079   6.630   2.473   2.706
   60SOL    HW2 1080   6.632   2.630   2.662
   61SOL     OW 1081   1.467   5.529   2.564
   61SOL    HW1 1082   1.381   5.572   2.537
   61SOL    HW2 1083   1.538   5.551   2.497
   62SOL     OW 1084   5.227   2.956   3.351
   62SOL    HW1 1085   5.193   2.931   3.442
   62SOL    HW2 1086   5.324   2.979   3.356
   63SOL     OW 1087   4.128   6.858   6.633
   63SOL    HW1 1088   4.118   6.883   6.729
   63SOL    HW2 1089   4.058   6.791   6.608
   64SOL     OW 1090   1.820   2.433   6.805
   64SOL    HW1 1091   1.744   2.437   6.741
   64SOL    HW2 1092   1.903   2.406   6.757
   65SOL     OW 1093   0.685   5.286   5.377
   65SOL    HW1 1094   0.699   5.245   5.286
   65SOL    HW2 1095   0.619   5.361   5.370
   66SOL     OW 1096   4.581   1.072   1.121
   66SOL    HW1 1097   4.679   1.063   1.109
   66SOL    HW2 1098   4.540   0.981   1.131
   67SOL     OW 1099   0.046   3.499   1.382
   67SOL    HW1 1100   0.106   3.419   1.383
   67SOL    HW2 1101   0.096   3.579   1.414
   68SOL     OW 1102   0.803   1.386   6.348
   68SOL    HW1 1103   0.824   1.289   6.334
   68SOL    HW2 1104   0.749   1.420   6.271
   69SOL     OW 1105   1.803   0.258   6.167
   69SOL    HW1 1106   1.729   0.246   6.233
   69SOL    HW2 1107   1.840   0.351   6.174
   70SOL     OW 1108   4.451   5.031   3.403
   70SOL    HW1 1109   4.476   5.060   3.310
   70SOL    HW2 1110   4.479   4.937   3.417
   71SOL     OW 1111   5.395   1.276   4.995
   71SOL    HW1 1112   5.471   1.298   5.057
   71SOL    HW2 1113   5.388   1.346   4.924
   72SOL     OW 1114   6.582   0.910   2.592
   72SOL    HW1 1115   6.629   0.971   2.654
   72SOL    HW2 1116   6.483   0.913   2.610
   73SOL     OW 1117   3.023   0.931   1.061
   73SOL    HW1 1118   3.111   0.977   1.068
   73SOL    HW2 1119   3.029   0.840   1.101
   74SOL     OW 1120   2.568   0.880   0.313
   74SOL    HW1 1121   2.478   0.871   0.270
   74SOL    HW2 1122   2.605   0.971   0.295
   75SOL     OW 1123   2.768   2.795   1.735
   75SOL    HW1 1124   2.738   2.700   1.740
   75SOL    HW2 1125   2.727   2.840   1.655
   76SOL     OW 1126   3.543   5.290   6.472
   76SOL    HW1 1127   3.514   5.370   6.524
   76SOL    HW2 1128   3.614   5.316   6.406
   77SOL     OW 1129   6.637   5.049   4.447
   77SOL    HW1 1130   6.736   5.040   4.460
   77SOL    HW2 1131   6.600   4.963   4.413
   78SOL     OW 1132   5.382   1.475   1.514
   78SOL    HW1 1133   5.339   1.385   1.508
   78SOL    HW2 1134   5.333   1.539   1.455
   79SOL     OW 1135   1.616   4.017   4.506
   79SOL    HW1 1136   1.580   4.087   4.568
   79SOL    HW2 1137   1.541   3.980   4.452
   80SOL     OW 1138   4.065   2.349   5.387
   80SOL    HW1 1139   4.072   2.255   5.353
   80SOL    HW2 1140   3.970   2.379   5.382
   81SOL     OW 1141   2.615   4.906   3.407
   81SOL    HW1 1142   2.638   4.848   3.485
   81SOL    HW2 1143   2.522   4.886   3.376
   82SOL     OW 1144   3.162   0.460   1.877
   82SOL    HW1 1145   3.232   0.423   1.938
   82SOL    HW2 1146   3.178   0.428   1.784
   83SOL     OW 1147   5.851   2.047   3.807
   83SOL    HW1 1148   5.757   2.045   3.842
   83SOL    HW2 1149   5.897   2.130   3.839
   84SOL     OW 1150   5.075   2.280   2.917
   84SOL    HW1 1151   5.138   2.227   2.975
   84SOL    HW2 1152   5.124   2.313   2.837
   85SOL     OW 1153   2.208   5.473   3.696
   85SOL    HW1 1154   2.151   5.439   3.771
   85SOL    HW2 1155   2.303   5.480   3.727
   86SOL     OW 1156   5.104   0.778   0.557
   86SOL    HW1 1157   5.090   0.865   0.604
   86SOL    HW2 1158   5.086   0.789   0.459
   87SOL     OW 1159   2.852   2.911   0.369
   87SOL    HW1 1160   2.890   2.821   0.350
   87SOL    HW2 1161   2.752   2.905   0.377
   88SOL     OW 1162   1.701   1.822   1.210
   88SOL    HW1 1163   1.605   1.849   1.194
   88SOL    HW2 1164   1.710   1.788   1.303
   89SOL     OW 1165   4.028   3.854   4.777
   89SOL    HW1 1166   4.087   3.919   4.825
   89SOL    HW2 1167   3.933   3.867   4.807
   90SOL     OW 1168   0.050   3.429   2.501
   90SOL    HW1 1169   0.041   3.357   2.570
   90SOL    HW2 1170   0.060   3.518   2.546
   91SOL     OW 1171   4.578   5.426   0.440
   91SOL    HW1 1172   4.666   5.385   0.415
   91SOL    HW2 1173   4.589   5.487   0.518
   92SOL     OW 1174   5.931   5.822   6.760
   92SOL    HW1 1175   5.884   5.785   6.679
   92SOL    HW2 1176   6.004   5.760   6.787
   93SOL     OW 1177   2.988   3.544   1.722
   93SOL    HW1 1178   2.971   3.642   1.724
   93SOL    HW2 1179   3.001   3.515   1.627
   94SOL     OW 1180   3.134   1.498   4.296
   94SOL    HW1 1181   3.062   1.429   4.291
   94SOL    HW2 1182   3.094   1.588   4.312
   95SOL     OW 1183   1.103   6.239   4.545
   95SOL    HW1 1184   1.149   6.265   4.461
   95SOL    HW2 1185   1.033   6.170   4.525
   96SOL     OW 1186   6.929   6.528   6.842
   96SOL    HW1 1187   6.915   6.430   6.824
   96SOL    HW2 1188   6.988   6.567   6.771
   97SOL     OW 1189   3.878   4.962   4.870
   97SOL    HW1 1190   3.929   5.039   4.831
   97SOL    HW2 1191   3.904   4.877   4.824
   98SOL     OW 1192   0.523   2.658   4.833
   98SOL    HW1 1193   0.444   2.663   4.894
   98SOL    HW2 1194   0.494   2.622   4.744
   99SOL     OW 1195   4.648   4.559   4.708
   99SOL    HW1 1196   4.616   4.548   4.614
   99SOL    HW2 1197   4.747   4.553   4.711
  100SOL     OW 1198   1.582   1.517   5.224
  100SOL    HW1 1199   1.575   1.443   5.157
  100SOL    HW2 1200   1.632   1.594   5.183
  101SOL     OW 1201   5.541   2.686   2.251
  101SOL    HW1 1202   5.528   2.781   2.278
  101SOL    HW2 1203   5.452   2.645   2.229
  102SOL     OW 1204   3.924   6.562   0.313
  102SOL    HW1 1205   3.918   6.524   0.405
  102SOL    HW2 1206   3.967   6.652   0.317
  103SOL     OW 1207   1.944   2.277   1.666
  103SOL    HW1 1208   1.963   2.213   1.740
  103SOL    HW2 1209   2.025   2.285   1.607
  104SOL     OW 1210   0.580   4.489   1.307
  104SOL    HW1 1211   0.511   4.521   1.242
  104SOL    HW2 1212   0.643   4.563   1.328
  105SOL     OW 1213   6.349   1.504   4.969
  105SOL    HW1 1214   6.266   1.558   4.952
  105SOL    HW2 1215   6.325   1.418   5.013
  106SOL     OW 1216   4.828   3.099   1.585
  106SOL    HW1 1217   4.821   3.013   1.636
  106SOL    HW2 1218   4.749   3.109   1.525
  107SOL     OW 1219   4.374   6.484   2.404
  107SOL    HW1 1220   4.326   6.479   2.491
  107SOL    HW2 1221   4.467   6.450   2.414
  108SOL     OW 1222   3.519   1.196   4.625
  108SOL    HW1 1223   3.546   1.232   4.714
  108SOL    HW2 1224   3.423   1.171   4.626
  109SOL     OW 1225   2.006   1.887   5.239
  109SOL    HW1 1226   1.934   1.956   5.248
  109SOL    HW2 1227   1.986   1.809   5.299
  110SOL     OW 1228   4.338   4.708   5.465
  110SOL    HW1 1229   4.285   4.783   5.504
  110SOL    HW2 1230   4.425   4.700   5.515
  111SOL     OW 1231   6.533   3.061   1.231
  111SOL    HW1 1232   6.543   3.100   1.140
  111SOL    HW2 1233   6.549   3.132   1.300
  112SOL     OW 1234   4.167   6.307   5.058
  112SOL    HW1 1235   4.178   6.392   5.007
  112SOL    HW2 1236   4.256   6.274   5.088
  113SOL     OW 1237   0.685   5.361   1.850
  113SOL    HW1 1238   0.685   5.405   1.940
  113SOL    HW2 1239   0.741   5.278   1.853
  114SOL     OW 1240   0.008   1.792   1.548
  114SOL    HW1 1241   6.966   1.755   1.484
  114SOL    HW2 1242   6.985   1.823   1.630
  115SOL     OW 1243   4.468   1.298   3.150
  115SOL    HW1 1244   4.494   1.203   3.164
  115SOL    HW2 1245   4.370   1.309   3.168
  116SOL     OW 1246   5.987   5.607   0.379
  116SOL    HW1 1247   5.990   5.689   0.322
  116SOL    HW2 1248   5.901   5.605   0.429
  117SOL     OW 1249   2.570   1.437   0.702
  117SOL    HW1 1250   2.499   1.410   0.637
  117SOL    HW2 1251   2.650   1.471   0.653
  118SOL     OW 1252   0.486   2.162   2.096
  118SOL    HW1 1253   0.441   2.166   2.185
  118SOL    HW2 1254   0.547   2.240   2.085
  119SOL     OW 1255   5.351   5.628   4.806
  119SOL    HW1 1256   5.387   5.539   4.777
  119SOL    HW2 1257   5.420   5.675   4.861
  120SOL     OW 1258   4.520   2.017   4.783
  120SOL    HW1 1259   4.524   1.920   4.756
  120SOL    HW2 1260   4.585   2.070   4.729
  121SOL     OW 1261   0.060   5.416   6.073
  121SOL    HW1 1262   0.065   5.437   6.171
  121SOL    HW2 1263   0.099   5.325   6.057
  122SOL     OW 1264   0.499   4.685   5.643
  122SOL    HW1 1265   0.424   4.741   5.679
  122SOL    HW2 1266   0.514   4.708   5.547
  123SOL     OW 1267   0.897   2.629   1.072
  123SOL    HW1 1268   0.821   2.571   1.041
  123SOL    HW2 1269   0.866   2.687   1.147
  124SOL     OW 1270   2.171   3.845   6.608
  124SOL    HW1 1271   2.157   3.799   6.695
  124SOL    HW2 1272   2.100   3.817   6.543
  125SOL     OW 1273   4.090   2.578   0.589
  125SOL    HW1 1274   4.007   2.536   0.554
  125SOL    HW2 1275   4.102   2.552   0.685
  126SOL     OW 1276   3.725   3.264   4.760
  126SOL    HW1 1277   3.694   3.180   4.804
  126SOL    HW2 1278   3.825   3.267   4.760
  127SOL     OW 1279   0.095   4.798   5.730
  127SOL    HW1 1280   0.058   4.784   5.638
  127SOL    HW2 1281   0.194   4.812   5.725
  128SOL     OW 1282   4.978   4.369   5.828
  128SOL    HW1 1283   5.040   4.329   5.895
  128SOL    HW2 1284   5.021   4.447   5.784
  129SOL     OW 1285   0.382   5.145   1.421
  129SOL    HW1 1286   0.441   5.064   1.417
  129SOL    HW2 1287   0.424   5.213   1.482
  130SOL     OW 1288   6.424   3.704   4.979
  130SOL    HW1 1289   6.389   3.611   4.971
  130SOL    HW2 1290   6.378   3.763   4.913
  131SOL     OW 1291   0.870   3.451   2.519
  131SOL    HW1 1292   0.922   3.491   2.594
  131SOL    HW2 1293   0.927   3.385   2.469
  132SOL     OW 1294   3.786   2.905   1.590
  132SOL    HW1 1295   3.839   2.908   1.674
  132SOL    HW2 1296   3.690   2.927   1.610
  133SOL     OW 1297   4.137   4.340   5.645
  133SOL    HW1 1298   4.162   4.431   5.678
  133SOL    HW2 1299   4.093   4.289   5.719
  134SOL     OW 1300   6.885   1.604   6.877
  134SOL    HW1 1301   6.865   1.576   6.783
  134SOL    HW2 1302   6.801   1.635   6.920
  135SOL     OW 1303   4.401   4.656   3.650
  135SOL    HW1 1304   4.323   4.696   3.698
  135SOL    HW2 1305   4.469   4.626   3.717
  136SOL     OW 1306   4.016   6.693   6.048
  136SOL    HW1 1307   3.994   6.724   6.140
  136SOL    HW2 1308   3.932   6.686   5.994
  137SOL     OW 1309   2.088   4.042   0.418
  137SOL    HW1 1310   2.170   4.091   0.390
  137SOL    HW2 1311   2.110   3.946   0.434
  138SOL     OW 1312   0.759   5.427   1.001
  138SOL    HW1 1313   0.742   5.505   0.941
  138SOL    HW2 1314   0.802   5.354   0.949
  139SOL     OW 1315   1.138   0.899   1.223
  139SOL    HW1 1316   1.131   0.884   1.322
  139SOL    HW2 1317   1.131   0.996   1.203
  140SOL     OW 1318   3.305   6.788   2.132
  140SOL    HW1 1319   3.381   6.773   2.195
  140SOL    HW2 1320   3.252   6.704   2.123
  141SOL     OW 1321   1.180   2.271   0.161
  141SOL    HW1 1322   1.188   2.359   0.114
  141SOL    HW2 1323   1.259   2.258   0.221
  142SOL     OW 1324   1.689   3.678   7.003
  142SOL    HW1 1325   1.628   3.667   0.057
  142SOL    HW2 1326   1.697   3.591   6.955
  143SOL     OW 1327   5.613   5.636   1.881
  143SOL    HW1 1328   5.697   5.591   1.851
  143SOL    HW2 1329   5.611   5.639   1.981
  144SOL     OW 1330   2.353   5.366   3.112
  144SOL    HW1 1331   2.355   5.442   3.176
  144SOL    HW2 1332   2.258   5.339   3.096
  145SOL     OW 1333   7.015   5.728   3.474
  145SOL    HW1 1334   0.072   5.758   3.423
  145SOL    HW2 1335   6.995   5.633   3.450
  146SOL     OW 1336   0.364   0.376   5.348
  146SOL    HW1 1337   0.310   0.431   5.412
  146SOL    HW2 1338   0.415   0.306   5.399
  147SOL     OW 1339   5.989   0.284   4.899
  147SOL    HW1 1340   5.934   0.340   4.836
  147SOL    HW2 1341   5.956   0.297   4.992
  148SOL     OW 1342   1.456   6.673   2.520
  148SOL    HW1 1343   1.380   6.691   2.458
  148SOL    HW2 1344   1.519   6.750   2.519
  149SOL     OW 1345   1.795   2.437   4.788
  149SOL    HW1 1346   1.846   2.368   4.838
  149SOL    HW2 1347   1.757   2.504   4.853
  150SOL     OW 1348   5.633   3.120   5.645
  150SOL    HW1 1349   5.572   3.164   5.579
  150SOL    HW2 1350   5.579   3.066   5.710
  151SOL     OW 1351   6.266   2.651   1.966
  151SOL    HW1 1352   6.310   2.717   2.027
  151SOL    HW2 1353   6.321   2.641   1.883
  152SOL     OW 1354   6.890   2.785   0.540
  152SOL    HW1 1355   6.856   2.734   0.460
  152SOL    HW2 1356   6.946   2.862   0.509
  153SOL     OW 1357   1.814   1.644   3.939
  153SOL    HW1 1358   1.827   1.721   4.001
  153SOL    HW2 1359   1.717   1.636   3.916
  154SOL     OW 1360   0.031   1.088   4.134
  154SOL    HW1 1361   0.064   1.104   4.041
  154SOL    HW2 1362   0.003   0.992   4.143
  155SOL     OW 1363   5.788   4.708   3.177
  155SOL    HW1 1364   5.783   4.613   3.207
  155SOL    HW2 1365   5.708   4.730   3.121
  156SOL     OW 1366   4.281   6.904   1.317
  156SOL    HW1 1367   4.210   6.925   1.384
  156SOL    HW2 1368   4.241   6.898   1.226
  157SOL     OW 1369   5.262   0.056   0.822
  157SOL    HW1 1370   5.222   6.989   0.813
  157SOL    HW2 1371   5.361   0.048   0.833
  158SOL     OW 1372   0.742   2.937   4.835
  158SOL    HW1 1373   0.841   2.922   4.839
  158SOL    HW2 1374   0.697   2.855   4.800
  159SOL     OW 1375   6.464   5.139   6.434
  159SOL    HW1 1376   6.382   5.084   6.416
  159SOL    HW2 1377   6.538   5.080   6.465
  160SOL     OW 1378   4.004   0.377   1.231
  160SOL    HW1 1379   3.923   0.436   1.238
  160SOL    HW2 1380   3.990   0.296   1.288
  161SOL     OW 1381   6.565   6.983   0.704
  161SOL    HW1 1382   6.622   6.906   0.674
  161SOL    HW2 1383   6.570   0.032   0.636
  162SOL     OW 1384   4.261   6.765   5.424
  162SOL    HW1 1385   4.312   6.686   5.458
  162SOL    HW2 1386   4.242   6.753   5.326
  163SOL     OW 1387   1.106   4.212   2.406
  163SOL    HW1 1388   1.141   4.146   2.339
  163SOL    HW2 1389   1.036   4.168   2.463
  164SOL     OW 1390   2.098   2.231   2.978
  164SOL    HW1 1391   2.159   2.218   2.900
  164SOL    HW2 1392   2.099   2.150   3.036
  165SOL     OW 1393   0.242   6.162   4.535
  165SOL    HW1 1394   0.175   6.207   4.593
  165SOL    HW2 1395   0.309   6.115   4.592
  166SOL     OW 1396   0.780   5.035   4.106
  166SOL    HW1 1397   0.861   5.085   4.136
  166SOL    HW2 1398   0.807   4.956   4.051
  167SOL     OW 1399   0.276   1.334   3.009
  167SOL    HW1 1400   0.272   1.301   2.915
  167SOL    HW2 1401   0.348   1.286   3.058
  168SOL     OW 1402   3.299   3.834   3.416
  168SOL    HW1 1403   3.227   3.898   3.443
  168SOL    HW2 1404   3.353   3.874   3.342
  169SOL     OW 1405   5.010   2.516   6.158
  169SOL    HW1 1406   5.003   2.423   6.122
  169SOL    HW2 1407   5.041   2.512   6.253
  170SOL     OW 1408   0.029   5.015   1.991
  170SOL    HW1 1409   0.033   5.017   1.891
  170SOL    HW2 1410   6.978   4.956   2.020
  171SOL     OW 1411   3.170   2.489   0.943
  171SOL    HW1 1412   3.204   2.472   1.036
  171SOL    HW2 1413   3.072   2.472   0.940
  172SOL     OW 1414   1.723   1.037   0.343
  172SOL    HW1 1415   1.738   0.941   0.319
  172SOL    HW2 1416   1.670   1.043   0.428
  173SOL     OW 1417   5.943   0.632   5.106
  173SOL    HW1 1418   5.856   0.677   5.089
  173SOL    HW2 1419   5.988   0.676   5.184
  174SOL     OW 1420   6.537   4.095   5.154
  174SOL    HW1 1421   6.502   4.110   5.062
  174SOL    HW2 1422   6.594   4.172   5.181
  175SOL     OW 1423   1.043   5.739   2.873
  175SOL    HW1 1424   0.948   5.760   2.896
  175SOL    HW2 1425   1.059   5.763   2.777
  176SOL     OW 1426   6.123   4.243   1.014
  176SOL    HW1 1427   6.098   4.265   0.920
  176SOL    HW2 1428   6.221   4.258   1.027
  177SOL     OW 1429   6.267   2.889   4.071
  177SOL    HW1 1430   6.328   2.956   4.028
  177SOL    HW2 1431   6.183   2.934   4.100
  178SOL     OW 1432   1.375   5.967   5.001
  178SOL    HW1 1433   1.461   5.969   4.950
  178SOL    HW2 1434   1.352   6.059   5.032
  179SOL     OW 1435   3.487   4.190   1.782
  179SOL    HW1 1436   3.416   4.228   1.723
  179SOL    HW2 1437   3.444   4.153   1.865
  180SOL     OW 1438   4.586   1.038   6.189
  180SOL    HW1 1439   4.539   1.032   6.277
  180SOL    HW2 1440   4.583   1.132   6.154
  181SOL     OW 1441   3.742   0.372   5.227
  181SOL    HW1 1442   3.693   0.362   5.141
  181SOL    HW2 1443   3.682   0.346   5.303
  182SOL     OW 1444   3.066   2.834   5.603
  182SOL    HW1 1445   3.068   2.927   5.568
  182SOL    HW2 1446   3.062   2.770   5.526
  183SOL     OW 1447   2.810   1.146   3.565
  183SOL    HW1 1448   2.858   1.119   3.482
  183SOL    HW2 1449   2.851   1.099   3.644
  184SOL     OW 1450   4.999   6.338   3.599
  184SOL    HW1 1451   5.097   6.319   3.589
  184SOL    HW2 1452   4.952   6.254   3.629
  185SOL     OW 1453   0.743   6.410   5.229
  185SOL    HW1 1454   0.681   6.356   5.286
  185SOL    HW2 1455   0.709   6.504   5.222
  186SOL     OW 1456   3.049   5.643   6.418
  186SOL    HW1 1457   3.071   5.562   6.363
  186SOL    HW2 1458   2.958   5.676   6.395
  187SOL     OW 1459   3.540   5.442   0.692
  187SOL    HW1 1460   3.585   5.432   0.781
  187SOL    HW2 1461   3.441   5.437   0.705
  188SOL     OW 1462   1.611   4.161   4.009
  188SOL    HW1 1463   1.672   4.142   3.932
  188SOL    HW2 1464   1.627   4.093   4.081
  189SOL     OW 1465   5.905   4.429   6.215
  189SOL    HW1 1466   5.969   4.503   6.236
  189SOL    HW2 1467   5.942   4.372   6.142
  190SOL     OW 1468   5.919   6.539   0.359
  190SOL    HW1 1469   5.923   6.457   0.301
  190SOL    HW2 1470   6.011   6.566   0.385
  191SOL     OW 1471   2.077   3.695   5.680
  191SOL    HW1 1472   1.979   3.706   5.696
  191SOL    HW2 1473   2.122   3.671   5.767
  192SOL     OW 1474   0.489   0.272   1.302
  192SOL    HW1 1475   0.469   0.321   1.217
  192SOL    HW2 1476   0.482   0.174   1.287
  193SOL     OW 1477   2.883   0.036   1.643
  193SOL    HW1 1478   2.814   0.099   1.680
  193SOL    HW2 1479   2.958   0.089   1.605
  194SOL     OW 1480   4.292   5.406   3.152
  194SOL    HW1 1481   4.297   5.408   3.252
  194SOL    HW2 1482   4.274   5.312   3.122
  195SOL     OW 1483   3.138   0.552   1.386
  195SOL    HW1 1484   3.116   0.587   1.295
  195SOL    HW2 1485   3.059   0.565   1.446
  196SOL     OW 1486   3.855   3.057   0.859
  196SOL    HW1 1487   3.769   3.103   0.884
  196SOL    HW2 1488   3.925   3.126   0.839
  197SOL     OW 1489   1.706   5.972   0.410
  197SOL    HW1 1490   1.786   6.032   0.408
  197SOL    HW2 1491   1.729   5.884   0.370
  198SOL     OW 1492   5.867   0.045   6.139
  198SOL    HW1 1493   5.867   0.046   6.039
  198SOL    HW2 1494   5.928   0.117   6.173
  199SOL     OW 1495   2.258   1.346   3.703
  199SOL    HW1 1496   2.204   1.343   3.787
  199SOL    HW2 1497   2.294   1.255   3.684
  200SOL     OW 1498   1.715   3.761   4.395
  200SOL    HW1 1499   1.692   3.824   4.321
  200SOL    HW2 1500   1.770   3.808   4.464
  201SOL     OW 1501   4.739   1.108   0.066
  201SOL    HW1 1502   4.717   1.147   0.156
  201SOL    HW2 1503   4.828   1.142   0.036
  202SOL     OW 1504   4.228   0.338   2.893
  202SOL    HW1 1505   4.197   0.247   2.863
  202SOL    HW2 1506   4.277   0.382   2.819
  203SOL     OW 1507   5.880   2.926   0.390
  203SOL    HW1 1508   5.823   2.881   0.459
  203SOL    HW2 1509   5.958   2.968   0.435
  204SOL     OW 1510   2.021   6.275   1.052
  204SOL    HW1 1511   2.032   6.369   1.021
  204SOL    HW2 1512   1.989   6.275   1.147
  205SOL     OW 1513   5.426   0.848   1.377
  205SOL    HW1 1514   5.349   0.784   1.382
  205SOL    HW2 1515   5.401   0.925   1.320
  206SOL     OW 1516   6.968   5.959   1.153
  206SOL    HW1 1517   0.042   5.976   1.156
  206SOL    HW2 1518   6.946   5.879   1.209
  207SOL     OW 1519   6.648   2.278   5.507
  207SOL    HW1 1520   6.683   2.201   5.560
  207SOL    HW2 1521   6.718   2.310   5.444
  208SOL     OW 1522   4.342   3.700   0.132
  208SOL    HW1 1523   4.397   3.782   0.111
  208SOL    HW2 1524   4.390   3.645   0.200
  209SOL     OW 1525   7.007   6.950   3.953
  209SOL    HW1 1526   6.950   6.966   4.033
  209SOL    HW2 1527   0.023   6.859   3.959
  210SOL     OW 1528   4.112   1.922   1.117
  210SOL    HW1 1529   4.135   1.922   1.215
  210SOL    HW2 1530   4.109   2.016   1.084
  211SOL     OW 1531   0.608   3.034   2.257
  211SOL    HW1 1532   0.680   2.974   2.223
  211SOL    HW2 1533   0.631   3.067   2.348
  212SOL     OW 1534   0.929   5.148   5.570
  212SOL    HW1 1535   0.867   5.113   5.499
  212SOL    HW2 1536   0.937   5.247   5.561
  213SOL     OW 1537   3.942   2.689   1.350
  213SOL    HW1 1538   3.926   2.649   1.440
  213SOL    HW2 1539   3.854   2.703   1.304
  214SOL     OW 1540   1.138   6.021   3.991
  214SOL    HW1 1541   1.169   6.109   3.957
  214SOL    HW2 1542   1.053   6.033   4.043
  215SOL     OW 1543   3.402   3.871   3.172
  215SOL    HW1 1544   3.496   3.838   3.181
  215SOL    HW2 1545   3.353   3.814   3.106
  216SOL     OW 1546   3.002   0.516   5.381
  216SOL    HW1 1547   2.925   0.562   5.336
  216SOL    HW2 1548   3.084   0.573   5.371
  217SOL     OW 1549   6.848   1.737   5.224
  217SOL    HW1 1550   6.818   1.824   5.186
  217SOL    HW2 1551   6.943   1.720   5.197
  218SOL     OW 1552   2.973   4.374   5.813
  218SOL    HW1 1553   2.965   4.344   5.908
  218SOL    HW2 1554   2.884   4.407   5.780
  219SOL     OW 1555   2.816   5.868   6.645
  219SOL    HW1 1556   2.874   5.794   6.678
  219SOL    HW2 1557   2.769   5.911   6.722
  220SOL     OW 1558   1.159   5.214   0.176
  220SOL    HW1 1559   1.089   5.158   0.132
  220SOL    HW2 1560   1.245   5.163   0.181
  221SOL     OW 1561   5.806   2.913   4.888
  221SOL    HW1 1562   5.755   2.850   4.830
  221SOL    HW2 1563   5.888   2.944   4.841
  222SOL     OW 1564   1.824   0.072   4.721
  222SOL    HW1 1565   1.861   0.010   4.789
  222SOL    HW2 1566   1.891   0.143   4.700
  223SOL     OW 1567   5.772   4.545   2.820
  223SOL    HW1 1568   5.748   4.501   2.733
  223SOL    HW2 1569   5.688   4.565   2.872
  224SOL     OW 1570   5.143   3.102   2.844
  224SOL    HW1 1571   5.095   3.136   2.763
  224SOL    HW2 1572   5.077   3.089   2.918
  225SOL     OW 1573   5.238   6.363   1.554
  225SOL    HW1 1574   5.269   6.321   1.469
  225SOL    HW2 1575   5.224   6.293   1.623
  226SOL     OW 1576   1.001   6.097   2.484
  226SOL    HW1 1577   1.059   6.174   2.458
  226SOL    HW2 1578   0.975   6.106   2.580
  227SOL     OW 1579   1.132   3.876   3.509
  227SOL    HW1 1580   1.176   3.943   3.449
  227SOL    HW2 1581   1.046   3.845   3.467
  228SOL     OW 1582   3.872   5.831   2.827
  228SOL    HW1 1583   3.971   5.844   2.830
  228SOL    HW2 1584   3.835   5.835   2.919
  229SOL     OW 1585   6.333   5.911   2.916
  229SOL    HW1 1586   6.252   5.904   2.974
  229SOL    HW2 1587   6.352   6.007   2.896
  230SOL     OW 1588   0.835   4.896   5.782
  230SOL    HW1 1589   0.858   4.819   5.842
  230SOL    HW2 1590   0.864   4.981   5.824
  231SOL     OW 1591   0.432   1.876   6.561
  231SOL    HW1 1592   0.468   1.919   6.643
  231SOL    HW2 1593   0.353   1.819   6.584
  232SOL     OW 1594   1.200   4.116   5.654
  232SOL    HW1 1595   1.284   4.063   5.645
  232SOL    HW2 1596   1.198   4.162   5.742
  233SOL     OW 1597   3.379   0.154   6.677
  233SOL    HW1 1598   3.422   0.140   6.766
  233SOL    HW2 1599   3.402   0.077   6.617
  234SOL     OW 1600   1.919   4.984   6.730
  234SOL    HW1 1601   1.859   4.912   6.764
  234SOL    HW2 1602   2.007   4.945   6.704
  235SOL     OW 1603   3.977   3.724   5.999
  235SOL    HW1 1604   4.062   3.736   5.948
  235SOL    HW2 1605   3.911   3.794   5.972
  236SOL     OW 1606   6.770   1.290   6.326
  236SOL    HW1 1607   6.772   1.343   6.241
  236SOL    HW2 1608   6.688   1.232   6.327
  237SOL     OW 1609   6.860   6.716   2.066
  237SOL    HW1 1610   6.783   6.752   2.015
  237SOL    HW2 1611   6.889   6.782   2.135
  238SOL     OW 1612   0.284   2.280   2.570
  238SOL    HW1 1613   0.316   2.254   2.661
  238SOL    HW2 1614   0.338   2.232   2.500
  239SOL     OW 1615   6.143   4.888   0.347
  239SOL    HW1 1616   6.166   4.801   0.303
  239SOL    HW2 1617   6.129   4.873   0.445
  240SOL     OW 1618   0.024   1.828   4.693
  240SOL    HW1 1619   7.001   1.746   4.726
  240SOL    HW2 1620   0.038   1.892   4.769
  241SOL     OW 1621   6.015   2.181   4.866
  241SOL    HW1 1622   6.047   2.161   4.774
  241SOL    HW2 1623   6.093   2.189   4.928
  242SOL     OW 1624   2.889   2.138   4.091
  242SOL    HW1 1625   2.959   2.129   4.163
  242SOL    HW2 1626   2.933   2.168   4.006
  243SOL     OW 1627   5.004   1.216   6.972
  243SOL    HW1 1628   4.982   1.236   6.876
  243SOL    HW2 1629   5.082   1.153   6.976
  244SOL     OW 1630   0.656   1.714   6.424
  244SOL    HW1 1631   0.652   1.797   6.479
  244SOL    HW2 1632   0.564   1.692   6.390
  245SOL     OW 1633   5.422   2.109   4.194
  245SOL    HW1 1634   5.475   2.040   4.145
  245SOL    HW2 1635   5.341   2.067   4.235
  246SOL     OW 1636   5.430   3.405   4.754
  246SOL    HW1 1637   5.503   3.461   4.794
  246SOL    HW2 1638   5.455   3.381   4.660
  247SOL     OW 1639   2.988   0.645   2.993
  247SOL    HW1 1640   2.985   0.569   3.058
  247SOL    HW2 1641   3.083   0.665   2.970
  248SOL     OW 1642   0.575   2.411   2.877
  248SOL    HW1 1643   0.548   2.326   2.832
  248SOL    HW2 1644   0.572   2.486   2.811
  249SOL     OW 1645   2.311   5.612   5.566
  249SOL    HW1 1646   2.227   5.649   5.607
  249SOL    HW2 1647   2.385   5.615   5.633
  250SOL     OW 1648   5.281   2.288   0.022
  250SOL    HW1 1649   5.237   2.353   0.083
  250SOL    HW2 1650   5.269   2.195   0.057
  251SOL     OW 1651   2.155   0.890   1.324
  251SOL    HW1 1652   2.079   0.895   1.388
  251SOL    HW2 1653   2.139   0.953   1.248
  252SOL     OW 1654   0.083   2.226   0.436
  252SOL    HW1 1655   0.012   2.157   0.420
  252SOL    HW2 1656   0.156   2.215   0.369
  253SOL     OW 1657   2.374   4.458   6.242
  253SOL    HW1 1658   2.312   4.380   6.238
  253SOL    HW2 1659   2.356   4.512   6.324
  254SOL     OW 1660   5.005   3.623   6.450
  254SOL    HW1 1661   4.918   3.605   6.405
  254SOL    HW2 1662   5.059   3.685   6.394
  255SOL     OW 1663   4.656   2.284   2.274
  255SOL    HW1 1664   4.619   2.376   2.260
  255SOL    HW2 1665   4.644   2.230   2.191
  256SOL     OW 1666   0.233   6.197   1.404
  256SOL    HW1 1667   0.173   6.128   1.443
  256SOL    HW2 1668   0.317   6.202   1.458
  257SOL     OW 1669   2.973   5.906   6.211
  257SOL    HW1 1670   3.058   5.952   6.235
  257SOL    HW2 1671   2.993   5.816   6.171
  258SOL     OW 1672   4.164   5.423   4.232
  258SOL    HW1 1673   4.090   5.421   4.298
  258SOL    HW2 1674   4.179   5.517   4.201
  259SOL     OW 1675   0.704   1.722   1.952
  259SOL    HW1 1676   0.653   1.778   2.019
  259SOL    HW2 1677   0.794   1.762   1.938
  260SOL     OW 1678   6.516   6.835   5.437
  260SOL    HW1 1679   6.510   6.772   5.360
  260SOL    HW2 1680   6.558   6.920   5.407
  261SOL     OW 1681   0.555   0.662   4.308
  261SOL    HW1 1682   0.478   0.659   4.372
  261SOL    HW2 1683   0.559   0.577   4.256
  262SOL     OW 1684   1.644   5.362   1.314
  262SOL    HW1 1685   1.743   5.375   1.305
  262SOL    HW2 1686   1.598   5.448   1.292
  263SOL     OW 1687   0.684   4.430   4.758
  263SOL    HW1 1688   0.598   4.478   4.740
  263SOL    HW2 1689   0.716   4.452   4.850
  264SOL     OW 1690   3.395   4.081   0.658
  264SOL    HW1 1691   3.376   4.160   0.599
  264SOL    HW2 1692   3.342   4.003   0.628
  265SOL     OW 1693   4.232   5.189   3.810
  265SOL    HW1 1694   4.287   5.111   3.782
  265SOL    HW2 1695   4.172   5.163   3.885
  266SOL     OW 1696   4.201   3.428   6.930
  266SOL    HW1 1697   4.256   3.405   6.849
  266SOL    HW2 1698   4.117   3.373   6.930
  267SOL     OW 1699   2.687   2.437   5.802
  267SOL    HW1 1700   2.736   2.508   5.852
  267SOL    HW2 1701   2.604   2.412   5.851
  268SOL     OW 1702   1.912   4.175   3.930
  268SOL    HW1 1703   1.932   4.271   3.911
  268SOL    HW2 1704   1.890   4.128   3.844
  269SOL     OW 1705   3.540   1.912   5.585
  269SOL    HW1 1706   3.553   1.868   5.497
  269SOL    HW2 1707   3.615   1.976   5.602
  270SOL     OW 1708   5.447   6.087   4.898
  270SOL    HW1 1709   5.420   6.178   4.867
  270SOL    HW2 1710   5.524   6.054   4.844
  271SOL     OW 1711   2.697   1.833   0.530
  271SOL    HW1 1712   2.643   1.861   0.451
  271SOL    HW2 1713   2.636   1.810   0.605
  272SOL     OW 1714   5.318   4.684   0.087
  272SOL    HW1 1715   5.359   4.774   0.105
  272SOL    HW2 1716   5.310   4.671   7.012
  273SOL     OW 1717   1.251   5.971   4.282
  273SOL    HW1 1718   1.171   5.991   4.339
  273SOL    HW2 1719   1.250   5.875   4.254
  274SOL     OW 1720   5.222   2.374   2.732
  274SOL    HW1 1721   5.155   2.426   2.679
  274SOL    HW2 1722   5.294   2.341   2.671
  275SOL     OW 1723   5.985   5.583   5.854
  275SOL    HW1 1724   5.956   5.496   5.892
  275SOL    HW2 1725   5.911   5.650   5.860
  276SOL     OW 1726   0.870   0.405   4.531
  276SOL    HW1 1727   0.803   0.356   4.475
  276SOL    HW2 1728   0.835   0.415   4.624
  277SOL     OW 1729   3.604   3.111   5.493
  277SOL    HW1 1730   3.673   3.059   5.542
  277SOL    HW2 1731   3.605   3.206   5.524
  278SOL     OW 1732   5.725   4.532   2.423
  278SOL    HW1 1733   5.671   4.590   2.484
  278SOL    HW2 1734   5.722   4.569   2.330
  279SOL     OW 1735   0.749   4.372   3.828
  279SOL    HW1 1736   0.836   4.359   3.876
  279SOL    HW2 1737   0.673   4.349   3.889
  280SOL     OW 1738   4.556   1.506   3.580
  280SOL    HW1 1739   4.580   1.559   3.499
  280SOL    HW2 1740   4.588   1.554   3.662
  281SOL     OW 1741   5.118   4.988   5.098
  281SOL    HW1 1742   5.028   4.954   5.069
  281SOL    HW2 1743   5.107   5.077   5.142
  282SOL     OW 1744   0.381   2.505   6.916
  282SOL    HW1 1745   0.386   2.600   6.884
  282SOL    HW2 1746   0.286   2.476   6.921
  283SOL     OW 1747   6.189   3.986   2.277
  283SOL    HW1 1748   6.130   3.911   2.304
  283SOL    HW2 1749   6.226   4.031   2.358
  284SOL     OW 1750   5.828   6.465   3.289
  284SOL    HW1 1751   5.857   6.529   3.218
  284SOL    HW2 1752   5.804   6.515   3.372
  285SOL     OW 1753   4.122   5.842   6.206
  285SOL    HW1 1754   4.212   5.807   6.179
  285SOL    HW2 1755   4.080   5.888   6.127
  286SOL     OW 1756   3.489   4.841   5.736
  286SOL    HW1 1757   3.474   4.904   5.659
  286SOL    HW2 1758   3.438   4.757   5.721
  287SOL     OW 1759   3.656   6.310   0.584
  287SOL    HW1 1760   3.673   6.216   0.615
  287SOL    HW2 1761   3.698   6.324   0.495
  288SOL     OW 1762   4.517   0.913   0.101
  288SOL    HW1 1763   4.556   0.838   0.155
  288SOL    HW2 1764   4.579   0.935   0.026
  289SOL     OW 1765   4.879   5.153   4.243
  289SOL    HW1 1766   4.886   5.233   4.302
  289SOL    HW2 1767   4.818   5.086   4.285
  290SOL     OW 1768   3.639   0.588   4.942
  290SOL    HW1 1769   3.729   0.626   4.964
  290SOL    HW2 1770   3.650   0.503   4.890
  291SOL     OW 1771   5.961   0.795   4.747
  291SOL    HW1 1772   6.041   0.777   4.804
  291SOL    HW2 1773   5.883   0.741   4.780
  292SOL     OW 1774   3.221   0.619   3.581
  292SOL    HW1 1775   3.271   0.619   3.494
  292SOL    HW2 1776   3.274   0.670   3.649
  293SOL     OW 1777   5.358   0.880   2.911
  293SOL    HW1 1778   5.298   0.917   2.841
  293SOL    HW2 1779   5.369   0.947   2.984
  294SOL     OW 1780   6.782   1.250   0.046
  294SOL    HW1 1781   6.840   1.295   0.113
  294SOL    HW2 1782   6.818   1.267   6.978
  295SOL     OW 1783   0.148   0.092   5.158
  295SOL    HW1 1784   0.128   0.102   5.060
  295SOL    HW2 1785   0.225   0.151   5.183
  296SOL     OW 1786   0.591   1.927   0.966
  296SOL    HW1 1787   0.670   1.987   0.982
  296SOL    HW2 1788   0.615   1.858   0.898
  297SOL     OW 1789   5.165   3.171   3.177
  297SOL    HW1 1790   5.163   3.085   3.226
  297SOL    HW2 1791   5.260   3.200   3.163
  298SOL     OW 1792   4.417   6.995   5.485
  298SOL    HW1 1793   4.370   0.028   5.553
  298SOL    HW2 1794   4.370   6.908   5.477
  299SOL     OW 1795   0.670   1.149   6.042
  299SOL    HW1 1796   0.739   1.108   6.101
  299SOL    HW2 1797   0.691   1.130   5.946
  300SOL     OW 1798   4.054   6.220   4.262
  300SOL    HW1 1799   4.009   6.163   4.192
  300SOL    HW2 1800   4.018   6.195   4.352
  301SOL     OW 1801   6.856   6.302   5.180
  301SOL    HW1 1802   6.849   6.349   5.268
  301SOL    HW2 1803   6.949   6.270   5.166
  302SOL     OW 1804   0.508   6.724   2.176
  302SOL    HW1 1805   0.422   6.690   2.212
  302SOL    HW2 1806   0.554   6.651   2.125
  303SOL     OW 1807   5.278   5.574   2.383
  303SOL    HW1 1808   5.274   5.535   2.291
  303SOL    HW2 1809   5.186   5.581   2.421
  304SOL     OW 1810   1.151   0.661   3.670
  304SOL    HW1 1811   1.222   0.602   3.632
  304SOL    HW2 1812   1.133   0.635   3.765
  305SOL     OW 1813   2.282   2.119   1.433
  305SOL    HW1 1814   2.309   2.088   1.525
  305SOL    HW2 1815   2.182   2.114   1.425
  306SOL     OW 1816   0.471   0.203   2.441
  306SOL    HW1 1817   0.561   0.214   2.399
  306SOL    HW2 1818   0.419   0.134   2.391
  307SOL     OW 1819   3.965   3.954   4.001
  307SOL    HW1 1820   3.989   3.975   4.095
  307SOL    HW2 1821   4.042   3.908   3.956
  308SOL     OW 1822   6.503   1.899   2.068
  308SOL    HW1 1823   6.538   1.907   2.161
  308SOL    HW2 1824   6.470   1.989   2.037
  309SOL     OW 1825   1.824   4.564   0.521
  309SOL    HW1 1826   1.736   4.595   0.484
  309SOL    HW2 1827   1.812   4.475   0.565
  310SOL     OW 1828   4.967   6.696   4.927
  310SOL    HW1 1829   4.905   6.755   4.979
  310SOL    HW2 1830   4.974   6.729   4.833
  311SOL     OW 1831   1.731   6.137   2.561
  311SOL    HW1 1832   1.633   6.132   2.578
  311SOL    HW2 1833   1.775   6.192   2.631
  312SOL     OW 1834   3.213   0.705   4.336
  312SOL    HW1 1835   3.235   0.670   4.244
  312SOL    HW2 1836   3.262   0.650   4.404
  313SOL     OW 1837   3.044   3.125   3.051
  313SOL    HW1 1838   2.992   3.210   3.062
  313SOL    HW2 1839   3.048   3.077   3.139
  314SOL     OW 1840   2.777   5.035   6.365
  314SOL    HW1 1841   2.739   5.125   6.388
  314SOL    HW2 1842   2.703   4.967   6.364
  315SOL     OW 1843   6.146   0.694   4.944
  315SOL    HW1 1844   6.058   0.683   4.990
  315SOL    HW2 1845   6.189   0.604   4.934
  316SOL     OW 1846   4.175   0.829   5.371
  316SOL    HW1 1847   4.215   0.794   5.456
  316SOL    HW2 1848   4.095   0.774   5.346
  317SOL     OW 1849   0.989   2.093   1.399
  317SOL    HW1 1850   0.892   2.093   1.424
  317SOL    HW2 1851   1.001   2.139   1.311
  318SOL     OW 1852   0.911   0.703   3.172
  318SOL    HW1 1853   0.982   0.739   3.234
  318SOL    HW2 1854   0.944   0.618   3.130
  319SOL     OW 1855   1.020   1.129   2.353
  319SOL    HW1 1856   1.029   1.041   2.306
  319SOL    HW2 1857   0.924   1.145   2.376
  320SOL     OW 1858   5.085   1.354   0.158
  320SOL    HW1 1859   5.059   1.288   0.088
  320SOL    HW2 1860   5.134   1.308   0.232
  321SOL     OW 1861   4.069   3.240   0.827
  321SOL    HW1 1862   4.065   3.335   0.859
  321SOL    HW2 1863   4.165   3.214   0.813
  322SOL     OW 1864   2.939   1.748   0.045
  322SOL    HW1 1865   2.861   1.722   0.103
  322SOL    HW2 1866   3.021   1.700   0.077
  323SOL     OW 1867   1.135   4.218   2.021
  323SOL    HW1 1868   1.234   4.231   2.027
  323SOL    HW2 1869   1.104   4.163   2.098
  324SOL     OW 1870   6.369   0.495   4.012
  324SOL    HW1 1871   6.442   0.519   3.947
  324SOL    HW2 1872   6.311   0.425   3.972
  325SOL     OW 1873   6.021   3.571   1.079
  325SOL    HW1 1874   5.991   3.615   1.163
  325SOL    HW2 1875   5.979   3.480   1.071
  326SOL     OW 1876   0.204   5.527   6.957
  326SOL    HW1 1877   0.184   5.429   6.959
  326SOL    HW2 1878   0.154   5.570   6.882
  327SOL     OW 1879   4.543   6.311   6.406
  327SOL    HW1 1880   4.573   6.251   6.331
  327SOL    HW2 1881   4.456   6.352   6.382
  328SOL     OW 1882   1.825   4.352   3.531
  328SOL    HW1 1883   1.902   4.399   3.574
  328SOL    HW2 1884   1.800   4.399   3.446
  329SOL     OW 1885   3.308   2.866   2.151
  329SOL    HW1 1886   3.219   2.896   2.115
  329SOL    HW2 1887   3.304   2.769   2.172
  330SOL     OW 1888   2.401   3.727   6.749
  330SOL    HW1 1889   2.361   3.724   6.841
  330SOL    HW2 1890   2.332   3.763   6.685
  331SOL     OW 1891   5.163   5.418   3.629
  331SOL    HW1 1892   5.121   5.361   3.699
  331SOL    HW2 1893   5.177   5.364   3.546
  332SOL     OW 1894   5.852   1.569   2.757
  332SOL    HW1 1895   5.755   1.561   2.732
  332SOL    HW2 1896   5.908   1.536   2.680
  333SOL     OW 1897   3.926   6.381   3.620
  333SOL    HW1 1898   3.826   6.380   3.626
  333SOL    HW2 1899   3.957   6.304   3.565
  334SOL     OW 1900   3.654   3.148   4.106
  334SOL    HW1 1901   3.753   3.136   4.107
  334SOL    HW2 1902   3.626   3.199   4.187
  335SOL     OW 1903   4.270   1.247   0.683
  335SOL    HW1 1904   4.198   1.177   0.686
  335SOL    HW2 1905   4.292   1.276   0.776
  336SOL     OW 1906   4.116   2.063   5.063
  336SOL    HW1 1907   4.050   2.103   5.126
  336SOL    HW2 1908   4.100   2.099   4.971
  337SOL     OW 1909   0.245   1.540   5.509
  337SOL    HW1 1910   0.160   1.581   5.541
  337SOL    HW2 1911   0.227   1.448   5.473
  338SOL     OW 1912   4.804   1.209   1.863
  338SOL    HW1 1913   4.754   1.289   1.898
  338SOL    HW2 1914   4.765   1.181   1.776
  339SOL     OW 1915   3.962   4.780   6.232
  339SOL    HW1 1916   3.885   4.719   6.215
  339SOL    HW2 1917   4.031   4.731   6.287
  340SOL     OW 1918   4.914   3.018   4.980
  340SOL    HW1 1919   4.835   3.037   5.039
  340SOL    HW2 1920   4.952   3.105   4.948
  341SOL     OW 1921   0.167   0.463   1.770
  341SOL    HW1 1922   0.112   0.528   1.716
  341SOL    HW2 1923   0.264   0.479   1.751
  342SOL     OW 1924   4.542   1.320   1.948
  342SOL    HW1 1925   4.561   1.221   1.950
  342SOL    HW2 1926   4.555   1.359   2.039
  343SOL     OW 1927   6.167   6.943   1.850
  343SOL    HW1 1928   6.071   6.970   1.860
  343SOL    HW2 1929   6.177   6.845   1.868
  344SOL     OW 1930   6.906   2.632   1.555
  344SOL    HW1 1931   6.826   2.611   1.498
  344SOL    HW2 1932   6.976   2.675   1.499
  345SOL     OW 1933   6.906   2.752   4.481
  345SOL    HW1 1934   6.962   2.676   4.447
  345SOL    HW2 1935   6.956   2.801   4.552
  346SOL     OW 1936   1.654   5.719   2.377
  346SOL    HW1 1937   1.660   5.631   2.331
  346SOL    HW2 1938   1.740   5.737   2.426
  347SOL     OW 1939   2.145   4.457   1.290
  347SOL    HW1 1940   2.237   4.472   1.325
  347SOL    HW2 1941   2.088   4.536   1.312
  348SOL     OW 1942   5.288   4.713   1.470
  348SOL    HW1 1943   5.226   4.786   1.441
  348SOL    HW2 1944   5.263   4.628   1.424
  349SOL     OW 1945   6.006   5.269   0.781
  349SOL    HW1 1946   5.975   5.246   0.873
  349SOL    HW2 1947   6.027   5.367   0.777
  350SOL     OW 1948   2.650   1.463   0.979
  350SOL    HW1 1949   2.657   1.444   0.881
  350SOL    HW2 1950   2.681   1.556   0.997
  351SOL     OW 1951   3.641   4.373   1.418
  351SOL    HW1 1952   3.610   4.376   1.513
  351SOL    HW2 1953   3.709   4.301   1.408
  352SOL     OW 1954   4.336   6.714   2.218
  352SOL    HW1 1955   4.357   6.655   2.295
  352SOL    HW2 1956   4.421   6.741   2.172
  353SOL     OW 1957   2.582   6.071   0.258
  353SOL    HW1 1958   2.585   6.126   0.341
  353SOL    HW2 1959   2.537   5.983   0.278
  354SOL     OW 1960   1.075   2.206   0.802
  354SOL    HW1 1961   1.130   2.248   0.729
  354SOL    HW2 1962   0.994   2.262   0.818
  355SOL     OW 1963   7.005   2.994   3.524
  355SOL    HW1 1964   6.958   2.945   3.451
  355SOL    HW2 1965   7.009   2.937   3.605
  356SOL     OW 1966   2.612   0.566   5.696
  356SOL    HW1 1967   2.665   0.649   5.678
  356SOL    HW2 1968   2.624   0.502   5.620
  357SOL     OW 1969   5.174   6.012   4.115
  357SOL    HW1 1970   5.194   5.917   4.140
  357SOL    HW2 1971   5.258   6.057   4.085
  358SOL     OW 1972   3.406   6.357   6.988
  358SOL    HW1 1973   3.415   6.283   6.922
  358SOL    HW2 1974   3.490   6.364   0.018
  359SOL     OW 1975   2.149   2.402   1.503
  359SOL    HW1 1976   2.131   2.466   1.578
  359SOL    HW2 1977   2.238   2.358   1.517
  360SOL     OW 1978   2.108   4.169   3.238
  360SOL    HW1 1979   2.183   4.223   3.276
  360SOL    HW2 1980   2.122   4.073   3.259
  361SOL     OW 1981   0.161   2.480   2.877
  361SOL    HW1 1982   0.248   2.486   2.926
  361SOL    HW2 1983   0.128   2.573   2.856
  362SOL     OW 1984   3.786   3.598   2.490
  362SOL    HW1 1985   3.792   3.697   2.481
  362SOL    HW2 1986   3.722   3.575   2.563
  363SOL     OW 1987   4.529   5.127   0.412
  363SOL    HW1 1988   4.539   5.221   0.444
  363SOL    HW2 1989   4.568   5.119   0.320
  364SOL     OW 1990   1.331   0.511   0.210
  364SOL    HW1 1991   1.265   0.581   0.236
  364SOL    HW2 1992   1.399   0.550   0.148
  365SOL     OW 1993   5.353   0.379   3.966
  365SOL    HW1 1994   5.279   0.381   4.033
  365SOL    HW2 1995   5.396   0.289   3.965
  366SOL     OW 1996   5.126   1.644   0.141
  366SOL    HW1 1997   5.059   1.633   0.214
  366SOL    HW2 1998   5.088   1.610   0.055
  367SOL     OW 1999   5.502   0.877   6.982
  367SOL    HW1 2000   5.479   0.880   0.055
  367SOL    HW2 2001   5.576   0.942   6.963
  368SOL     OW 2002   3.002   1.875   5.920
  368SOL    HW1 2003   3.031   1.875   6.015
  368SOL    HW2 2004   2.930   1.808   5.906
  369SOL     OW 2005   4.688   4.569   0.306
  369SOL    HW1 2006   4.623   4.611   0.243
  369SOL    HW2 2007   4.739   4.640   0.354
  370SOL     OW 2008   1.956   2.326   3.214
  370SOL    HW1 2009   1.915   2.239   3.242
  370SOL    HW2 2010   1.967   2.328   3.115
  371SOL     OW 2011   2.628   5.557   0.146
  371SOL    HW1 2012   2.703   5.578   0.083
  371SOL    HW2 2013   2.543   5.595   0.109
  372SOL     OW 2014   2.436   5.823   6.582
  372SOL    HW1 2015   2.472   5.808   6.490
  372SOL    HW2 2016   2.370   5.898   6.580
  373SOL     OW 2017   6.383   4.719   3.035
  373SOL    HW1 2018   6.315   4.678   3.096
  373SOL    HW2 2019   6.466   4.663   3.034
  374SOL     OW 2020   2.886   2.179   2.231
  374SOL    HW1 2021   2.831   2.235   2.294
  374SOL    HW2 2022   2.903   2.231   2.147
  375SOL     OW 2023   0.443   6.003   4.109
  375SOL    HW1 2024   0.423   6.080   4.171
  375SOL    HW2 2025   0.410   6.026   4.017
  376SOL     OW 2026   4.379   0.274   3.680
  376SOL    HW1 2027   4.433   0.217   3.618
  376SOL    HW2 2028   4.300   0.312   3.632
  377SOL     OW 2029   3.128   2.853   6.448
  377SOL    HW1 2030   3.187   2.900   6.383
  377SOL    HW2 2031   3.178   2.778   6.491
  378SOL     OW 2032   4.217   1.210   1.928
  378SOL    HW1 2033   4.181   1.198   2.020
  378SOL    HW2 2034   4.313   1.240   1.934
  379SOL     OW 2035   4.069   2.974   6.636
  379SOL    HW1 2036   4.013   3.044   6.681
  379SOL    HW2 2037   4.042   2.966   6.541
  380SOL     OW 2038   4.659   2.025   0.636
  380SOL    HW1 2039   4.629   1.963   0.564
  380SOL    HW2 2040   4.724   1.978   0.695
  381SOL     OW 2041   1.795   3.760   2.530
  381SOL    HW1 2042   1.740   3.834   2.491
  381SOL    HW2 2043   1.828   3.787   2.620
  382SOL     OW 2044   5.951   6.861   0.580
  382SOL    HW1 2045   5.933   6.933   0.647
  382SOL    HW2 2046   5.920   6.773   0.616
  383SOL     OW 2047   4.903   3.138   0.714
  383SOL    HW1 2048   4.885   3.095   0.625
  383SOL    HW2 2049   4.939   3.230   0.700
  384SOL     OW 2050   0.935   3.156   5.034
  384SOL    HW1 2051   0.943   3.186   4.939
  384SOL    HW2 2052   0.840   3.167   5.065
  385SOL     OW 2053   4.336   1.971   6.794
  385SOL    HW1 2054   4.383   2.055   6.822
  385SOL    HW2 2055   4.247   1.967   6.838
  386SOL     OW 2056   4.162   6.414   5.337
  386SOL    HW1 2057   4.125   6.328   5.303
  386SOL    HW2 2058   4.134   6.489   5.276
  387SOL     OW 2059   2.397   6.247   4.062
  387SOL    HW1 2060   2.339   6.171   4.092
  387SOL    HW2 2061   2.473   6.257   4.127
  388SOL     OW 2062   1.483   4.858   5.807
  388SOL    HW1 2063   1.414   4.805   5.759
  388SOL    HW2 2064   1.451   4.952   5.821
  389SOL     OW 2065   2.826   3.317   0.658
  389SOL    HW1 2066   2.835   3.276   0.568
  389SOL    HW2 2067   2.883   3.267   0.724
  390SOL     OW 2068   2.575   1.430   4.627
  390SOL    HW1 2069   2.657   1.462   4.676
  390SOL    HW2 2070   2.509   1.505   4.622
  391SOL     OW 2071   0.829   2.372   6.981
  391SOL    HW1 2072   0.928   2.368   6.967
  391SOL    HW2 2073   0.787   2.418   6.902
  392SOL     OW 2074   3.141   5.211   4.782
  392SOL    HW1 2075   3.156   5.294   4.835
  392SOL    HW2 2076   3.069   5.156   4.825
  393SOL     OW 2077   6.048   3.942   5.581
  393SOL    HW1 2078   5.972   3.900   5.530
  393SOL    HW2 2079   6.063   4.035   5.547
  394SOL     OW 2080   2.126   1.497   6.428
  394SOL    HW1 2081   2.038   1.504   6.381
  394SOL    HW2 2082   2.112   1.508   6.526
  395SOL     OW 2083   7.006   3.050   1.078
  395SOL    HW1 2084   0.079   3.055   1.101
  395SOL    HW2 2085   6.953   3.033   1.161
  396SOL     OW 2086   3.057   2.720   5.860
  396SOL    HW1 2087   3.026   2.761   5.774
  396SOL    HW2 2088   3.123   2.648   5.841
  397SOL     OW 2089   4.251   0.967   6.519
  397SOL    HW1 2090   4.218   0.873   6.513
  397SOL    HW2 2091   4.189   1.020   6.577
  398SOL     OW 2092   0.200   4.364   2.363
  398SOL    HW1 2093   0.139   4.437   2.335
  398SOL    HW2 2094   0.194   4.288   2.298
  399SOL     OW 2095   4.873   5.434   1.668
  399SOL    HW1 2096   4.879   5.454   1.766
  399SOL    HW2 2097   4.951   5.476   1.621
  400SOL     OW 2098   2.145   4.719   4.945
  400SOL    HW1 2099   2.241   4.706   4.969
  400SOL    HW2 2100   2.095   4.750   5.026
  401SOL     OW 2101   6.008   1.497   1.295
  401SOL    HW1 2102   6.034   1.416   1.348
  401SOL    HW2 2103   6.088   1.531   1.246
  402SOL     OW 2104   6.991   4.873   0.912
  402SOL    HW1 2105   6.930   4.794   0.923
  402SOL    HW2 2106   7.007   4.888   0.814
  403SOL     OW 2107   4.777   4.820   0.968
  403SOL    HW1 2108   4.746   4.757   1.039
  403SOL    HW2 2109   4.709   4.823   0.894
  404SOL     OW 2110   6.895   5.620   4.981
  404SOL    HW1 2111   6.935   5.711   4.971
  404SOL    HW2 2112   6.962   5.558   5.022
  405SOL     OW 2113   1.167   2.236   1.551
  405SOL    HW1 2114   1.158   2.329   1.515
  405SOL    HW2 2115   1.108   2.174   1.500
  406SOL     OW 2116   0.783   2.679   3.556
  406SOL    HW1 2117   0.715   2.672   3.629
  406SOL    HW2 2118   0.875   2.683   3.597
  407SOL     OW 2119   3.650   2.086   4.217
  407SOL    HW1 2120   3.578   2.113   4.281
  407SOL    HW2 2121   3.730   2.145   4.229
  408SOL     OW 2122   2.587   0.368   3.490
  408SOL    HW1 2123   2.557   0.441   3.550
  408SOL    HW2 2124   2.577   0.280   3.537
  409SOL     OW 2125   6.872   3.829   4.204
  409SOL    HW1 2126   6.913   3.752   4.253
  409SOL    HW2 2127   6.828   3.890   4.269
  410SOL     OW 2128   2.976   6.713   6.179
  410SOL    HW1 2129   2.920   6.796   6.173
  410SOL    HW2 2130   2.925   6.641   6.224
  411SOL     OW 2131   0.637   4.036   5.362
  411SOL    HW1 2132   0.700   4.002   5.292
  411SOL    HW2 2133   0.573   4.100   5.320
  412SOL     OW 2134   4.044   6.843   2.487
  412SOL    HW1 2135   4.062   6.906   2.411
  412SOL    HW2 2136   3.958   6.867   2.531
  413SOL     OW 2137   2.324   1.177   2.677
  413SOL    HW1 2138   2.243   1.118   2.682
  413SOL    HW2 2139   2.400   1.134   2.726
  414SOL     OW 2140   4.963   4.873   0.537
  414SOL    HW1 2141   4.955   4.972   0.521
  414SOL    HW2 2142   5.029   4.856   0.609
  415SOL     OW 2143   4.006   0.099   2.075
  415SOL    HW1 2144   4.070   0.073   2.148
  415SOL    HW2 2145   4.057   0.116   1.991
  416SOL     OW 2146   3.989   5.947   6.961
  416SOL    HW1 2147   4.088   5.938   6.968
  416SOL    HW2 2148   3.955   5.883   6.892
  417SOL     OW 2149   5.385   5.037   1.161
  417SOL    HW1 2150   5.441   4.986   1.227
  417SOL    HW2 2151   5.333   5.108   1.209
  418SOL     OW 2152   6.209   4.995   6.505
  418SOL    HW1 2153   6.124   4.947   6.482
  418SOL    HW2 2154   6.249   4.953   6.586
  419SOL     OW 2155   5.501   5.554   0.406
  419SOL    HW1 2156   5.428   5.544   0.339
  419SOL    HW2 2157   5.463   5.545   0.498
  420SOL     OW 2158   4.895   4.245   6.552
  420SOL    HW1 2159   4.924   4.303   6.629
  420SOL    HW2 2160   4.834   4.174   6.586
  421SOL     OW 2161   1.711   6.701   6.417
  421SOL    HW1 2162   1.634   6.699   6.480
  421SOL    HW2 2163   1.689   6.647   6.336
  422SOL     OW 2164   6.378   4.066   0.176
  422SOL    HW1 2165   6.387   4.013   0.092
  422SOL    HW2 2166   6.324   4.015   0.243
  423SOL     OW 2167   1.106   3.544   6.401
  423SOL    HW1 2168   1.205   3.556   6.387
  423SOL    HW2 2169   1.068   3.626   6.442
  424SOL     OW 2170   1.592   4.495   0.091
  424SOL    HW1 2171   1.618   4.399   0.078
  424SOL    HW2 2172   1.535   4.525   0.015
  425SOL     OW 2173   3.496   0.134   0.131
  425SOL    HW1 2174   3.509   0.231   0.109
  425SOL    HW2 2175   3.580   0.096   0.168
  426SOL     OW 2176   0.116   3.937   6.067
  426SOL    HW1 2177   0.032   3.909   6.020
  426SOL    HW2 2178   0.195   3.918   6.009
  427SOL     OW 2179   4.336   3.408   0.163
  427SOL    HW1 2180   4.279   3.401   0.081
  427SOL    HW2 2181   4.280   3.438   0.240
  428SOL     OW 2182   3.989   1.479   5.322
  428SOL    HW1 2183   4.019   1.398   5.372
  428SOL    HW2 2184   4.069   1.529   5.289
  429SOL     OW 2185   2.904   6.851   0.283
  429SOL    HW1 2186   2.943   6.942   0.297
  429SOL    HW2 2187   2.896   6.804   0.370
  430SOL     OW 2188   2.956   0.178   4.097
  430SOL    HW1 2189   2.880   0.129   4.055
  430SOL    HW2 2190   3.030   0.187   4.031
  431SOL     OW 2191   3.707   0.721   6.997
  431SOL    HW1 2192   3.722   0.820   7.001
  431SOL    HW2 2193   3.649   0.699   6.919
  432SOL     OW 2194   0.023   0.763   0.756
  432SOL    HW1 2195   0.112   0.794   0.789
  432SOL    HW2 2196   6.975   0.797   0.817
  433SOL     OW 2197   2.898   5.849   5.078
  433SOL    HW1 2198   2.966   5.838   5.005
  433SOL    HW2 2199   2.932   5.808   5.162
  434SOL     OW 2200   6.251   3.539   1.330
  434SOL    HW1 2201   6.262   3.448   1.290
  434SOL    HW2 2202   6.167   3.581   1.296
  435SOL     OW 2203   3.705   3.821   0.764
  435SOL    HW1 2204   3.764   3.848   0.840
  435SOL    HW2 2205   3.636   3.757   0.797
  436SOL     OW 2206   3.226   0.706   0.514
  436SOL    HW1 2207   3.204   0.729   0.420
  436SOL    HW2 2208   3.155   0.647   0.552
  437SOL     OW 2209   6.472   6.894   6.123
  437SOL    HW1 2210   6.498   6.988   6.101
  437SOL    HW2 2211   6.537   6.857   6.188
  438SOL     OW 2212   1.568   3.425   0.904
  438SOL    HW1 2213   1.582   3.326   0.897
  438SOL    HW2 2214   1.654   3.472   0.883
  439SOL     OW 2215   6.197   4.824   2.068
  439SOL    HW1 2216   6.204   4.918   2.100
  439SOL    HW2 2217   6.124   4.817   2.001
  440SOL     OW 2218   1.515   2.989   3.011
  440SOL    HW1 2219   1.585   2.990   2.940
  440SOL    HW2 2220   1.512   3.078   3.056
  441SOL     OW 2221   0.733   0.801   2.993
  441SOL    HW1 2222   0.810   0.769   3.048
  441SOL    HW2 2223   0.767   0.849   2.912
  442SOL     OW 2224   0.271   4.947   6.172
  442SOL    HW1 2225   0.218   5.030   6.185
  442SOL    HW2 2226   0.210   4.868   6.169
  443SOL     OW 2227   0.720   4.441   5.405
  443SOL    HW1 2228   0.737   4.481   5.495
  443SOL    HW2 2229   0.766   4.495   5.335
  444SOL     OW 2230   4.899   2.854   6.418
  444SOL    HW1 2231   4.856   2.790   6.482
  444SOL    HW2 2232   4.862   2.946   6.433
  445SOL     OW 2233   1.785   3.885   3.284
  445SOL    HW1 2234   1.736   3.935   3.213
  445SOL    HW2 2235   1.808   3.947   3.359
  446SOL     OW 2236   2.775   5.131   4.171
  446SOL    HW1 2237   2.720   5.069   4.227
  446SOL    HW2 2238   2.783   5.093   4.078
  447SOL     OW 2239   6.796   6.100   0.968
  447SOL    HW1 2240   6.863   6.105   0.894
  447SOL    HW2 2241   6.838   6.054   1.047
  448SOL     OW 2242   4.431   0.059   6.023
  448SOL    HW1 2243   4.338   0.041   5.990
  448SOL    HW2 2244   4.432   0.145   6.074
  449SOL     OW 2245   5.204   0.339   4.180
  449SOL    HW1 2246   5.201   0.240   4.167
  449SOL    HW2 2247   5.115   0.372   4.211
  450SOL     OW 2248   6.688   6.406   3.400
  450SOL    HW1 2249   6.589   6.418   3.389
  450SOL    HW2 2250   6.734   6.428   3.313
  451SOL     OW 2251   6.220   3.105   3.906
  451SOL    HW1 2252   6.120   3.110   3.902
  451SOL    HW2 2253   6.252   3.156   3.985
  452SOL     OW 2254   6.819   5.361   5.832
  452SOL    HW1 2255   6.898   5.332   5.779
  452SOL    HW2 2256   6.833   5.454   5.865
  453SOL     OW 2257   3.423   1.847   5.821
  453SOL    HW1 2258   3.434   1.926   5.881
  453SOL    HW2 2259   3.466   1.865   5.733
  454SOL     OW 2260   0.833   6.336   0.324
  454SOL    HW1 2261   0.847   6.434   0.341
  454SOL    HW2 2262   0.789   6.295   0.404
  455SOL     OW 2263   5.145   1.222   4.621
  455SOL    HW1 2264   5.109   1.197   4.531
  455SOL    HW2 2265   5.128   1.149   4.686
  456SOL     OW 2266   4.058   5.247   0.350
  456SOL    HW1 2267   4.041   5.148   0.342
  456SOL    HW2 2268   3.985   5.289   0.403
  457SOL     OW 2269   0.868   4.643   1.536
  457SOL    HW1 2270   0.911   4.712   1.594
  457SOL    HW2 2271   0.937   4.576   1.507
  458SOL     OW 2272   0.610   6.036   5.448
  458SOL    HW1 2273   0.645   5.995   5.364
  458SOL    HW2 2274   0.585   6.131   5.430
  459SOL     OW 2275   1.977   1.017   3.372
  459SOL    HW1 2276   2.029   1.079   3.313
  459SOL    HW2 2277   1.896   0.985   3.324
  460SOL     OW 2278   6.663   2.253   3.962
  460SOL    HW1 2279   6.658   2.302   4.049
  460SOL    HW2 2280   6.699   2.160   3.978
  461SOL     OW 2281   5.527   5.347   5.304
  461SOL    HW1 2282   5.448   5.371   5.361
  461SOL    HW2 2283   5.585   5.427   5.293
  462SOL     OW 2284   2.516   1.917   0.252
  462SOL    HW1 2285   2.519   1.836   0.193
  462SOL    HW2 2286   2.570   1.990   0.210
  463SOL     OW 2287   6.639   5.913   2.111
  463SOL    HW1 2288   6.601   5.998   2.076
  463SOL    HW2 2289   6.715   5.884   2.053
  464SOL     OW 2290   1.863   1.646   5.787
  464SOL    HW1 2291   1.963   1.645   5.790
  464SOL    HW2 2292   1.828   1.579   5.852
  465SOL     OW 2293   0.303   3.126   5.714
  465SOL    HW1 2294   0.270   3.052   5.655
  465SOL    HW2 2295   0.344   3.198   5.657
  466SOL     OW 2296   2.650   1.195   3.255
  466SOL    HW1 2297   2.703   1.124   3.208
  466SOL    HW2 2298   2.707   1.237   3.325
  467SOL     OW 2299   1.826   2.051   5.431
  467SOL    HW1 2300   1.845   1.953   5.430
  467SOL    HW2 2301   1.874   2.093   5.508
  468SOL     OW 2302   3.396   3.474   2.475
  468SOL    HW1 2303   3.457   3.451   2.399
  468SOL    HW2 2304   3.433   3.552   2.526
  469SOL     OW 2305   3.274   6.025   0.187
  469SOL    HW1 2306   3.323   5.946   0.151
  469SOL    HW2 2307   3.206   5.994   0.254
  470SOL     OW 2308   4.356   6.842   2.896
  470SOL    HW1 2309   4.323   6.819   2.805
  470SOL    HW2 2310   4.429   6.910   2.889
  471SOL     OW 2311   2.753   1.994   4.356
  471SOL    HW1 2312   2.839   2.026   4.396
  471SOL    HW2 2313   2.743   2.032   4.264
  472SOL     OW 2314   4.100   4.494   5.411
  472SOL    HW1 2315   4.122   4.428   5.483
  472SOL    HW2 2316   4.135   4.460   5.323
  473SOL     OW 2317   0.894   4.290   4.061
  473SOL    HW1 2318   0.954   4.320   4.135
  473SOL    HW2 2319   0.931   4.207   4.019
  474SOL     OW 2320   5.125   4.591   5.026
  474SOL    HW1 2321   5.149   4.655   4.954
  474SOL    HW2 2322   5.032   4.611   5.059
  475SOL     OW 2323   1.921   6.848   6.429
  475SOL    HW1 2324   1.864   6.769   6.408
  475SOL    HW2 2325   1.926   6.861   6.528
  476SOL     OW 2326   0.467   5.646   2.071
  476SOL    HW1 2327   0.430   5.658   1.979
  476SOL    HW2 2328   0.543   5.581   2.069
  477SOL     OW 2329   1.525   5.299   3.670
  477SOL    HW1 2330   1.461   5.370   3.641
  477SOL    HW2 2331   1.604   5.298   3.609
  478SOL     OW 2332   1.760   5.584   3.200
  478SOL    HW1 2333   1.713   5.500   3.173
  478SOL    HW2 2334   1.762   5.646   3.122
  479SOL     OW 2335   3.541   1.786   1.451
  479SOL    HW1 2336   3.564   1.721   1.524
  479SOL    HW2 2337   3.457   1.756   1.406
  480SOL     OW 2338   1.825   6.304   3.028
  480SOL    HW1 2339   1.777   6.282   3.113
  480SOL    HW2 2340   1.908   6.354   3.049
  481SOL     OW 2341   2.972   6.833   1.303
  481SOL    HW1 2342   2.873   6.847   1.310
  481SOL    HW2 2343   3.004   6.783   1.384
  482SOL     OW 2344   5.680   5.460   1.058
  482SOL    HW1 2345   5.780   5.467   1.057
  482SOL    HW2 2346   5.651   5.395   0.989
  483SOL     OW 2347   6.168   1.582   1.877
  483SOL    HW1 2348   6.090   1.582   1.940
  483SOL    HW2 2349   6.137   1.603   1.785
  484SOL     OW 2350   6.796   2.329   4.706
  484SOL    HW1 2351   6.711   2.343   4.758
  484SOL    HW2 2352   6.805   2.401   4.638
  485SOL     OW 2353   3.405   6.100   1.811
  485SOL    HW1 2354   3.446   6.012   1.790
  485SOL    HW2 2355   3.329   6.118   1.748
  486SOL     OW 2356   0.318   0.861   5.866
  486SOL    HW1 2357   0.407   0.902   5.888
  486SOL    HW2 2358   0.276   0.825   5.950
  487SOL     OW 2359   6.467   2.756   6.398
  487SOL    HW1 2360   6.542   2.815   6.368
  487SOL    HW2 2361   6.430   2.791   6.485
  488SOL     OW 2362   0.885   3.962   2.417
  488SOL    HW1 2363   0.836   3.882   2.383
  488SOL    HW2 2364   0.841   3.995   2.500
  489SOL     OW 2365   3.192   6.060   6.269
  489SOL    HW1 2366   3.281   6.040   6.230
  489SOL    HW2 2367   3.197   6.147   6.320
  490SOL     OW 2368   5.162   6.785   4.168
  490SOL    HW1 2369   5.098   6.782   4.245
  490SOL    HW2 2370   5.254   6.804   4.201
  491SOL     OW 2371   0.140   2.377   3.594
  491SOL    HW1 2372   0.227   2.393   3.639
  491SOL    HW2 2373   0.153   2.318   3.514
  492SOL     OW 2374   1.844   1.139   4.833
  492SOL    HW1 2375   1.798   1.216   4.789
  492SOL    HW2 2376   1.937   1.165   4.857
  493SOL     OW 2377   6.164   4.119   4.621
  493SOL    HW1 2378   6.254   4.102   4.582
  493SOL    HW2 2379   6.098   4.054   4.583
  494SOL     OW 2380   6.385   1.658   6.704
  494SOL    HW1 2381   6.432   1.590   6.647
  494SOL    HW2 2382   6.325   1.611   6.768
  495SOL     OW 2383   4.271   4.028   0.679
  495SOL    HW1 2384   4.207   3.981   0.618
  495SOL    HW2 2385   4.221   4.091   0.739
  496SOL     OW 2386   5.919   2.720   2.928
  496SOL    HW1 2387   5.967   2.692   3.011
  496SOL    HW2 2388   5.985   2.735   2.854
  497SOL     OW 2389   3.732   6.861   4.579
  497SOL    HW1 2390   3.826   6.894   4.570
  497SOL    HW2 2391   3.678   6.890   4.500
  498SOL     OW 2392   1.238   2.909   2.169
  498SOL    HW1 2393   1.206   2.859   2.249
  498SOL    HW2 2394   1.230   3.008   2.185
  499SOL     OW 2395   2.989   0.781   5.125
  499SOL    HW1 2396   3.039   0.833   5.195
  499SOL    HW2 2397   2.904   0.828   5.104
  500SOL     OW 2398   1.729   4.620   1.926
  500SOL    HW1 2399   1.690   4.600   1.836
  500SOL    HW2 2400   1.690   4.706   1.960
  501SOL     OW 2401   1.199   4.875   6.984
  501SOL    HW1 2402   1.169   4.895   6.891
  501SOL    HW2 2403   1.260   4.948   7.016
  502SOL     OW 2404   3.486   4.944   6.240
  502SOL    HW1 2405   3.482   4.956   6.141
  502SOL    HW2 2406   3.493   5.034   6.284
  503SOL     OW 2407   5.748   5.831   4.794
  503SOL    HW1 2408   5.668   5.807   4.849
  503SOL    HW2 2409   5.817   5.759   4.802
  504SOL     OW 2410   1.930   5.876   4.810
  504SOL    HW1 2411   1.926   5.901   4.714
  504SOL    HW2 2412   2.019   5.834   4.831
  505SOL     OW 2413   3.799   6.538   5.201
  505SOL    HW1 2414   3.873   6.598   5.232
  505SOL    HW2 2415   3.813   6.446   5.237
  506SOL     OW 2416   2.058   3.331   0.251
  506SOL    HW1 2417   1.966   3.368   0.260
  506SOL    HW2 2418   2.095   3.311   0.342
  507SOL     OW 2419   3.905   2.188   4.246
  507SOL    HW1 2420   3.970   2.233   4.184
  507SOL    HW2 2421   3.948   2.174   4.335
  508SOL     OW 2422   5.827   4.482   3.806
  508SOL    HW1 2423   5.836   4.386   3.833
  508SOL    HW2 2424   5.752   4.524   3.857
  509SOL     OW 2425   4.579   2.758   0.961
  509SOL    HW1 2426   4.660   2.767   0.903
  509SOL    HW2 2427   4.555   2.661   0.969
  510SOL     OW 2428   1.065   3.918   4.604
  510SOL    HW1 2429   1.090   3.828   4.638
  510SOL    HW2 2430   1.039   3.912   4.508
  511SOL     OW 2431   0.475   6.663   1.206
  511SOL    HW1 2432   0.445   6.630   1.296
  511SOL    HW2 2433   0.443   6.600   1.135
  512SOL     OW 2434   1.015   3.894   6.259
  512SOL    HW1 2435   0.920   3.889   6.228
  512SOL    HW2 2436   1.076   3.871   6.183
  513SOL     OW 2437   1.259   5.265   4.786
  513SOL    HW1 2438   1.349   5.225   4.800
  513SOL    HW2 2439   1.233   5.320   4.866
  514SOL     OW 2440   6.308   1.791   3.294
  514SOL    HW1 2441   6.392   1.820   3.339
  514SOL    HW2 2442   6.245   1.754   3.363
  515SOL     OW 2443   2.109   5.280   0.114
  515SOL    HW1 2444   2.101   5.230   0.027
  515SOL    HW2 2445   2.056   5.233   0.184
  516SOL     OW 2446   1.456   5.095   2.983
  516SOL    HW1 2447   1.406   5.116   3.067
  516SOL    HW2 2448   1.405   5.129   2.905
  517SOL     OW 2449   4.841   0.572   6.369
  517SOL    HW1 2450   4.916   0.511   6.391
  517SOL    HW2 2451   4.870   0.667   6.381
  518SOL     OW 2452   2.351   2.022   1.037
  518SOL    HW1 2453   2.371   2.119   1.031
  518SOL    HW2 2454   2.254   2.006   1.018
  519SOL     OW 2455   0.795   0.112   0.089
  519SOL    HW1 2456   0.819   0.043   0.021
  519SOL    HW2 2457   0.824   0.080   0.180
  520SOL     OW 2458   6.016   4.293   4.251
  520SOL    HW1 2459   6.003   4.372   4.310
  520SOL    HW2 2460   5.928   4.266   4.212
  521SOL     OW 2461   5.933   0.525   0.759
  521SOL    HW1 2462   5.929   0.551   0.856
  521SOL    HW2 2463   5.984   0.594   0.709
  522SOL     OW 2464   3.598   3.608   5.610
  522SOL    HW1 2465   3.549   3.531   5.569
  522SOL    HW2 2466   3.600   3.598   5.709
  523SOL     OW 2467   6.458   6.904   4.213
  523SOL    HW1 2468   6.521   6.860   4.277
  523SOL    HW2 2469   6.496   6.898   4.120
  524SOL     OW 2470   4.270   1.137   5.628
  524SOL    HW1 2471   4.223   1.094   5.551
  524SOL    HW2 2472   4.269   1.236   5.617
  525SOL     OW 2473   2.638   2.351   6.796
  525SOL    HW1 2474   2.592   2.437   6.815
  525SOL    HW2 2475   2.587   2.275   6.837
  526SOL     OW 2476   4.201   5.302   4.653
  526SOL    HW1 2477   4.264   5.377   4.674
  526SOL    HW2 2478   4.218   5.268   4.561
  527SOL     OW 2479   0.705   2.142   0.002
  527SOL    HW1 2480   0.607   2.121   7.020
  527SOL    HW2 2481   0.724   2.226   6.976
  528SOL     OW 2482   2.134   1.643   5.554
  528SOL    HW1 2483   2.149   1.545   5.565
  528SOL    HW2 2484   2.156   1.691   5.639
  529SOL     OW 2485   6.503   4.861   4.101
  529SOL    HW1 2486   6.440   4.784   4.108
  529SOL    HW2 2487   6.522   4.881   4.005
  530SOL     OW 2488   0.704   2.447   5.162
  530SOL    HW1 2489   0.617   2.402   5.144
  530SOL    HW2 2490   0.731   2.500   5.082
  531SOL     OW 2491   0.054   0.699   0.212
  531SOL    HW1 2492   0.090   0.750   0.290
  531SOL    HW2 2493   6.980   0.717   0.204
  532SOL     OW 2494   2.221   0.414   5.891
  532SOL    HW1 2495   2.197   0.424   5.987
  532SOL    HW2 2496   2.251   0.320   5.874
  533SOL     OW 2497   5.010   0.460   4.689
  533SOL    HW1 2498   5.094   0.407   4.675
  533SOL    HW2 2499   5.006   0.535   4.622
  534SOL     OW 2500   3.256   5.133   2.888
  534SOL    HW1 2501   3.200   5.088   2.958
  534SOL    HW2 2502   3.201   5.145   2.805
  535SOL     OW 2503   6.307   4.113   2.494
  535SOL    HW1 2504   6.379   4.051   2.526
  535SOL    HW2 2505   6.346   4.177   2.428
  536SOL     OW 2506   0.624   6.552   0.733
  536SOL    HW1 2507   0.576   6.479   0.781
  536SOL    HW2 2508   0.719   6.556   0.764
  537SOL     OW 2509   2.160   0.012   3.532
  537SOL    HW1 2510   2.197   6.944   3.518
  537SOL    HW2 2511   2.062   0.006   3.551
  538SOL     OW 2512   1.702   4.729   4.135
  538SOL    HW1 2513   1.661   4.758   4.222
  538SOL    HW2 2514   1.641   4.664   4.090
  539SOL     OW 2515   1.540   6.201   0.869
  539SOL    HW1 2516   1.509   6.109   0.890
  539SOL    HW2 2517   1.624   6.196   0.813
  540SOL     OW 2518   1.524   2.885   1.278
  540SOL    HW1 2519   1.561   2.977   1.289
  540SOL    HW2 2520   1.512   2.842   1.367
  541SOL     OW 2521   3.755   5.073   5.385
  541SOL    HW1 2522   3.714   5.154   5.343
  541SOL    HW2 2523   3.815   5.028   5.318
  542SOL     OW 2524   5.754   6.540   6.396
  542SOL    HW1 2525   5.738   6.454   6.445
  542SOL    HW2 2526   5.852   6.553   6.383
  543SOL     OW 2527   6.416   6.062   0.647
  543SOL    HW1 2528   6.476   6.140   0.632
  543SOL    HW2 2529   6.460   5.998   0.711
  544SOL     OW 2530   0.522   5.532   0.442
  544SOL    HW1 2531   0.504   5.437   0.417
  544SOL    HW2 2532   0.602   5.565   0.392
  545SOL     OW 2533   3.664   1.640   4.134
  545SOL    HW1 2534   3.724   1.696   4.191
  545SOL    HW2 2535   3.595   1.699   4.091
  546SOL     OW 2536   1.461   2.595   0.398
  546SOL    HW1 2537   1.364   2.590   0.376
  546SOL    HW2 2538   1.493   2.505   0.429
  547SOL     OW 2539   3.001   1.705   0.344
  547SOL    HW1 2540   3.057   1.652   0.281
  547SOL    HW2 2541   3.030   1.801   0.343
  548SOL     OW 2542   2.919   3.169   5.312
  548SOL    HW1 2543   2.910   3.262   5.278
  548SOL    HW2 2544   2.829   3.134   5.338
  549SOL     OW 2545   0.574   4.167   1.153
  549SOL    HW1 2546   0.624   4.184   1.238
  549SOL    HW2 2547   0.610   4.226   1.081
  550SOL     OW 2548   6.565   3.521   0.386
  550SOL    HW1 2549   6.633   3.474   0.330
  550SOL    HW2 2550   6.608   3.551   0.472
  551SOL     OW 2551   0.478   1.324   0.344
  551SOL    HW1 2552   0.545   1.391   0.312
  551SOL    HW2 2553   0.392   1.334   0.293
  552SOL     OW 2554   4.528   4.616   0.595
  552SOL    HW1 2555   4.626   4.599   0.586
  552SOL    HW2 2556   4.491   4.647   0.507
  553SOL     OW 2557   1.135   2.468   1.439
  553SOL    HW1 2558   1.130   2.467   1.339
  553SOL    HW2 2559   1.182   2.551   1.468
  554SOL     OW 2560   4.781   4.994   4.743
  554SOL    HW1 2561   4.816   5.084   4.717
  554SOL    HW2 2562   4.687   4.984   4.709
  555SOL     OW 2563   1.210   4.570   5.187
  555SOL    HW1 2564   1.144   4.531   5.251
  555SOL    HW2 2565   1.187   4.541   5.094
  556SOL     OW 2566   5.943   3.616   2.634
  556SOL    HW1 2567   5.921   3.557   2.557
  556SOL    HW2 2568   5.866   3.677   2.652
  557SOL     OW 2569   6.949   5.744   6.133
  557SOL    HW1 2570   7.004   5.731   6.051
  557SOL    HW2 2571   6.869   5.684   6.129
  558SOL     OW 2572   4.442   3.652   5.578
  558SOL    HW1 2573   4.430   3.741   5.622
  558SOL    HW2 2574   4.420   3.659   5.481
  559SOL     OW 2575   5.948   5.473   6.209
  559SOL    HW1 2576   5.910   5.380   6.206
  559SOL    HW2 2577   6.037   5.473   6.163
  560SOL     OW 2578   4.249   6.576   6.772
  560SOL    HW1 2579   4.246   6.558   6.674
  560SOL    HW2 2580   4.175   6.527   6.817
  561SOL     OW 2581   5.540   6.526   2.081
  561SOL    HW1 2582   5.494   6.476   2.008
  561SOL    HW2 2583   5.581   6.610   2.044
  562SOL     OW 2584   6.413   1.009   0.302
  562SOL    HW1 2585   6.512   1.017   0.312
  562SOL    HW2 2586   6.376   0.957   0.379
  563SOL     OW 2587   2.982   0.536   4.685
  563SOL    HW1 2588   3.071   0.497   4.662
  563SOL    HW2 2589   2.911   0.467   4.673
  564SOL     OW 2590   0.777   1.657   5.882
  564SOL    HW1 2591   0.745   1.564   5.865
  564SOL    HW2 2592   0.864   1.672   5.834
  565SOL     OW 2593   4.613   4.278   5.858
  565SOL    HW1 2594   4.556   4.226   5.796
  565SOL    HW2 2595   4.694   4.224   5.883
  566SOL     OW 2596   6.397   4.903   2.459
  566SOL    HW1 2597   6.315   4.847   2.456
  566SOL    HW2 2598   6.450   4.888   2.375
  567SOL     OW 2599   3.714   3.772   5.391
  567SOL    HW1 2600   3.648   3.698   5.404
  567SOL    HW2 2601   3.719   3.827   5.474
  568SOL     OW 2602   1.769   1.073   6.202
  568SOL    HW1 2603   1.845   1.027   6.247
  568SOL    HW2 2604   1.683   1.040   6.240
  569SOL     OW 2605   2.209   3.986   6.935
  569SOL    HW1 2606   2.211   4.039   6.851
  569SOL    HW2 2607   2.115   3.956   6.955
  570SOL     OW 2608   0.075   6.528   0.491
  570SOL    HW1 2609   0.058   6.580   0.575
  570SOL    HW2 2610   0.033   6.576   0.414
  571SOL     OW 2611   4.139   6.235   2.324
  571SOL    HW1 2612   4.229   6.273   2.346
  571SOL    HW2 2613   4.150   6.155   2.265
  572SOL     OW 2614   1.547   4.258   4.659
  572SOL    HW1 2615   1.560   4.246   4.757
  572SOL    HW2 2616   1.571   4.352   4.633
  573SOL     OW 2617   2.987   2.020   0.116
  573SOL    HW1 2618   3.081   2.016   0.150
  573SOL    HW2 2619   2.961   1.930   0.081
  574SOL     OW 2620   2.758   1.907   4.069
  574SOL    HW1 2621   2.798   1.860   3.990
  574SOL    HW2 2622   2.807   1.994   4.083
  575SOL     OW 2623   5.344   2.150   6.555
  575SOL    HW1 2624   5.410   2.103   6.612
  575SOL    HW2 2625   5.351   2.249   6.569
  576SOL     OW 2626   0.975   2.838   2.409
  576SOL    HW1 2627   1.034   2.757   2.404
  576SOL    HW2 2628   1.010   2.901   2.478
  577SOL     OW 2629   3.789   1.812   4.467
  577SOL    HW1 2630   3.694   1.802   4.438
  577SOL    HW2 2631   3.796   1.886   4.534
  578SOL     OW 2632   0.305   3.835   4.039
  578SOL    HW1 2633   0.316   3.783   4.124
  578SOL    HW2 2634   0.239   3.789   3.980
  579SOL     OW 2635   3.953   3.730   0.326
  579SOL    HW1 2636   3.895   3.714   0.406
  579SOL    HW2 2637   3.897   3.726   0.243
  580SOL     OW 2638   0.467   6.906   0.130
  580SOL    HW1 2639   0.421   6.836   0.077
  580SOL    HW2 2640   0.499   6.867   0.216
  581SOL     OW 2641   4.160   3.462   2.666
  581SOL    HW1 2642   4.181   3.365   2.669
  581SOL    HW2 2643   4.167   3.495   2.571
  582SOL     OW 2644   6.384   4.166   0.826
  582SOL    HW1 2645   6.364   4.078   0.867
  582SOL    HW2 2646   6.456   4.156   0.757
  583SOL     OW 2647   2.545   6.603   6.760
  583SOL    HW1 2648   2.522   6.559   6.847
  583SOL    HW2 2649   2.610   6.678   6.776
  584SOL     OW 2650   1.096   5.021   4.861
  584SOL    HW1 2651   1.116   5.004   4.958
  584SOL    HW2 2652   1.130   5.111   4.835
  585SOL     OW 2653   5.712   0.633   5.579
  585SOL    HW1 2654   5.759   0.694   5.643
  585SOL    HW2 2655   5.613   0.643   5.590
  586SOL     OW 2656   2.713   6.034   1.485
  586SOL    HW1 2657   2.790   6.004   1.542
  586SOL    HW2 2658   2.746   6.051   1.392
  587SOL     OW 2659   1.673   3.506   5.922
  587SOL    HW1 2660   1.590   3.560   5.936
  587SOL    HW2 2661   1.729   3.510   6.005
  588SOL     OW 2662   2.108   0.399   1.687
  588SOL    HW1 2663   2.074   0.390   1.593
  588SOL    HW2 2664   2.197   0.444   1.685
  589SOL     OW 2665   4.415   5.173   1.934
  589SOL    HW1 2666   4.318   5.197   1.946
  589SOL    HW2 2667   4.458   5.239   1.873
  590SOL     OW 2668   6.274   3.292   1.888
  590SOL    HW1 2669   6.353   3.300   1.828
  590SOL    HW2 2670   6.202   3.240   1.842
  591SOL     OW 2671   2.520   7.022   2.840
  591SOL    HW1 2672   2.598   6.972   2.802
  591SOL    HW2 2673   2.469   0.041   2.765
  592SOL     OW 2674   5.065   0.204   5.661
  592SOL    HW1 2675   5.115   0.256   5.730
  592SOL    HW2 2676   4.975   0.179   5.696
  593SOL     OW 2677   7.001   1.135   4.789
  593SOL    HW1 2678   0.013   1.062   4.846
  593SOL    HW2 2679   0.037   1.215   4.795
  594SOL     OW 2680   5.455   2.307   1.311
  594SOL    HW1 2681   5.386   2.324   1.242
  594SOL    HW2 2682   5.448   2.213   1.344
  595SOL     OW 2683   3.987   6.854   3.803
  595SOL    HW1 2684   3.941   6.768   3.825
  595SOL    HW2 2685   4.028   6.848   3.712
  596SOL     OW 2686   0.877   4.370   1.112
  596SOL    HW1 2687   0.957   4.318   1.081
  596SOL    HW2 2688   0.821   4.396   1.033
  597SOL     OW 2689   4.087   2.532   6.099
  597SOL    HW1 2690   4.022   2.522   6.023
  597SOL    HW2 2691   4.179   2.546   6.062
  598SOL     OW 2692   2.864   4.112   1.380
  598SOL    HW1 2693   2.824   4.033   1.332
  598SOL    HW2 2694   2.963   4.100   1.387
  599SOL     OW 2695   6.532   5.567   3.578
  599SOL    HW1 2696   6.440   5.571   3.617
  599SOL    HW2 2697   6.581   5.488   3.614
  600SOL     OW 2698   2.918   1.368   1.523
  600SOL    HW1 2699   3.013   1.398   1.532
  600SOL    HW2 2700   2.881   1.347   1.613
  601SOL     OW 2701   1.826   4.670   3.122
  601SOL    HW1 2702   1.867   4.749   3.169
  601SOL    HW2 2703   1.731   4.690   3.100
  602SOL     OW 2704   6.970   0.430   2.116
  602SOL    HW1 2705   6.952   0.485   2.197
  602SOL    HW2 2706   0.041   0.440   2.088
  603SOL     OW 2707   4.084   1.702   3.166
  603SOL    HW1 2708   4.023   1.672   3.239
  603SOL    HW2 2709   4.139   1.779   3.199
  604SOL     OW 2710   0.757   3.601   5.691
  604SOL    HW1 2711   0.836   3.540   5.680
  604SOL    HW2 2712   0.675   3.547   5.707
  605SOL     OW 2713   5.457   0.464   4.579
  605SOL    HW1 2714   5.497   0.429   4.664
  605SOL    HW2 2715   5.378   0.408   4.555
  606SOL     OW 2716   2.748   0.214   2.830
  606SOL    HW1 2717   2.819   0.174   2.773
  606SOL    HW2 2718   2.745   0.166   2.918
  607SOL     OW 2719   3.838   0.765   4.303
  607SOL    HW1 2720   3.821   0.811   4.390
  607SOL    HW2 2721   3.760   0.707   4.279
  608SOL     OW 2722   5.234   3.107   1.418
  608SOL    HW1 2723   5.260   3.024   1.369
  608SOL    HW2 2724   5.193   3.082   1.506
  609SOL     OW 2725   3.187   4.179   5.148
  609SOL    HW1 2726   3.104   4.234   5.143
  609SOL    HW2 2727   3.179   4.113   5.223
  610SOL     OW 2728   6.243   1.669   4.535
  610SOL    HW1 2729   6.209   1.585   4.491
  610SOL    HW2 2730   6.215   1.748   4.480
  611SOL     OW 2731   5.403   0.082   0.069
  611SOL    HW1 2732   5.442   0.004   0.119
  611SOL    HW2 2733   5.380   0.054   7.000
  612SOL     OW 2734   2.062   5.177   6.292
  612SOL    HW1 2735   2.130   5.110   6.323
  612SOL    HW2 2736   1.979   5.129   6.264
  613SOL     OW 2737   3.778   1.068   6.587
  613SOL    HW1 2738   3.747   0.988   6.536
  613SOL    HW2 2739   3.701   1.130   6.603
  614SOL     OW 2740   4.706   3.246   1.070
  614SOL    HW1 2741   4.757   3.322   1.111
  614SOL    HW2 2742   4.752   3.160   1.092
  615SOL     OW 2743   5.098   6.627   0.494
  615SOL    HW1 2744   5.022   6.617   0.430
  615SOL    HW2 2745   5.092   6.557   0.565
  616SOL     OW 2746   4.856   1.060   4.338
  616SOL    HW1 2747   4.825   0.980   4.287
  616SOL    HW2 2748   4.956   1.065   4.335
  617SOL     OW 2749   6.588   6.572   4.743
  617SOL    HW1 2750   6.679   6.532   4.733
  617SOL    HW2 2751   6.552   6.552   4.834
  618SOL     OW 2752   5.439   4.536   0.695
  618SOL    HW1 2753   5.373   4.545   0.621
  618SOL    HW2 2754   5.439   4.441   0.727
  619SOL     OW 2755   2.169   6.976   6.625
  619SOL    HW1 2756   2.240   6.915   6.589
  619SOL    HW2 2757   2.156   6.956   6.723
  620SOL     OW 2758   4.545   2.045   2.070
  620SOL    HW1 2759   4.507   2.131   2.038
  620SOL    HW2 2760   4.630   2.026   2.021
  621SOL     OW 2761   3.060   0.502   6.408
  621SOL    HW1 2762   2.980   0.481   6.352
  621SOL    HW2 2763   3.043   0.473   6.502
  622SOL     OW 2764   0.544   3.383   5.785
  622SOL    HW1 2765   0.639   3.354   5.801
  622SOL    HW2 2766   0.508   3.338   5.704
  623SOL     OW 2767   6.608   1.166   3.030
  623SOL    HW1 2768   6.530   1.103   3.027
  623SOL    HW2 2769   6.686   1.121   3.074
  624SOL     OW 2770   6.894   1.302   6.556
  624SOL    HW1 2771   6.858   1.316   6.464
  624SOL    HW2 2772   6.819   1.292   6.621
  625SOL     OW 2773   3.308   1.512   1.826
  625SOL    HW1 2774   3.296   1.521   1.727
  625SOL    HW2 2775   3.288   1.600   1.870
  626SOL     OW 2776   0.603   5.959   3.695
  626SOL    HW1 2777   0.594   6.058   3.684
  626SOL    HW2 2778   0.524   5.914   3.656
  627SOL     OW 2779   6.519   5.376   6.543
  627SOL    HW1 2780   6.558   5.430   6.467
  627SOL    HW2 2781   6.489   5.288   6.508
  628SOL     OW 2782   3.700   4.783   6.588
  628SOL    HW1 2783   3.653   4.722   6.651
  628SOL    HW2 2784   3.637   4.812   6.516
  629SOL     OW 2785   1.445   6.969   0.012
  629SOL    HW1 2786   1.516   0.013   7.019
  629SOL    HW2 2787   1.412   6.978   0.106
  630SOL     OW 2788   6.520   1.967   1.192
  630SOL    HW1 2789   6.484   2.011   1.275
  630SOL    HW2 2790   6.593   2.023   1.154
  631SOL     OW 2791   1.823   3.524   3.040
  631SOL    HW1 2792   1.755   3.480   2.982
  631SOL    HW2 2793   1.914   3.515   2.999
  632SOL     OW 2794   3.080   4.463   1.083
  632SOL    HW1 2795   3.001   4.402   1.091
  632SOL    HW2 2796   3.058   4.552   1.124
  633SOL     OW 2797   0.956   5.785   0.410
  633SOL    HW1 2798   0.945   5.883   0.425
  633SOL    HW2 2799   0.967   5.739   0.498
  634SOL     OW 2800   2.865   3.497   5.564
  634SOL    HW1 2801   2.934   3.567   5.545
  634SOL    HW2 2802   2.910   3.408   5.569
  635SOL     OW 2803   5.866   6.782   6.966
  635SOL    HW1 2804   5.801   6.815   6.898
  635SOL    HW2 2805   5.959   6.789   6.930
  636SOL     OW 2806   2.338   1.316   4.801
  636SOL    HW1 2807   2.415   1.257   4.774
  636SOL    HW2 2808   2.373   1.403   4.836
  637SOL     OW 2809   6.854   1.483   2.409
  637SOL    HW1 2810   6.935   1.470   2.352
  637SOL    HW2 2811   6.879   1.534   2.491
  638SOL     OW 2812   6.858   3.646   5.147
  638SOL    HW1 2813   6.929   3.715   5.134
  638SOL    HW2 2814   6.882   3.588   5.224
  639SOL     OW 2815   6.011   3.122   1.977
  639SOL    HW1 2816   5.923   3.101   1.935
  639SOL    HW2 2817   5.996   3.167   2.066
  640SOL     OW 2818   6.993   3.449   3.005
  640SOL    HW1 2819   6.993   3.349   3.009
  640SOL    HW2 2820   6.900   3.482   2.987
  641SOL     OW 2821   2.285   5.446   4.396
  641SOL    HW1 2822   2.234   5.395   4.464
  641SOL    HW2 2823   2.221   5.491   4.333
  642SOL     OW 2824   0.639   5.408   4.860
  642SOL    HW1 2825   0.714   5.472   4.876
  642SOL    HW2 2826   0.671   5.332   4.803
  643SOL     OW 2827   4.303   5.326   0.605
  643SOL    HW1 2828   4.319   5.319   0.703
  643SOL    HW2 2829   4.390   5.312   0.557
  644SOL     OW 2830   6.036   0.155   4.362
  644SOL    HW1 2831   6.014   0.058   4.350
  644SOL    HW2 2832   6.128   0.172   4.326
  645SOL     OW 2833   4.216   6.165   1.760
  645SOL    HW1 2834   4.186   6.257   1.787
  645SOL    HW2 2835   4.138   6.103   1.760
  646SOL     OW 2836   3.768   1.944   5.157
  646SOL    HW1 2837   3.722   1.918   5.242
  646SOL    HW2 2838   3.855   1.895   5.150
  647SOL     OW 2839   2.883   2.047   0.546
  647SOL    HW1 2840   2.820   1.970   0.544
  647SOL    HW2 2841   2.884   2.088   0.637
  648SOL     OW 2842   5.589   1.738   4.034
  648SOL    HW1 2843   5.503   1.785   4.014
  648SOL    HW2 2844   5.576   1.677   4.112
  649SOL     OW 2845   2.787   5.852   0.424
  649SOL    HW1 2846   2.765   5.879   0.330
  649SOL    HW2 2847   2.766   5.755   0.437
  650SOL     OW 2848   1.809   3.134   0.923
  650SOL    HW1 2849   1.820   3.036   0.908
  650SOL    HW2 2850   1.719   3.152   0.964
  651SOL     OW 2851   0.399   1.455   3.288
  651SOL    HW1 2852   0.343   1.537   3.284
  651SOL    HW2 2853   0.373   1.392   3.215
  652SOL     OW 2854   3.745   6.048   0.686
  652SOL    HW1 2855   3.841   6.042   0.658
  652SOL    HW2 2856   3.739   6.045   0.786
  653SOL     OW 2857   1.187   0.334   2.563
  653SOL    HW1 2858   1.274   0.285   2.557
  653SOL    HW2 2859   1.195   0.410   2.627
  654SOL     OW 2860   1.147   6.881   6.044
  654SOL    HW1 2861   1.116   6.975   6.055
  654SOL    HW2 2862   1.106   6.841   5.962
  655SOL     OW 2863   0.996   3.642   0.619
  655SOL    HW1 2864   1.052   3.702   0.561
  655SOL    HW2 2865   1.000   3.675   0.714
  656SOL     OW 2866   2.313   0.397   6.934
  656SOL    HW1 2867   2.220   0.420   6.904
  656SOL    HW2 2868   2.332   0.301   6.913
  657SOL     OW 2869   3.762   3.769   4.055
  657SOL    HW1 2870   3.690   3.837   4.044
  657SOL    HW2 2871   3.849   3.808   4.025
  658SOL     OW 2872   1.885   0.493   3.854
  658SOL    HW1 2873   1.975   0.481   3.895
  658SOL    HW2 2874   1.886   0.572   3.793
  659SOL     OW 2875   1.804   6.047   6.805
  659SOL    HW1 2876   1.841   6.135   6.774
  659SOL    HW2 2877   1.857   5.973   6.763
  660SOL     OW 2878   5.292   3.916   2.313
  660SOL    HW1 2879   5.306   3.848   2.240
  660SOL    HW2 2880   5.365   3.984   2.310
  661SOL     OW 2881   4.472   5.325   3.930
  661SOL    HW1 2882   4.571   5.308   3.922
  661SOL    HW2 2883   4.422   5.242   3.906
  662SOL     OW 2884   6.183   3.643   0.118
  662SOL    HW1 2885   6.091   3.608   0.137
  662SOL    HW2 2886   6.200   3.642   0.020
  663SOL     OW 2887   0.916   4.737   6.474
  663SOL    HW1 2888   0.997   4.787   6.443
  663SOL    HW2 2889   0.834   4.785   6.443
  664SOL     OW 2890   1.773   0.111   5.878
  664SOL    HW1 2891   1.776   0.163   5.793
  664SOL    HW2 2892   1.765   0.173   5.956
  665SOL     OW 2893   2.473   4.559   3.246
  665SOL    HW1 2894   2.483   4.595   3.339
  665SOL    HW2 2895   2.548   4.593   3.189
  666SOL     OW 2896   3.570   0.665   6.767
  666SOL    HW1 2897   3.491   0.717   6.737
  666SOL    HW2 2898   3.550   0.567   6.761
  667SOL     OW 2899   1.163   3.156   2.279
  667SOL    HW1 2900   1.065   3.140   2.275
  667SOL    HW2 2901   1.185   3.237   2.224
  668SOL     OW 2902   5.018   0.196   0.775
  668SOL    HW1 2903   5.038   0.247   0.691
  668SOL    HW2 2904   5.103   0.159   0.812
  669SOL     OW 2905   0.253   5.471   2.815
  669SOL    HW1 2906   0.205   5.529   2.881
  669SOL    HW2 2907   0.270   5.523   2.731
  670SOL     OW 2908   3.677   3.941   2.638
  670SOL    HW1 2909   3.720   4.006   2.702
  670SOL    HW2 2910   3.745   3.909   2.572
  671SOL     OW 2911   2.209   0.209   6.294
  671SOL    HW1 2912   2.124   0.165   6.267
  671SOL    HW2 2913   2.285   0.145   6.283
  672SOL     OW 2914   1.204   2.747   3.047
  672SOL    HW1 2915   1.294   2.750   3.091
  672SOL    HW2 2916   1.198   2.666   2.989
  673SOL     OW 2917   4.939   0.161   6.794
  673SOL    HW1 2918   4.900   0.241   6.749
  673SOL    HW2 2919   4.990   0.191   6.875
  674SOL     OW 2920   0.185   2.385   4.822
  674SOL    HW1 2921   0.157   2.408   4.915
  674SOL    HW2 2922   0.125   2.314   4.786
  675SOL     OW 2923   5.780   6.331   4.061
  675SOL    HW1 2924   5.818   6.388   4.133
  675SOL    HW2 2925   5.849   6.265   4.031
  676SOL     OW 2926   2.519   5.293   4.328
  676SOL    HW1 2927   2.468   5.378   4.344
  676SOL    HW2 2928   2.501   5.262   4.235
  677SOL     OW 2929   4.260   6.510   0.049
  677SOL    HW1 2930   4.248   6.549   6.982
  677SOL    HW2 2931   4.175   6.468   0.079
  678SOL     OW 2932   2.187   1.270   5.881
  678SOL    HW1 2933   2.184   1.174   5.910
  678SOL    HW2 2934   2.170   1.275   5.783
  679SOL     OW 2935   6.258   0.303   2.124
  679SOL    HW1 2936   6.339   0.254   2.155
  679SOL    HW2 2937   6.275   0.343   2.033
  680SOL     OW 2938   5.739   4.189   5.025
  680SOL    HW1 2939   5.729   4.091   5.044
  680SOL    HW2 2940   5.752   4.202   4.927
  681SOL     OW 2941   1.047   6.652   2.067
  681SOL    HW1 2942   0.973   6.697   2.118
  681SOL    HW2 2943   1.010   6.574   2.017
  682SOL     OW 2944   0.268   0.508   6.168
  682SOL    HW1 2945   0.236   0.424   6.125
  682SOL    HW2 2946   0.263   0.498   6.267
  683SOL     OW 2947   5.219   1.597   1.773
  683SOL    HW1 2948   5.273   1.666   1.726
  683SOL    HW2 2949   5.279   1.543   1.832
  684SOL     OW 2950   6.989   6.135   6.370
  684SOL    HW1 2951   6.960   6.085   6.289
  684SOL    HW2 2952   6.928   6.113   6.446
  685SOL     OW 2953   6.444   0.717   6.290
  685SOL    HW1 2954   6.423   0.620   6.280
  685SOL    HW2 2955   6.365   0.771   6.261
  686SOL     OW 2956   5.724   5.199   2.243
  686SOL    HW1 2957   5.783   5.123   2.271
  686SOL    HW2 2958   5.689   5.182   2.151
  687SOL     OW 2959   5.599   1.785   5.942
  687SOL    HW1 2960   5.583   1.869   5.994
  687SOL    HW2 2961   5.688   1.748   5.965
  688SOL     OW 2962   6.244   3.119   5.340
  688SOL    HW1 2963   6.237   3.026   5.304
  688SOL    HW2 2964   6.260   3.183   5.265
  689SOL     OW 2965   5.440   4.331   4.432
  689SOL    HW1 2966   5.437   4.394   4.354
  689SOL    HW2 2967   5.393   4.246   4.408
  690SOL     OW 2968   0.100   3.304   4.518
  690SOL    HW1 2969   0.037   3.310   4.441
  690SOL    HW2 2970   0.061   3.244   4.588
  691SOL     OW 2971   7.004   3.088   6.849
  691SOL    HW1 2972   0.028   3.007   6.883
  691SOL    HW2 2973   0.029   3.125   6.770
  692SOL     OW 2974   2.868   0.389   3.305
  692SOL    HW1 2975   2.935   0.458   3.276
  692SOL    HW2 2976   2.788   0.435   3.345
  693SOL     OW 2977   6.544   1.886   3.366
  693SOL    HW1 2978   6.595   1.936   3.435
  693SOL    HW2 2979   6.583   1.904   3.276
  694SOL     OW 2980   1.656   0.494   2.237
  694SOL    HW1 2981   1.561   0.486   2.268
  694SOL    HW2 2982   1.672   0.585   2.199
  695SOL     OW 2983   4.415   5.452   6.450
  695SOL    HW1 2984   4.451   5.387   6.517
  695SOL    HW2 2985   4.404   5.541   6.493
  696SOL     OW 2986   5.403   6.200   2.133
  696SOL    HW1 2987   5.404   6.263   2.056
  696SOL    HW2 2988   5.490   6.205   2.182
  697SOL     OW 2989   1.415   3.677   3.650
  697SOL    HW1 2990   1.397   3.776   3.651
  697SOL    HW2 2991   1.371   3.636   3.570
  698SOL     OW 2992   4.776   5.781   3.975
  698SOL    HW1 2993   4.810   5.810   3.886
  698SOL    HW2 2994   4.708   5.847   4.008
  699SOL     OW 2995   1.046   4.486   6.528
  699SOL    HW1 2996   1.003   4.533   6.451
  699SOL    HW2 2997   1.013   4.392   6.532
  700SOL     OW 2998   1.724   1.749   5.114
  700SOL    HW1 2999   1.744   1.845   5.098
  700SOL    HW2 3000   1.807   1.694   5.102
  701SOL     OW 3001   1.044   4.662   4.918
  701SOL    HW1 3002   1.129   4.609   4.912
  701SOL    HW2 3003   1.061   4.747   4.968
  702SOL     OW 3004   6.145   6.056   5.385
  702SOL    HW1 3005   6.185   5.964   5.388
  702SOL    HW2 3006   6.057   6.055   5.432
  703SOL     OW 3007   5.134   4.390   6.235
  703SOL    HW1 3008   5.155   4.470   6.178
  703SOL    HW2 3009   5.124   4.309   6.176
  704SOL     OW 3010   2.359   6.808   1.874
  704SOL    HW1 3011   2.267   6.813   1.836
  704SOL    HW2 3012   2.354   6.790   1.972
  705SOL     OW 3013   0.790   2.066   3.760
  705SOL    HW1 3014   0.856   2.128   3.717
  705SOL    HW2 3015   0.813   2.054   3.856
  706SOL     OW 3016   5.025   3.268   4.297
  706SOL    HW1 3017   5.061   3.351   4.256
  706SOL    HW2 3018   5.098   3.199   4.304
  707SOL     OW 3019   5.060   2.670   2.819
  707SOL    HW1 3020   5.104   2.739   2.762
  707SOL    HW2 3021   5.049   2.705   2.912
  708SOL     OW 3022   4.341   0.952   2.261
  708SOL    HW1 3023   4.248   0.985   2.240
  708SOL    HW2 3024   4.335   0.878   2.328
  709SOL     OW 3025   1.077   5.325   6.845
  709SOL    HW1 3026   1.159   5.270   6.859
  709SOL    HW2 3027   1.046   5.361   6.934
  710SOL     OW 3028   3.063   3.835   2.787
  710SOL    HW1 3029   3.079   3.902   2.860
  710SOL    HW2 3030   3.146   3.782   2.771
  711SOL     OW 3031   0.368   0.780   4.949
  711SOL    HW1 3032   0.368   0.880   4.946
  711SOL    HW2 3033   0.448   0.748   5.000
  712SOL     OW 3034   0.271   3.757   3.090
  712SOL    HW1 3035   0.198   3.797   3.035
  712SOL    HW2 3036   0.352   3.744   3.033
  713SOL     OW 3037   3.275   3.862   4.735
  713SOL    HW1 3038   3.363   3.878   4.691
  713SOL    HW2 3039   3.290   3.823   4.826
  714SOL     OW 3040   4.804   4.850   5.088
  714SOL    HW1 3041   4.861   4.845   5.006
  714SOL    HW2 3042   4.710   4.822   5.065
  715SOL     OW 3043   5.913   0.076   6.631
  715SOL    HW1 3044   5.821   0.107   6.608
  715SOL    HW2 3045   5.980   0.136   6.588
  716SOL     OW 3046   6.260   5.424   0.686
  716SOL    HW1 3047   6.214   5.343   0.649
  716SOL    HW2 3048   6.277   5.489   0.611
  717SOL     OW 3049   6.311   3.468   6.083
  717SOL    HW1 3050   6.396   3.425   6.111
  717SOL    HW2 3051   6.294   3.448   5.986
  718SOL     OW 3052   2.788   2.670   0.001
  718SOL    HW1 3053   2.844   2.736   0.050
  718SOL    HW2 3054   2.802   2.579   0.039
  719SOL     OW 3055   5.599   4.584   0.197
  719SOL    HW1 3056   5.503   4.567   0.174
  719SOL    HW2 3057   5.641   4.638   0.124
  720SOL     OW 3058   3.985   1.324   5.637
  720SOL    HW1 3059   3.967   1.226   5.623
  720SOL    HW2 3060   4.056   1.335   5.706
  721SOL     OW 3061   1.176   6.953   5.626
  721SOL    HW1 3062   1.267   6.913   5.640
  721SOL    HW2 3063   1.186   0.022   5.590
  722SOL     OW 3064   4.895   0.020   5.093
  722SOL    HW1 3065   4.848   0.078   5.160
  722SOL    HW2 3066   4.828   7.009   5.028
  723SOL     OW 3067   1.354   3.394   1.719
  723SOL    HW1 3068   1.345   3.304   1.678
  723SOL    HW2 3069   1.266   3.441   1.716
  724SOL     OW 3070   0.315   1.619   5.225
  724SOL    HW1 3071   0.372   1.556   5.279
  724SOL    HW2 3072   0.372   1.695   5.193
  725SOL     OW 3073   2.627   5.263   2.403
  725SOL    HW1 3074   2.549   5.214   2.440
  725SOL    HW2 3075   2.665   5.212   2.325
  726SOL     OW 3076   5.343   6.242   5.448
  726SOL    HW1 3077   5.398   6.282   5.521
  726SOL    HW2 3078   5.372   6.280   5.360
  727SOL     OW 3079   2.348   4.322   4.438
  727SOL    HW1 3080   2.304   4.260   4.373
  727SOL    HW2 3081   2.320   4.298   4.531
  728SOL     OW 3082   6.637   2.774   5.781
  728SOL    HW1 3083   6.539   2.777   5.762
  728SOL    HW2 3084   6.660   2.688   5.827
  729SOL     OW 3085   4.285   1.367   0.936
  729SOL    HW1 3086   4.317   1.334   1.024
  729SOL    HW2 3087   4.189   1.395   0.943
  730SOL     OW 3088   5.814   1.595   4.404
  730SOL    HW1 3089   5.868   1.577   4.321
  730SOL    HW2 3090   5.846   1.679   4.447
  731SOL     OW 3091   6.967   2.272   4.210
  731SOL    HW1 3092   6.879   2.312   4.235
  731SOL    HW2 3093   0.013   2.343   4.208
  732SOL     OW 3094   0.426   3.677   3.644
  732SOL    HW1 3095   0.440   3.740   3.567
  732SOL    HW2 3096   0.507   3.675   3.701
  733SOL     OW 3097   4.244   5.128   4.425
  733SOL    HW1 3098   4.210   5.061   4.490
  733SOL    HW2 3099   4.261   5.083   4.337
  734SOL     OW 3100   0.882   5.881   7.015
  734SOL    HW1 3101   0.810   5.863   6.948
  734SOL    HW2 3102   0.962   5.824   6.995
  735SOL     OW 3103   3.040   4.739   6.748
  735SOL    HW1 3104   3.013   4.740   6.651
  735SOL    HW2 3105   3.004   4.657   6.791
  736SOL     OW 3106   5.821   0.669   2.551
  736SOL    HW1 3107   5.858   0.698   2.640
  736SOL    HW2 3108   5.727   0.638   2.563
  737SOL     OW 3109   5.321   4.191   0.111
  737SOL    HW1 3110   5.412   4.159   0.135
  737SOL    HW2 3111   5.311   4.287   0.139
  738SOL     OW 3112   1.043   4.215   3.161
  738SOL    HW1 3113   0.985   4.134   3.156
  738SOL    HW2 3114   0.986   4.296   3.173
  739SOL     OW 3115   4.748   6.648   6.258
  739SOL    HW1 3116   4.730   6.554   6.230
  739SOL    HW2 3117   4.812   6.690   6.195
  740SOL     OW 3118   5.074   6.978   0.187
  740SOL    HW1 3119   5.007   6.962   0.260
  740SOL    HW2 3120   5.147   6.910   0.192
  741SOL     OW 3121   2.572   0.221   3.763
  741SOL    HW1 3122   2.569   0.124   3.736
  741SOL    HW2 3123   2.641   0.234   3.834
  742SOL     OW 3124   1.291   6.720   2.754
  742SOL    HW1 3125   1.247   6.802   2.716
  742SOL    HW2 3126   1.378   6.705   2.708
  743SOL     OW 3127   1.456   3.239   4.031
  743SOL    HW1 3128   1.410   3.287   3.956
  743SOL    HW2 3129   1.452   3.295   4.114
  744SOL     OW 3130   6.516   5.173   0.691
  744SOL    HW1 3131   6.516   5.088   0.743
  744SOL    HW2 3132   6.452   5.165   0.614
  745SOL     OW 3133   1.778   5.721   2.964
  745SOL    HW1 3134   1.721   5.735   2.884
  745SOL    HW2 3135   1.854   5.786   2.963
  746SOL     OW 3136   3.295   0.205   3.065
  746SOL    HW1 3137   3.338   0.238   3.148
  746SOL    HW2 3138   3.199   0.185   3.082
  747SOL     OW 3139   6.424   3.402   1.004
  747SOL    HW1 3140   6.349   3.376   1.065
  747SOL    HW2 3141   6.418   3.500   0.985
  748SOL     OW 3142   3.656   2.876   2.724
  748SOL    HW1 3143   3.680   2.861   2.628
  748SOL    HW2 3144   3.580   2.815   2.749
  749SOL     OW 3145   5.831   2.346   5.160
  749SOL    HW1 3146   5.861   2.370   5.068
  749SOL    HW2 3147   5.805   2.430   5.209
  750SOL     OW 3148   3.053   3.391   1.510
  750SOL    HW1 3149   3.150   3.413   1.509
  750SOL    HW2 3150   3.041   3.292   1.514
  751SOL     OW 3151   5.241   1.512   0.421
  751SOL    HW1 3152   5.235   1.601   0.467
  751SOL    HW2 3153   5.173   1.508   0.348
  752SOL     OW 3154   4.564   1.045   1.762
  752SOL    HW1 3155   4.580   0.958   1.715
  752SOL    HW2 3156   4.569   1.031   1.861
  753SOL     OW 3157   4.065   1.641   2.665
  753SOL    HW1 3158   4.138   1.610   2.605
  753SOL    HW2 3159   3.987   1.672   2.610
  754SOL     OW 3160   5.638   5.795   0.256
  754SOL    HW1 3161   5.646   5.883   0.303
  754SOL    HW2 3162   5.655   5.721   0.321
  755SOL     OW 3163   6.351   5.721   2.719
  755SOL    HW1 3164   6.339   5.776   2.802
  755SOL    HW2 3165   6.296   5.637   2.726
  756SOL     OW 3166   3.245   6.461   3.733
  756SOL    HW1 3167   3.262   6.365   3.709
  756SOL    HW2 3168   3.299   6.484   3.814
  757SOL     OW 3169   6.649   1.192   3.557
  757SOL    HW1 3170   6.606   1.185   3.647
  757SOL    HW2 3171   6.578   1.196   3.487
  758SOL     OW 3172   4.626   2.278   1.041
  758SOL    HW1 3173   4.592   2.199   0.990
  758SOL    HW2 3174   4.720   2.297   1.013
  759SOL     OW 3175   2.044   1.096   1.153
  759SOL    HW1 3176   2.050   1.196   1.149
  759SOL    HW2 3177   2.024   1.060   1.062
  760SOL     OW 3178   4.775   1.972   5.760
  760SOL    HW1 3179   4.677   1.960   5.746
  760SOL    HW2 3180   4.825   1.918   5.692
  761SOL     OW 3181   5.412   0.927   6.740
  761SOL    HW1 3182   5.416   0.914   6.839
  761SOL    HW2 3183   5.493   0.886   6.698
  762SOL     OW 3184   2.118   4.677   4.634
  762SOL    HW1 3185   2.041   4.732   4.601
  762SOL    HW2 3186   2.112   4.666   4.733
  763SOL     OW 3187   6.335   5.249   6.881
  763SOL    HW1 3188   6.311   5.265   6.977
  763SOL    HW2 3189   6.336   5.336   6.832
  764SOL     OW 3190   5.824   1.275   2.965
  764SOL    HW1 3191   5.751   1.321   2.915
  764SOL    HW2 3192   5.792   1.186   2.998
  765SOL     OW 3193   0.274   6.889   3.198
  765SOL    HW1 3194   0.284   6.790   3.190
  765SOL    HW2 3195   0.238   6.912   3.289
  766SOL     OW 3196   6.497   6.616   0.236
  766SOL    HW1 3197   6.561   6.684   0.200
  766SOL    HW2 3198   6.500   6.534   0.179
  767SOL     OW 3199   6.161   6.110   1.608
  767SOL    HW1 3200   6.075   6.075   1.644
  767SOL    HW2 3201   6.153   6.209   1.594
  768SOL     OW 3202   3.127   6.622   4.034
  768SOL    HW1 3203   3.225   6.638   4.026
  768SOL    HW2 3204   3.078   6.707   4.019
  769SOL     OW 3205   3.971   1.017   0.300
  769SOL    HW1 3206   3.913   1.080   0.249
  769SOL    HW2 3207   3.918   0.936   0.325
  770SOL     OW 3208   2.928   4.827   4.368
  770SOL    HW1 3209   2.960   4.907   4.317
  770SOL    HW2 3210   2.851   4.786   4.320
  771SOL     OW 3211   0.816   5.990   4.624
  771SOL    HW1 3212   0.755   5.995   4.545
  771SOL    HW2 3213   0.776   6.041   4.700
  772SOL     OW 3214   0.259   4.329   5.670
  772SOL    HW1 3215   0.308   4.245   5.695
  772SOL    HW2 3216   0.265   4.343   5.571
  773SOL     OW 3217   0.136   3.257   2.310
  773SOL    HW1 3218   0.066   3.186   2.314
  773SOL    HW2 3219   0.107   3.335   2.366
  774SOL     OW 3220   1.713   0.932   1.692
  774SOL    HW1 3221   1.691   0.872   1.769
  774SOL    HW2 3222   1.646   0.916   1.618
  775SOL     OW 3223   1.511   2.570   4.230
  775SOL    HW1 3224   1.576   2.636   4.268
  775SOL    HW2 3225   1.480   2.602   4.140
  776SOL     OW 3226   1.829   0.426   5.024
  776SOL    HW1 3227   1.901   0.368   5.062
  776SOL    HW2 3228   1.755   0.435   5.091
  777SOL     OW 3229   4.387   6.863   6.649
  777SOL    HW1 3230   4.292   6.860   6.618
  777SOL    HW2 3231   4.397   6.807   6.731
  778SOL     OW 3232   4.266   5.278   4.948
  778SOL    HW1 3233   4.167   5.277   4.939
  778SOL    HW2 3234   4.308   5.291   4.858
  779SOL     OW 3235   0.759   0.456   2.270
  779SOL    HW1 3236   0.824   0.401   2.321
  779SOL    HW2 3237   0.808   0.526   2.219
  780SOL     OW 3238   5.506   2.576   4.823
  780SOL    HW1 3239   5.492   2.623   4.910
  780SOL    HW2 3240   5.560   2.634   4.762
  781SOL     OW 3241   0.442   2.669   6.562
  781SOL    HW1 3242   0.536   2.693   6.586
  781SOL    HW2 3243   0.429   2.570   6.574
  782SOL     OW 3244   0.132   4.817   0.440
  782SOL    HW1 3245   0.138   4.718   0.453
  782SOL    HW2 3246   0.048   4.840   0.392
  783SOL     OW 3247   2.003   4.713   0.033
  783SOL    HW1 3248   1.934   4.665   0.087
  783SOL    HW2 3249   2.086   4.657   0.028
  784SOL     OW 3250   5.129   4.822   3.286
  784SOL    HW1 3251   5.098   4.891   3.351
  784SOL    HW2 3252   5.196   4.763   3.330
  785SOL     OW 3253   6.252   2.346   4.137
  785SOL    HW1 3254   6.340   2.309   4.167
  785SOL    HW2 3255   6.259   2.376   4.042
  786SOL     OW 3256   6.145   6.706   0.479
  786SOL    HW1 3257   6.094   6.790   0.494
  786SOL    HW2 3258   6.149   6.653   0.563
  787SOL     OW 3259   4.536   0.874   6.812
  787SOL    HW1 3260   4.527   0.972   6.795
  787SOL    HW2 3261   4.602   0.835   6.748
  788SOL     OW 3262   0.830   4.386   3.182
  788SOL    HW1 3263   0.808   4.444   3.104
  788SOL    HW2 3264   0.786   4.422   3.264
  789SOL     OW 3265   5.412   2.706   0.899
  789SOL    HW1 3266   5.355   2.762   0.959
  789SOL    HW2 3267   5.493   2.676   0.948
  790SOL     OW 3268   3.420   0.429   3.764
  790SOL    HW1 3269   3.388   0.368   3.691
  790SOL    HW2 3270   3.520   0.427   3.767
  791SOL     OW 3271   4.224   1.616   5.230
  791SOL    HW1 3272   4.240   1.527   5.187
  791SOL    HW2 3273   4.275   1.686   5.180
  792SOL     OW 3274   5.129   0.548   3.473
  792SOL    HW1 3275   5.149   0.622   3.536
  792SOL    HW2 3276   5.150   0.460   3.516
  793SOL     OW 3277   6.995   0.329   6.472
  793SOL    HW1 3278   6.962   0.406   6.526
  793SOL    HW2 3279   6.945   0.325   6.385
  794SOL     OW 3280   3.450   4.626   5.337
  794SOL    HW1 3281   3.544   4.619   5.371
  794SOL    HW2 3282   3.387   4.590   5.406
  795SOL     OW 3283   5.024   5.127   6.774
  795SOL    HW1 3284   5.108   5.179   6.791
  795SOL    HW2 3285   4.950   5.190   6.751
  796SOL     OW 3286   0.589   1.178   5.555
  796SOL    HW1 3287   0.681   1.217   5.550
  796SOL    HW2 3288   0.521   1.248   5.534
  797SOL     OW 3289   6.109   2.894   5.590
  797SOL    HW1 3290   6.084   2.857   5.500
  797SOL    HW2 3291   6.128   2.991   5.582
  798SOL     OW 3292   6.684   0.906   4.878
  798SOL    HW1 3293   6.690   0.937   4.783
  798SOL    HW2 3294   6.749   0.832   4.894
  799SOL     OW 3295   6.820   3.683   3.311
  799SOL    HW1 3296   6.904   3.735   3.299
  799SOL    HW2 3297   6.841   3.594   3.351
  800SOL     OW 3298   6.964   1.388   2.113
  800SOL    HW1 3299   0.003   1.390   2.191
  800SOL    HW2 3300   6.876   1.352   2.142
  801SOL     OW 3301   0.337   2.539   3.991
  801SOL    HW1 3302   0.414   2.517   4.050
  801SOL    HW2 3303   0.365   2.533   3.896
  802SOL     OW 3304   6.456   1.557   1.817
  802SOL    HW1 3305   6.358   1.557   1.837
  802SOL    HW2 3306   6.505   1.503   1.886
  803SOL     OW 3307   1.507   0.125   4.724
  803SOL    HW1 3308   1.513   0.220   4.692
  803SOL    HW2 3309   1.590   0.076   4.699
  804SOL     OW 3310   6.352   6.647   0.897
  804SOL    HW1 3311   6.430   6.665   0.956
  804SOL    HW2 3312   6.353   6.709   0.819
  805SOL     OW 3313   1.854   3.151   5.321
  805SOL    HW1 3314   1.856   3.205   5.405
  805SOL    HW2 3315   1.864   3.211   5.242
  806SOL     OW 3316   4.866   0.437   0.419
  806SOL    HW1 3317   4.897   0.464   0.328
  806SOL    HW2 3318   4.838   0.341   0.418
  807SOL     OW 3319   0.987   6.961   2.746
  807SOL    HW1 3320   0.899   6.919   2.724
  807SOL    HW2 3321   0.985   6.994   2.840
  808SOL     OW 3322   6.015   4.047   5.089
  808SOL    HW1 3323   6.087   4.026   5.155
  808SOL    HW2 3324   6.052   4.040   4.996
  809SOL     OW 3325   0.606   5.859   6.161
  809SOL    HW1 3326   0.685   5.855   6.223
  809SOL    HW2 3327   0.635   5.835   6.068
  810SOL     OW 3328   6.630   5.504   6.328
  810SOL    HW1 3329   6.684   5.449   6.265
  810SOL    HW2 3330   6.608   5.591   6.286
  811SOL     OW 3331   3.664   5.163   3.299
  811SOL    HW1 3332   3.764   5.172   3.293
  811SOL    HW2 3333   3.634   5.185   3.392
  812SOL     OW 3334   6.894   0.412   2.646
  812SOL    HW1 3335   6.943   0.497   2.626
  812SOL    HW2 3336   6.796   0.431   2.653
  813SOL     OW 3337   5.435   5.441   1.908
  813SOL    HW1 3338   5.509   5.498   1.871
  813SOL    HW2 3339   5.363   5.430   1.840
  814SOL     OW 3340   5.159   5.517   1.055
  814SOL    HW1 3341   5.184   5.422   1.034
  814SOL    HW2 3342   5.096   5.519   1.133
  815SOL     OW 3343   0.932   1.214   0.532
  815SOL    HW1 3344   0.883   1.301   0.535
  815SOL    HW2 3345   0.877   1.143   0.577
  816SOL     OW 3346   5.343   0.400   1.647
  816SOL    HW1 3347   5.359   0.443   1.558
  816SOL    HW2 3348   5.429   0.360   1.680
  817SOL     OW 3349   0.799   2.166   2.001
  817SOL    HW1 3350   0.775   2.262   2.016
  817SOL    HW2 3351   0.791   2.116   2.088
  818SOL     OW 3352   5.159   1.483   2.741
  818SOL    HW1 3353   5.169   1.564   2.798
  818SOL    HW2 3354   5.062   1.459   2.734
  819SOL     OW 3355   6.964   5.255   2.161
  819SOL    HW1 3356   6.992   5.226   2.252
  819SOL    HW2 3357   6.997   5.188   2.094
  820SOL     OW 3358   1.499   2.758   4.823
  820SOL    HW1 3359   1.578   2.721   4.873
  820SOL    HW2 3360   1.522   2.765   4.726
  821SOL     OW 3361   1.112   4.093   0.452
  821SOL    HW1 3362   1.167   4.072   0.371
  821SOL    HW2 3363   1.172   4.121   0.527
  822SOL     OW 3364   1.266   3.292   4.446
  822SOL    HW1 3365   1.239   3.385   4.468
  822SOL    HW2 3366   1.189   3.230   4.464
  823SOL     OW 3367   3.371   3.855   1.612
  823SOL    HW1 3368   3.408   3.774   1.657
  823SOL    HW2 3369   3.445   3.904   1.565
  824SOL     OW 3370   6.247   2.311   6.194
  824SOL    HW1 3371   6.175   2.349   6.252
  824SOL    HW2 3372   6.259   2.368   6.113
  825SOL     OW 3373   1.187   3.588   1.331
  825SOL    HW1 3374   1.183   3.601   1.430
  825SOL    HW2 3375   1.105   3.540   1.300
  826SOL     OW 3376   1.573   3.780   5.909
  826SOL    HW1 3377   1.571   3.877   5.933
  826SOL    HW2 3378   1.503   3.731   5.961
  827SOL     OW 3379   3.247   4.869   1.122
  827SOL    HW1 3380   3.148   4.869   1.128
  827SOL    HW2 3381   3.276   4.928   1.046
  828SOL     OW 3382   6.263   0.558   5.978
  828SOL    HW1 3383   6.355   0.569   5.940
  828SOL    HW2 3384   6.231   0.646   6.013
  829SOL     OW 3385   3.466   3.380   5.486
  829SOL    HW1 3386   3.471   3.311   5.414
  829SOL    HW2 3387   3.394   3.356   5.551
  830SOL     OW 3388   4.460   3.569   5.941
  830SOL    HW1 3389   4.540   3.509   5.932
  830SOL    HW2 3390   4.381   3.526   5.899
  831SOL     OW 3391   5.840   0.350   4.453
  831SOL    HW1 3392   5.932   0.314   4.437
  831SOL    HW2 3393   5.831   0.377   4.549
  832SOL     OW 3394   2.386   1.657   5.867
  832SOL    HW1 3395   2.379   1.757   5.874
  832SOL    HW2 3396   2.295   1.619   5.847
  833SOL     OW 3397   1.203   0.670   5.697
  833SOL    HW1 3398   1.266   0.747   5.699
  833SOL    HW2 3399   1.110   0.703   5.714
  834SOL     OW 3400   3.148   4.565   5.886
  834SOL    HW1 3401   3.117   4.639   5.947
  834SOL    HW2 3402   3.069   4.514   5.854
  835SOL     OW 3403   3.835   0.965   2.963
  835SOL    HW1 3404   3.833   1.037   2.893
  835SOL    HW2 3405   3.880   1.000   3.045
  836SOL     OW 3406   2.604   0.930   6.645
  836SOL    HW1 3407   2.650   0.977   6.721
  836SOL    HW2 3408   2.506   0.949   6.648
  837SOL     OW 3409   4.197   1.693   4.907
  837SOL    HW1 3410   4.257   1.764   4.945
  837SOL    HW2 3411   4.217   1.682   4.810
  838SOL     OW 3412   1.106   6.351   2.463
  838SOL    HW1 3413   1.066   6.443   2.466
  838SOL    HW2 3414   1.126   6.320   2.555
  839SOL     OW 3415   2.986   1.457   1.840
  839SOL    HW1 3416   3.080   1.431   1.816
  839SOL    HW2 3417   2.924   1.382   1.816
  840SOL     OW 3418   0.851   1.286   5.638
  840SOL    HW1 3419   0.901   1.321   5.717
  840SOL    HW2 3420   0.907   1.295   5.556
  841SOL     OW 3421   0.330   3.599   1.199
  841SOL    HW1 3422   0.427   3.582   1.179
  841SOL    HW2 3423   0.321   3.633   1.292
  842SOL     OW 3424   3.284   5.021   4.056
  842SOL    HW1 3425   3.330   5.072   3.983
  842SOL    HW2 3426   3.352   4.979   4.115
  843SOL     OW 3427   6.962   3.679   2.193
  843SOL    HW1 3428   6.921   3.595   2.227
  843SOL    HW2 3429   7.021   3.658   2.115
  844SOL     OW 3430   5.655   4.741   6.977
  844SOL    HW1 3431   5.636   4.837   6.999
  844SOL    HW2 3432   5.716   4.736   6.898
  845SOL     OW 3433   2.079   4.996   5.809
  845SOL    HW1 3434   2.166   4.969   5.769
  845SOL    HW2 3435   2.004   4.962   5.752
  846SOL     OW 3436   4.408   2.506   6.979
  846SOL    HW1 3437   4.326   2.559   6.999
  846SOL    HW2 3438   4.467   2.557   6.918
  847SOL     OW 3439   5.331   3.762   2.082
  847SOL    HW1 3440   5.352   3.807   1.995
  847SOL    HW2 3441   5.236   3.734   2.083
  848SOL     OW 3442   6.108   6.928   5.184
  848SOL    HW1 3443   6.171   6.997   5.221
  848SOL    HW2 3444   6.108   6.848   5.243
  849SOL     OW 3445   0.986   5.641   4.113
  849SOL    HW1 3446   1.017   5.667   4.204
  849SOL    HW2 3447   0.916   5.570   4.120
  850SOL     OW 3448   3.919   0.573   3.351
  850SOL    HW1 3449   3.847   0.503   3.360
  850SOL    HW2 3450   4.006   0.529   3.331
  851SOL     OW 3451   6.910   0.592   5.547
  851SOL    HW1 3452   6.823   0.639   5.531
  851SOL    HW2 3453   6.953   0.629   5.630
  852SOL     OW 3454   2.822   4.549   5.586
  852SOL    HW1 3455   2.827   4.647   5.608
  852SOL    HW2 3456   2.728   4.524   5.565
  853SOL     OW 3457   0.674   4.193   0.656
  853SOL    HW1 3458   0.740   4.260   0.624
  853SOL    HW2 3459   0.714   4.101   0.647
  854SOL     OW 3460   6.249   5.448   1.383
  854SOL    HW1 3461   6.290   5.456   1.474
  854SOL    HW2 3462   6.157   5.487   1.384
  855SOL     OW 3463   5.285   0.404   0.767
  855SOL    HW1 3464   5.371   0.437   0.730
  855SOL    HW2 3465   5.221   0.388   0.692
  856SOL     OW 3466   1.529   0.550   5.154
  856SOL    HW1 3467   1.540   0.649   5.159
  856SOL    HW2 3468   1.485   0.525   5.068
  857SOL     OW 3469   5.310   3.363   1.424
  857SOL    HW1 3470   5.260   3.427   1.482
  857SOL    HW2 3471   5.282   3.270   1.444
  858SOL     OW 3472   3.875   3.641   2.048
  858SOL    HW1 3473   3.779   3.630   2.074
  858SOL    HW2 3474   3.921   3.552   2.052
  859SOL     OW 3475   0.238   4.350   0.801
  859SOL    HW1 3476   0.257   4.426   0.738
  859SOL    HW2 3477   0.232   4.384   0.894
  860SOL     OW 3478   1.644   4.011   6.531
  860SOL    HW1 3479   1.732   4.057   6.536
  860SOL    HW2 3480   1.643   3.931   6.591
  861SOL     OW 3481   3.756   4.200   5.831
  861SOL    HW1 3482   3.836   4.234   5.880
  861SOL    HW2 3483   3.740   4.257   5.749
  862SOL     OW 3484   4.548   4.480   2.956
  862SOL    HW1 3485   4.596   4.392   2.956
  862SOL    HW2 3486   4.579   4.534   2.878
  863SOL     OW 3487   5.727   2.384   1.231
  863SOL    HW1 3488   5.771   2.313   1.177
  863SOL    HW2 3489   5.628   2.371   1.229
  864SOL     OW 3490   0.368   5.223   2.879
  864SOL    HW1 3491   0.322   5.310   2.864
  864SOL    HW2 3492   0.447   5.236   2.938
  865SOL     OW 3493   2.056   1.008   3.775
  865SOL    HW1 3494   2.012   1.061   3.703
  865SOL    HW2 3495   2.143   0.972   3.741
  866SOL     OW 3496   4.827   0.925   1.089
  866SOL    HW1 3497   4.789   0.905   1.179
  866SOL    HW2 3498   4.805   0.850   1.026
  867SOL     OW 3499   2.455   1.703   6.494
  867SOL    HW1 3500   2.516   1.759   6.550
  867SOL    HW2 3501   2.508   1.656   6.424
  868SOL     OW 3502   5.401   2.445   3.233
  868SOL    HW1 3503   5.346   2.390   3.295
  868SOL    HW2 3504   5.376   2.424   3.138
  869SOL     OW 3505   6.534   3.774   1.196
  869SOL    HW1 3506   6.485   3.772   1.283
  869SOL    HW2 3507   6.630   3.798   1.213
  870SOL     OW 3508   6.359   2.117   0.494
  870SOL    HW1 3509   6.416   2.125   0.413
  870SOL    HW2 3510   6.382   2.033   0.544
  871SOL     OW 3511   6.197   4.575   0.580
  871SOL    HW1 3512   6.146   4.511   0.522
  871SOL    HW2 3513   6.295   4.562   0.564
  872SOL     OW 3514   0.114   1.920   1.846
  872SOL    HW1 3515   0.070   1.860   1.912
  872SOL    HW2 3516   0.210   1.894   1.836
  873SOL     OW 3517   3.658   6.917   4.844
  873SOL    HW1 3518   3.660   6.892   4.747
  873SOL    HW2 3519   3.567   6.899   4.881
  874SOL     OW 3520   0.680   4.100   6.569
  874SOL    HW1 3521   0.676   4.183   6.513
  874SOL    HW2 3522   0.720   4.026   6.515
  875SOL     OW 3523   6.516   5.743   6.203
  875SOL    HW1 3524   6.544   5.721   6.109
  875SOL    HW2 3525   6.428   5.699   6.222
  876SOL     OW 3526   2.003   2.086   1.405
  876SOL    HW1 3527   1.953   2.093   1.319
  876SOL    HW2 3528   1.965   2.011   1.459
  877SOL     OW 3529   5.390   5.782   6.559
  877SOL    HW1 3530   5.437   5.825   6.635
  877SOL    HW2 3531   5.408   5.833   6.475
  878SOL     OW 3532   3.870   2.797   0.881
  878SOL    HW1 3533   3.796   2.766   0.941
  878SOL    HW2 3534   3.855   2.892   0.855
  879SOL     OW 3535   4.816   3.061   3.382
  879SOL    HW1 3536   4.751   3.007   3.329
  879SOL    HW2 3537   4.777   3.081   3.472
  880SOL     OW 3538   4.207   5.633   1.494
  880SOL    HW1 3539   4.271   5.578   1.439
  880SOL    HW2 3540   4.236   5.729   1.492
  881SOL     OW 3541   4.889   4.449   2.859
  881SOL    HW1 3542   4.883   4.491   2.768
  881SOL    HW2 3543   4.892   4.521   2.928
  882SOL     OW 3544   0.654   2.074   4.603
  882SOL    HW1 3545   0.741   2.027   4.587
  882SOL    HW2 3546   0.652   2.111   4.696
  883SOL     OW 3547   3.278   4.879   6.995
  883SOL    HW1 3548   3.241   4.896   0.062
  883SOL    HW2 3549   3.288   4.965   6.946
  884SOL     OW 3550   3.961   4.184   1.709
  884SOL    HW1 3551   3.966   4.262   1.646
  884SOL    HW2 3552   3.871   4.142   1.703
  885SOL     OW 3553   4.833   5.982   5.453
  885SOL    HW1 3554   4.793   5.984   5.362
  885SOL    HW2 3555   4.932   5.978   5.447
  886SOL     OW 3556   3.672   2.225   6.623
  886SOL    HW1 3557   3.662   2.323   6.603
  886SOL    HW2 3558   3.767   2.198   6.608
  887SOL     OW 3559   5.922   6.006   4.909
  887SOL    HW1 3560   5.849   5.957   4.860
  887SOL    HW2 3561   5.891   6.027   5.002
  888SOL     OW 3562   6.227   0.492   3.357
  888SOL    HW1 3563   6.160   0.461   3.424
  888SOL    HW2 3564   6.253   0.587   3.377
  889SOL     OW 3565   0.664   0.255   4.437
  889SOL    HW1 3566   0.573   0.292   4.421
  889SOL    HW2 3567   0.657   0.160   4.467
  890SOL     OW 3568   1.624   3.994   1.809
  890SOL    HW1 3569   1.661   4.051   1.883
  890SOL    HW2 3570   1.583   3.912   1.849
  891SOL     OW 3571   6.001   3.607   6.729
  891SOL    HW1 3572   5.960   3.525   6.689
  891SOL    HW2 3573   5.981   3.686   6.670
  892SOL     OW 3574   2.129   5.522   1.713
  892SOL    HW1 3575   2.050   5.501   1.655
  892SOL    HW2 3576   2.160   5.616   1.696
  893SOL     OW 3577   2.098   0.592   2.239
  893SOL    HW1 3578   2.160   0.516   2.260
  893SOL    HW2 3579   2.005   0.567   2.265
  894SOL     OW 3580   1.483   5.516   4.721
  894SOL    HW1 3581   1.402   5.530   4.778
  894SOL    HW2 3582   1.554   5.470   4.774
  895SOL     OW 3583   2.313   0.541   4.561
  895SOL    HW1 3584   2.283   0.602   4.635
  895SOL    HW2 3585   2.281   0.577   4.473
  896SOL     OW 3586   5.250   6.288   3.499
  896SOL    HW1 3587   5.319   6.361   3.497
  896SOL    HW2 3588   5.296   6.200   3.513
  897SOL     OW 3589   5.796   1.284   6.181
  897SOL    HW1 3590   5.853   1.307   6.260
  897SOL    HW2 3591   5.731   1.358   6.163
  898SOL     OW 3592   5.140   6.654   3.501
  898SOL    HW1 3593   5.062   6.595   3.481
  898SOL    HW2 3594   5.174   6.695   3.417
  899SOL     OW 3595   1.609   4.799   0.176
  899SOL    HW1 3596   1.669   4.872   0.209
  899SOL    HW2 3597   1.615   4.794   0.076
  900SOL     OW 3598   0.530   5.316   3.325
  900SOL    HW1 3599   0.549   5.221   3.349
  900SOL    HW2 3600   0.435   5.323   3.294
  901SOL     OW 3601   6.104   2.060   3.624
  901SOL    HW1 3602   6.097   2.151   3.584
  901SOL    HW2 3603   6.115   2.068   3.723
  902SOL     OW 3604   1.333   6.363   0.234
  902SOL    HW1 3605   1.395   6.344   0.310
  902SOL    HW2 3606   1.341   6.291   0.165
  903SOL     OW 3607   0.494   5.032   6.331
  903SOL    HW1 3608   0.408   5.014   6.283
  903SOL    HW2 3609   0.543   5.106   6.286
  904SOL     OW 3610   2.208   1.047   4.323
  904SOL    HW1 3611   2.248   1.056   4.414
  904SOL    HW2 3612   2.281   1.051   4.254
  905SOL     OW 3613   5.940   3.178   3.900
  905SOL    HW1 3614   5.905   3.157   3.808
  905SOL    HW2 3615   5.927   3.275   3.919
  906SOL     OW 3616   6.449   3.803   5.517
  906SOL    HW1 3617   6.457   3.774   5.422
  906SOL    HW2 3618   6.456   3.902   5.522
  907SOL     OW 3619   0.385   3.378   2.238
  907SOL    HW1 3620   0.318   3.312   2.273
  907SOL    HW2 3621   0.450   3.400   2.310
  908SOL     OW 3622   2.508   1.195   3.744
  908SOL    HW1 3623   2.545   1.247   3.667
  908SOL    HW2 3624   2.528   1.098   3.731
  909SOL     OW 3625   4.205   6.419   1.211
  909SOL    HW1 3626   4.209   6.340   1.149
  909SOL    HW2 3627   4.270   6.489   1.181
  910SOL     OW 3628   1.701   1.199   1.901
  910SOL    HW1 3629   1.794   1.234   1.893
  910SOL    HW2 3630   1.677   1.151   1.816
  911SOL     OW 3631   0.618   3.560   0.855
  911SOL    HW1 3632   0.565   3.480   0.882
  911SOL    HW2 3633   0.714   3.547   0.879
  912SOL     OW 3634   1.712   1.267   6.898
  912SOL    HW1 3635   1.639   1.231   6.841
  912SOL    HW2 3636   1.787   1.299   6.840
  913SOL     OW 3637   2.111   1.753   2.633
  913SOL    HW1 3638   2.034   1.694   2.659
  913SOL    HW2 3639   2.104   1.840   2.681
  914SOL     OW 3640   2.598   5.153   1.899
  914SOL    HW1 3641   2.516   5.139   1.953
  914SOL    HW2 3642   2.573   5.188   1.808
  915SOL     OW 3643   2.417   2.270   0.932
  915SOL    HW1 3644   2.358   2.351   0.940
  915SOL    HW2 3645   2.383   2.210   0.860
  916SOL     OW 3646   1.199   3.302   2.508
  916SOL    HW1 3647   1.161   3.221   2.463
  916SOL    HW2 3648   1.227   3.279   2.601
  917SOL     OW 3649   3.857   0.922   6.070
  917SOL    HW1 3650   3.950   0.904   6.037
  917SOL    HW2 3651   3.814   0.836   6.097
  918SOL     OW 3652   0.404   2.094   4.510
  918SOL    HW1 3653   0.489   2.069   4.556
  918SOL    HW2 3654   0.401   2.052   4.419
  919SOL     OW 3655   1.504   0.361   0.968
  919SOL    HW1 3656   1.564   0.410   1.032
  919SOL    HW2 3657   1.471   0.277   1.011
  920SOL     OW 3658   1.488   1.500   3.125
  920SOL    HW1 3659   1.420   1.572   3.113
  920SOL    HW2 3660   1.578   1.542   3.143
  921SOL     OW 3661   3.831   4.518   0.153
  921SOL    HW1 3662   3.795   4.429   0.182
  921SOL    HW2 3663   3.891   4.554   0.225
  922SOL     OW 3664   2.532   6.018   7.004
  922SOL    HW1 3665   2.544   6.070   0.064
  922SOL    HW2 3666   2.434   6.010   6.983
  923SOL     OW 3667   4.171   1.132   0.045
  923SOL    HW1 3668   4.164   1.216   0.100
  923SOL    HW2 3669   4.203   1.057   0.102
  924SOL     OW 3670   5.898   4.763   2.371
  924SOL    HW1 3671   5.847   4.683   2.341
  924SOL    HW2 3672   5.884   4.838   2.306
  925SOL     OW 3673   6.747   2.106   2.359
  925SOL    HW1 3674   6.741   2.200   2.326
  925SOL    HW2 3675   6.817   2.100   2.430
  926SOL     OW 3676   3.712   6.014   1.616
  926SOL    HW1 3677   3.759   5.952   1.553
  926SOL    HW2 3678   3.712   6.106   1.578
  927SOL     OW 3679   4.508   5.367   4.773
  927SOL    HW1 3680   4.505   5.295   4.841
  927SOL    HW2 3681   4.513   5.327   4.681
  928SOL     OW 3682   0.234   1.678   1.655
  928SOL    HW1 3683   0.254   1.644   1.747
  928SOL    HW2 3684   0.135   1.683   1.642
  929SOL     OW 3685   0.114   2.139   2.295
  929SOL    HW1 3686   0.061   2.219   2.326
  929SOL    HW2 3687   0.081   2.111   2.205
  930SOL     OW 3688   6.217   5.106   2.118
  930SOL    HW1 3689   6.238   5.196   2.079
  930SOL    HW2 3690   6.242   5.104   2.215
  931SOL     OW 3691   1.025   2.943   1.720
  931SOL    HW1 3692   1.122   2.968   1.717
  931SOL    HW2 3693   0.992   2.928   1.627
  932SOL     OW 3694   4.714   5.869   1.418
  932SOL    HW1 3695   4.635   5.810   1.434
  932SOL    HW2 3696   4.705   5.952   1.474
  933SOL     OW 3697   1.018   6.376   3.424
  933SOL    HW1 3698   1.050   6.342   3.336
  933SOL    HW2 3699   0.936   6.325   3.452
  934SOL     OW 3700   3.190   1.473   5.439
  934SOL    HW1 3701   3.179   1.570   5.418
  934SOL    HW2 3702   3.279   1.458   5.481
  935SOL     OW 3703   1.400   3.894   4.361
  935SOL    HW1 3704   1.397   3.804   4.403
  935SOL    HW2 3705   1.356   3.891   4.270
  936SOL     OW 3706   1.103   1.483   1.950
  936SOL    HW1 3707   1.065   1.398   1.987
  936SOL    HW2 3708   1.202   1.476   1.946
  937SOL     OW 3709   4.924   2.139   3.602
  937SOL    HW1 3710   4.911   2.230   3.564
  937SOL    HW2 3711   4.960   2.147   3.695
  938SOL     OW 3712   0.486   0.957   6.378
  938SOL    HW1 3713   0.442   0.993   6.296
  938SOL    HW2 3714   0.569   0.907   6.352
  939SOL     OW 3715   6.090   0.971   4.588
  939SOL    HW1 3716   6.169   0.922   4.552
  939SOL    HW2 3717   6.041   0.913   4.653
  940SOL     OW 3718   6.600   0.490   3.859
  940SOL    HW1 3719   6.641   0.542   3.933
  940SOL    HW2 3720   6.667   0.475   3.786
  941SOL     OW 3721   5.910   2.594   5.493
  941SOL    HW1 3722   5.873   2.559   5.407
  941SOL    HW2 3723   5.844   2.575   5.567
  942SOL     OW 3724   4.577   0.036   5.272
  942SOL    HW1 3725   4.542   7.010   5.193
  942SOL    HW2 3726   4.520   0.017   5.352
  943SOL     OW 3727   5.171   2.477   0.194
  943SOL    HW1 3728   5.075   2.474   0.223
  943SOL    HW2 3729   5.229   2.496   0.273
  944SOL     OW 3730   4.986   4.203   4.003
  944SOL    HW1 3731   4.994   4.217   3.905
  944SOL    HW2 3732   4.930   4.123   4.022
  945SOL     OW 3733   5.875   3.397   6.622
  945SOL    HW1 3734   5.800   3.428   6.680
  945SOL    HW2 3735   5.894   3.301   6.641
  946SOL     OW 3736   6.242   3.602   6.879
  946SOL    HW1 3737   6.286   3.516   6.852
  946SOL    HW2 3738   6.159   3.615   6.825
  947SOL     OW 3739   0.843   2.860   5.216
  947SOL    HW1 3740   0.922   2.803   5.239
  947SOL    HW2 3741   0.857   2.952   5.251
  948SOL     OW 3742   3.596   1.496   0.703
  948SOL    HW1 3743   3.658   1.564   0.743
  948SOL    HW2 3744   3.569   1.431   0.774
  949SOL     OW 3745   5.294   6.322   6.216
  949SOL    HW1 3746   5.252   6.348   6.303
  949SOL    HW2 3747   5.347   6.398   6.180
  950SOL     OW 3748   3.481   5.249   1.007
  950SOL    HW1 3749   3.526   5.171   0.966
  950SOL    HW2 3750   3.390   5.223   1.038
  951SOL     OW 3751   1.399   2.906   3.890
  951SOL    HW1 3752   1.396   2.912   3.990
  951SOL    HW2 3753   1.459   2.977   3.854
  952SOL     OW 3754   4.982   1.253   1.199
  952SOL    HW1 3755   5.003   1.183   1.130
  952SOL    HW2 3756   4.898   1.301   1.173
  953SOL     OW 3757   4.564   6.472   5.906
  953SOL    HW1 3758   4.467   6.449   5.903
  953SOL    HW2 3759   4.574   6.568   5.933
  954SOL     OW 3760   6.257   0.272   1.303
  954SOL    HW1 3761   6.190   0.330   1.257
  954SOL    HW2 3762   6.301   0.212   1.236
  955SOL     OW 3763   0.835   5.910   2.837
  955SOL    HW1 3764   0.827   5.990   2.778
  955SOL    HW2 3765   0.783   5.927   2.921
  956SOL     OW 3766   1.575   2.901   0.844
  956SOL    HW1 3767   1.527   2.869   0.763
  956SOL    HW2 3768   1.667   2.932   0.819
  957SOL     OW 3769   1.972   6.766   4.876
  957SOL    HW1 3770   1.905   6.700   4.844
  957SOL    HW2 3771   1.925   6.840   4.925
  958SOL     OW 3772   4.617   2.630   6.802
  958SOL    HW1 3773   4.634   2.545   6.753
  958SOL    HW2 3774   4.681   2.640   6.877
  959SOL     OW 3775   1.612   3.785   0.688
  959SOL    HW1 3776   1.662   3.698   0.695
  959SOL    HW2 3777   1.552   3.782   0.608
  960SOL     OW 3778   1.699   4.666   5.811
  960SOL    HW1 3779   1.668   4.571   5.817
  960SOL    HW2 3780   1.620   4.727   5.812
  961SOL     OW 3781   3.324   6.625   6.895
  961SOL    HW1 3782   3.261   6.608   6.820
  961SOL    HW2 3783   3.361   6.539   6.928
  962SOL     OW 3784   1.079   0.344   3.340
  962SOL    HW1 3785   1.105   0.248   3.341
  962SOL    HW2 3786   1.135   0.393   3.273
  963SOL     OW 3787   5.711   0.004   2.080
  963SOL    HW1 3788   5.764   0.033   2.160
  963SOL    HW2 3789   5.644   0.074   2.057
  964SOL     OW 3790   5.944   3.919   1.574
  964SOL    HW1 3791   5.912   3.879   1.660
  964SOL    HW2 3792   5.881   3.895   1.500
  965SOL     OW 3793   1.843   1.655   0.497
  965SOL    HW1 3794   1.871   1.685   0.588
  965SOL    HW2 3795   1.787   1.726   0.454
  966SOL     OW 3796   6.391   2.674   2.498
  966SOL    HW1 3797   6.445   2.654   2.416
  966SOL    HW2 3798   6.305   2.623   2.494
  967SOL     OW 3799   1.203   5.455   2.687
  967SOL    HW1 3800   1.203   5.525   2.615
  967SOL    HW2 3801   1.123   5.468   2.746
  968SOL     OW 3802   6.708   4.342   0.216
  968SOL    HW1 3803   6.805   4.361   0.232
  968SOL    HW2 3804   6.690   4.336   0.118
  969SOL     OW 3805   4.068   6.130   6.260
  969SOL    HW1 3806   4.071   6.042   6.306
  969SOL    HW2 3807   4.076   6.203   6.328
  970SOL     OW 3808   5.366   3.305   6.042
  970SOL    HW1 3809   5.352   3.393   5.995
  970SOL    HW2 3810   5.316   3.306   6.129
  971SOL     OW 3811   0.250   2.702   0.075
  971SOL    HW1 3812   0.277   2.712   0.170
  971SOL    HW2 3813   0.210   2.611   0.061
  972SOL     OW 3814   4.884   6.891   0.401
  972SOL    HW1 3815   4.902   6.809   0.346
  972SOL    HW2 3816   4.861   6.863   0.494
  973SOL     OW 3817   6.370   3.626   5.833
  973SOL    HW1 3818   6.446   3.660   5.887
  973SOL    HW2 3819   6.292   3.688   5.841
  974SOL     OW 3820   1.906   0.556   4.339
  974SOL    HW1 3821   1.835   0.562   4.410
  974SOL    HW2 3822   1.986   0.610   4.368
  975SOL     OW 3823   2.831   0.052   5.665
  975SOL    HW1 3824   2.862   0.005   5.583
  975SOL    HW2 3825   2.905   0.052   5.733
  976SOL     OW 3826   0.197   4.762   3.855
  976SOL    HW1 3827   0.124   4.822   3.824
  976SOL    HW2 3828   0.265   4.752   3.782
  977SOL     OW 3829   0.697   2.401   2.067
  977SOL    HW1 3830   0.738   2.481   2.021
  977SOL    HW2 3831   0.635   2.432   2.138
  978SOL     OW 3832   5.589   2.870   4.483
  978SOL    HW1 3833   5.546   2.780   4.493
  978SOL    HW2 3834   5.519   2.941   4.490
  979SOL     OW 3835   6.382   1.837   2.976
  979SOL    HW1 3836   6.341   1.787   3.053
  979SOL    HW2 3837   6.315   1.846   2.903
  980SOL     OW 3838   6.716   7.008   5.753
  980SOL    HW1 3839   6.798   7.010   5.809
  980SOL    HW2 3840   6.656   6.934   5.784
  981SOL     OW 3841   6.357   3.021   6.049
  981SOL    HW1 3842   6.311   2.947   6.098
  981SOL    HW2 3843   6.382   3.094   6.113
  982SOL     OW 3844   1.469   4.200   0.813
  982SOL    HW1 3845   1.511   4.167   0.897
  982SOL    HW2 3846   1.503   4.147   0.736
  983SOL     OW 3847   5.315   1.829   3.600
  983SOL    HW1 3848   5.358   1.740   3.613
  983SOL    HW2 3849   5.325   1.858   3.505
  984SOL     OW 3850   4.873   2.950   5.515
  984SOL    HW1 3851   4.966   2.975   5.486
  984SOL    HW2 3852   4.823   3.032   5.540
  985SOL     OW 3853   1.739   4.345   0.684
  985SOL    HW1 3854   1.673   4.270   0.677
  985SOL    HW2 3855   1.721   4.398   0.767
  986SOL     OW 3856   4.782   4.358   6.176
  986SOL    HW1 3857   4.834   4.276   6.203
  986SOL    HW2 3858   4.815   4.436   6.229
  987SOL     OW 3859   3.800   6.867   2.663
  987SOL    HW1 3860   3.714   6.823   2.637
  987SOL    HW2 3861   3.824   6.841   2.756
  988SOL     OW 3862   3.467   2.801   1.436
  988SOL    HW1 3863   3.381   2.782   1.483
  988SOL    HW2 3864   3.520   2.716   1.428
  989SOL     OW 3865   0.679   0.912   4.341
  989SOL    HW1 3866   0.623   0.995   4.335
  989SOL    HW2 3867   0.627   0.834   4.306
  990SOL     OW 3868   5.355   6.367   1.910
  990SOL    HW1 3869   5.390   6.366   1.816
  990SOL    HW2 3870   5.261   6.400   1.910
  991SOL     OW 3871   5.999   1.682   5.642
  991SOL    HW1 3872   5.918   1.625   5.630
  991SOL    HW2 3873   6.034   1.672   5.735
  992SOL     OW 3874   0.107   2.811   1.442
  992SOL    HW1 3875   0.159   2.768   1.368
  992SOL    HW2 3876   0.170   2.845   1.512
  993SOL     OW 3877   3.781   6.420   4.661
  993SOL    HW1 3878   3.823   6.343   4.708
  993SOL    HW2 3879   3.763   6.493   4.727
  994SOL     OW 3880   2.882   3.317   2.746
  994SOL    HW1 3881   2.891   3.336   2.844
  994SOL    HW2 3882   2.816   3.243   2.733
  995SOL     OW 3883   0.629   1.213   4.596
  995SOL    HW1 3884   0.722   1.248   4.607
  995SOL    HW2 3885   0.563   1.286   4.614
  996SOL     OW 3886   0.682   3.421   7.019
  996SOL    HW1 3887   0.653   3.342   0.049
  996SOL    HW2 3888   0.685   3.396   6.922
  997SOL     OW 3889   0.162   2.125   0.720
  997SOL    HW1 3890   0.147   2.168   0.630
  997SOL    HW2 3891   0.226   2.050   0.711
  998SOL     OW 3892   5.245   6.769   3.286
  998SOL    HW1 3893   5.164   6.808   3.241
  998SOL    HW2 3894   5.320   6.762   3.221
  999SOL     OW 3895   6.203   5.894   1.261
  999SOL    HW1 3896   6.128   5.886   1.195
  999SOL    HW2 3897   6.274   5.827   1.240
 1000SOL     OW 3898   4.310   1.873   4.590
 1000SOL    HW1 3899   4.376   1.857   4.664
 1000SOL    HW2 3900   4.262   1.788   4.568
 1001SOL     OW 3901   4.650   1.455   5.534
 1001SOL    HW1 3902   4.709   1.485   5.459
 1001SOL    HW2 3903   4.672   1.361   5.559
 1002SOL     OW 3904   0.372   1.421   0.794
 1002SOL    HW1 3905   0.292   1.450   0.741
 1002SOL    HW2 3906   0.380   1.478   0.876
 1003SOL     OW 3907   4.161   5.076   2.518
 1003SOL    HW1 3908   4.127   4.984   2.536
 1003SOL    HW2 3909   4.102   5.142   2.565
 1004SOL     OW 3910   5.868   5.868   7.022
 1004SOL    HW1 3911   5.905   5.859   6.929
 1004SOL    HW2 3912   5.800   5.797   0.013
 1005SOL     OW 3913   6.914   5.662   3.712
 1005SOL    HW1 3914   6.942   5.700   3.624
 1005SOL    HW2 3915   6.815   5.644   3.710
 1006SOL     OW 3916   1.865   4.541   0.197
 1006SOL    HW1 3917   1.850   4.551   0.296
 1006SOL    HW2 3918   1.778   4.526   0.151
 1007SOL     OW 3919   0.097   1.453   3.196
 1007SOL    HW1 3920   0.115   1.551   3.191
 1007SOL    HW2 3921   0.120   1.410   3.109
 1008SOL     OW 3922   2.960   2.162   5.186
 1008SOL    HW1 3923   3.030   2.215   5.140
 1008SOL    HW2 3924   2.898   2.223   5.235
 1009SOL     OW 3925   3.197   6.125   5.950
 1009SOL    HW1 3926   3.266   6.162   6.013
 1009SOL    HW2 3927   3.127   6.195   5.933
 1010SOL     OW 3928   5.420   0.186   5.370
 1010SOL    HW1 3929   5.325   0.160   5.390
 1010SOL    HW2 3930   5.431   0.195   5.271
 1011SOL     OW 3931   2.890   5.435   3.882
 1011SOL    HW1 3932   2.893   5.526   3.843
 1011SOL    HW2 3933   2.796   5.412   3.907
 1012SOL     OW 3934   3.768   6.143   0.982
 1012SOL    HW1 3935   3.803   6.091   1.060
 1012SOL    HW2 3936   3.827   6.223   0.967
 1013SOL     OW 3937   0.942   0.492   6.994
 1013SOL    HW1 3938   0.999   0.417   0.003
 1013SOL    HW2 3939   0.994   0.578   6.996
 1014SOL     OW 3940   6.125   6.869   5.835
 1014SOL    HW1 3941   6.141   6.776   5.803
 1014SOL    HW2 3942   6.026   6.888   5.834
 1015SOL     OW 3943   2.662   0.416   4.741
 1015SOL    HW1 3944   2.711   0.373   4.665
 1015SOL    HW2 3945   2.588   0.473   4.705
 1016SOL     OW 3946   4.240   2.827   1.685
 1016SOL    HW1 3947   4.227   2.908   1.741
 1016SOL    HW2 3948   4.281   2.853   1.597
 1017SOL     OW 3949   5.003   0.657   6.001
 1017SOL    HW1 3950   5.034   0.607   6.082
 1017SOL    HW2 3951   4.948   0.736   6.030
 1018SOL     OW 3952   1.710   2.824   1.682
 1018SOL    HW1 3953   1.787   2.828   1.746
 1018SOL    HW2 3954   1.631   2.870   1.722
 1019SOL     OW 3955   6.161   1.934   0.787
 1019SOL    HW1 3956   6.228   1.861   0.796
 1019SOL    HW2 3957   6.202   2.021   0.814
 1020SOL     OW 3958   3.531   2.136   1.729
 1020SOL    HW1 3959   3.568   2.208   1.787
 1020SOL    HW2 3960   3.605   2.073   1.703
 1021SOL     OW 3961   6.626   1.096   1.237
 1021SOL    HW1 3962   6.685   1.177   1.226
 1021SOL    HW2 3963   6.618   1.074   1.334
 1022SOL     OW 3964   3.039   2.494   6.985
 1022SOL    HW1 3965   3.000   2.549   6.911
 1022SOL    HW2 3966   3.131   2.465   6.961
 1023SOL     OW 3967   6.824   0.671   4.704
 1023SOL    HW1 3968   6.869   0.620   4.631
 1023SOL    HW2 3969   6.892   0.717   4.761
 1024SOL     OW 3970   6.418   2.685   3.873
 1024SOL    HW1 3971   6.362   2.602   3.866
 1024SOL    HW2 3972   6.376   2.758   3.818
 1025SOL     OW 3973   2.944   4.728   1.459
 1025SOL    HW1 3974   2.980   4.730   1.552
 1025SOL    HW2 3975   2.878   4.801   1.448
 1026SOL     OW 3976   0.551   2.274   5.732
 1026SOL    HW1 3977   0.543   2.342   5.805
 1026SOL    HW2 3978   0.647   2.247   5.722
 1027SOL     OW 3979   2.297   4.759   1.184
 1027SOL    HW1 3980   2.309   4.762   1.283
 1027SOL    HW2 3981   2.320   4.848   1.145
 1028SOL     OW 3982   0.290   5.396   0.217
 1028SOL    HW1 3983   0.257   5.490   0.205
 1028SOL    HW2 3984   0.212   5.334   0.213
 1029SOL     OW 3985   3.628   0.326   4.854
 1029SOL    HW1 3986   3.549   0.287   4.902
 1029SOL    HW2 3987   3.685   0.253   4.817
 1030SOL     OW 3988   3.794   4.921   5.134
 1030SOL    HW1 3989   3.818   4.913   5.037
 1030SOL    HW2 3990   3.696   4.908   5.145
 1031SOL     OW 3991   2.651   5.872   0.918
 1031SOL    HW1 3992   2.560   5.836   0.940
 1031SOL    HW2 3993   2.721   5.818   0.967
 1032SOL     OW 3994   1.235   1.493   4.770
 1032SOL    HW1 3995   1.313   1.555   4.763
 1032SOL    HW2 3996   1.158   1.528   4.717
 1033SOL     OW 3997   2.331   6.900   2.279
 1033SOL    HW1 3998   2.321   6.840   2.358
 1033SOL    HW2 3999   2.245   6.948   2.262
 1034SOL     OW 4000   0.820   6.731   2.206
 1034SOL    HW1 4001   0.751   6.691   2.146
 1034SOL    HW2 4002   0.803   6.701   2.300
 1035SOL     OW 4003   3.622   1.649   2.765
 1035SOL    HW1 4004   3.660   1.726   2.817
 1035SOL    HW2 4005   3.566   1.685   2.691
 1036SOL     OW 4006   4.692   6.639   6.847
 1036SOL    HW1 4007   4.727   6.547   6.866
 1036SOL    HW2 4008   4.718   6.701   6.921
 1037SOL     OW 4009   3.841   1.541   6.271
 1037SOL    HW1 4010   3.745   1.534   6.243
 1037SOL    HW2 4011   3.880   1.450   6.281
 1038SOL     OW 4012   2.604   1.932   5.784
 1038SOL    HW1 4013   2.676   1.864   5.780
 1038SOL    HW2 4014   2.640   2.017   5.822
 1039SOL     OW 4015   4.811   1.759   3.636
 1039SOL    HW1 4016   4.833   1.794   3.728
 1039SOL    HW2 4017   4.868   1.805   3.569
 1040SOL     OW 4018   6.452   3.787   4.320
 1040SOL    HW1 4019   6.497   3.791   4.410
 1040SOL    HW2 4020   6.514   3.744   4.254
 1041SOL     OW 4021   1.791   6.890   4.537
 1041SOL    HW1 4022   1.819   6.975   4.580
 1041SOL    HW2 4023   1.785   6.904   4.438
 1042SOL     OW 4024   4.594   3.818   0.415
 1042SOL    HW1 4025   4.500   3.799   0.444
 1042SOL    HW2 4026   4.657   3.755   0.462
 1043SOL     OW 4027   3.862   0.496   6.729
 1043SOL    HW1 4028   3.875   0.470   6.633
 1043SOL    HW2 4029   3.869   0.596   6.738
 1044SOL     OW 4030   3.798   3.748   2.925
 1044SOL    HW1 4031   3.891   3.751   2.888
 1044SOL    HW2 4032   3.747   3.674   2.881
 1045SOL     OW 4033   4.225   0.807   3.377
 1045SOL    HW1 4034   4.202   0.876   3.309
 1045SOL    HW2 4035   4.155   0.805   3.449
 1046SOL     OW 4036   3.208   0.649   2.327
 1046SOL    HW1 4037   3.127   0.593   2.342
 1046SOL    HW2 4038   3.259   0.659   2.413
 1047SOL     OW 4039   0.383   5.884   1.887
 1047SOL    HW1 4040   0.402   5.917   1.979
 1047SOL    HW2 4041   0.416   5.952   1.820
 1048SOL     OW 4042   6.292   3.981   5.258
 1048SOL    HW1 4043   6.375   4.027   5.226
 1048SOL    HW2 4044   6.308   3.882   5.261
 1049SOL     OW 4045   0.431   3.309   5.535
 1049SOL    HW1 4046   0.376   3.290   5.453
 1049SOL    HW2 4047   0.528   3.308   5.511
 1050SOL     OW 4048   2.526   0.646   1.076
 1050SOL    HW1 4049   2.572   0.712   1.136
 1050SOL    HW2 4050   2.582   0.563   1.068
 1051SOL     OW 4051   5.179   4.483   1.684
 1051SOL    HW1 4052   5.147   4.518   1.597
 1051SOL    HW2 4053   5.187   4.558   1.750
 1052SOL     OW 4054   3.710   0.381   3.800
 1052SOL    HW1 4055   3.751   0.472   3.798
 1052SOL    HW2 4056   3.733   0.336   3.886
 1053SOL     OW 4057   3.510   4.916   3.622
 1053SOL    HW1 4058   3.590   4.867   3.590
 1053SOL    HW2 4059   3.532   5.013   3.632
 1054SOL     OW 4060   4.308   5.852   4.769
 1054SOL    HW1 4061   4.279   5.807   4.685
 1054SOL    HW2 4062   4.407   5.847   4.777
 1055SOL     OW 4063   3.570   4.944   4.663
 1055SOL    HW1 4064   3.562   4.931   4.762
 1055SOL    HW2 4065   3.488   4.908   4.618
 1056SOL     OW 4066   2.801   6.138   6.935
 1056SOL    HW1 4067   2.715   6.089   6.951
 1056SOL    HW2 4068   2.782   6.233   6.915
 1057SOL     OW 4069   3.822   4.181   1.377
 1057SOL    HW1 4070   3.842   4.211   1.284
 1057SOL    HW2 4071   3.773   4.094   1.374
 1058SOL     OW 4072   2.801   6.556   2.143
 1058SOL    HW1 4073   2.889   6.510   2.155
 1058SOL    HW2 4074   2.789   6.580   2.047
 1059SOL     OW 4075   3.760   0.846   0.388
 1059SOL    HW1 4076   3.746   0.760   0.437
 1059SOL    HW2 4077   3.709   0.919   0.432
 1060SOL     OW 4078   3.300   1.284   4.195
 1060SOL    HW1 4079   3.253   1.362   4.237
 1060SOL    HW2 4080   3.354   1.236   4.263
 1061SOL     OW 4081   2.158   5.777   1.412
 1061SOL    HW1 4082   2.061   5.760   1.424
 1061SOL    HW2 4083   2.173   5.818   1.322
 1062SOL     OW 4084   5.212   4.506   4.545
 1062SOL    HW1 4085   5.278   4.437   4.517
 1062SOL    HW2 4086   5.192   4.497   4.642
 1063SOL     OW 4087   2.952   2.362   6.203
 1063SOL    HW1 4088   2.969   2.291   6.135
 1063SOL    HW2 4089   2.872   2.416   6.176
 1064SOL     OW 4090   0.284   2.886   1.884
 1064SOL    HW1 4091   0.313   2.897   1.979
 1064SOL    HW2 4092   0.261   2.790   1.867
 1065SOL     OW 4093   4.796   5.073   5.716
 1065SOL    HW1 4094   4.854   5.046   5.792
 1065SOL    HW2 4095   4.840   5.047   5.630
 1066SOL     OW 4096   4.753   0.121   3.549
 1066SOL    HW1 4097   4.751   0.029   3.589
 1066SOL    HW2 4098   4.665   0.166   3.565
 1067SOL     OW 4099   2.950   3.927   0.189
 1067SOL    HW1 4100   2.872   3.967   0.142
 1067SOL    HW2 4101   3.010   3.882   0.122
 1068SOL     OW 4102   0.540   4.904   1.388
 1068SOL    HW1 4103   0.455   4.856   1.367
 1068SOL    HW2 4104   0.618   4.847   1.361
 1069SOL     OW 4105   3.714   2.865   2.474
 1069SOL    HW1 4106   3.808   2.837   2.454
 1069SOL    HW2 4107   3.668   2.890   2.389
 1070SOL     OW 4108   2.150   6.758   0.624
 1070SOL    HW1 4109   2.089   6.797   0.555
 1070SOL    HW2 4110   2.236   6.810   0.625
 1071SOL     OW 4111   5.149   5.404   3.122
 1071SOL    HW1 4112   5.185   5.380   3.032
 1071SOL    HW2 4113   5.054   5.436   3.113
 1072SOL     OW 4114   3.817   5.664   3.316
 1072SOL    HW1 4115   3.898   5.606   3.312
 1072SOL    HW2 4116   3.760   5.636   3.394
 1073SOL     OW 4117   2.901   5.414   3.519
 1073SOL    HW1 4118   2.971   5.347   3.545
 1073SOL    HW2 4119   2.938   5.475   3.449
 1074SOL     OW 4120   1.780   5.134   3.255
 1074SOL    HW1 4121   1.767   5.066   3.327
 1074SOL    HW2 4122   1.872   5.124   3.217
 1075SOL     OW 4123   0.541   3.837   2.925
 1075SOL    HW1 4124   0.498   3.895   2.857
 1075SOL    HW2 4125   0.620   3.884   2.965
 1076SOL     OW 4126   6.556   3.958   3.009
 1076SOL    HW1 4127   6.546   4.050   3.048
 1076SOL    HW2 4128   6.584   3.895   3.081
 1077SOL     OW 4129   4.610   6.858   1.856
 1077SOL    HW1 4130   4.609   6.958   1.856
 1077SOL    HW2 4131   4.703   6.826   1.837
 1078SOL     OW 4132   6.878   3.013   2.013
 1078SOL    HW1 4133   6.910   2.991   2.105
 1078SOL    HW2 4134   6.896   3.109   1.993
 1079SOL     OW 4135   1.730   4.687   3.448
 1079SOL    HW1 4136   1.819   4.720   3.418
 1079SOL    HW2 4137   1.704   4.608   3.392
 1080SOL     OW 4138   1.920   5.667   3.950
 1080SOL    HW1 4139   1.937   5.747   4.007
 1080SOL    HW2 4140   1.828   5.633   3.966
 1081SOL     OW 4141   1.556   0.553   0.087
 1081SOL    HW1 4142   1.579   0.624   0.020
 1081SOL    HW2 4143   1.629   0.547   0.155
 1082SOL     OW 4144   2.093   0.089   1.046
 1082SOL    HW1 4145   2.045   0.022   0.989
 1082SOL    HW2 4146   2.184   0.105   1.007
 1083SOL     OW 4147   3.612   2.602   1.738
 1083SOL    HW1 4148   3.570   2.675   1.792
 1083SOL    HW2 4149   3.587   2.514   1.777
 1084SOL     OW 4150   6.824   3.940   1.110
 1084SOL    HW1 4151   6.914   3.984   1.118
 1084SOL    HW2 4152   6.762   4.003   1.062
 1085SOL     OW 4153   1.766   5.604   4.309
 1085SOL    HW1 4154   1.668   5.610   4.330
 1085SOL    HW2 4155   1.802   5.517   4.343
 1086SOL     OW 4156   2.800   5.734   2.451
 1086SOL    HW1 4157   2.722   5.696   2.402
 1086SOL    HW2 4158   2.877   5.746   2.388
 1087SOL     OW 4159   3.551   3.052   4.870
 1087SOL    HW1 4160   3.505   3.006   4.793
 1087SOL    HW2 4161   3.533   3.001   4.954
 1088SOL     OW 4162   0.136   4.371   2.639
 1088SOL    HW1 4163   0.166   4.363   2.544
 1088SOL    HW2 4164   0.048   4.325   2.651
 1089SOL     OW 4165   6.824   0.252   3.067
 1089SOL    HW1 4166   6.733   0.216   3.045
 1089SOL    HW2 4167   6.888   0.226   2.995
 1090SOL     OW 4168   1.639   2.529   6.613
 1090SOL    HW1 4169   1.659   2.625   6.594
 1090SOL    HW2 4170   1.555   2.521   6.665
 1091SOL     OW 4171   0.718   2.470   5.433
 1091SOL    HW1 4172   0.777   2.390   5.438
 1091SOL    HW2 4173   0.703   2.495   5.338
 1092SOL     OW 4174   2.495   5.038   1.353
 1092SOL    HW1 4175   2.504   5.037   1.254
 1092SOL    HW2 4176   2.426   4.970   1.381
 1093SOL     OW 4177   7.023   2.730   1.805
 1093SOL    HW1 4178   6.975   2.654   1.759
 1093SOL    HW2 4179   0.097   2.713   1.804
 1094SOL     OW 4180   0.869   6.184   2.734
 1094SOL    HW1 4181   0.861   6.175   2.834
 1094SOL    HW2 4182   0.804   6.253   2.703
 1095SOL     OW 4183   0.659   3.557   6.460
 1095SOL    HW1 4184   0.567   3.585   6.486
 1095SOL    HW2 4185   0.657   3.511   6.371
 1096SOL     OW 4186   3.655   3.030   1.886
 1096SOL    HW1 4187   3.598   3.104   1.923
 1096SOL    HW2 4188   3.743   3.066   1.858
 1097SOL     OW 4189   2.773   4.616   5.973
 1097SOL    HW1 4190   2.683   4.656   5.994
 1097SOL    HW2 4191   2.840   4.689   5.962
 1098SOL     OW 4192   3.910   0.091   2.679
 1098SOL    HW1 4193   3.874   0.002   2.653
 1098SOL    HW2 4194   3.905   0.154   2.601
 1099SOL     OW 4195   3.629   0.039   2.199
 1099SOL    HW1 4196   3.649   0.004   2.107
 1099SOL    HW2 4197   3.691   0.114   2.220
 1100SOL     OW 4198   6.708   1.094   0.280
 1100SOL    HW1 4199   6.731   1.116   0.185
 1100SOL    HW2 4200   6.785   1.048   0.324
 1101SOL     OW 4201   5.294   2.905   1.078
 1101SOL    HW1 4202   5.367   2.969   1.104
 1101SOL    HW2 4203   5.225   2.953   1.024
 1102SOL     OW 4204   0.492   3.486   4.235
 1102SOL    HW1 4205   0.456   3.449   4.321
 1102SOL    HW2 4206   0.455   3.433   4.158
 1103SOL     OW 4207   6.964   3.482   6.974
 1103SOL    HW1 4208   6.966   3.392   7.018
 1103SOL    HW2 4209   6.989   3.552   0.016
 1104SOL     OW 4210   2.477   5.783   5.980
 1104SOL    HW1 4211   2.403   5.827   6.031
 1104SOL    HW2 4212   2.565   5.825   6.004
 1105SOL     OW 4213   4.167   5.420   1.089
 1105SOL    HW1 4214   4.122   5.374   1.166
 1105SOL    HW2 4215   4.157   5.519   1.099
 1106SOL     OW 4216   1.249   1.271   6.771
 1106SOL    HW1 4217   1.181   1.298   6.840
 1106SOL    HW2 4218   1.274   1.352   6.717
 1107SOL     OW 4219   6.896   0.360   1.722
 1107SOL    HW1 4220   6.981   0.373   1.672
 1107SOL    HW2 4221   6.882   0.437   1.784
 1108SOL     OW 4222   1.277   1.381   0.045
 1108SOL    HW1 4223   1.252   1.474   0.021
 1108SOL    HW2 4224   1.196   1.322   0.043
 1109SOL     OW 4225   4.275   0.934   3.813
 1109SOL    HW1 4226   4.293   0.952   3.910
 1109SOL    HW2 4227   4.257   0.836   3.801
 1110SOL     OW 4228   3.337   2.858   2.772
 1110SOL    HW1 4229   3.355   2.816   2.683
 1110SOL    HW2 4230   3.260   2.921   2.764
 1111SOL     OW 4231   4.433   6.725   6.884
 1111SOL    HW1 4232   4.526   6.691   6.870
 1111SOL    HW2 4233   4.367   6.654   6.860
 1112SOL     OW 4234   1.039   1.476   2.430
 1112SOL    HW1 4235   1.107   1.439   2.367
 1112SOL    HW2 4236   1.025   1.412   2.505
 1113SOL     OW 4237   6.284   3.508   1.600
 1113SOL    HW1 4238   6.227   3.569   1.656
 1113SOL    HW2 4239   6.259   3.519   1.504
 1114SOL     OW 4240   5.964   1.308   5.489
 1114SOL    HW1 4241   5.886   1.353   5.532
 1114SOL    HW2 4242   5.966   1.331   5.392
 1115SOL     OW 4243   2.282   4.769   0.771
 1115SOL    HW1 4244   2.311   4.698   0.835
 1115SOL    HW2 4245   2.225   4.836   0.818
 1116SOL     OW 4246   3.705   6.265   6.406
 1116SOL    HW1 4247   3.630   6.289   6.467
 1116SOL    HW2 4248   3.753   6.347   6.378
 1117SOL     OW 4249   2.527   3.383   0.794
 1117SOL    HW1 4250   2.587   3.411   0.719
 1117SOL    HW2 4251   2.543   3.441   0.874
 1118SOL     OW 4252   1.473   3.168   1.281
 1118SOL    HW1 4253   1.530   3.209   1.352
 1118SOL    HW2 4254   1.421   3.241   1.234
 1119SOL     OW 4255   2.877   3.595   3.402
 1119SOL    HW1 4256   2.974   3.613   3.417
 1119SOL    HW2 4257   2.845   3.653   3.327
 1120SOL     OW 4258   4.019   1.004   3.987
 1120SOL    HW1 4259   4.114   1.027   4.005
 1120SOL    HW2 4260   4.000   0.912   4.021
 1121SOL     OW 4261   5.180   3.399   3.383
 1121SOL    HW1 4262   5.087   3.372   3.358
 1121SOL    HW2 4263   5.231   3.425   3.300
 1122SOL     OW 4264   4.601   5.386   6.228
 1122SOL    HW1 4265   4.516   5.420   6.268
 1122SOL    HW2 4266   4.622   5.296   6.266
 1123SOL     OW 4267   3.660   0.877   2.108
 1123SOL    HW1 4268   3.670   0.976   2.103
 1123SOL    HW2 4269   3.579   0.849   2.057
 1124SOL     OW 4270   1.767   5.098   4.288
 1124SOL    HW1 4271   1.805   5.032   4.222
 1124SOL    HW2 4272   1.741   5.182   4.240
 1125SOL     OW 4273   3.056   3.455   4.942
 1125SOL    HW1 4274   3.088   3.522   5.009
 1125SOL    HW2 4275   3.069   3.491   4.850
 1126SOL     OW 4276   6.231   0.438   2.360
 1126SOL    HW1 4277   6.141   0.425   2.402
 1126SOL    HW2 4278   6.231   0.397   2.269
 1127SOL     OW 4279   2.227   5.949   6.367
 1127SOL    HW1 4280   2.290   6.026   6.373
 1127SOL    HW2 4281   2.143   5.969   6.418
 1128SOL     OW 4282   2.553   2.414   4.399
 1128SOL    HW1 4283   2.488   2.347   4.363
 1128SOL    HW2 4284   2.568   2.398   4.496
 1129SOL     OW 4285   4.133   5.998   5.980
 1129SOL    HW1 4286   4.142   6.083   6.033
 1129SOL    HW2 4287   4.160   6.015   5.885
 1130SOL     OW 4288   0.113   5.113   5.757
 1130SOL    HW1 4289   0.069   5.044   5.699
 1130SOL    HW2 4290   0.202   5.138   5.719
 1131SOL     OW 4291   6.904   4.854   5.898
 1131SOL    HW1 4292   6.893   4.949   5.927
 1131SOL    HW2 4293   6.985   4.846   5.839
 1132SOL     OW 4294   5.640   6.571   4.874
 1132SOL    HW1 4295   5.548   6.571   4.835
 1132SOL    HW2 4296   5.660   6.662   4.911
 1133SOL     OW 4297   6.907   2.695   6.881
 1133SOL    HW1 4298   6.846   2.693   6.960
 1133SOL    HW2 4299   6.921   2.601   6.848
 1134SOL     OW 4300   0.336   2.798   6.182
 1134SOL    HW1 4301   0.336   2.699   6.169
 1134SOL    HW2 4302   0.322   2.843   6.094
 1135SOL     OW 4303   6.791   1.404   4.617
 1135SOL    HW1 4304   6.752   1.496   4.623
 1135SOL    HW2 4305   6.735   1.348   4.555
 1136SOL     OW 4306   3.415   5.192   4.273
 1136SOL    HW1 4307   3.334   5.235   4.234
 1136SOL    HW2 4308   3.429   5.225   4.367
 1137SOL     OW 4309   1.497   0.784   6.976
 1137SOL    HW1 4310   1.574   0.825   6.926
 1137SOL    HW2 4311   1.412   0.804   6.928
 1138SOL     OW 4312   1.120   3.824   6.037
 1138SOL    HW1 4313   1.071   3.838   5.951
 1138SOL    HW2 4314   1.205   3.774   6.020
 1139SOL     OW 4315   0.769   0.388   2.600
 1139SOL    HW1 4316   0.845   0.373   2.538
 1139SOL    HW2 4317   0.746   0.301   2.646
 1140SOL     OW 4318   3.922   2.137   3.130
 1140SOL    HW1 4319   3.853   2.145   3.203
 1140SOL    HW2 4320   3.879   2.098   3.048
 1141SOL     OW 4321   6.641   6.271   6.181
 1141SOL    HW1 4322   6.562   6.330   6.164
 1141SOL    HW2 4323   6.676   6.287   6.273
 1142SOL     OW 4324   6.995   0.433   4.811
 1142SOL    HW1 4325   6.932   0.394   4.744
 1142SOL    HW2 4326   6.950   0.509   4.858
 1143SOL     OW 4327   4.913   2.296   1.167
 1143SOL    HW1 4328   4.903   2.270   1.264
 1143SOL    HW2 4329   4.907   2.214   1.110
 1144SOL     OW 4330   1.062   6.213   4.911
 1144SOL    HW1 4331   1.124   6.290   4.896
 1144SOL    HW2 4332   0.974   6.248   4.944
 1145SOL     OW 4333   1.906   5.125   4.657
 1145SOL    HW1 4334   1.950   5.076   4.581
 1145SOL    HW2 4335   1.883   5.060   4.729
 1146SOL     OW 4336   5.774   1.704   1.586
 1146SOL    HW1 4337   5.702   1.642   1.556
 1146SOL    HW2 4338   5.834   1.726   1.509
 1147SOL     OW 4339   6.628   3.540   2.010
 1147SOL    HW1 4340   6.682   3.614   2.050
 1147SOL    HW2 4341   6.557   3.580   1.951
 1148SOL     OW 4342   5.571   0.896   6.123
 1148SOL    HW1 4343   5.564   0.984   6.170
 1148SOL    HW2 4344   5.511   0.896   6.043
 1149SOL     OW 4345   5.710   2.883   3.079
 1149SOL    HW1 4346   5.754   2.854   2.994
 1149SOL    HW2 4347   5.647   2.812   3.110
 1150SOL     OW 4348   1.605   5.468   5.596
 1150SOL    HW1 4349   1.700   5.440   5.584
 1150SOL    HW2 4350   1.598   5.526   5.678
 1151SOL     OW 4351   2.478   5.224   6.864
 1151SOL    HW1 4352   2.547   5.255   6.929
 1151SOL    HW2 4353   2.430   5.144   6.900
 1152SOL     OW 4354   0.414   0.981   3.335
 1152SOL    HW1 4355   0.462   0.902   3.298
 1152SOL    HW2 4356   0.432   0.989   3.433
 1153SOL     OW 4357   2.351   4.826   2.388
 1153SOL    HW1 4358   2.416   4.842   2.313
 1153SOL    HW2 4359   2.376   4.743   2.437
 1154SOL     OW 4360   1.438   4.286   2.028
 1154SOL    HW1 4361   1.464   4.194   1.999
 1154SOL    HW2 4362   1.519   4.339   2.050
 1155SOL     OW 4363   4.293   0.312   2.109
 1155SOL    HW1 4364   4.366   0.347   2.050
 1155SOL    HW2 4365   4.331   0.247   2.174
 1156SOL     OW 4366   1.819   0.966   4.194
 1156SOL    HW1 4367   1.809   1.027   4.273
 1156SOL    HW2 4368   1.832   1.020   4.111
 1157SOL     OW 4369   1.689   3.105   3.918
 1157SOL    HW1 4370   1.636   3.166   3.976
 1157SOL    HW2 4371   1.633   3.078   3.839
 1158SOL     OW 4372   4.614   6.120   6.215
 1158SOL    HW1 4373   4.694   6.073   6.253
 1158SOL    HW2 4374   4.583   6.072   6.133
 1159SOL     OW 4375   6.022   4.141   2.608
 1159SOL    HW1 4376   6.116   4.119   2.581
 1159SOL    HW2 4377   6.001   4.235   2.583
 1160SOL     OW 4378   2.653   2.665   1.052
 1160SOL    HW1 4379   2.684   2.753   1.089
 1160SOL    HW2 4380   2.653   2.670   0.952
 1161SOL     OW 4381   4.176   0.665   3.789
 1161SOL    HW1 4382   4.140   0.677   3.697
 1161SOL    HW2 4383   4.124   0.593   3.836
 1162SOL     OW 4384   3.357   5.178   1.509
 1162SOL    HW1 4385   3.285   5.116   1.479
 1162SOL    HW2 4386   3.317   5.267   1.534
 1163SOL     OW 4387   5.251   6.971   2.345
 1163SOL    HW1 4388   5.322   6.963   2.275
 1163SOL    HW2 4389   5.292   7.001   2.431
 1164SOL     OW 4390   6.664   3.962   4.716
 1164SOL    HW1 4391   6.690   3.866   4.727
 1164SOL    HW2 4392   6.744   4.021   4.731
 1165SOL     OW 4393   0.887   4.677   2.283
 1165SOL    HW1 4394   0.916   4.707   2.374
 1165SOL    HW2 4395   0.945   4.602   2.252
 1166SOL     OW 4396   3.283   1.319   0.084
 1166SOL    HW1 4397   3.240   1.328   0.173
 1166SOL    HW2 4398   3.284   1.223   0.056
 1167SOL     OW 4399   4.220   1.886   5.765
 1167SOL    HW1 4400   4.149   1.950   5.736
 1167SOL    HW2 4401   4.203   1.797   5.723
 1168SOL     OW 4402   5.689   0.638   3.623
 1168SOL    HW1 4403   5.605   0.584   3.617
 1168SOL    HW2 4404   5.741   0.627   3.538
 1169SOL     OW 4405   1.143   3.143   0.979
 1169SOL    HW1 4406   1.184   3.081   0.913
 1169SOL    HW2 4407   1.204   3.221   0.995
 1170SOL     OW 4408   2.632   0.824   1.230
 1170SOL    HW1 4409   2.706   0.891   1.239
 1170SOL    HW2 4410   2.550   0.860   1.276
 1171SOL     OW 4411   3.587   1.026   0.533
 1171SOL    HW1 4412   3.570   1.120   0.504
 1171SOL    HW2 4413   3.506   0.970   0.513
 1172SOL     OW 4414   3.138   3.604   5.720
 1172SOL    HW1 4415   3.152   3.656   5.636
 1172SOL    HW2 4416   3.210   3.536   5.730
 1173SOL     OW 4417   5.477   6.968   5.504
 1173SOL    HW1 4418   5.522   6.992   5.590
 1173SOL    HW2 4419   5.415   0.018   5.477
 1174SOL     OW 4420   3.840   5.829   6.627
 1174SOL    HW1 4421   3.938   5.817   6.616
 1174SOL    HW2 4422   3.792   5.748   6.592
 1175SOL     OW 4423   0.063   5.251   4.404
 1175SOL    HW1 4424   0.135   5.233   4.471
 1175SOL    HW2 4425   0.104   5.260   4.313
 1176SOL     OW 4426   5.939   2.588   1.224
 1176SOL    HW1 4427   5.878   2.511   1.241
 1176SOL    HW2 4428   5.942   2.647   1.304
 1177SOL     OW 4429   6.606   3.231   6.490
 1177SOL    HW1 4430   6.644   3.242   6.582
 1177SOL    HW2 4431   6.637   3.144   6.452
 1178SOL     OW 4432   5.350   4.700   2.777
 1178SOL    HW1 4433   5.377   4.608   2.749
 1178SOL    HW2 4434   5.251   4.706   2.781
 1179SOL     OW 4435   1.338   5.533   6.017
 1179SOL    HW1 4436   1.397   5.467   6.063
 1179SOL    HW2 4437   1.245   5.527   6.055
 1180SOL     OW 4438   2.129   0.456   4.003
 1180SOL    HW1 4439   2.127   0.539   4.059
 1180SOL    HW2 4440   2.219   0.447   3.960
 1181SOL     OW 4441   1.571   4.806   2.308
 1181SOL    HW1 4442   1.644   4.840   2.249
 1181SOL    HW2 4443   1.606   4.792   2.400
 1182SOL     OW 4444   1.684   3.818   4.000
 1182SOL    HW1 4445   1.690   3.849   4.094
 1182SOL    HW2 4446   1.608   3.865   3.954
 1183SOL     OW 4447   4.515   5.458   1.047
 1183SOL    HW1 4448   4.544   5.539   1.097
 1183SOL    HW2 4449   4.416   5.447   1.057
 1184SOL     OW 4450   3.244   2.570   6.602
 1184SOL    HW1 4451   3.335   2.610   6.610
 1184SOL    HW2 4452   3.249   2.471   6.617
 1185SOL     OW 4453   2.936   1.259   6.549
 1185SOL    HW1 4454   2.917   1.279   6.645
 1185SOL    HW2 4455   2.908   1.336   6.492
 1186SOL     OW 4456   4.156   1.035   4.817
 1186SOL    HW1 4457   4.099   1.103   4.863
 1186SOL    HW2 4458   4.099   0.976   4.761
 1187SOL     OW 4459   1.451   1.658   4.688
 1187SOL    HW1 4460   1.436   1.664   4.589
 1187SOL    HW2 4461   1.519   1.725   4.715
 1188SOL     OW 4462   1.801   0.834   5.312
 1188SOL    HW1 4463   1.860   0.860   5.388
 1188SOL    HW2 4464   1.706   0.834   5.342
 1189SOL     OW 4465   0.522   1.044   1.303
 1189SOL    HW1 4466   0.544   1.039   1.206
 1189SOL    HW2 4467   0.525   1.139   1.334
 1190SOL     OW 4468   3.842   5.515   2.075
 1190SOL    HW1 4469   3.759   5.563   2.047
 1190SOL    HW2 4470   3.842   5.506   2.175
 1191SOL     OW 4471   2.353   4.563   1.456
 1191SOL    HW1 4472   2.398   4.651   1.467
 1191SOL    HW2 4473   2.338   4.522   1.546
 1192SOL     OW 4474   4.026   5.337   2.942
 1192SOL    HW1 4475   4.049   5.421   2.894
 1192SOL    HW2 4476   4.104   5.276   2.942
 1193SOL     OW 4477   3.156   0.259   3.940
 1193SOL    HW1 4478   3.194   0.200   3.868
 1193SOL    HW2 4479   3.175   0.355   3.918
 1194SOL     OW 4480   6.287   1.733   2.091
 1194SOL    HW1 4481   6.377   1.774   2.081
 1194SOL    HW2 4482   6.267   1.677   2.010
 1195SOL     OW 4483   3.497   0.035   6.906
 1195SOL    HW1 4484   3.472   6.967   6.935
 1195SOL    HW2 4485   3.496   0.096   6.985
 1196SOL     OW 4486   1.642   5.320   3.423
 1196SOL    HW1 4487   1.545   5.301   3.408
 1196SOL    HW2 4488   1.696   5.263   3.362
 1197SOL     OW 4489   3.701   5.010   0.033
 1197SOL    HW1 4490   3.782   5.069   0.027
 1197SOL    HW2 4491   3.699   4.948   6.979
 1198SOL     OW 4492   3.412   0.358   2.776
 1198SOL    HW1 4493   3.430   0.266   2.809
 1198SOL    HW2 4494   3.436   0.425   2.846
 1199SOL     OW 4495   3.535   3.919   3.990
 1199SOL    HW1 4496   3.546   3.849   3.920
 1199SOL    HW2 4497   3.512   4.007   3.947
 1200SOL     OW 4498   4.621   3.557   1.133
 1200SOL    HW1 4499   4.645   3.620   1.207
 1200SOL    HW2 4500   4.522   3.554   1.124
 1201SOL     OW 4501   1.716   2.026   5.040
 1201SOL    HW1 4502   1.786   2.072   5.095
 1201SOL    HW2 4503   1.627   2.068   5.057
 1202SOL     OW 4504   6.538   0.057   4.688
 1202SOL    HW1 4505   6.554   6.992   4.731
 1202SOL    HW2 4506   6.610   0.075   4.621
 1203SOL     OW 4507   6.251   6.944   2.727
 1203SOL    HW1 4508   6.276   0.013   2.700
 1203SOL    HW2 4509   6.248   6.938   2.826
 1204SOL     OW 4510   1.634   0.114   6.987
 1204SOL    HW1 4511   1.634   0.177   6.910
 1204SOL    HW2 4512   1.727   0.087   7.009
 1205SOL     OW 4513   0.623   3.035   5.762
 1205SOL    HW1 4514   0.715   3.006   5.787
 1205SOL    HW2 4515   0.579   2.963   5.707
 1206SOL     OW 4516   6.900   1.079   4.529
 1206SOL    HW1 4517   6.929   1.162   4.482
 1206SOL    HW2 4518   6.929   1.083   4.625
 1207SOL     OW 4519   6.054   6.555   6.309
 1207SOL    HW1 4520   6.152   6.569   6.321
 1207SOL    HW2 4521   6.037   6.510   6.221
 1208SOL     OW 4522   3.490   3.420   2.921
 1208SOL    HW1 4523   3.392   3.422   2.902
 1208SOL    HW2 4524   3.509   3.467   3.007
 1209SOL     OW 4525   0.121   4.185   4.495
 1209SOL    HW1 4526   0.105   4.114   4.565
 1209SOL    HW2 4527   0.072   4.160   4.412
 1210SOL     OW 4528   2.215   0.333   2.688
 1210SOL    HW1 4529   2.236   0.421   2.646
 1210SOL    HW2 4530   2.154   0.346   2.766
 1211SOL     OW 4531   0.689   3.226   3.366
 1211SOL    HW1 4532   0.598   3.260   3.340
 1211SOL    HW2 4533   0.698   3.227   3.465
 1212SOL     OW 4534   1.199   4.434   3.775
 1212SOL    HW1 4535   1.232   4.519   3.815
 1212SOL    HW2 4536   1.111   4.410   3.817
 1213SOL     OW 4537   5.754   3.926   5.506
 1213SOL    HW1 4538   5.689   3.894   5.438
 1213SOL    HW2 4539   5.715   3.915   5.598
 1214SOL     OW 4540   1.495   1.573   1.512
 1214SOL    HW1 4541   1.411   1.571   1.458
 1214SOL    HW2 4542   1.489   1.644   1.581
 1215SOL     OW 4543   0.265   5.599   1.905
 1215SOL    HW1 4544   0.300   5.550   1.825
 1215SOL    HW2 4545   0.184   5.551   1.940
 1216SOL     OW 4546   2.254   0.103   1.353
 1216SOL    HW1 4547   2.292   0.124   1.263
 1216SOL    HW2 4548   2.156   0.085   1.344
 1217SOL     OW 4549   2.099   2.554   3.008
 1217SOL    HW1 4550   2.089   2.457   2.990
 1217SOL    HW2 4551   2.194   2.581   2.991
 1218SOL     OW 4552   0.941   3.775   3.383
 1218SOL    HW1 4553   0.891   3.849   3.339
 1218SOL    HW2 4554   0.889   3.690   3.373
 1219SOL     OW 4555   2.484   5.847   3.247
 1219SOL    HW1 4556   2.461   5.901   3.167
 1219SOL    HW2 4557   2.431   5.762   3.247
 1220SOL     OW 4558   6.351   4.956   2.744
 1220SOL    HW1 4559   6.355   4.899   2.826
 1220SOL    HW2 4560   6.351   4.898   2.663
 1221SOL     OW 4561   4.789   4.653   5.297
 1221SOL    HW1 4562   4.813   4.733   5.241
 1221SOL    HW2 4563   4.690   4.655   5.316
 1222SOL     OW 4564   6.801   4.154   1.327
 1222SOL    HW1 4565   6.763   4.164   1.235
 1222SOL    HW2 4566   6.792   4.058   1.356
 1223SOL     OW 4567   0.088   4.929   4.855
 1223SOL    HW1 4568   0.030   4.908   4.776
 1223SOL    HW2 4569   0.034   4.975   4.925
 1224SOL     OW 4570   4.403   4.289   1.119
 1224SOL    HW1 4571   4.382   4.374   1.168
 1224SOL    HW2 4572   4.494   4.296   1.078
 1225SOL     OW 4573   4.616   1.791   0.014
 1225SOL    HW1 4574   4.604   1.874   0.069
 1225SOL    HW2 4575   4.711   1.785   7.007
 1226SOL     OW 4576   6.012   5.805   0.711
 1226SOL    HW1 4577   6.055   5.867   0.645
 1226SOL    HW2 4578   6.082   5.770   0.773
 1227SOL     OW 4579   4.758   4.187   6.828
 1227SOL    HW1 4580   4.807   4.264   6.786
 1227SOL    HW2 4581   4.760   4.197   6.927
 1228SOL     OW 4582   3.949   3.956   4.284
 1228SOL    HW1 4583   3.928   4.028   4.351
 1228SOL    HW2 4584   3.876   3.887   4.285
 1229SOL     OW 4585   2.216   5.487   2.791
 1229SOL    HW1 4586   2.220   5.586   2.773
 1229SOL    HW2 4587   2.133   5.467   2.845
 1230SOL     OW 4588   4.442   4.263   0.600
 1230SOL    HW1 4589   4.385   4.341   0.574
 1230SOL    HW2 4590   4.383   4.187   0.629
 1231SOL     OW 4591   2.217   1.497   0.459
 1231SOL    HW1 4592   2.167   1.559   0.399
 1231SOL    HW2 4593   2.212   1.531   0.553
 1232SOL     OW 4594   2.918   2.246   5.864
 1232SOL    HW1 4595   2.984   2.225   5.792
 1232SOL    HW2 4596   2.839   2.293   5.824
 1233SOL     OW 4597   0.539   5.359   4.449
 1233SOL    HW1 4598   0.623   5.360   4.395
 1233SOL    HW2 4599   0.491   5.273   4.434
 1234SOL     OW 4600   6.409   4.387   6.320
 1234SOL    HW1 4601   6.412   4.487   6.309
 1234SOL    HW2 4602   6.464   4.361   6.399
 1235SOL     OW 4603   6.216   5.060   0.752
 1235SOL    HW1 4604   6.252   5.082   0.661
 1235SOL    HW2 4605   6.165   5.139   0.787
 1236SOL     OW 4606   0.704   1.128   2.786
 1236SOL    HW1 4607   0.639   1.064   2.828
 1236SOL    HW2 4608   0.660   1.174   2.709
 1237SOL     OW 4609   1.265   0.307   4.157
 1237SOL    HW1 4610   1.219   0.284   4.071
 1237SOL    HW2 4611   1.248   0.234   4.224
 1238SOL     OW 4612   0.171   0.768   3.859
 1238SOL    HW1 4613   0.237   0.826   3.811
 1238SOL    HW2 4614   0.210   0.678   3.875
 1239SOL     OW 4615   4.992   4.266   3.735
 1239SOL    HW1 4616   5.065   4.331   3.713
 1239SOL    HW2 4617   4.947   4.238   3.650
 1240SOL     OW 4618   0.489   3.810   0.952
 1240SOL    HW1 4619   0.536   3.743   0.895
 1240SOL    HW2 4620   0.498   3.901   0.912
 1241SOL     OW 4621   3.449   5.266   5.646
 1241SOL    HW1 4622   3.492   5.355   5.630
 1241SOL    HW2 4623   3.353   5.270   5.616
 1242SOL     OW 4624   1.980   5.441   0.598
 1242SOL    HW1 4625   2.070   5.452   0.556
 1242SOL    HW2 4626   1.910   5.473   0.534
 1243SOL     OW 4627   0.258   3.956   3.481
 1243SOL    HW1 4628   0.211   3.948   3.569
 1243SOL    HW2 4629   0.357   3.953   3.495
 1244SOL     OW 4630   6.963   6.792   4.774
 1244SOL    HW1 4631   6.951   6.830   4.682
 1244SOL    HW2 4632   6.988   6.865   4.837
 1245SOL     OW 4633   5.030   6.649   1.205
 1245SOL    HW1 4634   5.079   6.585   1.146
 1245SOL    HW2 4635   4.956   6.601   1.252
 1246SOL     OW 4636   5.838   2.222   1.915
 1246SOL    HW1 4637   5.765   2.215   1.848
 1246SOL    HW2 4638   5.872   2.130   1.937
 1247SOL     OW 4639   5.210   6.691   2.418
 1247SOL    HW1 4640   5.221   6.790   2.419
 1247SOL    HW2 4641   5.157   6.664   2.338
 1248SOL     OW 4642   0.680   7.006   4.805
 1248SOL    HW1 4643   0.657   6.909   4.807
 1248SOL    HW2 4644   0.649   0.026   4.889
 1249SOL     OW 4645   6.094   6.613   6.654
 1249SOL    HW1 4646   6.038   6.667   6.591
 1249SOL    HW2 4647   6.035   6.560   6.714
 1250SOL     OW 4648   0.524   4.688   5.026
 1250SOL    HW1 4649   0.480   4.766   4.983
 1250SOL    HW2 4650   0.616   4.713   5.055
 1251SOL     OW 4651   2.902   0.432   2.639
 1251SOL    HW1 4652   2.920   0.461   2.545
 1251SOL    HW2 4653   2.909   0.332   2.644
 1252SOL     OW 4654   2.391   5.483   6.321
 1252SOL    HW1 4655   2.355   5.400   6.363
 1252SOL    HW2 4656   2.328   5.559   6.337
 1253SOL     OW 4657   2.815   5.636   6.984
 1253SOL    HW1 4658   2.748   5.695   6.939
 1253SOL    HW2 4659   2.906   5.677   6.978
 1254SOL     OW 4660   6.237   1.438   4.040
 1254SOL    HW1 4661   6.150   1.468   4.080
 1254SOL    HW2 4662   6.309   1.442   4.110
 1255SOL     OW 4663   6.124   1.956   5.950
 1255SOL    HW1 4664   6.178   1.996   6.024
 1255SOL    HW2 4665   6.123   2.019   5.872
 1256SOL     OW 4666   6.905   5.444   5.436
 1256SOL    HW1 4667   6.947   5.404   5.518
 1256SOL    HW2 4668   6.948   5.532   5.416
 1257SOL     OW 4669   0.064   6.204   3.345
 1257SOL    HW1 4670   0.142   6.154   3.384
 1257SOL    HW2 4671   0.084   6.302   3.346
 1258SOL     OW 4672   4.194   5.348   6.729
 1258SOL    HW1 4673   4.167   5.260   6.768
 1258SOL    HW2 4674   4.138   5.369   6.650
 1259SOL     OW 4675   5.167   6.679   5.172
 1259SOL    HW1 4676   5.242   6.723   5.221
 1259SOL    HW2 4677   5.169   6.707   5.076
 1260SOL     OW 4678   3.089   0.997   0.534
 1260SOL    HW1 4679   3.001   0.978   0.491
 1260SOL    HW2 4680   3.149   0.918   0.526
 1261SOL     OW 4681   0.362   4.299   4.486
 1261SOL    HW1 4682   0.265   4.274   4.493
 1261SOL    HW2 4683   0.370   4.390   4.446
 1262SOL     OW 4684   3.795   5.654   1.701
 1262SOL    HW1 4685   3.811   5.564   1.741
 1262SOL    HW2 4686   3.790   5.723   1.774
 1263SOL     OW 4687   6.868   1.390   1.461
 1263SOL    HW1 4688   6.902   1.296   1.450
 1263SOL    HW2 4689   6.780   1.387   1.510
 1264SOL     OW 4690   6.461   2.203   4.650
 1264SOL    HW1 4691   6.441   2.241   4.741
 1264SOL    HW2 4692   6.469   2.104   4.657
 1265SOL     OW 4693   5.951   5.669   4.758
 1265SOL    HW1 4694   6.021   5.740   4.767
 1265SOL    HW2 4695   5.991   5.580   4.782
 1266SOL     OW 4696   2.956   0.922   3.721
 1266SOL    HW1 4697   2.977   0.901   3.626
 1266SOL    HW2 4698   2.962   0.839   3.776
 1267SOL     OW 4699   0.481   4.618   2.120
 1267SOL    HW1 4700   0.423   4.601   2.040
 1267SOL    HW2 4701   0.568   4.658   2.091
 1268SOL     OW 4702   5.916   4.366   6.836
 1268SOL    HW1 4703   6.008   4.401   6.815
 1268SOL    HW2 4704   5.920   4.312   6.920
 1269SOL     OW 4705   6.663   4.954   6.500
 1269SOL    HW1 4706   6.762   4.959   6.511
 1269SOL    HW2 4707   6.626   4.887   6.565
 1270SOL     OW 4708   1.523   1.773   3.953
 1270SOL    HW1 4709   1.491   1.740   3.864
 1270SOL    HW2 4710   1.584   1.851   3.939
 1271SOL     OW 4711   5.942   2.897   3.220
 1271SOL    HW1 4712   5.860   2.886   3.164
 1271SOL    HW2 4713   5.990   2.810   3.227
 1272SOL     OW 4714   6.139   6.449   0.083
 1272SOL    HW1 4715   6.176   6.539   0.103
 1272SOL    HW2 4716   6.050   6.438   0.128
 1273SOL     OW 4717   2.467   0.035   4.989
 1273SOL    HW1 4718   2.436   0.098   5.061
 1273SOL    HW2 4719   2.496   0.087   4.909
 1274SOL     OW 4720   5.941   2.311   2.180
 1274SOL    HW1 4721   5.972   2.401   2.209
 1274SOL    HW2 4722   5.890   2.319   2.094
 1275SOL     OW 4723   3.997   1.581   3.853
 1275SOL    HW1 4724   3.927   1.532   3.905
 1275SOL    HW2 4725   4.038   1.518   3.787
 1276SOL     OW 4726   5.951   0.055   2.558
 1276SOL    HW1 4727   6.034   0.005   2.535
 1276SOL    HW2 4728   5.878   7.014   2.581
 1277SOL     OW 4729   1.223   1.436   4.333
 1277SOL    HW1 4730   1.304   1.380   4.314
 1277SOL    HW2 4731   1.164   1.389   4.398
 1278SOL     OW 4732   3.337   1.714   5.222
 1278SOL    HW1 4733   3.257   1.718   5.282
 1278SOL    HW2 4734   3.333   1.630   5.167
 1279SOL     OW 4735   2.164   5.180   0.462
 1279SOL    HW1 4736   2.119   5.178   0.551
 1279SOL    HW2 4737   2.186   5.275   0.438
 1280SOL     OW 4738   1.127   5.992   2.942
 1280SOL    HW1 4739   1.192   6.022   2.872
 1280SOL    HW2 4740   1.096   5.899   2.921
 1281SOL     OW 4741   0.637   6.770   3.969
 1281SOL    HW1 4742   0.662   6.746   3.875
 1281SOL    HW2 4743   0.614   6.687   4.019
 1282SOL     OW 4744   1.252   6.311   2.708
 1282SOL    HW1 4745   1.348   6.297   2.685
 1282SOL    HW2 4746   1.243   6.317   2.808
 1283SOL     OW 4747   5.231   4.220   5.033
 1283SOL    HW1 4748   5.256   4.188   5.124
 1283SOL    HW2 4749   5.313   4.251   4.985
 1284SOL     OW 4750   3.195   1.860   3.110
 1284SOL    HW1 4751   3.095   1.862   3.107
 1284SOL    HW2 4752   3.225   1.769   3.139
 1285SOL     OW 4753   6.070   2.988   6.145
 1285SOL    HW1 4754   6.066   2.980   6.045
 1285SOL    HW2 4755   6.113   2.906   6.183
 1286SOL     OW 4756   5.932   5.644   1.058
 1286SOL    HW1 4757   5.926   5.623   1.156
 1286SOL    HW2 4758   5.959   5.740   1.046
 1287SOL     OW 4759   6.496   4.043   5.791
 1287SOL    HW1 4760   6.549   4.030   5.707
 1287SOL    HW2 4761   6.401   4.062   5.767
 1288SOL     OW 4762   6.534   3.699   3.849
 1288SOL    HW1 4763   6.497   3.616   3.808
 1288SOL    HW2 4764   6.620   3.723   3.805
 1289SOL     OW 4765   0.349   4.972   2.750
 1289SOL    HW1 4766   0.376   4.911   2.825
 1289SOL    HW2 4767   0.354   5.067   2.781
 1290SOL     OW 4768   0.734   0.253   1.768
 1290SOL    HW1 4769   0.742   0.168   1.818
 1290SOL    HW2 4770   0.637   0.271   1.749
 1291SOL     OW 4771   1.768   6.074   1.423
 1291SOL    HW1 4772   1.712   6.023   1.357
 1291SOL    HW2 4773   1.818   6.009   1.481
 1292SOL     OW 4774   1.141   6.148   6.779
 1292SOL    HW1 4775   1.173   6.088   6.853
 1292SOL    HW2 4776   1.163   6.243   6.802
 1293SOL     OW 4777   6.240   2.163   6.611
 1293SOL    HW1 4778   6.306   2.223   6.565
 1293SOL    HW2 4779   6.147   2.194   6.592
 1294SOL     OW 4780   0.529   1.691   3.520
 1294SOL    HW1 4781   0.446   1.637   3.532
 1294SOL    HW2 4782   0.520   1.749   3.439
 1295SOL     OW 4783   4.960   3.529   1.385
 1295SOL    HW1 4784   5.003   3.567   1.303
 1295SOL    HW2 4785   4.933   3.434   1.367
 1296SOL     OW 4786   3.437   1.998   6.978
 1296SOL    HW1 4787   3.527   2.000   7.023
 1296SOL    HW2 4788   3.366   2.009   0.023
 1297SOL     OW 4789   6.727   0.688   5.983
 1297SOL    HW1 4790   6.730   0.726   6.076
 1297SOL    HW2 4791   6.766   0.755   5.919
 1298SOL     OW 4792   6.596   2.897   3.599
 1298SOL    HW1 4793   6.601   2.798   3.597
 1298SOL    HW2 4794   6.517   2.926   3.653
 1299SOL     OW 4795   1.565   2.937   4.380
 1299SOL    HW1 4796   1.508   2.951   4.460
 1299SOL    HW2 4797   1.647   2.995   4.386
 1300SOL     OW 4798   3.878   3.334   2.742
 1300SOL    HW1 4799   3.972   3.367   2.731
 1300SOL    HW2 4800   3.852   3.282   2.661
 1301SOL     OW 4801   1.264   1.811   2.230
 1301SOL    HW1 4802   1.272   1.899   2.184
 1301SOL    HW2 4803   1.204   1.751   2.178
 1302SOL     OW 4804   2.426   6.213   5.742
 1302SOL    HW1 4805   2.333   6.232   5.710
 1302SOL    HW2 4806   2.482   6.295   5.730
 1303SOL     OW 4807   3.101   0.294   1.505
 1303SOL    HW1 4808   3.113   0.385   1.465
 1303SOL    HW2 4809   3.096   0.226   1.432
 1304SOL     OW 4810   3.746   1.145   5.932
 1304SOL    HW1 4811   3.709   1.126   5.841
 1304SOL    HW2 4812   3.802   1.067   5.962
 1305SOL     OW 4813   5.699   6.476   3.845
 1305SOL    HW1 4814   5.717   6.427   3.931
 1305SOL    HW2 4815   5.645   6.558   3.865
 1306SOL     OW 4816   1.495   5.292   4.516
 1306SOL    HW1 4817   1.424   5.333   4.574
 1306SOL    HW2 4818   1.585   5.320   4.549
 1307SOL     OW 4819   0.881   0.969   4.124
 1307SOL    HW1 4820   0.865   0.907   4.201
 1307SOL    HW2 4821   0.910   1.058   4.159
 1308SOL     OW 4822   4.868   5.909   3.154
 1308SOL    HW1 4823   4.876   5.918   3.253
 1308SOL    HW2 4824   4.814   5.985   3.118
 1309SOL     OW 4825   5.267   3.063   4.312
 1309SOL    HW1 4826   5.328   3.117   4.254
 1309SOL    HW2 4827   5.312   3.045   4.400
 1310SOL     OW 4828   5.211   3.519   5.685
 1310SOL    HW1 4829   5.201   3.603   5.739
 1310SOL    HW2 4830   5.299   3.476   5.706
 1311SOL     OW 4831   4.990   5.022   5.505
 1311SOL    HW1 4832   5.056   4.948   5.485
 1311SOL    HW2 4833   4.931   5.036   5.425
 1312SOL     OW 4834   6.452   0.247   1.810
 1312SOL    HW1 4835   6.381   0.242   1.741
 1312SOL    HW2 4836   6.438   0.329   1.866
 1313SOL     OW 4837   2.970   5.062   4.955
 1313SOL    HW1 4838   3.037   5.002   4.912
 1313SOL    HW2 4839   2.928   5.015   5.033
 1314SOL     OW 4840   6.627   1.220   6.013
 1314SOL    HW1 4841   6.649   1.281   5.937
 1314SOL    HW2 4842   6.528   1.204   6.015
 1315SOL     OW 4843   1.660   6.811   3.529
 1315SOL    HW1 4844   1.689   6.724   3.570
 1315SOL    HW2 4845   1.609   6.792   3.445
 1316SOL     OW 4846   3.072   6.521   3.284
 1316SOL    HW1 4847   3.046   6.458   3.211
 1316SOL    HW2 4848   3.134   6.590   3.247
 1317SOL     OW 4849   0.640   3.586   3.857
 1317SOL    HW1 4850   0.607   3.680   3.868
 1317SOL    HW2 4851   0.664   3.549   3.947
 1318SOL     OW 4852   0.866   6.150   1.572
 1318SOL    HW1 4853   0.875   6.069   1.631
 1318SOL    HW2 4854   0.889   6.126   1.478
 1319SOL     OW 4855   6.610   0.190   0.563
 1319SOL    HW1 4856   6.625   0.165   0.468
 1319SOL    HW2 4857   6.554   0.273   0.567
 1320SOL     OW 4858   4.822   5.688   4.512
 1320SOL    HW1 4859   4.722   5.696   4.512
 1320SOL    HW2 4860   4.861   5.757   4.452
 1321SOL     OW 4861   3.540   1.338   0.490
 1321SOL    HW1 4862   3.558   1.405   0.561
 1321SOL    HW2 4863   3.456   1.364   0.441
 1322SOL     OW 4864   5.299   1.315   6.346
 1322SOL    HW1 4865   5.223   1.267   6.301
 1322SOL    HW2 4866   5.308   1.407   6.307
 1323SOL     OW 4867   6.731   0.632   4.064
 1323SOL    HW1 4868   6.813   0.688   4.053
 1323SOL    HW2 4869   6.657   0.688   4.102
 1324SOL     OW 4870   1.179   2.541   0.681
 1324SOL    HW1 4871   1.106   2.477   0.703
 1324SOL    HW2 4872   1.184   2.553   0.582
 1325SOL     OW 4873   4.258   5.431   3.678
 1325SOL    HW1 4874   4.166   5.469   3.674
 1325SOL    HW2 4875   4.261   5.358   3.747
 1326SOL     OW 4876   5.617   3.940   4.841
 1326SOL    HW1 4877   5.582   3.879   4.771
 1326SOL    HW2 4878   5.544   3.961   4.907
 1327SOL     OW 4879   2.672   6.107   4.222
 1327SOL    HW1 4880   2.577   6.100   4.251
 1327SOL    HW2 4881   2.713   6.190   4.258
 1328SOL     OW 4882   2.437   1.211   1.412
 1328SOL    HW1 4883   2.384   1.160   1.481
 1328SOL    HW2 4884   2.529   1.227   1.447
 1329SOL     OW 4885   1.116   6.296   1.818
 1329SOL    HW1 4886   1.111   6.258   1.910
 1329SOL    HW2 4887   1.209   6.330   1.801
 1330SOL     OW 4888   4.744   6.389   1.062
 1330SOL    HW1 4889   4.837   6.352   1.058
 1330SOL    HW2 4890   4.680   6.314   1.082
 1331SOL     OW 4891   0.954   2.068   1.815
 1331SOL    HW1 4892   0.902   2.109   1.889
 1331SOL    HW2 4893   0.939   2.119   1.730
 1332SOL     OW 4894   4.449   2.304   1.272
 1332SOL    HW1 4895   4.529   2.320   1.215
 1332SOL    HW2 4896   4.409   2.392   1.298
 1333SOL     OW 4897   4.068   3.553   4.818
 1333SOL    HW1 4898   4.083   3.505   4.731
 1333SOL    HW2 4899   4.060   3.651   4.800
 1334SOL     OW 4900   1.123   3.653   3.861
 1334SOL    HW1 4901   1.073   3.607   3.935
 1334SOL    HW2 4902   1.181   3.587   3.813
 1335SOL     OW 4903   1.687   6.023   3.144
 1335SOL    HW1 4904   1.655   5.960   3.214
 1335SOL    HW2 4905   1.630   6.014   3.063
 1336SOL     OW 4906   0.113   6.923   5.554
 1336SOL    HW1 4907   0.132   6.844   5.497
 1336SOL    HW2 4908   0.196   6.977   5.567
 1337SOL     OW 4909   4.118   0.014   0.210
 1337SOL    HW1 4910   4.127   0.110   0.183
 1337SOL    HW2 4911   4.185   6.983   0.160
 1338SOL     OW 4912   3.086   5.303   1.351
 1338SOL    HW1 4913   3.070   5.210   1.385
 1338SOL    HW2 4914   3.040   5.368   1.411
 1339SOL     OW 4915   0.254   4.384   6.553
 1339SOL    HW1 4916   0.217   4.462   6.604
 1339SOL    HW2 4917   0.305   4.417   6.474
 1340SOL     OW 4918   2.773   1.372   6.164
 1340SOL    HW1 4919   2.692   1.418   6.127
 1340SOL    HW2 4920   2.767   1.369   6.264
 1341SOL     OW 4921   5.836   2.350   4.483
 1341SOL    HW1 4922   5.916   2.409   4.477
 1341SOL    HW2 4923   5.767   2.393   4.541
 1342SOL     OW 4924   0.848   6.866   1.670
 1342SOL    HW1 4925   0.814   6.939   1.729
 1342SOL    HW2 4926   0.801   6.781   1.691
 1343SOL     OW 4927   2.700   5.809   3.925
 1343SOL    HW1 4928   2.740   5.830   4.014
 1343SOL    HW2 4929   2.619   5.866   3.910
 1344SOL     OW 4930   5.293   1.527   3.060
 1344SOL    HW1 4931   5.199   1.559   3.070
 1344SOL    HW2 4932   5.306   1.492   2.967
 1345SOL     OW 4933   0.297   5.653   2.589
 1345SOL    HW1 4934   0.280   5.605   2.503
 1345SOL    HW2 4935   0.246   5.739   2.589
 1346SOL     OW 4936   0.316   1.493   3.584
 1346SOL    HW1 4937   0.217   1.501   3.571
 1346SOL    HW2 4938   0.356   1.445   3.506
 1347SOL     OW 4939   4.464   0.654   3.830
 1347SOL    HW1 4940   4.490   0.720   3.901
 1347SOL    HW2 4941   4.365   0.659   3.816
 1348SOL     OW 4942   4.374   5.636   4.430
 1348SOL    HW1 4943   4.443   5.708   4.425
 1348SOL    HW2 4944   4.304   5.652   4.361
 1349SOL     OW 4945   4.616   2.115   0.268
 1349SOL    HW1 4946   4.561   2.123   0.184
 1349SOL    HW2 4947   4.555   2.107   0.347
 1350SOL     OW 4948   3.199   0.685   4.962
 1350SOL    HW1 4949   3.203   0.755   4.891
 1350SOL    HW2 4950   3.117   0.699   5.018
 1351SOL     OW 4951   1.818   1.529   3.484
 1351SOL    HW1 4952   1.800   1.565   3.393
 1351SOL    HW2 4953   1.899   1.574   3.522
 1352SOL     OW 4954   1.145   6.616   4.240
 1352SOL    HW1 4955   1.170   6.586   4.332
 1352SOL    HW2 4956   1.067   6.678   4.245
 1353SOL     OW 4957   2.131   3.026   5.392
 1353SOL    HW1 4958   2.200   3.093   5.419
 1353SOL    HW2 4959   2.047   3.073   5.366
 1354SOL     OW 4960   0.466   0.153   0.157
 1354SOL    HW1 4961   0.472   0.170   0.256
 1354SOL    HW2 4962   0.451   0.056   0.141
 1355SOL     OW 4963   3.944   2.889   6.881
 1355SOL    HW1 4964   4.041   2.906   6.899
 1355SOL    HW2 4965   3.934   2.851   6.789
 1356SOL     OW 4966   3.260   2.755   1.610
 1356SOL    HW1 4967   3.303   2.790   1.693
 1356SOL    HW2 4968   3.178   2.703   1.634
 1357SOL     OW 4969   3.395   2.955   5.833
 1357SOL    HW1 4970   3.368   2.918   5.922
 1357SOL    HW2 4971   3.382   2.885   5.763
 1358SOL     OW 4972   1.474   3.889   5.668
 1358SOL    HW1 4973   1.558   3.939   5.648
 1358SOL    HW2 4974   1.486   3.836   5.752
 1359SOL     OW 4975   0.244   1.866   6.322
 1359SOL    HW1 4976   0.249   1.782   6.376
 1359SOL    HW2 4977   0.295   1.938   6.369
 1360SOL     OW 4978   3.103   3.499   4.013
 1360SOL    HW1 4979   3.092   3.512   3.915
 1360SOL    HW2 4980   3.015   3.476   4.054
 1361SOL     OW 4981   0.737   6.381   1.127
 1361SOL    HW1 4982   0.660   6.318   1.131
 1361SOL    HW2 4983   0.807   6.344   1.066
 1362SOL     OW 4984   3.360   1.705   6.937
 1362SOL    HW1 4985   3.442   1.658   6.969
 1362SOL    HW2 4986   3.385   1.795   6.901
 1363SOL     OW 4987   0.054   6.534   0.941
 1363SOL    HW1 4988   7.021   6.472   0.887
 1363SOL    HW2 4989   0.111   6.588   0.879
 1364SOL     OW 4990   1.339   3.861   0.852
 1364SOL    HW1 4991   1.426   3.877   0.899
 1364SOL    HW2 4992   1.274   3.818   0.915
 1365SOL     OW 4993   1.007   3.462   6.154
 1365SOL    HW1 4994   1.019   3.510   6.241
 1365SOL    HW2 4995   1.065   3.381   6.153
 1366SOL     OW 4996   3.585   0.147   1.446
 1366SOL    HW1 4997   3.521   0.144   1.369
 1366SOL    HW2 4998   3.549   0.207   1.517
 1367SOL     OW 4999   1.187   0.105   4.332
 1367SOL    HW1 5000   1.207   0.123   4.428
 1367SOL    HW2 5001   1.224   0.016   4.306
 1368SOL     OW 5002   1.878   6.498   4.780
 1368SOL    HW1 5003   1.972   6.471   4.759
 1368SOL    HW2 5004   1.838   6.545   4.702
 1369SOL     OW 5005   2.136   5.317   4.074
 1369SOL    HW1 5006   2.063   5.325   4.006
 1369SOL    HW2 5007   2.136   5.399   4.132
 1370SOL     OW 5008   6.657   2.372   3.003
 1370SOL    HW1 5009   6.590   2.432   3.048
 1370SOL    HW2 5010   6.747   2.414   3.010
 1371SOL     OW 5011   6.097   2.155   5.744
 1371SOL    HW1 5012   6.015   2.186   5.695
 1371SOL    HW2 5013   6.178   2.176   5.689
 1372SOL     OW 5014   5.526   2.514   1.488
 1372SOL    HW1 5015   5.447   2.536   1.545
 1372SOL    HW2 5016   5.520   2.419   1.457
 1373SOL     OW 5017   5.992   2.922   1.719
 1373SOL    HW1 5018   5.994   2.824   1.738
 1373SOL    HW2 5019   5.947   2.938   1.631
 1374SOL     OW 5020   4.090   3.223   2.507
 1374SOL    HW1 5021   3.996   3.192   2.522
 1374SOL    HW2 5022   4.109   3.224   2.409
 1375SOL     OW 5023   5.291   4.903   4.314
 1375SOL    HW1 5024   5.319   4.954   4.232
 1375SOL    HW2 5025   5.282   4.966   4.391
 1376SOL     OW 5026   3.110   4.257   5.591
 1376SOL    HW1 5027   3.095   4.318   5.513
 1376SOL    HW2 5028   3.084   4.302   5.675
 1377SOL     OW 5029   1.105   1.840   2.973
 1377SOL    HW1 5030   1.022   1.807   3.018
 1377SOL    HW2 5031   1.091   1.934   2.942
 1378SOL     OW 5032   5.057   2.202   4.488
 1378SOL    HW1 5033   4.975   2.229   4.437
 1378SOL    HW2 5034   5.071   2.265   4.564
 1379SOL     OW 5035   4.388   5.470   0.212
 1379SOL    HW1 5036   4.406   5.407   0.287
 1379SOL    HW2 5037   4.304   5.442   0.165
 1380SOL     OW 5038   0.580   6.210   3.807
 1380SOL    HW1 5039   0.574   6.266   3.725
 1380SOL    HW2 5040   0.490   6.202   3.850
 1381SOL     OW 5041   6.276   2.605   5.799
 1381SOL    HW1 5042   6.306   2.601   5.894
 1381SOL    HW2 5043   6.312   2.688   5.756
 1382SOL     OW 5044   4.141   2.221   6.431
 1382SOL    HW1 5045   4.164   2.125   6.443
 1382SOL    HW2 5046   4.223   2.273   6.408
 1383SOL     OW 5047   6.378   0.569   0.900
 1383SOL    HW1 5048   6.361   0.492   0.962
 1383SOL    HW2 5049   6.473   0.600   0.910
 1384SOL     OW 5050   6.146   2.110   2.055
 1384SOL    HW1 5051   6.153   2.182   2.124
 1384SOL    HW2 5052   6.154   2.150   1.963
 1385SOL     OW 5053   6.882   5.996   1.854
 1385SOL    HW1 5054   6.863   5.936   1.931
 1385SOL    HW2 5055   6.955   5.957   1.798
 1386SOL     OW 5056   2.055   6.454   3.897
 1386SOL    HW1 5057   2.011   6.509   3.968
 1386SOL    HW2 5058   2.054   6.358   3.924
 1387SOL     OW 5059   1.940   6.077   2.057
 1387SOL    HW1 5060   1.868   6.146   2.063
 1387SOL    HW2 5061   2.005   6.102   1.985
 1388SOL     OW 5062   6.558   0.456   1.611
 1388SOL    HW1 5063   6.541   0.363   1.643
 1388SOL    HW2 5064   6.485   0.483   1.548
 1389SOL     OW 5065   6.296   0.760   2.049
 1389SOL    HW1 5066   6.359   0.836   2.036
 1389SOL    HW2 5067   6.211   0.793   2.091
 1390SOL     OW 5068   1.338   1.679   4.399
 1390SOL    HW1 5069   1.401   1.702   4.325
 1390SOL    HW2 5070   1.272   1.611   4.367
 1391SOL     OW 5071   0.451   3.017   3.532
 1391SOL    HW1 5072   0.491   2.988   3.618
 1391SOL    HW2 5073   0.456   2.942   3.466
 1392SOL     OW 5074   5.287   4.119   4.319
 1392SOL    HW1 5075   5.330   4.028   4.325
 1392SOL    HW2 5076   5.190   4.110   4.339
 1393SOL     OW 5077   3.697   5.113   6.595
 1393SOL    HW1 5078   3.622   5.170   6.562
 1393SOL    HW2 5079   3.774   5.120   6.532
 1394SOL     OW 5080   1.328   6.159   0.053
 1394SOL    HW1 5081   1.399   6.117   0.110
 1394SOL    HW2 5082   1.271   6.088   0.013
 1395SOL     OW 5083   3.994   4.658   5.842
 1395SOL    HW1 5084   3.895   4.646   5.842
 1395SOL    HW2 5085   4.016   4.753   5.865
 1396SOL     OW 5086   5.942   6.190   3.763
 1396SOL    HW1 5087   5.985   6.248   3.694
 1396SOL    HW2 5088   5.843   6.197   3.756
 1397SOL     OW 5089   4.747   6.265   5.240
 1397SOL    HW1 5090   4.790   6.355   5.248
 1397SOL    HW2 5091   4.817   6.195   5.233
 1398SOL     OW 5092   1.732   0.693   4.152
 1398SOL    HW1 5093   1.747   0.790   4.130
 1398SOL    HW2 5094   1.801   0.663   4.218
 1399SOL     OW 5095   2.827   5.649   2.135
 1399SOL    HW1 5096   2.865   5.571   2.087
 1399SOL    HW2 5097   2.757   5.618   2.200
 1400SOL     OW 5098   1.328   0.333   3.150
 1400SOL    HW1 5099   1.395   0.259   3.157
 1400SOL    HW2 5100   1.363   0.415   3.195
 1401SOL     OW 5101   6.751   1.527   4.246
 1401SOL    HW1 5102   6.764   1.440   4.293
 1401SOL    HW2 5103   6.670   1.573   4.283
 1402SOL     OW 5104   6.553   3.118   6.858
 1402SOL    HW1 5105   6.558   3.192   6.792
 1402SOL    HW2 5106   6.498   3.146   6.937
 1403SOL     OW 5107   3.727   0.442   2.006
 1403SOL    HW1 5108   3.631   0.463   1.983
 1403SOL    HW2 5109   3.782   0.525   1.995
 1404SOL     OW 5110   4.923   1.634   0.320
 1404SOL    HW1 5111   4.866   1.667   0.245
 1404SOL    HW2 5112   4.930   1.706   0.390
 1405SOL     OW 5113   3.063   2.943   1.116
 1405SOL    HW1 5114   3.020   2.963   1.204
 1405SOL    HW2 5115   3.099   3.027   1.077
 1406SOL     OW 5116   1.220   4.213   1.568
 1406SOL    HW1 5117   1.302   4.248   1.613
 1406SOL    HW2 5118   1.147   4.200   1.636
 1407SOL     OW 5119   6.825   2.230   2.693
 1407SOL    HW1 5120   6.922   2.236   2.713
 1407SOL    HW2 5121   6.790   2.321   2.669
 1408SOL     OW 5122   5.958   6.203   6.293
 1408SOL    HW1 5123   5.961   6.151   6.379
 1408SOL    HW2 5124   6.047   6.198   6.248
 1409SOL     OW 5125   0.621   1.679   3.790
 1409SOL    HW1 5126   0.564   1.612   3.838
 1409SOL    HW2 5127   0.590   1.687   3.695
 1410SOL     OW 5128   6.386   2.273   0.047
 1410SOL    HW1 5129   6.360   2.202   7.005
 1410SOL    HW2 5130   6.306   2.297   0.102
 1411SOL     OW 5131   1.824   0.728   2.159
 1411SOL    HW1 5132   1.753   0.783   2.116
 1411SOL    HW2 5133   1.904   0.722   2.099
 1412SOL     OW 5134   1.012   2.484   6.590
 1412SOL    HW1 5135   0.978   2.474   6.496
 1412SOL    HW2 5136   1.108   2.456   6.593
 1413SOL     OW 5137   2.612   6.769   3.155
 1413SOL    HW1 5138   2.646   6.686   3.111
 1413SOL    HW2 5139   2.687   6.814   3.204
 1414SOL     OW 5140   2.761   1.061   2.051
 1414SOL    HW1 5141   2.671   1.037   2.015
 1414SOL    HW2 5142   2.754   1.147   2.103
 1415SOL     OW 5143   4.710   6.039   4.890
 1415SOL    HW1 5144   4.742   6.133   4.901
 1415SOL    HW2 5145   4.780   5.975   4.923
 1416SOL     OW 5146   4.372   5.342   3.408
 1416SOL    HW1 5147   4.327   5.374   3.491
 1416SOL    HW2 5148   4.418   5.255   3.425
 1417SOL     OW 5149   3.186   3.117   6.220
 1417SOL    HW1 5150   3.262   3.070   6.265
 1417SOL    HW2 5151   3.220   3.201   6.177
 1418SOL     OW 5152   3.466   4.112   2.899
 1418SOL    HW1 5153   3.464   4.147   2.993
 1418SOL    HW2 5154   3.559   4.121   2.862
 1419SOL     OW 5155   3.842   6.271   3.920
 1419SOL    HW1 5156   3.882   6.205   3.984
 1419SOL    HW2 5157   3.915   6.324   3.877
 1420SOL     OW 5158   0.083   5.862   1.766
 1420SOL    HW1 5159   0.074   5.776   1.716
 1420SOL    HW2 5160   0.167   5.860   1.821
 1421SOL     OW 5161   4.021   0.911   2.237
 1421SOL    HW1 5162   3.927   0.922   2.205
 1421SOL    HW2 5163   4.023   0.845   2.312
 1422SOL     OW 5164   2.950   0.332   0.407
 1422SOL    HW1 5165   3.022   0.308   0.472
 1422SOL    HW2 5166   2.861   0.302   0.443
 1423SOL     OW 5167   5.083   0.369   1.900
 1423SOL    HW1 5168   5.151   0.441   1.884
 1423SOL    HW2 5169   4.992   0.410   1.907
 1424SOL     OW 5170   0.074   4.999   2.591
 1424SOL    HW1 5171   0.069   4.922   2.654
 1424SOL    HW2 5172   0.118   5.076   2.636
 1425SOL     OW 5173   1.498   0.372   4.606
 1425SOL    HW1 5174   1.526   0.373   4.510
 1425SOL    HW2 5175   1.576   0.393   4.664
 1426SOL     OW 5176   1.822   1.200   5.516
 1426SOL    HW1 5177   1.856   1.285   5.477
 1426SOL    HW2 5178   1.799   1.214   5.612
 1427SOL     OW 5179   5.625   0.691   5.079
 1427SOL    HW1 5180   5.629   0.636   4.996
 1427SOL    HW2 5181   5.563   0.769   5.066
 1428SOL     OW 5182   5.362   1.108   0.265
 1428SOL    HW1 5183   5.268   1.114   0.298
 1428SOL    HW2 5184   5.419   1.174   0.315
 1429SOL     OW 5185   5.975   6.476   6.841
 1429SOL    HW1 5186   5.886   6.490   6.882
 1429SOL    HW2 5187   6.046   6.477   6.911
 1430SOL     OW 5188   1.855   4.258   3.096
 1430SOL    HW1 5189   1.946   4.240   3.133
 1430SOL    HW2 5190   1.861   4.260   2.996
 1431SOL     OW 5191   1.365   0.389   1.269
 1431SOL    HW1 5192   1.292   0.436   1.219
 1431SOL    HW2 5193   1.418   0.455   1.322
 1432SOL     OW 5194   2.722   0.112   0.808
 1432SOL    HW1 5195   2.766   0.108   0.717
 1432SOL    HW2 5196   2.624   0.123   0.797
 1433SOL     OW 5197   4.243   0.119   4.273
 1433SOL    HW1 5198   4.293   0.050   4.221
 1433SOL    HW2 5199   4.146   0.099   4.271
 1434SOL     OW 5200   1.131   1.060   5.182
 1434SOL    HW1 5201   1.071   1.069   5.262
 1434SOL    HW2 5202   1.102   1.123   5.111
 1435SOL     OW 5203   6.873   2.287   3.273
 1435SOL    HW1 5204   6.892   2.385   3.271
 1435SOL    HW2 5205   6.889   2.248   3.182
 1436SOL     OW 5206   4.329   3.695   0.587
 1436SOL    HW1 5207   4.259   3.721   0.653
 1436SOL    HW2 5208   4.339   3.595   0.586
 1437SOL     OW 5209   4.402   1.416   2.276
 1437SOL    HW1 5210   4.500   1.403   2.259
 1437SOL    HW2 5211   4.358   1.447   2.192
 1438SOL     OW 5212   2.568   0.823   1.630
 1438SOL    HW1 5213   2.571   0.726   1.654
 1438SOL    HW2 5214   2.534   0.834   1.537
 1439SOL     OW 5215   0.299   5.861   2.204
 1439SOL    HW1 5216   0.200   5.852   2.220
 1439SOL    HW2 5217   0.338   5.770   2.190
 1440SOL     OW 5218   2.154   3.011   1.984
 1440SOL    HW1 5219   2.196   2.999   2.074
 1440SOL    HW2 5220   2.218   2.982   1.913
 1441SOL     OW 5221   5.283   6.252   0.400
 1441SOL    HW1 5222   5.241   6.269   0.489
 1441SOL    HW2 5223   5.263   6.328   0.338
 1442SOL     OW 5224   5.200   5.154   0.688
 1442SOL    HW1 5225   5.271   5.126   0.754
 1442SOL    HW2 5226   5.134   5.214   0.734
 1443SOL     OW 5227   0.357   2.628   2.081
 1443SOL    HW1 5228   0.417   2.560   2.124
 1443SOL    HW2 5229   0.375   2.631   1.983
 1444SOL     OW 5230   0.713   5.502   6.175
 1444SOL    HW1 5231   0.735   5.511   6.272
 1444SOL    HW2 5232   0.638   5.564   6.152
 1445SOL     OW 5233   0.888   3.184   1.307
 1445SOL    HW1 5234   0.880   3.181   1.407
 1445SOL    HW2 5235   0.979   3.152   1.280
 1446SOL     OW 5236   6.778   5.953   0.643
 1446SOL    HW1 5237   6.856   5.991   0.692
 1446SOL    HW2 5238   6.695   5.965   0.697
 1447SOL     OW 5239   6.361   5.486   4.294
 1447SOL    HW1 5240   6.262   5.478   4.309
 1447SOL    HW2 5241   6.406   5.402   4.322
 1448SOL     OW 5242   1.034   1.836   6.219
 1448SOL    HW1 5243   1.081   1.852   6.132
 1448SOL    HW2 5244   0.950   1.785   6.201
 1449SOL     OW 5245   2.133   3.488   2.990
 1449SOL    HW1 5246   2.166   3.500   3.084
 1449SOL    HW2 5247   2.165   3.565   2.935
 1450SOL     OW 5248   3.188   2.159   4.049
 1450SOL    HW1 5249   3.285   2.133   4.042
 1450SOL    HW2 5250   3.164   2.170   4.146
 1451SOL     OW 5251   3.170   1.493   2.570
 1451SOL    HW1 5252   3.215   1.578   2.595
 1451SOL    HW2 5253   3.111   1.463   2.645
 1452SOL     OW 5254   4.172   2.715   6.705
 1452SOL    HW1 5255   4.122   2.630   6.687
 1452SOL    HW2 5256   4.121   2.792   6.667
 1453SOL     OW 5257   0.619   3.778   5.443
 1453SOL    HW1 5258   0.637   3.876   5.446
 1453SOL    HW2 5259   0.651   3.735   5.527
 1454SOL     OW 5260   3.513   2.038   2.838
 1454SOL    HW1 5261   3.591   2.048   2.898
 1454SOL    HW2 5262   3.543   2.043   2.742
 1455SOL     OW 5263   0.146   5.241   2.345
 1455SOL    HW1 5264   0.193   5.322   2.308
 1455SOL    HW2 5265   0.203   5.160   2.330
 1456SOL     OW 5266   6.363   5.582   4.004
 1456SOL    HW1 5267   6.373   5.585   4.103
 1456SOL    HW2 5268   6.450   5.555   3.962
 1457SOL     OW 5269   0.954   5.176   6.475
 1457SOL    HW1 5270   0.921   5.114   6.404
 1457SOL    HW2 5271   0.913   5.151   6.563
 1458SOL     OW 5272   5.894   5.504   5.047
 1458SOL    HW1 5273   5.875   5.473   5.140
 1458SOL    HW2 5274   5.964   5.575   5.048
 1459SOL     OW 5275   6.602   6.570   5.017
 1459SOL    HW1 5276   6.621   6.652   5.071
 1459SOL    HW2 5277   6.522   6.523   5.055
 1460SOL     OW 5278   1.754   6.550   5.047
 1460SOL    HW1 5279   1.792   6.506   4.966
 1460SOL    HW2 5280   1.805   6.521   5.128
 1461SOL     OW 5281   5.986   2.947   4.117
 1461SOL    HW1 5282   5.949   2.854   4.124
 1461SOL    HW2 5283   5.946   2.993   4.039
 1462SOL     OW 5284   0.529   1.491   1.901
 1462SOL    HW1 5285   0.439   1.534   1.912
 1462SOL    HW2 5286   0.600   1.562   1.898
 1463SOL     OW 5287   1.500   5.586   6.876
 1463SOL    HW1 5288   1.485   5.500   6.924
 1463SOL    HW2 5289   1.503   5.568   6.778
 1464SOL     OW 5290   1.065   4.296   4.447
 1464SOL    HW1 5291   1.123   4.228   4.402
 1464SOL    HW2 5292   0.971   4.264   4.448
 1465SOL     OW 5293   1.275   2.900   4.895
 1465SOL    HW1 5294   1.294   2.994   4.924
 1465SOL    HW2 5295   1.361   2.850   4.885
 1466SOL     OW 5296   5.295   1.231   2.948
 1466SOL    HW1 5297   5.214   1.275   2.987
 1466SOL    HW2 5298   5.268   1.172   2.872
 1467SOL     OW 5299   0.498   0.156   3.512
 1467SOL    HW1 5300   0.588   0.190   3.542
 1467SOL    HW2 5301   0.503   0.132   3.415
 1468SOL     OW 5302   3.147   5.534   2.707
 1468SOL    HW1 5303   3.064   5.495   2.669
 1468SOL    HW2 5304   3.168   5.620   2.660
 1469SOL     OW 5305   5.879   4.231   3.065
 1469SOL    HW1 5306   5.788   4.193   3.055
 1469SOL    HW2 5307   5.937   4.168   3.118
 1470SOL     OW 5308   6.192   1.953   2.323
 1470SOL    HW1 5309   6.242   1.937   2.237
 1470SOL    HW2 5310   6.139   1.872   2.346
 1471SOL     OW 5311   4.768   0.132   0.681
 1471SOL    HW1 5312   4.854   0.160   0.722
 1471SOL    HW2 5313   4.776   0.137   0.581
 1472SOL     OW 5314   1.899   0.851   6.595
 1472SOL    HW1 5315   1.893   0.770   6.653
 1472SOL    HW2 5316   1.931   0.929   6.649
 1473SOL     OW 5317   1.463   5.694   3.624
 1473SOL    HW1 5318   1.529   5.725   3.556
 1473SOL    HW2 5319   1.412   5.616   3.588
 1474SOL     OW 5320   2.479   5.178   1.597
 1474SOL    HW1 5321   2.517   5.144   1.511
 1474SOL    HW2 5322   2.388   5.138   1.611
 1475SOL     OW 5323   5.814   0.416   6.519
 1475SOL    HW1 5324   5.880   0.447   6.588
 1475SOL    HW2 5325   5.854   0.427   6.428
 1476SOL     OW 5326   5.418   0.123   6.333
 1476SOL    HW1 5327   5.401   0.188   6.259
 1476SOL    HW2 5328   5.402   0.030   6.300
 1477SOL     OW 5329   3.338   4.319   1.611
 1477SOL    HW1 5330   3.357   4.417   1.615
 1477SOL    HW2 5331   3.240   4.304   1.624
 1478SOL     OW 5332   4.562   4.830   6.386
 1478SOL    HW1 5333   4.623   4.876   6.450
 1478SOL    HW2 5334   4.517   4.897   6.328
 1479SOL     OW 5335   4.935   3.903   1.230
 1479SOL    HW1 5336   4.914   3.935   1.322
 1479SOL    HW2 5337   4.946   3.803   1.231
 1480SOL     OW 5338   2.745   0.835   4.377
 1480SOL    HW1 5339   2.825   0.855   4.320
 1480SOL    HW2 5340   2.667   0.813   4.318
 1481SOL     OW 5341   4.492   2.473   6.091
 1481SOL    HW1 5342   4.419   2.449   6.155
 1481SOL    HW2 5343   4.511   2.395   6.031
 1482SOL     OW 5344   6.119   1.028   1.704
 1482SOL    HW1 5345   6.049   1.096   1.682
 1482SOL    HW2 5346   6.077   0.937   1.707
 1483SOL     OW 5347   6.180   0.412   0.236
 1483SOL    HW1 5348   6.255   0.462   0.193
 1483SOL    HW2 5349   6.145   0.343   0.173
 1484SOL     OW 5350   3.922   5.981   5.511
 1484SOL    HW1 5351   3.939   5.935   5.598
 1484SOL    HW2 5352   3.828   5.964   5.482
 1485SOL     OW 5353   4.858   3.597   3.344
 1485SOL    HW1 5354   4.874   3.499   3.350
 1485SOL    HW2 5355   4.775   3.614   3.291
 1486SOL     OW 5356   4.448   5.723   4.044
 1486SOL    HW1 5357   4.441   5.723   3.945
 1486SOL    HW2 5358   4.486   5.635   4.075
 1487SOL     OW 5359   6.437   1.340   0.759
 1487SOL    HW1 5360   6.451   1.241   0.749
 1487SOL    HW2 5361   6.375   1.357   0.835
 1488SOL     OW 5362   6.543   2.097   2.626
 1488SOL    HW1 5363   6.517   2.191   2.604
 1488SOL    HW2 5364   6.631   2.097   2.673
 1489SOL     OW 5365   3.040   4.847   0.261
 1489SOL    HW1 5366   3.122   4.904   0.250
 1489SOL    HW2 5367   2.971   4.874   0.194
 1490SOL     OW 5368   6.684   3.122   2.210
 1490SOL    HW1 5369   6.622   3.195   2.238
 1490SOL    HW2 5370   6.642   3.067   2.138
 1491SOL     OW 5371   5.368   2.715   3.668
 1491SOL    HW1 5372   5.324   2.804   3.656
 1491SOL    HW2 5373   5.299   2.643   3.664
 1492SOL     OW 5374   0.390   2.165   2.360
 1492SOL    HW1 5375   0.434   2.077   2.375
 1492SOL    HW2 5376   0.292   2.151   2.346
 1493SOL     OW 5377   6.057   2.128   6.333
 1493SOL    HW1 5378   6.066   2.186   6.414
 1493SOL    HW2 5379   6.127   2.153   6.266
 1494SOL     OW 5380   0.323   4.379   6.093
 1494SOL    HW1 5381   0.225   4.385   6.075
 1494SOL    HW2 5382   0.345   4.437   6.172
 1495SOL     OW 5383   6.774   4.018   4.374
 1495SOL    HW1 5384   6.815   4.051   4.458
 1495SOL    HW2 5385   6.688   4.066   4.357
 1496SOL     OW 5386   6.680   6.587   5.930
 1496SOL    HW1 5387   6.734   6.668   5.950
 1496SOL    HW2 5388   6.648   6.591   5.836
 1497SOL     OW 5389   6.175   2.528   2.510
 1497SOL    HW1 5390   6.112   2.518   2.586
 1497SOL    HW2 5391   6.125   2.518   2.423
 1498SOL     OW 5392   3.351   4.299   0.882
 1498SOL    HW1 5393   3.334   4.376   0.820
 1498SOL    HW2 5394   3.303   4.219   0.848
 1499SOL     OW 5395   0.260   4.563   4.324
 1499SOL    HW1 5396   0.296   4.566   4.230
 1499SOL    HW2 5397   0.176   4.618   4.328
 1500SOL     OW 5398   1.480   5.562   2.072
 1500SOL    HW1 5399   1.430   5.493   2.018
 1500SOL    HW2 5400   1.559   5.595   2.019
 1501SOL     OW 5401   6.670   1.500   0.802
 1501SOL    HW1 5402   6.649   1.592   0.836
 1501SOL    HW2 5403   6.585   1.453   0.777
 1502SOL     OW 5404   0.228   6.687   6.366
 1502SOL    HW1 5405   0.267   6.762   6.420
 1502SOL    HW2 5406   0.297   6.650   6.304
 1503SOL     OW 5407   0.321   4.491   1.640
 1503SOL    HW1 5408   0.402   4.547   1.659
 1503SOL    HW2 5409   0.338   4.435   1.559
 1504SOL     OW 5410   1.813   7.006   3.149
 1504SOL    HW1 5411   1.796   6.931   3.085
 1504SOL    HW2 5412   1.884   0.042   3.111
 1505SOL     OW 5413   6.259   5.399   4.985
 1505SOL    HW1 5414   6.352   5.396   5.022
 1505SOL    HW2 5415   6.231   5.495   4.975
 1506SOL     OW 5416   1.480   0.713   0.708
 1506SOL    HW1 5417   1.558   0.772   0.731
 1506SOL    HW2 5418   1.410   0.767   0.662
 1507SOL     OW 5419   2.945   2.162   3.558
 1507SOL    HW1 5420   2.914   2.100   3.485
 1507SOL    HW2 5421   3.044   2.175   3.550
 1508SOL     OW 5422   1.927   0.483   1.886
 1508SOL    HW1 5423   1.915   0.424   1.966
 1508SOL    HW2 5424   2.016   0.466   1.845
 1509SOL     OW 5425   5.194   1.010   3.787
 1509SOL    HW1 5426   5.114   0.952   3.799
 1509SOL    HW2 5427   5.268   0.978   3.846
 1510SOL     OW 5428   3.664   6.002   5.075
 1510SOL    HW1 5429   3.634   6.093   5.103
 1510SOL    HW2 5430   3.753   6.009   5.029
 1511SOL     OW 5431   3.100   3.760   5.132
 1511SOL    HW1 5432   3.027   3.817   5.093
 1511SOL    HW2 5433   3.095   3.762   5.231
 1512SOL     OW 5434   5.283   6.339   0.909
 1512SOL    HW1 5435   5.380   6.354   0.893
 1512SOL    HW2 5436   5.265   6.241   0.919
 1513SOL     OW 5437   2.615   0.862   5.579
 1513SOL    HW1 5438   2.676   0.867   5.657
 1513SOL    HW2 5439   2.526   0.828   5.608
 1514SOL     OW 5440   3.006   2.194   6.676
 1514SOL    HW1 5441   2.967   2.170   6.765
 1514SOL    HW2 5442   2.932   2.222   6.614
 1515SOL     OW 5443   3.771   0.419   2.600
 1515SOL    HW1 5444   3.817   0.372   2.525
 1515SOL    HW2 5445   3.693   0.365   2.630
 1516SOL     OW 5446   6.238   0.064   6.006
 1516SOL    HW1 5447   6.302   0.127   5.964
 1516SOL    HW2 5448   6.211   7.018   5.940
 1517SOL     OW 5449   2.780   5.796   3.215
 1517SOL    HW1 5450   2.682   5.815   3.225
 1517SOL    HW2 5451   2.795   5.697   3.220
 1518SOL     OW 5452   0.704   3.030   6.617
 1518SOL    HW1 5453   0.754   2.962   6.564
 1518SOL    HW2 5454   0.639   3.078   6.557
 1519SOL     OW 5455   0.153   4.472   6.809
 1519SOL    HW1 5456   0.152   4.571   6.824
 1519SOL    HW2 5457   0.239   4.435   6.844
 1520SOL     OW 5458   0.095   6.620   3.456
 1520SOL    HW1 5459   0.106   6.685   3.531
 1520SOL    HW2 5460   0.001   6.624   3.422
 1521SOL     OW 5461   1.920   5.399   6.402
 1521SOL    HW1 5462   1.863   5.433   6.327
 1521SOL    HW2 5463   1.969   5.317   6.373
 1522SOL     OW 5464   5.451   6.435   4.130
 1522SOL    HW1 5465   5.352   6.429   4.136
 1522SOL    HW2 5466   5.490   6.344   4.118
 1523SOL     OW 5467   2.977   6.692   0.490
 1523SOL    HW1 5468   2.948   6.623   0.556
 1523SOL    HW2 5469   2.973   6.782   0.532
 1524SOL     OW 5470   2.146   2.003   3.723
 1524SOL    HW1 5471   2.229   1.984   3.776
 1524SOL    HW2 5472   2.106   2.089   3.752
 1525SOL     OW 5473   4.814   4.632   6.009
 1525SOL    HW1 5474   4.848   4.540   5.993
 1525SOL    HW2 5475   4.720   4.627   6.043
 1526SOL     OW 5476   1.243   1.697   1.152
 1526SOL    HW1 5477   1.337   1.671   1.127
 1526SOL    HW2 5478   1.212   1.639   1.227
 1527SOL     OW 5479   5.065   1.625   4.651
 1527SOL    HW1 5480   4.981   1.572   4.640
 1527SOL    HW2 5481   5.058   1.680   4.734
 1528SOL     OW 5482   3.615   3.417   2.311
 1528SOL    HW1 5483   3.687   3.364   2.265
 1528SOL    HW2 5484   3.657   3.486   2.370
 1529SOL     OW 5485   4.481   1.567   5.865
 1529SOL    HW1 5486   4.526   1.572   5.955
 1529SOL    HW2 5487   4.547   1.590   5.794
 1530SOL     OW 5488   2.410   6.983   0.970
 1530SOL    HW1 5489   2.425   6.886   0.952
 1530SOL    HW2 5490   2.424   0.011   0.886
 1531SOL     OW 5491   4.526   5.850   4.446
 1531SOL    HW1 5492   4.547   5.857   4.543
 1531SOL    HW2 5493   4.483   5.935   4.415
 1532SOL     OW 5494   2.553   5.820   1.514
 1532SOL    HW1 5495   2.585   5.915   1.509
 1532SOL    HW2 5496   2.453   5.819   1.516
 1533SOL     OW 5497   5.591   6.413   1.093
 1533SOL    HW1 5498   5.560   6.434   1.186
 1533SOL    HW2 5499   5.683   6.449   1.079
 1534SOL     OW 5500   2.364   5.235   6.490
 1534SOL    HW1 5501   2.307   5.163   6.450
 1534SOL    HW2 5502   2.442   5.194   6.536
 1535SOL     OW 5503   5.365   4.070   3.576
 1535SOL    HW1 5504   5.436   4.027   3.519
 1535SOL    HW2 5505   5.339   4.158   3.536
 1536SOL     OW 5506   4.510   3.772   6.474
 1536SOL    HW1 5507   4.433   3.792   6.536
 1536SOL    HW2 5508   4.474   3.753   6.383
 1537SOL     OW 5509   2.796   5.072   2.794
 1537SOL    HW1 5510   2.800   5.149   2.732
 1537SOL    HW2 5511   2.874   5.074   2.857
 1538SOL     OW 5512   2.834   1.394   0.359
 1538SOL    HW1 5513   2.856   1.301   0.327
 1538SOL    HW2 5514   2.828   1.455   0.280
 1539SOL     OW 5515   6.479   3.152   0.929
 1539SOL    HW1 5516   6.440   3.240   0.956
 1539SOL    HW2 5517   6.435   3.121   0.845
 1540SOL     OW 5518   3.595   6.494   3.124
 1540SOL    HW1 5519   3.557   6.487   3.216
 1540SOL    HW2 5520   3.571   6.413   3.072
 1541SOL     OW 5521   4.578   2.868   5.595
 1541SOL    HW1 5522   4.568   2.776   5.633
 1541SOL    HW2 5523   4.651   2.916   5.643
 1542SOL     OW 5524   6.947   5.324   2.900
 1542SOL    HW1 5525   6.889   5.316   2.819
 1542SOL    HW2 5526   6.988   5.415   2.902
 1543SOL     OW 5527   2.941   5.377   0.409
 1543SOL    HW1 5528   2.896   5.293   0.378
 1543SOL    HW2 5529   3.037   5.376   0.378
 1544SOL     OW 5530   4.085   3.484   3.804
 1544SOL    HW1 5531   3.992   3.450   3.797
 1544SOL    HW2 5532   4.149   3.407   3.807
 1545SOL     OW 5533   5.549   5.404   1.556
 1545SOL    HW1 5534   5.506   5.318   1.584
 1545SOL    HW2 5535   5.488   5.454   1.495
 1546SOL     OW 5536   6.099   6.415   5.436
 1546SOL    HW1 5537   6.186   6.433   5.481
 1546SOL    HW2 5538   6.033   6.379   5.502
 1547SOL     OW 5539   2.226   3.648   5.912
 1547SOL    HW1 5540   2.208   3.585   5.988
 1547SOL    HW2 5541   2.235   3.741   5.948
 1548SOL     OW 5542   6.602   2.288   0.822
 1548SOL    HW1 5543   6.552   2.206   0.851
 1548SOL    HW2 5544   6.540   2.367   0.823
 1549SOL     OW 5545   5.273   0.662   4.612
 1549SOL    HW1 5546   5.357   0.630   4.569
 1549SOL    HW2 5547   5.291   0.679   4.709
 1550SOL     OW 5548   3.301   2.907   4.030
 1550SOL    HW1 5549   3.291   2.855   4.115
 1550SOL    HW2 5550   3.224   2.971   4.022
 1551SOL     OW 5551   6.650   5.164   5.896
 1551SOL    HW1 5552   6.616   5.156   5.990
 1551SOL    HW2 5553   6.705   5.247   5.888
 1552SOL     OW 5554   1.924   4.304   1.353
 1552SOL    HW1 5555   1.914   4.305   1.453
 1552SOL    HW2 5556   2.005   4.356   1.327
 1553SOL     OW 5557   1.712   2.250   6.067
 1553SOL    HW1 5558   1.639   2.182   6.061
 1553SOL    HW2 5559   1.781   2.221   6.133
 1554SOL     OW 5560   4.241   1.900   3.271
 1554SOL    HW1 5561   4.254   1.909   3.370
 1554SOL    HW2 5562   4.326   1.925   3.224
 1555SOL     OW 5563   6.034   5.052   5.577
 1555SOL    HW1 5564   6.086   5.045   5.492
 1555SOL    HW2 5565   6.012   4.960   5.610
 1556SOL     OW 5566   2.031   1.038   5.834
 1556SOL    HW1 5567   1.986   1.126   5.820
 1556SOL    HW2 5568   1.965   0.964   5.821
 1557SOL     OW 5569   0.622   2.073   4.921
 1557SOL    HW1 5570   0.679   1.999   4.886
 1557SOL    HW2 5571   0.541   2.035   4.966
 1558SOL     OW 5572   0.064   6.664   4.515
 1558SOL    HW1 5573   0.068   6.621   4.425
 1558SOL    HW2 5574   0.150   6.649   4.563
 1559SOL     OW 5575   1.192   1.702   5.508
 1559SOL    HW1 5576   1.211   1.617   5.459
 1559SOL    HW2 5577   1.241   1.777   5.464
 1560SOL     OW 5578   6.915   0.429   6.874
 1560SOL    HW1 5579   6.946   0.478   6.793
 1560SOL    HW2 5580   6.875   0.341   6.847
 1561SOL     OW 5581   6.238   6.353   1.990
 1561SOL    HW1 5582   6.280   6.370   1.901
 1561SOL    HW2 5583   6.158   6.412   2.001
 1562SOL     OW 5584   5.419   0.911   3.907
 1562SOL    HW1 5585   5.467   0.942   3.989
 1562SOL    HW2 5586   5.405   0.812   3.911
 1563SOL     OW 5587   3.266   6.964   5.843
 1563SOL    HW1 5588   3.248   6.940   5.938
 1563SOL    HW2 5589   3.353   6.924   5.815
 1564SOL     OW 5590   1.115   2.147   3.282
 1564SOL    HW1 5591   1.120   2.160   3.382
 1564SOL    HW2 5592   1.204   2.115   3.249
 1565SOL     OW 5593   6.214   4.385   1.460
 1565SOL    HW1 5594   6.126   4.365   1.416
 1565SOL    HW2 5595   6.267   4.301   1.469
 1566SOL     OW 5596   5.929   4.358   2.488
 1566SOL    HW1 5597   5.856   4.423   2.464
 1566SOL    HW2 5598   6.013   4.383   2.440
 1567SOL     OW 5599   6.597   5.740   5.486
 1567SOL    HW1 5600   6.529   5.668   5.480
 1567SOL    HW2 5601   6.621   5.773   5.395
 1568SOL     OW 5602   0.137   6.989   0.105
 1568SOL    HW1 5603   0.146   0.054   0.150
 1568SOL    HW2 5604   0.194   6.988   0.022
 1569SOL     OW 5605   3.233   6.298   5.409
 1569SOL    HW1 5606   3.326   6.332   5.420
 1569SOL    HW2 5607   3.169   6.365   5.446
 1570SOL     OW 5608   3.126   2.297   1.694
 1570SOL    HW1 5609   3.060   2.354   1.743
 1570SOL    HW2 5610   3.211   2.348   1.680
 1571SOL     OW 5611   0.450   3.580   0.624
 1571SOL    HW1 5612   0.507   3.603   0.545
 1571SOL    HW2 5613   0.508   3.544   0.697
 1572SOL     OW 5614   0.868   5.595   2.596
 1572SOL    HW1 5615   0.863   5.500   2.565
 1572SOL    HW2 5616   0.808   5.608   2.675
 1573SOL     OW 5617   4.240   6.633   0.333
 1573SOL    HW1 5618   4.288   6.610   0.248
 1573SOL    HW2 5619   4.192   6.721   0.321
 1574SOL     OW 5620   5.210   2.767   2.619
 1574SOL    HW1 5621   5.303   2.730   2.617
 1574SOL    HW2 5622   5.188   2.804   2.529
 1575SOL     OW 5623   3.400   1.746   0.635
 1575SOL    HW1 5624   3.462   1.740   0.713
 1575SOL    HW2 5625   3.446   1.791   0.558
 1576SOL     OW 5626   6.049   5.395   3.157
 1576SOL    HW1 5627   6.097   5.310   3.136
 1576SOL    HW2 5628   6.098   5.444   3.229
 1577SOL     OW 5629   1.463   0.296   0.300
 1577SOL    HW1 5630   1.413   0.379   0.273
 1577SOL    HW2 5631   1.561   0.317   0.306
 1578SOL     OW 5632   5.813   5.621   4.525
 1578SOL    HW1 5633   5.758   5.703   4.509
 1578SOL    HW2 5634   5.849   5.622   4.618
 1579SOL     OW 5635   6.996   0.144   2.897
 1579SOL    HW1 5636   0.003   0.056   2.932
 1579SOL    HW2 5637   0.003   0.155   2.802
 1580SOL     OW 5638   3.214   3.910   6.008
 1580SOL    HW1 5639   3.236   3.960   6.092
 1580SOL    HW2 5640   3.283   3.929   5.939
 1581SOL     OW 5641   6.351   3.221   4.598
 1581SOL    HW1 5642   6.348   3.232   4.499
 1581SOL    HW2 5643   6.290   3.289   4.640
 1582SOL     OW 5644   6.073   6.132   4.724
 1582SOL    HW1 5645   6.027   6.216   4.694
 1582SOL    HW2 5646   6.007   6.074   4.772
 1583SOL     OW 5647   2.114   2.253   2.247
 1583SOL    HW1 5648   2.132   2.348   2.271
 1583SOL    HW2 5649   2.159   2.230   2.161
 1584SOL     OW 5650   2.279   0.737   6.519
 1584SOL    HW1 5651   2.342   0.671   6.561
 1584SOL    HW2 5652   2.187   0.698   6.517
 1585SOL     OW 5653   6.095   1.171   6.090
 1585SOL    HW1 5654   6.032   1.098   6.065
 1585SOL    HW2 5655   6.077   1.200   6.184
 1586SOL     OW 5656   3.885   3.569   3.124
 1586SOL    HW1 5657   3.927   3.630   3.191
 1586SOL    HW2 5658   3.885   3.612   3.034
 1587SOL     OW 5659   2.506   6.736   6.060
 1587SOL    HW1 5660   2.563   6.693   6.130
 1587SOL    HW2 5661   2.412   6.740   6.092
 1588SOL     OW 5662   5.861   3.967   1.299
 1588SOL    HW1 5663   5.903   3.978   1.209
 1588SOL    HW2 5664   5.764   3.990   1.294
 1589SOL     OW 5665   4.865   5.102   3.145
 1589SOL    HW1 5666   4.827   5.033   3.207
 1589SOL    HW2 5667   4.837   5.193   3.176
 1590SOL     OW 5668   2.174   6.783   5.174
 1590SOL    HW1 5669   2.143   6.701   5.125
 1590SOL    HW2 5670   2.182   6.762   5.271
 1591SOL     OW 5671   1.311   3.702   0.618
 1591SOL    HW1 5672   1.310   3.758   0.701
 1591SOL    HW2 5673   1.311   3.762   0.538
 1592SOL     OW 5674   3.774   4.031   3.823
 1592SOL    HW1 5675   3.813   4.050   3.913
 1592SOL    HW2 5676   3.816   3.949   3.784
 1593SOL     OW 5677   1.576   4.533   4.656
 1593SOL    HW1 5678   1.522   4.549   4.738
 1593SOL    HW2 5679   1.517   4.542   4.575
 1594SOL     OW 5680   1.436   5.067   3.527
 1594SOL    HW1 5681   1.468   5.143   3.583
 1594SOL    HW2 5682   1.364   5.017   3.575
 1595SOL     OW 5683   6.876   4.160   5.099
 1595SOL    HW1 5684   6.884   4.167   4.999
 1595SOL    HW2 5685   6.813   4.086   5.122
 1596SOL     OW 5686   2.624   5.299   0.075
 1596SOL    HW1 5687   2.719   5.282   0.048
 1596SOL    HW2 5688   2.612   5.397   0.095
 1597SOL     OW 5689   2.254   0.215   0.156
 1597SOL    HW1 5690   2.200   0.245   0.235
 1597SOL    HW2 5691   2.269   0.293   0.095
 1598SOL     OW 5692   6.836   5.159   1.430
 1598SOL    HW1 5693   6.815   5.257   1.423
 1598SOL    HW2 5694   6.850   5.134   1.525
 1599SOL     OW 5695   2.876   5.095   0.428
 1599SOL    HW1 5696   2.822   5.058   0.503
 1599SOL    HW2 5697   2.972   5.069   0.439
 1600SOL     OW 5698   3.255   1.132   5.505
 1600SOL    HW1 5699   3.233   1.064   5.435
 1600SOL    HW2 5700   3.288   1.216   5.462
 1601SOL     OW 5701   1.521   5.408   4.989
 1601SOL    HW1 5702   1.488   5.353   5.066
 1601SOL    HW2 5703   1.467   5.492   4.984
 1602SOL     OW 5704   0.768   3.741   2.267
 1602SOL    HW1 5705   0.794   3.656   2.221
 1602SOL    HW2 5706   0.676   3.767   2.238
 1603SOL     OW 5707   5.782   6.620   0.589
 1603SOL    HW1 5708   5.767   6.537   0.641
 1603SOL    HW2 5709   5.809   6.596   0.495
 1604SOL     OW 5710   0.812   5.666   4.869
 1604SOL    HW1 5711   0.860   5.752   4.851
 1604SOL    HW2 5712   0.877   5.599   4.905
 1605SOL     OW 5713   5.448   5.740   2.529
 1605SOL    HW1 5714   5.520   5.789   2.479
 1605SOL    HW2 5715   5.403   5.675   2.467
 1606SOL     OW 5716   5.576   6.123   5.147
 1606SOL    HW1 5717   5.547   6.127   5.052
 1606SOL    HW2 5718   5.676   6.127   5.152
 1607SOL     OW 5719   4.373   3.176   1.086
 1607SOL    HW1 5720   4.372   3.081   1.055
 1607SOL    HW2 5721   4.459   3.220   1.059
 1608SOL     OW 5722   2.590   0.619   0.426
 1608SOL    HW1 5723   2.579   0.707   0.380
 1608SOL    HW2 5724   2.556   0.546   0.368
 1609SOL     OW 5725   5.251   0.850   5.702
 1609SOL    HW1 5726   5.159   0.824   5.733
 1609SOL    HW2 5727   5.244   0.912   5.623
 1610SOL     OW 5728   5.055   6.211   3.008
 1610SOL    HW1 5729   5.077   6.234   3.103
 1610SOL    HW2 5730   5.140   6.189   2.959
 1611SOL     OW 5731   4.137   3.139   1.487
 1611SOL    HW1 5732   4.213   3.195   1.456
 1611SOL    HW2 5733   4.115   3.070   1.418
 1612SOL     OW 5734   3.360   0.579   4.529
 1612SOL    HW1 5735   3.368   0.615   4.622
 1612SOL    HW2 5736   3.433   0.512   4.514
 1613SOL     OW 5737   1.710   0.314   0.600
 1613SOL    HW1 5738   1.613   0.309   0.625
 1613SOL    HW2 5739   1.758   0.372   0.665
 1614SOL     OW 5740   0.024   2.356   5.271
 1614SOL    HW1 5741   6.962   2.316   5.238
 1614SOL    HW2 5742   0.058   2.302   5.348
 1615SOL     OW 5743   6.396   4.873   5.530
 1615SOL    HW1 5744   6.398   4.786   5.579
 1615SOL    HW2 5745   6.453   4.939   5.578
 1616SOL     OW 5746   2.307   2.148   6.403
 1616SOL    HW1 5747   2.283   2.232   6.353
 1616SOL    HW2 5748   2.234   2.126   6.468
 1617SOL     OW 5749   4.010   0.752   4.095
 1617SOL    HW1 5750   4.103   0.727   4.124
 1617SOL    HW2 5751   3.950   0.754   4.175
 1618SOL     OW 5752   5.497   2.507   2.474
 1618SOL    HW1 5753   5.541   2.535   2.559
 1618SOL    HW2 5754   5.498   2.584   2.409
 1619SOL     OW 5755   1.815   2.707   4.238
 1619SOL    HW1 5756   1.809   2.683   4.141
 1619SOL    HW2 5757   1.858   2.797   4.247
 1620SOL     OW 5758   3.823   5.860   1.915
 1620SOL    HW1 5759   3.786   5.824   2.000
 1620SOL    HW2 5760   3.823   5.960   1.918
 1621SOL     OW 5761   1.985   1.536   2.249
 1621SOL    HW1 5762   2.059   1.583   2.297
 1621SOL    HW2 5763   1.898   1.577   2.273
 1622SOL     OW 5764   2.360   2.389   4.884
 1622SOL    HW1 5765   2.365   2.299   4.928
 1622SOL    HW2 5766   2.265   2.421   4.885
 1623SOL     OW 5767   2.193   1.951   4.693
 1623SOL    HW1 5768   2.252   2.010   4.749
 1623SOL    HW2 5769   2.193   1.858   4.730
 1624SOL     OW 5770   2.222   0.836   0.879
 1624SOL    HW1 5771   2.290   0.899   0.918
 1624SOL    HW2 5772   2.259   0.743   0.880
 1625SOL     OW 5773   0.667   6.064   1.276
 1625SOL    HW1 5774   0.594   6.101   1.218
 1625SOL    HW2 5775   0.753   6.065   1.225
 1626SOL     OW 5776   2.287   3.184   5.891
 1626SOL    HW1 5777   2.322   3.224   5.806
 1626SOL    HW2 5778   2.323   3.234   5.969
 1627SOL     OW 5779   4.921   3.638   3.877
 1627SOL    HW1 5780   4.930   3.540   3.891
 1627SOL    HW2 5781   4.929   3.685   3.965
 1628SOL     OW 5782   2.952   3.399   0.157
 1628SOL    HW1 5783   2.985   3.341   0.231
 1628SOL    HW2 5784   2.990   3.367   0.070
 1629SOL     OW 5785   3.262   2.087   2.718
 1629SOL    HW1 5786   3.274   2.081   2.619
 1629SOL    HW2 5787   3.346   2.059   2.763
 1630SOL     OW 5788   5.892   4.855   4.324
 1630SOL    HW1 5789   5.908   4.951   4.300
 1630SOL    HW2 5790   5.940   4.833   4.409
 1631SOL     OW 5791   0.957   0.119   5.918
 1631SOL    HW1 5792   0.914   0.050   5.860
 1631SOL    HW2 5793   0.891   0.191   5.939
 1632SOL     OW 5794   4.754   6.748   0.067
 1632SOL    HW1 5795   4.771   6.825   0.005
 1632SOL    HW2 5796   4.668   6.763   0.116
 1633SOL     OW 5797   6.183   3.538   3.117
 1633SOL    HW1 5798   6.255   3.527   3.184
 1633SOL    HW2 5799   6.214   3.505   3.028
 1634SOL     OW 5800   4.261   1.053   1.028
 1634SOL    HW1 5801   4.309   1.135   1.060
 1634SOL    HW2 5802   4.210   1.013   1.104
 1635SOL     OW 5803   1.094   4.944   4.013
 1635SOL    HW1 5804   1.174   4.915   3.961
 1635SOL    HW2 5805   1.055   4.866   4.062
 1636SOL     OW 5806   2.682   6.515   0.354
 1636SOL    HW1 5807   2.769   6.467   0.365
 1636SOL    HW2 5808   2.648   6.544   0.443
 1637SOL     OW 5809   0.805   2.407   2.601
 1637SOL    HW1 5810   0.770   2.473   2.668
 1637SOL    HW2 5811   0.753   2.322   2.608
 1638SOL     OW 5812   1.395   2.425   5.725
 1638SOL    HW1 5813   1.488   2.389   5.735
 1638SOL    HW2 5814   1.389   2.477   5.640
 1639SOL     OW 5815   4.386   5.267   2.494
 1639SOL    HW1 5816   4.289   5.253   2.515
 1639SOL    HW2 5817   4.418   5.191   2.437
 1640SOL     OW 5818   5.143   0.649   1.194
 1640SOL    HW1 5819   5.209   0.639   1.119
 1640SOL    HW2 5820   5.061   0.597   1.173
 1641SOL     OW 5821   6.709   2.691   5.001
 1641SOL    HW1 5822   6.773   2.759   5.035
 1641SOL    HW2 5823   6.756   2.603   4.991
 1642SOL     OW 5824   0.627   2.342   1.535
 1642SOL    HW1 5825   0.714   2.389   1.519
 1642SOL    HW2 5826   0.615   2.325   1.633
 1643SOL     OW 5827   3.753   0.745   5.527
 1643SOL    HW1 5828   3.723   0.704   5.613
 1643SOL    HW2 5829   3.676   0.791   5.483
 1644SOL     OW 5830   4.085   1.091   0.525
 1644SOL    HW1 5831   4.009   1.145   0.560
 1644SOL    HW2 5832   4.066   1.062   0.431
 1645SOL     OW 5833   1.753   6.351   6.367
 1645SOL    HW1 5834   1.742   6.331   6.270
 1645SOL    HW2 5835   1.704   6.283   6.422
 1646SOL     OW 5836   1.845   3.554   0.488
 1646SOL    HW1 5837   1.852   3.482   0.557
 1646SOL    HW2 5838   1.896   3.634   0.518
 1647SOL     OW 5839   5.875   2.946   2.438
 1647SOL    HW1 5840   5.974   2.958   2.426
 1647SOL    HW2 5841   5.850   2.853   2.414
 1648SOL     OW 5842   3.533   6.775   2.629
 1648SOL    HW1 5843   3.466   6.739   2.564
 1648SOL    HW2 5844   3.485   6.829   2.698
 1649SOL     OW 5845   2.442   0.388   3.079
 1649SOL    HW1 5846   2.435   0.294   3.112
 1649SOL    HW2 5847   2.453   0.387   2.980
 1650SOL     OW 5848   3.173   6.884   3.912
 1650SOL    HW1 5849   3.224   6.957   3.866
 1650SOL    HW2 5850   3.223   6.856   3.994
 1651SOL     OW 5851   1.191   0.464   1.912
 1651SOL    HW1 5852   1.193   0.518   1.996
 1651SOL    HW2 5853   1.098   0.431   1.896
 1652SOL     OW 5854   3.049   3.240   1.840
 1652SOL    HW1 5855   3.011   3.283   1.921
 1652SOL    HW2 5856   2.981   3.242   1.766
 1653SOL     OW 5857   1.310   5.248   0.996
 1653SOL    HW1 5858   1.316   5.242   1.095
 1653SOL    HW2 5859   1.308   5.156   0.956
 1654SOL     OW 5860   0.474   1.933   3.940
 1654SOL    HW1 5861   0.379   1.964   3.937
 1654SOL    HW2 5862   0.499   1.894   3.852
 1655SOL     OW 5863   4.735   4.380   5.567
 1655SOL    HW1 5864   4.693   4.470   5.575
 1655SOL    HW2 5865   4.706   4.322   5.643
 1656SOL     OW 5866   0.280   3.617   2.321
 1656SOL    HW1 5867   0.293   3.524   2.287
 1656SOL    HW2 5868   0.252   3.614   2.417
 1657SOL     OW 5869   1.242   0.507   5.220
 1657SOL    HW1 5870   1.342   0.514   5.219
 1657SOL    HW2 5871   1.204   0.565   5.148
 1658SOL     OW 5872   6.271   6.401   2.906
 1658SOL    HW1 5873   6.283   6.389   3.004
 1658SOL    HW2 5874   6.338   6.467   2.872
 1659SOL     OW 5875   5.291   1.934   6.387
 1659SOL    HW1 5876   5.239   1.952   6.304
 1659SOL    HW2 5877   5.308   2.019   6.436
 1660SOL     OW 5878   2.363   6.111   3.185
 1660SOL    HW1 5879   2.440   6.114   3.248
 1660SOL    HW2 5880   2.278   6.118   3.236
 1661SOL     OW 5881   3.064   0.433   3.136
 1661SOL    HW1 5882   3.016   0.345   3.141
 1661SOL    HW2 5883   3.154   0.419   3.094
 1662SOL     OW 5884   6.343   1.025   3.072
 1662SOL    HW1 5885   6.385   0.942   3.036
 1662SOL    HW2 5886   6.274   1.058   3.007
 1663SOL     OW 5887   2.034   0.187   3.833
 1663SOL    HW1 5888   1.996   0.273   3.866
 1663SOL    HW2 5889   2.116   0.205   3.779
 1664SOL     OW 5890   2.098   5.356   4.615
 1664SOL    HW1 5891   2.060   5.433   4.666
 1664SOL    HW2 5892   2.045   5.273   4.633
 1665SOL     OW 5893   0.540   1.034   3.584
 1665SOL    HW1 5894   0.562   0.950   3.634
 1665SOL    HW2 5895   0.622   1.091   3.576
 1666SOL     OW 5896   5.821   2.995   6.257
 1666SOL    HW1 5897   5.920   2.986   6.252
 1666SOL    HW2 5898   5.782   2.986   6.165
 1667SOL     OW 5899   6.778   0.719   0.239
 1667SOL    HW1 5900   6.830   0.713   0.324
 1667SOL    HW2 5901   6.688   0.677   0.252
 1668SOL     OW 5902   1.699   0.419   4.759
 1668SOL    HW1 5903   1.709   0.513   4.729
 1668SOL    HW2 5904   1.737   0.409   4.851
 1669SOL     OW 5905   5.847   5.907   6.153
 1669SOL    HW1 5906   5.857   5.960   6.237
 1669SOL    HW2 5907   5.936   5.900   6.107
 1670SOL     OW 5908   6.588   3.547   6.480
 1670SOL    HW1 5909   6.489   3.556   6.466
 1670SOL    HW2 5910   6.608   3.457   6.518
 1671SOL     OW 5911   5.702   5.172   0.487
 1671SOL    HW1 5912   5.747   5.186   0.575
 1671SOL    HW2 5913   5.655   5.084   0.489
 1672SOL     OW 5914   1.839   5.381   2.116
 1672SOL    HW1 5915   1.927   5.410   2.153
 1672SOL    HW2 5916   1.768   5.393   2.186
 1673SOL     OW 5917   6.093   2.579   3.531
 1673SOL    HW1 5918   6.175   2.634   3.520
 1673SOL    HW2 5919   6.074   2.565   3.629
 1674SOL     OW 5920   2.385   5.750   0.042
 1674SOL    HW1 5921   2.457   5.819   0.034
 1674SOL    HW2 5922   2.367   5.709   6.977
 1675SOL     OW 5923   4.374   2.092   0.449
 1675SOL    HW1 5924   4.324   2.049   0.524
 1675SOL    HW2 5925   4.410   2.021   0.389
 1676SOL     OW 5926   2.811   1.137   4.241
 1676SOL    HW1 5927   2.821   1.108   4.336
 1676SOL    HW2 5928   2.840   1.232   4.232
 1677SOL     OW 5929   6.036   0.421   5.847
 1677SOL    HW1 5930   5.954   0.448   5.897
 1677SOL    HW2 5931   6.113   0.478   5.875
 1678SOL     OW 5932   4.950   0.032   1.533
 1678SOL    HW1 5933   4.972   0.123   1.496
 1678SOL    HW2 5934   4.894   7.007   1.467
 1679SOL     OW 5935   5.676   4.438   0.404
 1679SOL    HW1 5936   5.737   4.367   0.369
 1679SOL    HW2 5937   5.638   4.490   0.327
 1680SOL     OW 5938   0.992   2.570   5.273
 1680SOL    HW1 5939   1.047   2.567   5.190
 1680SOL    HW2 5940   0.896   2.558   5.250
 1681SOL     OW 5941   4.605   5.297   0.135
 1681SOL    HW1 5942   4.562   5.381   0.166
 1681SOL    HW2 5943   4.693   5.286   0.181
 1682SOL     OW 5944   6.827   2.916   5.364
 1682SOL    HW1 5945   6.746   2.959   5.403
 1682SOL    HW2 5946   6.856   2.840   5.422
 1683SOL     OW 5947   5.232   5.495   6.044
 1683SOL    HW1 5948   5.309   5.434   6.061
 1683SOL    HW2 5949   5.147   5.452   6.076
 1684SOL     OW 5950   0.432   6.458   4.253
 1684SOL    HW1 5951   0.457   6.457   4.156
 1684SOL    HW2 5952   0.512   6.432   4.307
 1685SOL     OW 5953   0.778   1.702   0.594
 1685SOL    HW1 5954   0.764   1.794   0.629
 1685SOL    HW2 5955   0.808   1.706   0.499
 1686SOL     OW 5956   2.189   6.376   6.603
 1686SOL    HW1 5957   2.095   6.355   6.630
 1686SOL    HW2 5958   2.189   6.454   6.540
 1687SOL     OW 5959   2.984   6.352   2.176
 1687SOL    HW1 5960   2.970   6.307   2.264
 1687SOL    HW2 5961   2.962   6.288   2.102
 1688SOL     OW 5962   0.646   1.468   3.444
 1688SOL    HW1 5963   0.623   1.552   3.494
 1688SOL    HW2 5964   0.572   1.445   3.382
 1689SOL     OW 5965   3.346   1.778   1.884
 1689SOL    HW1 5966   3.287   1.821   1.816
 1689SOL    HW2 5967   3.399   1.848   1.932
 1690SOL     OW 5968   0.911   2.453   0.688
 1690SOL    HW1 5969   0.890   2.524   0.755
 1690SOL    HW2 5970   0.877   2.481   0.598
 1691SOL     OW 5971   4.235   4.641   2.365
 1691SOL    HW1 5972   4.204   4.672   2.276
 1691SOL    HW2 5973   4.317   4.585   2.354
 1692SOL     OW 5974   1.419   0.014   3.441
 1692SOL    HW1 5975   1.361   0.079   3.392
 1692SOL    HW2 5976   1.368   6.953   3.456
 1693SOL     OW 5977   3.629   1.875   3.758
 1693SOL    HW1 5978   3.662   1.939   3.828
 1693SOL    HW2 5979   3.639   1.781   3.791
 1694SOL     OW 5980   5.880   5.927   5.397
 1694SOL    HW1 5981   5.809   5.973   5.451
 1694SOL    HW2 5982   5.922   5.855   5.452
 1695SOL     OW 5983   3.935   1.337   6.014
 1695SOL    HW1 5984   3.911   1.343   6.111
 1695SOL    HW2 5985   3.883   1.264   5.971
 1696SOL     OW 5986   2.930   5.930   1.975
 1696SOL    HW1 5987   2.999   5.902   1.908
 1696SOL    HW2 5988   2.843   5.887   1.952
 1697SOL     OW 5989   1.169   1.903   1.834
 1697SOL    HW1 5990   1.163   1.857   1.746
 1697SOL    HW2 5991   1.111   1.985   1.832
 1698SOL     OW 5992   4.824   2.241   0.828
 1698SOL    HW1 5993   4.759   2.190   0.773
 1698SOL    HW2 5994   4.871   2.179   0.890
 1699SOL     OW 5995   2.659   4.658   0.565
 1699SOL    HW1 5996   2.600   4.617   0.495
 1699SOL    HW2 5997   2.603   4.708   0.631
 1700SOL     OW 5998   6.145   2.593   4.791
 1700SOL    HW1 5999   6.115   2.538   4.713
 1700SOL    HW2 6000   6.233   2.635   4.771
 1701SOL     OW 6001   6.276   2.807   5.262
 1701SOL    HW1 6002   6.194   2.777   5.310
 1701SOL    HW2 6003   6.260   2.803   5.163
 1702SOL     OW 6004   4.570   2.869   1.653
 1702SOL    HW1 6005   4.508   2.914   1.588
 1702SOL    HW2 6006   4.568   2.918   1.740
 1703SOL     OW 6007   1.735   3.751   0.290
 1703SOL    HW1 6008   1.750   3.685   0.365
 1703SOL    HW2 6009   1.780   3.718   0.207
 1704SOL     OW 6010   0.062   1.133   2.509
 1704SOL    HW1 6011   0.015   1.159   2.593
 1704SOL    HW2 6012   0.064   1.034   2.501
 1705SOL     OW 6013   3.862   2.980   2.962
 1705SOL    HW1 6014   3.831   2.886   2.949
 1705SOL    HW2 6015   3.804   3.042   2.910
 1706SOL     OW 6016   2.101   0.516   6.502
 1706SOL    HW1 6017   2.169   0.477   6.563
 1706SOL    HW2 6018   2.018   0.460   6.503
 1707SOL     OW 6019   4.834   1.260   2.617
 1707SOL    HW1 6020   4.772   1.331   2.583
 1707SOL    HW2 6021   4.802   1.170   2.587
 1708SOL     OW 6022   0.320   4.752   1.360
 1708SOL    HW1 6023   0.308   4.672   1.301
 1708SOL    HW2 6024   0.231   4.781   1.396
 1709SOL     OW 6025   2.498   5.590   4.977
 1709SOL    HW1 6026   2.519   5.525   5.050
 1709SOL    HW2 6027   2.512   5.546   4.888
 1710SOL     OW 6028   6.917   5.014   4.340
 1710SOL    HW1 6029   6.895   5.096   4.288
 1710SOL    HW2 6030   6.960   5.039   4.427
 1711SOL     OW 6031   1.442   4.221   5.360
 1711SOL    HW1 6032   1.516   4.176   5.410
 1711SOL    HW2 6033   1.440   4.187   5.266
 1712SOL     OW 6034   2.066   4.918   1.542
 1712SOL    HW1 6035   2.054   4.978   1.621
 1712SOL    HW2 6036   2.069   4.973   1.458
 1713SOL     OW 6037   1.893   2.917   0.783
 1713SOL    HW1 6038   1.986   2.945   0.757
 1713SOL    HW2 6039   1.898   2.846   0.853
 1714SOL     OW 6040   4.189   1.160   1.460
 1714SOL    HW1 6041   4.284   1.182   1.479
 1714SOL    HW2 6042   4.183   1.101   1.380
 1715SOL     OW 6043   0.402   3.257   3.797
 1715SOL    HW1 6044   0.422   3.159   3.794
 1715SOL    HW2 6045   0.400   3.294   3.704
 1716SOL     OW 6046   0.503   0.317   6.582
 1716SOL    HW1 6047   0.473   0.224   6.598
 1716SOL    HW2 6048   0.594   0.331   6.623
 1717SOL     OW 6049   3.163   0.310   6.642
 1717SOL    HW1 6050   3.244   0.254   6.662
 1717SOL    HW2 6051   3.159   0.385   6.708
 1718SOL     OW 6052   1.711   4.320   5.175
 1718SOL    HW1 6053   1.705   4.296   5.078
 1718SOL    HW2 6054   1.693   4.417   5.186
 1719SOL     OW 6055   1.943   3.542   1.338
 1719SOL    HW1 6056   1.878   3.515   1.267
 1719SOL    HW2 6057   1.920   3.633   1.371
 1720SOL     OW 6058   6.826   1.966   2.108
 1720SOL    HW1 6059   6.889   2.038   2.080
 1720SOL    HW2 6060   6.760   2.003   2.173
 1721SOL     OW 6061   1.437   6.358   4.614
 1721SOL    HW1 6062   1.530   6.365   4.650
 1721SOL    HW2 6063   1.411   6.262   4.606
 1722SOL     OW 6064   5.632   0.255   1.719
 1722SOL    HW1 6065   5.657   0.277   1.813
 1722SOL    HW2 6066   5.714   0.231   1.667
 1723SOL     OW 6067   5.629   0.879   2.871
 1723SOL    HW1 6068   5.655   0.953   2.933
 1723SOL    HW2 6069   5.539   0.844   2.897
 1724SOL     OW 6070   5.117   0.356   0.554
 1724SOL    HW1 6071   5.113   0.259   0.532
 1724SOL    HW2 6072   5.041   0.404   0.510
 1725SOL     OW 6073   3.582   5.676   2.014
 1725SOL    HW1 6074   3.505   5.702   2.073
 1725SOL    HW2 6075   3.551   5.606   1.949
 1726SOL     OW 6076   6.836   3.698   4.739
 1726SOL    HW1 6077   6.894   3.632   4.692
 1726SOL    HW2 6078   6.774   3.651   4.802
 1727SOL     OW 6079   2.607   3.335   5.345
 1727SOL    HW1 6080   2.568   3.413   5.393
 1727SOL    HW2 6081   2.676   3.368   5.279
 1728SOL     OW 6082   4.091   5.029   3.409
 1728SOL    HW1 6083   4.189   5.044   3.392
 1728SOL    HW2 6084   4.054   4.971   3.336
 1729SOL     OW 6085   1.528   3.763   1.943
 1729SOL    HW1 6086   1.517   3.683   2.002
 1729SOL    HW2 6087   1.528   3.735   1.847
 1730SOL     OW 6088   5.450   1.913   4.791
 1730SOL    HW1 6089   5.472   1.832   4.736
 1730SOL    HW2 6090   5.534   1.951   4.829
 1731SOL     OW 6091   0.089   6.810   0.304
 1731SOL    HW1 6092   0.094   6.864   0.220
 1731SOL    HW2 6093   0.132   6.721   0.290
 1732SOL     OW 6094   0.705   4.332   6.784
 1732SOL    HW1 6095   0.611   4.319   6.753
 1732SOL    HW2 6096   0.759   4.250   6.762
 1733SOL     OW 6097   1.042   4.141   6.840
 1733SOL    HW1 6098   1.066   4.142   6.743
 1733SOL    HW2 6099   1.120   4.107   6.893
 1734SOL     OW 6100   5.315   4.065   1.389
 1734SOL    HW1 6101   5.328   4.116   1.475
 1734SOL    HW2 6102   5.239   4.104   1.338
 1735SOL     OW 6103   5.393   5.535   0.138
 1735SOL    HW1 6104   5.366   5.471   0.066
 1735SOL    HW2 6105   5.382   5.629   0.105
 1736SOL     OW 6106   3.309   3.355   0.202
 1736SOL    HW1 6107   3.257   3.269   0.202
 1736SOL    HW2 6108   3.323   3.385   0.296
 1737SOL     OW 6109   0.652   5.729   3.326
 1737SOL    HW1 6110   0.724   5.701   3.263
 1737SOL    HW2 6111   0.639   5.658   3.396
 1738SOL     OW 6112   0.947   1.314   2.114
 1738SOL    HW1 6113   0.907   1.371   2.186
 1738SOL    HW2 6114   0.886   1.237   2.094
 1739SOL     OW 6115   4.326   2.386   6.268
 1739SOL    HW1 6116   4.240   2.354   6.228
 1739SOL    HW2 6117   4.309   2.469   6.321
 1740SOL     OW 6118   0.786   1.605   5.081
 1740SOL    HW1 6119   0.783   1.676   5.152
 1740SOL    HW2 6120   0.707   1.616   5.020
 1741SOL     OW 6121   1.835   1.224   2.408
 1741SOL    HW1 6122   1.931   1.251   2.408
 1741SOL    HW2 6123   1.825   1.137   2.359
 1742SOL     OW 6124   5.879   6.438   4.301
 1742SOL    HW1 6125   5.817   6.426   4.379
 1742SOL    HW2 6126   5.970   6.406   4.326
 1743SOL     OW 6127   4.861   1.219   0.446
 1743SOL    HW1 6128   4.789   1.189   0.510
 1743SOL    HW2 6129   4.819   1.242   0.358
 1744SOL     OW 6130   3.204   6.223   1.619
 1744SOL    HW1 6131   3.116   6.176   1.619
 1744SOL    HW2 6132   3.189   6.322   1.627
 1745SOL     OW 6133   6.892   3.349   5.124
 1745SOL    HW1 6134   6.988   3.360   5.150
 1745SOL    HW2 6135   6.853   3.438   5.101
 1746SOL     OW 6136   2.442   1.003   6.019
 1746SOL    HW1 6137   2.493   1.078   5.977
 1746SOL    HW2 6138   2.444   1.014   6.119
 1747SOL     OW 6139   5.052   6.919   5.292
 1747SOL    HW1 6140   5.106   6.845   5.252
 1747SOL    HW2 6141   4.999   6.965   5.221
 1748SOL     OW 6142   5.806   0.964   1.617
 1748SOL    HW1 6143   5.716   0.922   1.623
 1748SOL    HW2 6144   5.797   1.059   1.587
 1749SOL     OW 6145   5.077   0.105   6.326
 1749SOL    HW1 6146   5.169   0.066   6.325
 1749SOL    HW2 6147   5.058   0.149   6.239
 1750SOL     OW 6148   4.520   0.180   4.343
 1750SOL    HW1 6149   4.426   0.148   4.330
 1750SOL    HW2 6150   4.573   0.111   4.392
 1751SOL     OW 6151   1.901   5.984   4.534
 1751SOL    HW1 6152   1.840   6.063   4.538
 1751SOL    HW2 6153   1.931   5.971   4.439
 1752SOL     OW 6154   0.004   1.996   6.255
 1752SOL    HW1 6155   0.009   2.046   6.168
 1752SOL    HW2 6156   0.095   1.962   6.278
 1753SOL     OW 6157   2.387   6.436   2.450
 1753SOL    HW1 6158   2.295   6.454   2.484
 1753SOL    HW2 6159   2.403   6.490   2.367
 1754SOL     OW 6160   3.286   2.966   1.848
 1754SOL    HW1 6161   3.298   3.054   1.894
 1754SOL    HW2 6162   3.188   2.952   1.829
 1755SOL     OW 6163   6.461   4.532   0.561
 1755SOL    HW1 6164   6.551   4.560   0.526
 1755SOL    HW2 6165   6.473   4.486   0.649
 1756SOL     OW 6166   5.650   5.412   4.491
 1756SOL    HW1 6167   5.625   5.392   4.586
 1756SOL    HW2 6168   5.674   5.509   4.483
 1757SOL     OW 6169   3.440   0.563   5.420
 1757SOL    HW1 6170   3.461   0.661   5.421
 1757SOL    HW2 6171   3.381   0.543   5.342
 1758SOL     OW 6172   3.438   1.806   3.403
 1758SOL    HW1 6173   3.412   1.802   3.500
 1758SOL    HW2 6174   3.382   1.741   3.351
 1759SOL     OW 6175   0.447   5.552   5.946
 1759SOL    HW1 6176   0.445   5.629   6.009
 1759SOL    HW2 6177   0.445   5.466   5.998
 1760SOL     OW 6178   4.923   6.675   2.303
 1760SOL    HW1 6179   4.831   6.701   2.333
 1760SOL    HW2 6180   4.925   6.576   2.286
 1761SOL     OW 6181   5.601   3.024   1.612
 1761SOL    HW1 6182   5.639   3.103   1.564
 1761SOL    HW2 6183   5.589   2.949   1.547
 1762SOL     OW 6184   5.696   2.731   0.616
 1762SOL    HW1 6185   5.634   2.802   0.651
 1762SOL    HW2 6186   5.776   2.725   0.676
 1763SOL     OW 6187   2.086   2.859   3.788
 1763SOL    HW1 6188   2.068   2.890   3.694
 1763SOL    HW2 6189   2.179   2.886   3.815
 1764SOL     OW 6190   6.483   3.449   4.070
 1764SOL    HW1 6191   6.511   3.542   4.044
 1764SOL    HW2 6192   6.411   3.418   4.007
 1765SOL     OW 6193   1.987   3.757   6.155
 1765SOL    HW1 6194   1.932   3.829   6.113
 1765SOL    HW2 6195   2.078   3.756   6.114
 1766SOL     OW 6196   6.080   3.352   5.883
 1766SOL    HW1 6197   5.986   3.321   5.871
 1766SOL    HW2 6198   6.114   3.322   5.972
 1767SOL     OW 6199   6.390   4.599   1.360
 1767SOL    HW1 6200   6.312   4.538   1.369
 1767SOL    HW2 6201   6.470   4.559   1.404
 1768SOL     OW 6202   6.245   6.726   3.479
 1768SOL    HW1 6203   6.161   6.709   3.531
 1768SOL    HW2 6204   6.227   6.789   3.404
 1769SOL     OW 6205   4.803   0.681   3.686
 1769SOL    HW1 6206   4.766   0.593   3.718
 1769SOL    HW2 6207   4.817   0.678   3.587
 1770SOL     OW 6208   3.518   5.533   5.634
 1770SOL    HW1 6209   3.511   5.596   5.711
 1770SOL    HW2 6210   3.475   5.574   5.553
 1771SOL     OW 6211   4.719   6.458   6.515
 1771SOL    HW1 6212   4.773   6.399   6.575
 1771SOL    HW2 6213   4.640   6.407   6.481
 1772SOL     OW 6214   2.760   6.273   2.949
 1772SOL    HW1 6215   2.723   6.331   2.877
 1772SOL    HW2 6216   2.708   6.187   2.954
 1773SOL     OW 6217   1.118   0.256   0.381
 1773SOL    HW1 6218   1.207   0.299   0.365
 1773SOL    HW2 6219   1.057   0.322   0.425
 1774SOL     OW 6220   3.022   4.813   2.654
 1774SOL    HW1 6221   3.000   4.830   2.750
 1774SOL    HW2 6222   3.116   4.780   2.646
 1775SOL     OW 6223   0.974   4.728   1.096
 1775SOL    HW1 6224   1.007   4.655   1.155
 1775SOL    HW2 6225   1.034   4.808   1.106
 1776SOL     OW 6226   3.202   6.620   5.418
 1776SOL    HW1 6227   3.229   6.675   5.497
 1776SOL    HW2 6228   3.115   6.575   5.437
 1777SOL     OW 6229   3.368   6.607   0.407
 1777SOL    HW1 6230   3.343   6.600   0.503
 1777SOL    HW2 6231   3.329   6.531   0.356
 1778SOL     OW 6232   6.906   3.314   5.686
 1778SOL    HW1 6233   6.942   3.265   5.765
 1778SOL    HW2 6234   6.811   3.286   5.670
 1779SOL     OW 6235   3.664   0.259   5.874
 1779SOL    HW1 6236   3.625   0.237   5.785
 1779SOL    HW2 6237   3.650   0.183   5.937
 1780SOL     OW 6238   3.252   3.234   6.889
 1780SOL    HW1 6239   3.176   3.214   6.826
 1780SOL    HW2 6240   3.220   3.295   6.961
 1781SOL     OW 6241   3.249   5.546   3.592
 1781SOL    HW1 6242   3.165   5.562   3.541
 1781SOL    HW2 6243   3.259   5.448   3.611
 1782SOL     OW 6244   2.914   1.730   4.283
 1782SOL    HW1 6245   2.954   1.814   4.246
 1782SOL    HW2 6246   2.825   1.750   4.323
 1783SOL     OW 6247   1.986   6.275   6.965
 1783SOL    HW1 6248   1.895   6.281   6.923
 1783SOL    HW2 6249   2.003   6.181   6.993
 1784SOL     OW 6250   2.795   0.192   5.986
 1784SOL    HW1 6251   2.703   0.166   5.956
 1784SOL    HW2 6252   2.829   0.268   5.930
 1785SOL     OW 6253   6.621   5.179   1.909
 1785SOL    HW1 6254   6.616   5.098   1.967
 1785SOL    HW2 6255   6.634   5.260   1.966
 1786SOL     OW 6256   3.860   2.629   1.620
 1786SOL    HW1 6257   3.796   2.587   1.684
 1786SOL    HW2 6258   3.832   2.724   1.603
 1787SOL     OW 6259   3.805   0.651   5.191
 1787SOL    HW1 6260   3.786   0.553   5.199
 1787SOL    HW2 6261   3.844   0.684   5.276
 1788SOL     OW 6262   1.252   5.002   5.926
 1788SOL    HW1 6263   1.220   5.067   5.857
 1788SOL    HW2 6264   1.173   4.961   5.972
 1789SOL     OW 6265   5.709   0.035   6.944
 1789SOL    HW1 6266   5.659   0.110   6.986
 1789SOL    HW2 6267   5.807   0.055   6.947
 1790SOL     OW 6268   2.882   6.865   2.944
 1790SOL    HW1 6269   2.965   6.921   2.942
 1790SOL    HW2 6270   2.904   6.770   2.924
 1791SOL     OW 6271   0.358   6.380   2.654
 1791SOL    HW1 6272   0.416   6.445   2.605
 1791SOL    HW2 6273   0.270   6.424   2.675
 1792SOL     OW 6274   1.277   3.559   4.137
 1792SOL    HW1 6275   1.320   3.599   4.057
 1792SOL    HW2 6276   1.346   3.537   4.206
 1793SOL     OW 6277   0.118   0.508   3.612
 1793SOL    HW1 6278   0.042   0.493   3.548
 1793SOL    HW2 6279   0.175   0.583   3.578
 1794SOL     OW 6280   4.028   5.499   6.263
 1794SOL    HW1 6281   4.102   5.530   6.203
 1794SOL    HW2 6282   3.976   5.427   6.218
 1795SOL     OW 6283   0.382   2.809   6.811
 1795SOL    HW1 6284   0.283   2.825   6.818
 1795SOL    HW2 6285   0.400   2.753   6.730
 1796SOL     OW 6286   3.758   0.699   5.822
 1796SOL    HW1 6287   3.671   0.734   5.855
 1796SOL    HW2 6288   3.782   0.616   5.873
 1797SOL     OW 6289   0.437   1.304   1.559
 1797SOL    HW1 6290   0.530   1.332   1.580
 1797SOL    HW2 6291   0.394   1.371   1.498
 1798SOL     OW 6292   5.634   1.610   3.273
 1798SOL    HW1 6293   5.540   1.629   3.301
 1798SOL    HW2 6294   5.640   1.609   3.173
 1799SOL     OW 6295   2.244   1.857   0.332
 1799SOL    HW1 6296   2.344   1.857   0.339
 1799SOL    HW2 6297   2.217   1.915   0.255
 1800SOL     OW 6298   3.307   4.856   2.645
 1800SOL    HW1 6299   3.349   4.852   2.554
 1800SOL    HW2 6300   3.378   4.877   2.713
 1801SOL     OW 6301   5.564   6.835   0.598
 1801SOL    HW1 6302   5.592   6.928   0.621
 1801SOL    HW2 6303   5.642   6.784   0.563
 1802SOL     OW 6304   5.897   4.854   3.645
 1802SOL    HW1 6305   5.960   4.930   3.657
 1802SOL    HW2 6306   5.928   4.796   3.569
 1803SOL     OW 6307   5.607   5.190   1.092
 1803SOL    HW1 6308   5.626   5.203   1.190
 1803SOL    HW2 6309   5.521   5.139   1.082
 1804SOL     OW 6310   3.127   3.575   6.121
 1804SOL    HW1 6311   3.067   3.603   6.195
 1804SOL    HW2 6312   3.081   3.589   6.033
 1805SOL     OW 6313   5.898   3.127   6.643
 1805SOL    HW1 6314   5.842   3.063   6.695
 1805SOL    HW2 6315   5.890   3.108   6.546
 1806SOL     OW 6316   6.778   0.344   0.367
 1806SOL    HW1 6317   6.707   0.277   0.345
 1806SOL    HW2 6318   6.859   0.326   0.310
 1807SOL     OW 6319   6.435   2.102   5.919
 1807SOL    HW1 6320   6.484   2.171   5.972
 1807SOL    HW2 6321   6.419   2.021   5.976
 1808SOL     OW 6322   2.205   4.577   4.394
 1808SOL    HW1 6323   2.172   4.602   4.485
 1808SOL    HW2 6324   2.280   4.512   4.403
 1809SOL     OW 6325   3.657   0.358   6.400
 1809SOL    HW1 6326   3.729   0.372   6.468
 1809SOL    HW2 6327   3.662   0.430   6.330
 1810SOL     OW 6328   3.305   6.327   2.532
 1810SOL    HW1 6329   3.301   6.407   2.592
 1810SOL    HW2 6330   3.232   6.263   2.558
 1811SOL     OW 6331   5.760   5.841   2.808
 1811SOL    HW1 6332   5.815   5.906   2.860
 1811SOL    HW2 6333   5.818   5.795   2.741
 1812SOL     OW 6334   4.496   5.085   6.265
 1812SOL    HW1 6335   4.585   5.097   6.308
 1812SOL    HW2 6336   4.427   5.135   6.318
 1813SOL     OW 6337   6.727   5.304   5.228
 1813SOL    HW1 6338   6.739   5.238   5.303
 1813SOL    HW2 6339   6.768   5.391   5.254
 1814SOL     OW 6340   4.812   6.440   2.638
 1814SOL    HW1 6341   4.789   6.537   2.630
 1814SOL    HW2 6342   4.900   6.422   2.596
 1815SOL     OW 6343   0.076   1.210   2.773
 1815SOL    HW1 6344   0.108   1.124   2.813
 1815SOL    HW2 6345   0.138   1.238   2.700
 1816SOL     OW 6346   1.322   4.978   0.924
 1816SOL    HW1 6347   1.311   4.959   0.826
 1816SOL    HW2 6348   1.417   4.963   0.951
 1817SOL     OW 6349   1.361   5.705   1.844
 1817SOL    HW1 6350   1.345   5.709   1.746
 1817SOL    HW2 6351   1.444   5.756   1.866
 1818SOL     OW 6352   1.083   1.598   3.252
 1818SOL    HW1 6353   1.121   1.647   3.173
 1818SOL    HW2 6354   1.025   1.660   3.305
 1819SOL     OW 6355   0.474   3.957   2.408
 1819SOL    HW1 6356   0.492   3.899   2.329
 1819SOL    HW2 6357   0.504   4.051   2.389
 1820SOL     OW 6358   5.671   0.302   2.944
 1820SOL    HW1 6359   5.756   0.305   2.997
 1820SOL    HW2 6360   5.664   0.384   2.888
 1821SOL     OW 6361   1.554   1.699   3.386
 1821SOL    HW1 6362   1.598   1.610   3.379
 1821SOL    HW2 6363   1.570   1.738   3.477
 1822SOL     OW 6364   3.052   3.857   1.885
 1822SOL    HW1 6365   3.042   3.951   1.919
 1822SOL    HW2 6366   3.116   3.807   1.943
 1823SOL     OW 6367   4.434   0.184   2.277
 1823SOL    HW1 6368   4.450   0.261   2.339
 1823SOL    HW2 6369   4.496   0.109   2.301
 1824SOL     OW 6370   5.166   2.238   1.666
 1824SOL    HW1 6371   5.153   2.190   1.753
 1824SOL    HW2 6372   5.251   2.209   1.624
 1825SOL     OW 6373   0.540   0.434   1.809
 1825SOL    HW1 6374   0.518   0.519   1.855
 1825SOL    HW2 6375   0.498   0.357   1.858
 1826SOL     OW 6376   2.772   5.998   6.368
 1826SOL    HW1 6377   2.752   5.934   6.442
 1826SOL    HW2 6378   2.836   5.955   6.304
 1827SOL     OW 6379   6.103   0.059   1.589
 1827SOL    HW1 6380   6.132   7.018   1.660
 1827SOL    HW2 6381   6.184   0.094   1.543
 1828SOL     OW 6382   1.545   2.550   0.011
 1828SOL    HW1 6383   1.605   2.599   0.074
 1828SOL    HW2 6384   1.472   2.506   0.063
 1829SOL     OW 6385   5.898   5.279   1.681
 1829SOL    HW1 6386   5.853   5.368   1.692
 1829SOL    HW2 6387   5.995   5.288   1.704
 1830SOL     OW 6388   5.050   6.498   3.874
 1830SOL    HW1 6389   4.956   6.489   3.906
 1830SOL    HW2 6390   5.058   6.456   3.784
 1831SOL     OW 6391   5.501   0.843   3.643
 1831SOL    HW1 6392   5.566   0.766   3.643
 1831SOL    HW2 6393   5.507   0.890   3.731
 1832SOL     OW 6394   4.684   2.414   0.266
 1832SOL    HW1 6395   4.603   2.462   0.301
 1832SOL    HW2 6396   4.692   2.325   0.311
 1833SOL     OW 6397   5.637   1.743   5.685
 1833SOL    HW1 6398   5.599   1.738   5.777
 1833SOL    HW2 6399   5.655   1.838   5.661
 1834SOL     OW 6400   2.705   3.958   0.407
 1834SOL    HW1 6401   2.787   3.985   0.357
 1834SOL    HW2 6402   2.693   4.018   0.486
 1835SOL     OW 6403   1.529   4.599   6.809
 1835SOL    HW1 6404   1.485   4.655   6.880
 1835SOL    HW2 6405   1.458   4.554   6.754
 1836SOL     OW 6406   0.843   6.589   0.539
 1836SOL    HW1 6407   0.748   6.570   0.514
 1836SOL    HW2 6408   0.854   6.579   0.638
 1837SOL     OW 6409   0.655   2.415   4.742
 1837SOL    HW1 6410   0.666   2.502   4.789
 1837SOL    HW2 6411   0.725   2.351   4.773
 1838SOL     OW 6412   1.008   2.830   4.846
 1838SOL    HW1 6413   1.102   2.864   4.852
 1838SOL    HW2 6414   1.000   2.744   4.896
 1839SOL     OW 6415   0.871   1.666   6.590
 1839SOL    HW1 6416   0.966   1.685   6.568
 1839SOL    HW2 6417   0.817   1.663   6.506
 1840SOL     OW 6418   1.019   5.592   1.011
 1840SOL    HW1 6419   1.107   5.569   0.971
 1840SOL    HW2 6420   0.961   5.510   1.015
 1841SOL     OW 6421   1.309   2.862   3.630
 1841SOL    HW1 6422   1.221   2.904   3.608
 1841SOL    HW2 6423   1.331   2.880   3.727
 1842SOL     OW 6424   0.791   5.519   6.435
 1842SOL    HW1 6425   0.866   5.576   6.469
 1842SOL    HW2 6426   0.715   5.523   6.499
 1843SOL     OW 6427   4.545   2.090   5.054
 1843SOL    HW1 6428   4.543   2.051   4.962
 1843SOL    HW2 6429   4.621   2.155   5.061
 1844SOL     OW 6430   5.460   3.716   4.034
 1844SOL    HW1 6431   5.559   3.731   4.046
 1844SOL    HW2 6432   5.444   3.668   3.948
 1845SOL     OW 6433   4.317   6.342   0.886
 1845SOL    HW1 6434   4.237   6.398   0.860
 1845SOL    HW2 6435   4.397   6.401   0.894
 1846SOL     OW 6436   3.732   1.409   5.469
 1846SOL    HW1 6437   3.798   1.387   5.541
 1846SOL    HW2 6438   3.780   1.454   5.393
 1847SOL     OW 6439   1.473   6.686   6.606
 1847SOL    HW1 6440   1.507   6.683   6.700
 1847SOL    HW2 6441   1.385   6.734   6.604
 1848SOL     OW 6442   2.077   0.383   2.903
 1848SOL    HW1 6443   2.129   0.334   2.974
 1848SOL    HW2 6444   1.993   0.420   2.943
 1849SOL     OW 6445   2.984   0.755   6.695
 1849SOL    HW1 6446   3.001   0.683   6.763
 1849SOL    HW2 6447   2.912   0.725   6.632
 1850SOL     OW 6448   5.342   1.941   2.200
 1850SOL    HW1 6449   5.320   2.036   2.220
 1850SOL    HW2 6450   5.265   1.882   2.224
 1851SOL     OW 6451   6.256   3.960   2.948
 1851SOL    HW1 6452   6.183   3.996   2.889
 1851SOL    HW2 6453   6.329   3.922   2.891
 1852SOL     OW 6454   5.114   1.841   5.846
 1852SOL    HW1 6455   5.084   1.907   5.776
 1852SOL    HW2 6456   5.151   1.760   5.801
 1853SOL     OW 6457   1.214   4.567   0.569
 1853SOL    HW1 6458   1.166   4.524   0.493
 1853SOL    HW2 6459   1.166   4.548   0.654
 1854SOL     OW 6460   2.502   5.096   3.810
 1854SOL    HW1 6461   2.546   5.161   3.748
 1854SOL    HW2 6462   2.432   5.142   3.864
 1855SOL     OW 6463   6.151   4.481   2.384
 1855SOL    HW1 6464   6.236   4.429   2.391
 1855SOL    HW2 6465   6.171   4.579   2.389
 1856SOL     OW 6466   5.166   2.926   6.552
 1856SOL    HW1 6467   5.125   3.017   6.550
 1856SOL    HW2 6468   5.102   2.860   6.511
 1857SOL     OW 6469   4.910   1.501   3.540
 1857SOL    HW1 6470   4.841   1.560   3.582
 1857SOL    HW2 6471   4.875   1.467   3.453
 1858SOL     OW 6472   5.772   3.795   2.722
 1858SOL    HW1 6473   5.800   3.800   2.818
 1858SOL    HW2 6474   5.675   3.819   2.715
 1859SOL     OW 6475   5.951   1.329   2.615
 1859SOL    HW1 6476   5.946   1.311   2.713
 1859SOL    HW2 6477   5.900   1.259   2.565
 1860SOL     OW 6478   3.994   2.208   4.848
 1860SOL    HW1 6479   4.081   2.249   4.823
 1860SOL    HW2 6480   3.927   2.280   4.867
 1861SOL     OW 6481   5.626   5.841   2.349
 1861SOL    HW1 6482   5.725   5.826   2.350
 1861SOL    HW2 6483   5.603   5.908   2.279
 1862SOL     OW 6484   2.145   1.622   0.713
 1862SOL    HW1 6485   2.117   1.567   0.791
 1862SOL    HW2 6486   2.081   1.698   0.700
 1863SOL     OW 6487   2.001   2.525   1.788
 1863SOL    HW1 6488   2.067   2.495   1.857
 1863SOL    HW2 6489   1.963   2.445   1.741
 1864SOL     OW 6490   0.894   6.536   3.071
 1864SOL    HW1 6491   0.906   6.438   3.083
 1864SOL    HW2 6492   0.950   6.568   2.994
 1865SOL     OW 6493   5.000   2.502   6.770
 1865SOL    HW1 6494   5.056   2.421   6.786
 1865SOL    HW2 6495   5.005   2.563   6.849
 1866SOL     OW 6496   5.029   5.317   1.908
 1866SOL    HW1 6497   4.934   5.330   1.938
 1866SOL    HW2 6498   5.061   5.228   1.940
 1867SOL     OW 6499   0.640   4.821   6.412
 1867SOL    HW1 6500   0.606   4.765   6.488
 1867SOL    HW2 6501   0.579   4.900   6.400
 1868SOL     OW 6502   6.783   4.285   5.470
 1868SOL    HW1 6503   6.821   4.307   5.560
 1868SOL    HW2 6504   6.836   4.332   5.399
 1869SOL     OW 6505   6.488   1.555   4.466
 1869SOL    HW1 6506   6.550   1.570   4.542
 1869SOL    HW2 6507   6.404   1.607   4.481
 1870SOL     OW 6508   2.200   4.249   4.684
 1870SOL    HW1 6509   2.226   4.161   4.724
 1870SOL    HW2 6510   2.140   4.298   4.747
 1871SOL     OW 6511   1.425   0.153   0.656
 1871SOL    HW1 6512   1.368   0.120   0.581
 1871SOL    HW2 6513   1.427   0.253   0.655
 1872SOL     OW 6514   2.129   4.810   6.700
 1872SOL    HW1 6515   2.097   4.722   6.664
 1872SOL    HW2 6516   2.224   4.801   6.729
 1873SOL     OW 6517   5.068   0.162   0.020
 1873SOL    HW1 6518   5.055   0.074   0.067
 1873SOL    HW2 6519   5.165   0.178   0.004
 1874SOL     OW 6520   0.600   4.211   2.397
 1874SOL    HW1 6521   0.671   4.257   2.450
 1874SOL    HW2 6522   0.570   4.269   2.322
 1875SOL     OW 6523   1.094   6.685   1.594
 1875SOL    HW1 6524   1.049   6.773   1.606
 1875SOL    HW2 6525   1.027   6.611   1.609
 1876SOL     OW 6526   2.270   6.652   3.853
 1876SOL    HW1 6527   2.194   6.677   3.793
 1876SOL    HW2 6528   2.253   6.562   3.893
 1877SOL     OW 6529   0.254   6.484   3.741
 1877SOL    HW1 6530   0.163   6.480   3.699
 1877SOL    HW2 6531   0.323   6.499   3.671
 1878SOL     OW 6532   6.413   2.321   5.747
 1878SOL    HW1 6533   6.365   2.396   5.793
 1878SOL    HW2 6534   6.405   2.237   5.802
 1879SOL     OW 6535   1.374   4.606   5.924
 1879SOL    HW1 6536   1.430   4.523   5.936
 1879SOL    HW2 6537   1.359   4.621   5.826
 1880SOL     OW 6538   6.258   0.449   4.969
 1880SOL    HW1 6539   6.240   0.416   5.061
 1880SOL    HW2 6540   6.211   0.390   4.903
 1881SOL     OW 6541   6.976   2.573   0.171
 1881SOL    HW1 6542   6.892   2.622   0.192
 1881SOL    HW2 6543   0.018   2.586   0.245
 1882SOL     OW 6544   1.460   6.262   6.814
 1882SOL    HW1 6545   1.423   6.246   6.905
 1882SOL    HW2 6546   1.494   6.176   6.776
 1883SOL     OW 6547   0.574   1.693   4.073
 1883SOL    HW1 6548   0.537   1.769   4.020
 1883SOL    HW2 6549   0.670   1.679   4.049
 1884SOL     OW 6550   6.948   2.540   1.236
 1884SOL    HW1 6551   6.951   2.536   1.136
 1884SOL    HW2 6552   6.912   2.628   1.266
 1885SOL     OW 6553   2.396   1.325   4.401
 1885SOL    HW1 6554   2.444   1.257   4.344
 1885SOL    HW2 6555   2.385   1.289   4.493
 1886SOL     OW 6556   0.614   6.281   3.289
 1886SOL    HW1 6557   0.534   6.223   3.272
 1886SOL    HW2 6558   0.592   6.375   3.265
 1887SOL     OW 6559   2.595   6.162   6.137
 1887SOL    HW1 6560   2.672   6.201   6.190
 1887SOL    HW2 6561   2.628   6.083   6.085
 1888SOL     OW 6562   2.614   0.736   3.194
 1888SOL    HW1 6563   2.551   0.675   3.241
 1888SOL    HW2 6564   2.704   0.732   3.237
 1889SOL     OW 6565   0.735   3.444   2.888
 1889SOL    HW1 6566   0.657   3.500   2.860
 1889SOL    HW2 6567   0.765   3.473   2.979
 1890SOL     OW 6568   1.310   5.924   4.645
 1890SOL    HW1 6569   1.262   5.837   4.632
 1890SOL    HW2 6570   1.245   5.993   4.678
 1891SOL     OW 6571   3.100   3.410   3.260
 1891SOL    HW1 6572   3.084   3.484   3.325
 1891SOL    HW2 6573   3.181   3.358   3.288
 1892SOL     OW 6574   0.960   0.328   2.410
 1892SOL    HW1 6575   1.028   0.350   2.479
 1892SOL    HW2 6576   0.981   0.238   2.370
 1893SOL     OW 6577   3.780   2.938   4.391
 1893SOL    HW1 6578   3.763   2.943   4.490
 1893SOL    HW2 6579   3.693   2.940   4.342
 1894SOL     OW 6580   3.306   3.523   4.187
 1894SOL    HW1 6581   3.255   3.515   4.101
 1894SOL    HW2 6582   3.371   3.447   4.194
 1895SOL     OW 6583   1.730   5.831   0.062
 1895SOL    HW1 6584   1.672   5.908   0.088
 1895SOL    HW2 6585   1.708   5.752   0.120
 1896SOL     OW 6586   6.409   2.616   1.413
 1896SOL    HW1 6587   6.383   2.523   1.387
 1896SOL    HW2 6588   6.428   2.669   1.330
 1897SOL     OW 6589   1.072   4.446   4.231
 1897SOL    HW1 6590   1.167   4.431   4.202
 1897SOL    HW2 6591   1.055   4.399   4.317
 1898SOL     OW 6592   1.323   5.978   2.728
 1898SOL    HW1 6593   1.253   5.926   2.678
 1898SOL    HW2 6594   1.357   6.052   2.670
 1899SOL     OW 6595   0.156   0.973   2.155
 1899SOL    HW1 6596   0.057   0.960   2.167
 1899SOL    HW2 6597   0.203   0.887   2.170
 1900SOL     OW 6598   2.748   6.922   6.633
 1900SOL    HW1 6599   2.764   7.019   6.612
 1900SOL    HW2 6600   2.765   6.907   6.731
 1901SOL     OW 6601   2.765   3.428   1.866
 1901SOL    HW1 6602   2.779   3.465   1.958
 1901SOL    HW2 6603   2.834   3.466   1.805
 1902SOL     OW 6604   1.391   6.763   5.228
 1902SOL    HW1 6605   1.460   6.830   5.253
 1902SOL    HW2 6606   1.429   6.699   5.161
 1903SOL     OW 6607   1.001   1.738   4.294
 1903SOL    HW1 6608   0.953   1.801   4.232
 1903SOL    HW2 6609   1.089   1.713   4.254
 1904SOL     OW 6610   5.789   5.832   1.697
 1904SOL    HW1 6611   5.827   5.892   1.626
 1904SOL    HW2 6612   5.740   5.756   1.653
 1905SOL     OW 6613   0.831   1.568   4.076
 1905SOL    HW1 6614   0.761   1.514   4.123
 1905SOL    HW2 6615   0.881   1.623   4.143
 1906SOL     OW 6616   0.750   6.498   4.645
 1906SOL    HW1 6617   0.727   6.595   4.635
 1906SOL    HW2 6618   0.850   6.488   4.648
 1907SOL     OW 6619   5.649   3.082   0.873
 1907SOL    HW1 6620   5.594   3.023   0.813
 1907SOL    HW2 6621   5.703   3.024   0.934
 1908SOL     OW 6622   3.838   0.529   1.637
 1908SOL    HW1 6623   3.930   0.542   1.601
 1908SOL    HW2 6624   3.800   0.616   1.666
 1909SOL     OW 6625   6.475   5.412   4.640
 1909SOL    HW1 6626   6.551   5.421   4.705
 1909SOL    HW2 6627   6.411   5.487   4.652
 1910SOL     OW 6628   0.617   6.118   5.841
 1910SOL    HW1 6629   0.544   6.110   5.774
 1910SOL    HW2 6630   0.676   6.195   5.816
 1911SOL     OW 6631   5.890   6.074   4.300
 1911SOL    HW1 6632   5.828   6.152   4.311
 1911SOL    HW2 6633   5.922   6.071   4.206
 1912SOL     OW 6634   3.580   5.156   2.346
 1912SOL    HW1 6635   3.624   5.176   2.433
 1912SOL    HW2 6636   3.568   5.241   2.294
 1913SOL     OW 6637   3.118   4.385   6.867
 1913SOL    HW1 6638   3.093   4.289   6.877
 1913SOL    HW2 6639   3.035   4.441   6.870
 1914SOL     OW 6640   3.523   4.369   6.969
 1914SOL    HW1 6641   3.471   4.447   6.935
 1914SOL    HW2 6642   3.460   4.293   6.987
 1915SOL     OW 6643   3.345   2.931   6.797
 1915SOL    HW1 6644   3.388   2.941   6.886
 1915SOL    HW2 6645   3.304   3.018   6.770
 1916SOL     OW 6646   4.284   0.738   2.425
 1916SOL    HW1 6647   4.297   0.719   2.522
 1916SOL    HW2 6648   4.213   0.678   2.388
 1917SOL     OW 6649   1.976   4.123   1.744
 1917SOL    HW1 6650   2.014   4.036   1.776
 1917SOL    HW2 6651   1.907   4.105   1.674
 1918SOL     OW 6652   5.311   2.354   3.593
 1918SOL    HW1 6653   5.279   2.355   3.498
 1918SOL    HW2 6654   5.259   2.419   3.647
 1919SOL     OW 6655   6.435   2.117   6.310
 1919SOL    HW1 6656   6.393   2.026   6.314
 1919SOL    HW2 6657   6.389   2.172   6.241
 1920SOL     OW 6658   4.551   3.195   0.480
 1920SOL    HW1 6659   4.648   3.171   0.490
 1920SOL    HW2 6660   4.542   3.294   0.470
 1921SOL     OW 6661   2.446   2.170   0.651
 1921SOL    HW1 6662   2.390   2.089   0.635
 1921SOL    HW2 6663   2.467   2.212   0.563
 1922SOL     OW 6664   3.237   3.230   4.374
 1922SOL    HW1 6665   3.330   3.241   4.340
 1922SOL    HW2 6666   3.180   3.305   4.341
 1923SOL     OW 6667   3.001   0.758   3.936
 1923SOL    HW1 6668   3.067   0.692   3.900
 1923SOL    HW2 6669   2.915   0.711   3.956
 1924SOL     OW 6670   5.574   0.777   0.561
 1924SOL    HW1 6671   5.669   0.789   0.533
 1924SOL    HW2 6672   5.525   0.726   0.490
 1925SOL     OW 6673   1.056   4.188   1.002
 1925SOL    HW1 6674   1.144   4.236   0.996
 1925SOL    HW2 6675   1.067   4.107   1.060
 1926SOL     OW 6676   3.794   0.050   1.594
 1926SOL    HW1 6677   3.732   0.089   1.526
 1926SOL    HW2 6678   3.813   0.119   1.664
 1927SOL     OW 6679   2.120   5.835   1.148
 1927SOL    HW1 6680   2.061   5.914   1.133
 1927SOL    HW2 6681   2.148   5.797   1.060
 1928SOL     OW 6682   6.902   4.379   2.767
 1928SOL    HW1 6683   6.841   4.301   2.779
 1928SOL    HW2 6684   6.854   4.451   2.716
 1929SOL     OW 6685   3.763   6.721   3.358
 1929SOL    HW1 6686   3.698   6.651   3.385
 1929SOL    HW2 6687   3.811   6.694   3.275
 1930SOL     OW 6688   3.485   3.138   0.294
 1930SOL    HW1 6689   3.405   3.148   0.235
 1930SOL    HW2 6690   3.567   3.126   0.238
 1931SOL     OW 6691   6.606   3.176   3.751
 1931SOL    HW1 6692   6.585   3.144   3.843
 1931SOL    HW2 6693   6.627   3.097   3.692
 1932SOL     OW 6694   5.000   0.782   2.308
 1932SOL    HW1 6695   4.946   0.698   2.311
 1932SOL    HW2 6696   4.945   0.856   2.269
 1933SOL     OW 6697   1.593   1.166   1.230
 1933SOL    HW1 6698   1.674   1.128   1.274
 1933SOL    HW2 6699   1.580   1.122   1.141
 1934SOL     OW 6700   0.370   0.984   0.085
 1934SOL    HW1 6701   0.327   0.951   0.001
 1934SOL    HW2 6702   0.350   1.082   0.097
 1935SOL     OW 6703   5.871   5.241   3.741
 1935SOL    HW1 6704   5.833   5.294   3.666
 1935SOL    HW2 6705   5.965   5.214   3.718
 1936SOL     OW 6706   5.118   3.215   6.199
 1936SOL    HW1 6707   5.110   3.274   6.280
 1936SOL    HW2 6708   5.068   3.257   6.123
 1937SOL     OW 6709   6.859   4.862   6.823
 1937SOL    HW1 6710   6.813   4.864   6.912
 1937SOL    HW2 6711   6.797   4.824   6.754
 1938SOL     OW 6712   6.871   2.116   6.985
 1938SOL    HW1 6713   6.832   2.208   6.985
 1938SOL    HW2 6714   6.814   2.056   0.017
 1939SOL     OW 6715   0.319   0.123   4.357
 1939SOL    HW1 6716   0.355   0.210   4.391
 1939SOL    HW2 6717   0.291   0.134   4.261
 1940SOL     OW 6718   0.649   5.298   1.214
 1940SOL    HW1 6719   0.683   5.347   1.134
 1940SOL    HW2 6720   0.574   5.238   1.187
 1941SOL     OW 6721   6.078   1.212   4.327
 1941SOL    HW1 6722   6.123   1.135   4.281
 1941SOL    HW2 6723   5.986   1.185   4.355
 1942SOL     OW 6724   0.264   5.160   2.008
 1942SOL    HW1 6725   0.186   5.098   2.001
 1942SOL    HW2 6726   0.234   5.247   2.049
 1943SOL     OW 6727   0.794   2.984   3.778
 1943SOL    HW1 6728   0.796   3.017   3.684
 1943SOL    HW2 6729   0.885   2.951   3.804
 1944SOL     OW 6730   0.798   2.957   3.490
 1944SOL    HW1 6731   0.796   2.857   3.502
 1944SOL    HW2 6732   0.823   2.979   3.396
 1945SOL     OW 6733   5.081   1.490   2.363
 1945SOL    HW1 6734   5.172   1.502   2.323
 1945SOL    HW2 6735   5.070   1.553   2.440
 1946SOL     OW 6736   5.561   5.450   0.738
 1946SOL    HW1 6737   5.641   5.487   0.786
 1946SOL    HW2 6738   5.487   5.518   0.739
 1947SOL     OW 6739   6.303   5.216   2.687
 1947SOL    HW1 6740   6.203   5.204   2.688
 1947SOL    HW2 6741   6.347   5.127   2.677
 1948SOL     OW 6742   5.388   3.488   3.797
 1948SOL    HW1 6743   5.361   3.392   3.801
 1948SOL    HW2 6744   5.445   3.503   3.716
 1949SOL     OW 6745   3.300   4.478   6.683
 1949SOL    HW1 6746   3.251   4.454   6.599
 1949SOL    HW2 6747   3.240   4.465   6.762
 1950SOL     OW 6748   3.696   4.072   3.533
 1950SOL    HW1 6749   3.731   3.994   3.481
 1950SOL    HW2 6750   3.733   4.070   3.626
 1951SOL     OW 6751   6.648   5.730   5.773
 1951SOL    HW1 6752   6.734   5.779   5.784
 1951SOL    HW2 6753   6.630   5.718   5.675
 1952SOL     OW 6754   5.765   4.092   6.733
 1952SOL    HW1 6755   5.795   4.182   6.700
 1952SOL    HW2 6756   5.668   4.097   6.758
 1953SOL     OW 6757   0.795   0.816   6.924
 1953SOL    HW1 6758   0.868   0.881   6.947
 1953SOL    HW2 6759   0.829   0.748   6.859
 1954SOL     OW 6760   3.998   6.630   2.204
 1954SOL    HW1 6761   4.017   6.664   2.296
 1954SOL    HW2 6762   4.079   6.584   2.167
 1955SOL     OW 6763   6.489   2.205   4.219
 1955SOL    HW1 6764   6.457   2.121   4.176
 1955SOL    HW2 6765   6.573   2.188   4.270
 1956SOL     OW 6766   4.801   1.102   1.562
 1956SOL    HW1 6767   4.742   1.151   1.497
 1956SOL    HW2 6768   4.894   1.138   1.555
 1957SOL     OW 6769   6.464   2.658   4.392
 1957SOL    HW1 6770   6.399   2.639   4.319
 1957SOL    HW2 6771   6.512   2.744   4.373
 1958SOL     OW 6772   4.161   1.937   0.219
 1958SOL    HW1 6773   4.169   1.838   0.206
 1958SOL    HW2 6774   4.127   1.956   0.311
 1959SOL     OW 6775   1.483   1.442   5.645
 1959SOL    HW1 6776   1.454   1.491   5.728
 1959SOL    HW2 6777   1.414   1.453   5.574
 1960SOL     OW 6778   5.264   4.394   2.883
 1960SOL    HW1 6779   5.336   4.432   2.825
 1960SOL    HW2 6780   5.220   4.468   2.934
 1961SOL     OW 6781   0.424   4.053   4.404
 1961SOL    HW1 6782   0.403   4.137   4.453
 1961SOL    HW2 6783   0.517   4.023   4.428
 1962SOL     OW 6784   0.546   6.915   2.373
 1962SOL    HW1 6785   0.459   6.961   2.393
 1962SOL    HW2 6786   0.533   6.851   2.297
 1963SOL     OW 6787   0.822   2.775   6.954
 1963SOL    HW1 6788   0.725   2.791   6.935
 1963SOL    HW2 6789   0.869   2.754   6.869
 1964SOL     OW 6790   5.672   3.351   0.897
 1964SOL    HW1 6791   5.648   3.256   0.881
 1964SOL    HW2 6792   5.612   3.411   0.844
 1965SOL     OW 6793   6.057   4.456   4.027
 1965SOL    HW1 6794   6.040   4.373   4.080
 1965SOL    HW2 6795   5.987   4.524   4.048
 1966SOL     OW 6796   0.896   5.128   6.752
 1966SOL    HW1 6797   0.942   5.201   6.801
 1966SOL    HW2 6798   0.797   5.135   6.765
 1967SOL     OW 6799   6.799   2.968   5.084
 1967SOL    HW1 6800   6.736   3.046   5.079
 1967SOL    HW2 6801   6.821   2.950   5.180
 1968SOL     OW 6802   2.270   1.407   6.151
 1968SOL    HW1 6803   2.236   1.364   6.067
 1968SOL    HW2 6804   2.193   1.442   6.204
 1969SOL     OW 6805   0.976   5.855   0.885
 1969SOL    HW1 6806   1.002   5.795   0.961
 1969SOL    HW2 6807   1.016   5.822   0.800
 1970SOL     OW 6808   5.418   4.503   3.785
 1970SOL    HW1 6809   5.355   4.458   3.722
 1970SOL    HW2 6810   5.372   4.519   3.872
 1971SOL     OW 6811   1.572   4.878   4.710
 1971SOL    HW1 6812   1.504   4.810   4.681
 1971SOL    HW2 6813   1.578   4.951   4.641
 1972SOL     OW 6814   6.080   2.235   2.654
 1972SOL    HW1 6815   6.093   2.195   2.563
 1972SOL    HW2 6816   6.040   2.326   2.645
 1973SOL     OW 6817   3.569   2.370   0.542
 1973SOL    HW1 6818   3.538   2.423   0.622
 1973SOL    HW2 6819   3.530   2.278   0.546
 1974SOL     OW 6820   2.447   6.772   4.784
 1974SOL    HW1 6821   2.445   6.758   4.883
 1974SOL    HW2 6822   2.359   6.807   4.754
 1975SOL     OW 6823   2.029   3.010   2.446
 1975SOL    HW1 6824   2.005   3.107   2.448
 1975SOL    HW2 6825   1.958   2.959   2.398
 1976SOL     OW 6826   1.648   0.984   4.956
 1976SOL    HW1 6827   1.715   1.058   4.946
 1976SOL    HW2 6828   1.693   0.904   4.995
 1977SOL     OW 6829   1.049   3.543   6.679
 1977SOL    HW1 6830   1.061   3.497   6.591
 1977SOL    HW2 6831   1.129   3.525   6.737
 1978SOL     OW 6832   3.154   0.181   2.226
 1978SOL    HW1 6833   3.228   0.123   2.262
 1978SOL    HW2 6834   3.192   0.270   2.200
 1979SOL     OW 6835   5.426   4.057   6.356
 1979SOL    HW1 6836   5.419   4.140   6.301
 1979SOL    HW2 6837   5.339   4.040   6.401
 1980SOL     OW 6838   4.229   0.472   1.350
 1980SOL    HW1 6839   4.150   0.434   1.302
 1980SOL    HW2 6840   4.313   0.439   1.307
 1981SOL     OW 6841   4.218   2.137   1.985
 1981SOL    HW1 6842   4.295   2.201   1.980
 1981SOL    HW2 6843   4.146   2.166   1.923
 1982SOL     OW 6844   1.401   2.745   6.365
 1982SOL    HW1 6845   1.413   2.650   6.392
 1982SOL    HW2 6846   1.372   2.749   6.269
 1983SOL     OW 6847   0.279   1.622   1.923
 1983SOL    HW1 6848   0.197   1.567   1.906
 1983SOL    HW2 6849   0.271   1.667   2.012
 1984SOL     OW 6850   4.752   3.818   5.936
 1984SOL    HW1 6851   4.666   3.816   5.886
 1984SOL    HW2 6852   4.828   3.809   5.872
 1985SOL     OW 6853   6.230   4.072   3.999
 1985SOL    HW1 6854   6.265   4.162   4.028
 1985SOL    HW2 6855   6.253   4.004   4.069
 1986SOL     OW 6856   2.838   3.380   2.375
 1986SOL    HW1 6857   2.749   3.333   2.378
 1986SOL    HW2 6858   2.902   3.327   2.320
 1987SOL     OW 6859   2.546   0.979   2.325
 1987SOL    HW1 6860   2.542   1.076   2.348
 1987SOL    HW2 6861   2.530   0.967   2.226
 1988SOL     OW 6862   0.918   2.115   2.777
 1988SOL    HW1 6863   0.960   2.205   2.765
 1988SOL    HW2 6864   0.888   2.104   2.872
 1989SOL     OW 6865   2.835   5.295   4.907
 1989SOL    HW1 6866   2.904   5.363   4.881
 1989SOL    HW2 6867   2.881   5.210   4.933
 1990SOL     OW 6868   4.189   6.355   0.380
 1990SOL    HW1 6869   4.211   6.453   0.379
 1990SOL    HW2 6870   4.247   6.308   0.314
 1991SOL     OW 6871   2.703   5.810   1.972
 1991SOL    HW1 6872   2.702   5.757   1.888
 1991SOL    HW2 6873   2.741   5.754   2.046
 1992SOL     OW 6874   1.320   6.506   2.983
 1992SOL    HW1 6875   1.343   6.551   2.896
 1992SOL    HW2 6876   1.258   6.564   3.035
 1993SOL     OW 6877   1.817   1.965   2.489
 1993SOL    HW1 6878   1.836   1.875   2.450
 1993SOL    HW2 6879   1.902   2.017   2.498
 1994SOL     OW 6880   3.308   3.377   1.438
 1994SOL    HW1 6881   3.287   3.362   1.342
 1994SOL    HW2 6882   3.393   3.330   1.462
 1995SOL     OW 6883   5.910   1.612   4.133
 1995SOL    HW1 6884   5.994   1.661   4.154
 1995SOL    HW2 6885   5.866   1.653   4.053
 1996SOL     OW 6886   4.758   0.661   0.515
 1996SOL    HW1 6887   4.698   0.700   0.445
 1996SOL    HW2 6888   4.790   0.571   0.484
 1997SOL     OW 6889   3.782   1.196   3.661
 1997SOL    HW1 6890   3.687   1.176   3.634
 1997SOL    HW2 6891   3.804   1.289   3.636
 1998SOL     OW 6892   2.569   3.559   1.022
 1998SOL    HW1 6893   2.625   3.488   1.067
 1998SOL    HW2 6894   2.630   3.628   0.983
 1999SOL     OW 6895   0.891   7.024   6.672
 1999SOL    HW1 6896   0.919   6.976   6.756
 1999SOL    HW2 6897   0.964   7.017   6.604
 2000SOL     OW 6898   4.144   4.562   6.394
 2000SOL    HW1 6899   4.082   4.599   6.464
 2000SOL    HW2 6900   4.220   4.515   6.439
 2001SOL     OW 6901   1.477   2.024   0.957
 2001SOL    HW1 6902   1.421   1.960   0.904
 2001SOL    HW2 6903   1.451   2.019   1.054
 2002SOL     OW 6904   5.850   5.571   0.814
 2002SOL    HW1 6905   5.873   5.642   0.747
 2002SOL    HW2 6906   5.881   5.600   0.904
 2003SOL     OW 6907   6.010   5.909   1.069
 2003SOL    HW1 6908   6.072   5.928   0.993
 2003SOL    HW2 6909   5.931   5.970   1.063
 2004SOL     OW 6910   4.177   0.162   3.229
 2004SOL    HW1 6911   4.248   0.233   3.224
 2004SOL    HW2 6912   4.175   0.125   3.322
 2005SOL     OW 6913   1.456   6.509   0.024
 2005SOL    HW1 6914   1.385   6.486   0.090
 2005SOL    HW2 6915   1.533   6.447   0.035
 2006SOL     OW 6916   6.082   0.099   2.255
 2006SOL    HW1 6917   5.990   0.117   2.289
 2006SOL    HW2 6918   6.112   0.175   2.198
 2007SOL     OW 6919   5.630   5.165   5.857
 2007SOL    HW1 6920   5.626   5.066   5.871
 2007SOL    HW2 6921   5.538   5.202   5.851
 2008SOL     OW 6922   1.916   3.237   2.802
 2008SOL    HW1 6923   1.964   3.244   2.890
 2008SOL    HW2 6924   1.982   3.215   2.730
 2009SOL     OW 6925   6.227   6.956   3.003
 2009SOL    HW1 6926   6.163   0.008   2.989
 2009SOL    HW2 6927   6.179   6.880   3.047
 2010SOL     OW 6928   0.421   1.612   1.484
 2010SOL    HW1 6929   0.502   1.619   1.542
 2010SOL    HW2 6930   0.340   1.634   1.538
 2011SOL     OW 6931   1.055   6.987   4.948
 2011SOL    HW1 6932   1.147   6.948   4.960
 2011SOL    HW2 6933   1.025   0.002   5.035
 2012SOL     OW 6934   0.157   2.606   0.740
 2012SOL    HW1 6935   0.190   2.696   0.768
 2012SOL    HW2 6936   0.057   2.609   0.728
 2013SOL     OW 6937   0.862   2.883   2.156
 2013SOL    HW1 6938   0.863   2.802   2.098
 2013SOL    HW2 6939   0.926   2.872   2.232
 2014SOL     OW 6940   3.765   1.449   3.965
 2014SOL    HW1 6941   3.801   1.363   4.001
 2014SOL    HW2 6942   3.734   1.506   4.041
 2015SOL     OW 6943   3.582   6.295   1.860
 2015SOL    HW1 6944   3.545   6.388   1.859
 2015SOL    HW2 6945   3.507   6.230   1.851
 2016SOL     OW 6946   1.969   0.959   5.516
 2016SOL    HW1 6947   2.068   0.963   5.509
 2016SOL    HW2 6948   1.931   1.051   5.506
 2017SOL     OW 6949   2.763   6.371   4.356
 2017SOL    HW1 6950   2.776   6.467   4.329
 2017SOL    HW2 6951   2.675   6.361   4.401
 2018SOL     OW 6952   0.404   0.348   4.487
 2018SOL    HW1 6953   0.375   0.444   4.482
 2018SOL    HW2 6954   0.459   0.335   4.570
 2019SOL     OW 6955   6.571   4.778   6.742
 2019SOL    HW1 6956   6.482   4.732   6.745
 2019SOL    HW2 6957   6.558   4.876   6.759
 2020SOL     OW 6958   1.864   6.831   1.173
 2020SOL    HW1 6959   1.802   6.789   1.240
 2020SOL    HW2 6960   1.813   6.896   1.117
 2021SOL     OW 6961   0.285   5.832   4.258
 2021SOL    HW1 6962   0.283   5.733   4.269
 2021SOL    HW2 6963   0.349   5.856   4.184
 2022SOL     OW 6964   1.447   3.377   4.274
 2022SOL    HW1 6965   1.388   3.344   4.348
 2022SOL    HW2 6966   1.536   3.404   4.311
 2023SOL     OW 6967   0.349   5.711   0.039
 2023SOL    HW1 6968   0.357   5.706   0.138
 2023SOL    HW2 6969   0.279   5.647   0.007
 2024SOL     OW 6970   6.945   5.456   3.460
 2024SOL    HW1 6971   6.991   5.447   3.548
 2024SOL    HW2 6972   6.860   5.403   3.461
 2025SOL     OW 6973   2.167   6.750   4.452
 2025SOL    HW1 6974   2.219   6.699   4.383
 2025SOL    HW2 6975   2.081   6.780   4.413
 2026SOL     OW 6976   1.523   6.953   5.386
 2026SOL    HW1 6977   1.563   7.022   5.325
 2026SOL    HW2 6978   1.460   6.997   5.449
 2027SOL     OW 6979   6.596   5.880   2.686
 2027SOL    HW1 6980   6.564   5.963   2.640
 2027SOL    HW2 6981   6.517   5.825   2.714
 2028SOL     OW 6982   2.367   5.827   5.074
 2028SOL    HW1 6983   2.392   5.733   5.051
 2028SOL    HW2 6984   2.352   5.834   5.173
 2029SOL     OW 6985   6.590   1.990   6.907
 2029SOL    HW1 6986   6.569   1.950   6.997
 2029SOL    HW2 6987   6.649   1.927   6.856
 2030SOL     OW 6988   1.860   6.748   2.976
 2030SOL    HW1 6989   1.912   6.701   3.046
 2030SOL    HW2 6990   1.921   6.805   2.921
 2031SOL     OW 6991   0.539   6.691   5.721
 2031SOL    HW1 6992   0.479   6.764   5.690
 2031SOL    HW2 6993   0.489   6.604   5.721
 2032SOL     OW 6994   2.467   2.940   6.115
 2032SOL    HW1 6995   2.540   2.991   6.161
 2032SOL    HW2 6996   2.461   2.970   6.020
 2033SOL     OW 6997   2.426   0.938   1.381
 2033SOL    HW1 6998   2.436   1.035   1.363
 2033SOL    HW2 6999   2.329   0.913   1.378
 2034SOL     OW 7000   0.783   4.690   5.229
 2034SOL    HW1 7001   0.863   4.720   5.280
 2034SOL    HW2 7002   0.764   4.755   5.154
 2035SOL     OW 7003   5.699   5.488   2.859
 2035SOL    HW1 7004   5.645   5.563   2.821
 2035SOL    HW2 7005   5.713   5.503   2.957
 2036SOL     OW 7006   0.756   3.904   6.163
 2036SOL    HW1 7007   0.733   3.811   6.134
 2036SOL    HW2 7008   0.717   3.970   6.099
 2037SOL     OW 7009   0.971   2.727   6.709
 2037SOL    HW1 7010   0.967   2.628   6.694
 2037SOL    HW2 7011   1.063   2.760   6.686
 2038SOL     OW 7012   1.137   1.185   5.687
 2038SOL    HW1 7013   1.165   1.206   5.593
 2038SOL    HW2 7014   1.058   1.123   5.685
 2039SOL     OW 7015   5.548   5.618   3.847
 2039SOL    HW1 7016   5.461   5.665   3.831
 2039SOL    HW2 7017   5.541   5.524   3.815
 2040SOL     OW 7018   2.820   2.100   0.813
 2040SOL    HW1 7019   2.742   2.039   0.831
 2040SOL    HW2 7020   2.855   2.134   0.900
 2041SOL     OW 7021   3.124   6.780   0.126
 2041SOL    HW1 7022   3.038   6.797   0.174
 2041SOL    HW2 7023   3.124   6.829   0.039
 2042SOL     OW 7024   0.100   0.081   6.219
 2042SOL    HW1 7025   0.128   0.032   6.137
 2042SOL    HW2 7026   0.001   0.076   6.230
 2043SOL     OW 7027   0.332   4.036   6.779
 2043SOL    HW1 7028   0.245   4.009   6.822
 2043SOL    HW2 7029   0.401   3.967   6.799
 2044SOL     OW 7030   3.828   0.269   1.761
 2044SOL    HW1 7031   3.831   0.353   1.706
 2044SOL    HW2 7032   3.789   0.290   1.851
 2045SOL     OW 7033   1.764   5.988   3.504
 2045SOL    HW1 7034   1.692   5.939   3.455
 2045SOL    HW2 7035   1.783   5.942   3.591
 2046SOL     OW 7036   1.180   2.856   5.622
 2046SOL    HW1 7037   1.091   2.814   5.603
 2046SOL    HW2 7038   1.210   2.906   5.541
 2047SOL     OW 7039   6.431   6.898   1.494
 2047SOL    HW1 7040   6.426   6.960   1.572
 2047SOL    HW2 7041   6.526   6.875   1.476
 2048SOL     OW 7042   2.069   0.804   3.491
 2048SOL    HW1 7043   2.031   0.876   3.432
 2048SOL    HW2 7044   2.139   0.843   3.551
 2049SOL     OW 7045   4.921   2.217   5.419
 2049SOL    HW1 7046   4.898   2.311   5.392
 2049SOL    HW2 7047   4.836   2.163   5.426
 2050SOL     OW 7048   0.422   0.829   2.687
 2050SOL    HW1 7049   0.371   0.847   2.771
 2050SOL    HW2 7050   0.465   0.914   2.656
 2051SOL     OW 7051   3.195   6.909   6.684
 2051SOL    HW1 7052   3.291   6.893   6.659
 2051SOL    HW2 7053   3.160   6.987   6.633
 2052SOL     OW 7054   0.237   3.913   1.296
 2052SOL    HW1 7055   0.324   3.949   1.264
 2052SOL    HW2 7056   0.164   3.942   1.234
 2053SOL     OW 7057   5.721   4.762   2.590
 2053SOL    HW1 7058   5.788   4.771   2.517
 2053SOL    HW2 7059   5.758   4.800   2.675
 2054SOL     OW 7060   3.276   4.041   2.599
 2054SOL    HW1 7061   3.209   3.984   2.646
 2054SOL    HW2 7062   3.329   4.093   2.666
 2055SOL     OW 7063   4.082   2.508   5.647
 2055SOL    HW1 7064   4.070   2.467   5.557
 2055SOL    HW2 7065   4.177   2.537   5.658
 2056SOL     OW 7066   2.808   4.867   1.849
 2056SOL    HW1 7067   2.780   4.806   1.924
 2056SOL    HW2 7068   2.890   4.829   1.805
 2057SOL     OW 7069   5.662   3.261   3.814
 2057SOL    HW1 7070   5.629   3.198   3.743
 2057SOL    HW2 7071   5.708   3.338   3.770
 2058SOL     OW 7072   5.331   6.939   3.529
 2058SOL    HW1 7073   5.267   7.015   3.522
 2058SOL    HW2 7074   5.295   6.860   3.478
 2059SOL     OW 7075   1.947   2.079   5.689
 2059SOL    HW1 7076   1.928   2.176   5.702
 2059SOL    HW2 7077   2.041   2.069   5.655
 2060SOL     OW 7078   1.441   2.469   6.344
 2060SOL    HW1 7079   1.397   2.424   6.266
 2060SOL    HW2 7080   1.408   2.428   6.429
 2061SOL     OW 7081   1.654   1.835   3.616
 2061SOL    HW1 7082   1.665   1.917   3.559
 2061SOL    HW2 7083   1.694   1.852   3.706
 2062SOL     OW 7084   5.354   5.378   3.858
 2062SOL    HW1 7085   5.267   5.378   3.808
 2062SOL    HW2 7086   5.425   5.335   3.802
 2063SOL     OW 7087   1.147   1.588   4.094
 2063SOL    HW1 7088   1.086   1.536   4.035
 2063SOL    HW2 7089   1.206   1.526   4.144
 2064SOL     OW 7090   0.784   4.149   4.791
 2064SOL    HW1 7091   0.764   4.245   4.811
 2064SOL    HW2 7092   0.882   4.138   4.774
 2065SOL     OW 7093   3.843   3.503   5.737
 2065SOL    HW1 7094   3.926   3.558   5.746
 2065SOL    HW2 7095   3.799   3.523   5.650
 2066SOL     OW 7096   2.221   2.741   4.540
 2066SOL    HW1 7097   2.166   2.825   4.536
 2066SOL    HW2 7098   2.271   2.729   4.454
 2067SOL     OW 7099   6.505   4.492   2.349
 2067SOL    HW1 7100   6.552   4.565   2.299
 2067SOL    HW2 7101   6.456   4.531   2.427
 2068SOL     OW 7102   3.504   6.519   4.265
 2068SOL    HW1 7103   3.556   6.445   4.222
 2068SOL    HW2 7104   3.557   6.556   4.341
 2069SOL     OW 7105   6.269   1.826   3.734
 2069SOL    HW1 7106   6.316   1.909   3.703
 2069SOL    HW2 7107   6.208   1.793   3.662
 2070SOL     OW 7108   0.287   4.808   1.873
 2070SOL    HW1 7109   0.279   4.716   1.910
 2070SOL    HW2 7110   0.324   4.869   1.942
 2071SOL     OW 7111   6.696   2.358   4.388
 2071SOL    HW1 7112   6.692   2.430   4.457
 2071SOL    HW2 7113   6.710   2.399   4.298
 2072SOL     OW 7114   5.454   3.382   5.763
 2072SOL    HW1 7115   5.478   3.295   5.719
 2072SOL    HW2 7116   5.522   3.451   5.740
 2073SOL     OW 7117   3.460   5.441   6.910
 2073SOL    HW1 7118   3.470   5.342   6.898
 2073SOL    HW2 7119   3.530   5.474   6.973
 2074SOL     OW 7120   3.683   4.669   5.482
 2074SOL    HW1 7121   3.643   4.761   5.481
 2074SOL    HW2 7122   3.778   4.674   5.513
 2075SOL     OW 7123   5.416   2.047   1.382
 2075SOL    HW1 7124   5.471   1.984   1.436
 2075SOL    HW2 7125   5.365   1.997   1.312
 2076SOL     OW 7126   6.869   6.773   3.705
 2076SOL    HW1 7127   6.964   6.794   3.685
 2076SOL    HW2 7128   6.824   6.854   3.743
 2077SOL     OW 7129   0.255   4.511   1.075
 2077SOL    HW1 7130   0.224   4.472   1.162
 2077SOL    HW2 7131   0.351   4.537   1.082
 2078SOL     OW 7132   0.818   2.853   6.449
 2078SOL    HW1 7133   0.761   2.804   6.384
 2078SOL    HW2 7134   0.912   2.857   6.415
 2079SOL     OW 7135   5.941   1.736   3.078
 2079SOL    HW1 7136   5.841   1.741   3.085
 2079SOL    HW2 7137   5.966   1.658   3.021
 2080SOL     OW 7138   2.247   3.912   6.036
 2080SOL    HW1 7139   2.219   3.977   5.965
 2080SOL    HW2 7140   2.291   3.961   6.111
 2081SOL     OW 7141   0.385   6.117   2.616
 2081SOL    HW1 7142   0.391   6.216   2.623
 2081SOL    HW2 7143   0.439   6.074   2.689
 2082SOL     OW 7144   0.117   5.776   3.828
 2082SOL    HW1 7145   0.027   5.754   3.791
 2082SOL    HW2 7146   0.168   5.692   3.845
 2083SOL     OW 7147   0.965   5.614   3.731
 2083SOL    HW1 7148   0.916   5.679   3.790
 2083SOL    HW2 7149   0.954   5.642   3.635
 2084SOL     OW 7150   6.330   2.340   1.260
 2084SOL    HW1 7151   6.247   2.330   1.205
 2084SOL    HW2 7152   6.350   2.254   1.306
 2085SOL     OW 7153   6.169   5.491   0.058
 2085SOL    HW1 7154   6.229   5.419   0.094
 2085SOL    HW2 7155   6.074   5.465   0.072
 2086SOL     OW 7156   6.072   0.239   6.202
 2086SOL    HW1 7157   6.090   0.177   6.278
 2086SOL    HW2 7158   6.146   0.232   6.135
 2087SOL     OW 7159   4.566   1.187   6.876
 2087SOL    HW1 7160   4.577   1.276   6.833
 2087SOL    HW2 7161   4.651   1.162   6.923
 2088SOL     OW 7162   0.531   3.601   5.946
 2088SOL    HW1 7163   0.622   3.599   5.989
 2088SOL    HW2 7164   0.513   3.512   5.903
 2089SOL     OW 7165   2.892   4.842   5.686
 2089SOL    HW1 7166   2.904   4.847   5.785
 2089SOL    HW2 7167   2.980   4.831   5.642
 2090SOL     OW 7168   5.233   2.603   6.626
 2090SOL    HW1 7169   5.163   2.538   6.658
 2090SOL    HW2 7170   5.259   2.662   6.702
 2091SOL     OW 7171   5.399   6.530   1.288
 2091SOL    HW1 7172   5.357   6.574   1.208
 2091SOL    HW2 7173   5.331   6.523   1.361
 2092SOL     OW 7174   3.438   3.105   2.145
 2092SOL    HW1 7175   3.407   3.165   2.071
 2092SOL    HW2 7176   3.388   3.019   2.141
 2093SOL     OW 7177   4.537   6.813   0.556
 2093SOL    HW1 7178   4.618   6.810   0.498
 2093SOL    HW2 7179   4.564   6.828   0.651
 2094SOL     OW 7180   5.041   2.590   0.653
 2094SOL    HW1 7181   5.022   2.590   0.751
 2094SOL    HW2 7182   5.000   2.510   0.610
 2095SOL     OW 7183   5.222   5.320   3.371
 2095SOL    HW1 7184   5.174   5.336   3.285
 2095SOL    HW2 7185   5.281   5.240   3.362
 2096SOL     OW 7186   4.163   6.480   2.962
 2096SOL    HW1 7187   4.147   6.456   2.867
 2096SOL    HW2 7188   4.088   6.447   3.019
 2097SOL     OW 7189   1.349   5.877   5.276
 2097SOL    HW1 7190   1.421   5.811   5.297
 2097SOL    HW2 7191   1.357   5.906   5.180
 2098SOL     OW 7192   1.551   6.971   3.749
 2098SOL    HW1 7193   1.586   6.917   3.673
 2098SOL    HW2 7194   1.623   0.009   3.782
 2099SOL     OW 7195   4.351   1.340   6.901
 2099SOL    HW1 7196   4.407   1.257   6.893
 2099SOL    HW2 7197   4.381   1.393   6.980
 2100SOL     OW 7198   4.877   0.602   6.984
 2100SOL    HW1 7199   4.780   0.615   7.007
 2100SOL    HW2 7200   4.894   0.635   6.891
 2101SOL     OW 7201   1.953   0.741   2.832
 2101SOL    HW1 7202   1.967   0.693   2.918
 2101SOL    HW2 7203   2.039   0.785   2.804
 2102SOL     OW 7204   3.495   2.794   1.871
 2102SOL    HW1 7205   3.555   2.871   1.891
 2102SOL    HW2 7206   3.399   2.823   1.878
 2103SOL     OW 7207   1.733   0.008   1.044
 2103SOL    HW1 7208   1.722   0.029   0.947
 2103SOL    HW2 7209   1.648   0.031   1.092
 2104SOL     OW 7210   1.305   4.275   2.569
 2104SOL    HW1 7211   1.288   4.200   2.633
 2104SOL    HW2 7212   1.236   4.272   2.496
 2105SOL     OW 7213   5.436   6.758   5.166
 2105SOL    HW1 7214   5.497   6.678   5.162
 2105SOL    HW2 7215   5.389   6.769   5.079
 2106SOL     OW 7216   3.310   2.134   1.125
 2106SOL    HW1 7217   3.353   2.084   1.201
 2106SOL    HW2 7218   3.359   2.114   1.040
 2107SOL     OW 7219   5.132   4.394   4.808
 2107SOL    HW1 7220   5.130   4.388   4.908
 2107SOL    HW2 7221   5.148   4.303   4.769
 2108SOL     OW 7222   4.513   6.769   4.999
 2108SOL    HW1 7223   4.453   6.844   5.026
 2108SOL    HW2 7224   4.461   6.701   4.947
 2109SOL     OW 7225   2.320   5.790   1.945
 2109SOL    HW1 7226   2.256   5.852   1.899
 2109SOL    HW2 7227   2.387   5.757   1.878
 2110SOL     OW 7228   3.840   6.194   6.888
 2110SOL    HW1 7229   3.907   6.131   6.929
 2110SOL    HW2 7230   3.771   6.218   6.956
 2111SOL     OW 7231   0.619   2.501   0.148
 2111SOL    HW1 7232   0.613   2.601   0.152
 2111SOL    HW2 7233   0.669   2.474   0.066
 2112SOL     OW 7234   0.738   0.234   6.733
 2112SOL    HW1 7235   0.678   0.194   6.803
 2112SOL    HW2 7236   0.814   0.171   6.715
 2113SOL     OW 7237   0.033   1.454   4.548
 2113SOL    HW1 7238   6.959   1.438   4.538
 2113SOL    HW2 7239   0.063   1.425   4.639
 2114SOL     OW 7240   2.839   1.186   5.349
 2114SOL    HW1 7241   2.897   1.158   5.272
 2114SOL    HW2 7242   2.781   1.262   5.320
 2115SOL     OW 7243   6.456   6.738   3.669
 2115SOL    HW1 7244   6.516   6.658   3.678
 2115SOL    HW2 7245   6.386   6.719   3.600
 2116SOL     OW 7246   2.084   1.192   6.330
 2116SOL    HW1 7247   2.127   1.279   6.356
 2116SOL    HW2 7248   2.151   1.133   6.286
 2117SOL     OW 7249   5.825   2.708   2.297
 2117SOL    HW1 7250   5.725   2.712   2.293
 2117SOL    HW2 7251   5.863   2.751   2.215
 2118SOL     OW 7252   0.337   3.056   2.620
 2118SOL    HW1 7253   0.390   3.140   2.607
 2118SOL    HW2 7254   0.384   2.998   2.687
 2119SOL     OW 7255   1.566   3.010   0.417
 2119SOL    HW1 7256   1.603   3.097   0.449
 2119SOL    HW2 7257   1.493   3.027   0.351
 2120SOL     OW 7258   5.242   1.764   0.541
 2120SOL    HW1 7259   5.215   1.808   0.455
 2120SOL    HW2 7260   5.334   1.795   0.566
 2121SOL     OW 7261   2.835   6.503   1.492
 2121SOL    HW1 7262   2.796   6.429   1.548
 2121SOL    HW2 7263   2.871   6.575   1.553
 2122SOL     OW 7264   0.272   0.780   4.698
 2122SOL    HW1 7265   0.296   0.869   4.660
 2122SOL    HW2 7266   0.303   0.774   4.793
 2123SOL     OW 7267   1.130   4.874   3.196
 2123SOL    HW1 7268   1.073   4.796   3.221
 2123SOL    HW2 7269   1.076   4.958   3.207
 2124SOL     OW 7270   4.866   3.180   6.029
 2124SOL    HW1 7271   4.809   3.152   5.951
 2124SOL    HW2 7272   4.913   3.100   6.066
 2125SOL     OW 7273   1.484   5.611   5.396
 2125SOL    HW1 7274   1.387   5.590   5.384
 2125SOL    HW2 7275   1.518   5.570   5.480
 2126SOL     OW 7276   3.082   5.112   1.654
 2126SOL    HW1 7277   3.133   5.030   1.629
 2126SOL    HW2 7278   3.023   5.092   1.733
 2127SOL     OW 7279   1.506   3.607   4.459
 2127SOL    HW1 7280   1.538   3.538   4.524
 2127SOL    HW2 7281   1.585   3.650   4.414
 2128SOL     OW 7282   5.604   2.877   1.373
 2128SOL    HW1 7283   5.591   2.965   1.326
 2128SOL    HW2 7284   5.576   2.803   1.312
 2129SOL     OW 7285   5.705   4.172   4.228
 2129SOL    HW1 7286   5.627   4.207   4.177
 2129SOL    HW2 7287   5.755   4.107   4.171
 2130SOL     OW 7288   2.294   0.556   2.571
 2130SOL    HW1 7289   2.390   0.557   2.542
 2130SOL    HW2 7290   2.244   0.626   2.520
 2131SOL     OW 7291   5.643   0.786   6.687
 2131SOL    HW1 7292   5.659   0.721   6.761
 2131SOL    HW2 7293   5.680   0.751   6.602
 2132SOL     OW 7294   2.510   2.444   0.109
 2132SOL    HW1 7295   2.518   2.530   0.159
 2132SOL    HW2 7296   2.601   2.402   0.100
 2133SOL     OW 7297   4.139   2.589   1.714
 2133SOL    HW1 7298   4.171   2.683   1.703
 2133SOL    HW2 7299   4.043   2.583   1.685
 2134SOL     OW 7300   2.453   0.131   5.263
 2134SOL    HW1 7301   2.501   0.111   5.348
 2134SOL    HW2 7302   2.356   0.107   5.272
 2135SOL     OW 7303   1.030   5.672   4.405
 2135SOL    HW1 7304   0.934   5.647   4.422
 2135SOL    HW2 7305   1.054   5.753   4.458
 2136SOL     OW 7306   0.971   5.046   3.768
 2136SOL    HW1 7307   1.040   5.048   3.841
 2136SOL    HW2 7308   0.946   4.950   3.750
 2137SOL     OW 7309   0.429   0.124   4.755
 2137SOL    HW1 7310   0.512   0.069   4.753
 2137SOL    HW2 7311   0.453   0.221   4.755
 2138SOL     OW 7312   1.235   2.094   6.600
 2138SOL    HW1 7313   1.156   2.044   6.637
 2138SOL    HW2 7314   1.272   2.044   6.522
 2139SOL     OW 7315   2.849   6.062   4.697
 2139SOL    HW1 7316   2.887   5.988   4.641
 2139SOL    HW2 7317   2.777   6.108   4.647
 2140SOL     OW 7318   1.405   5.569   3.863
 2140SOL    HW1 7319   1.338   5.613   3.923
 2140SOL    HW2 7320   1.416   5.623   3.780
 2141SOL     OW 7321   0.066   1.261   6.738
 2141SOL    HW1 7322   0.042   1.291   6.830
 2141SOL    HW2 7323   7.012   1.271   6.677
 2142SOL     OW 7324   4.230   1.040   3.208
 2142SOL    HW1 7325   4.326   1.052   3.180
 2142SOL    HW2 7326   4.212   1.096   3.289
 2143SOL     OW 7327   3.592   5.940   0.492
 2143SOL    HW1 7328   3.660   5.979   0.555
 2143SOL    HW2 7329   3.538   5.871   0.540
 2144SOL     OW 7330   1.202   1.150   1.830
 2144SOL    HW1 7331   1.214   1.141   1.929
 2144SOL    HW2 7332   1.105   1.138   1.808
 2145SOL     OW 7333   2.665   5.918   3.619
 2145SOL    HW1 7334   2.677   5.824   3.589
 2145SOL    HW2 7335   2.657   5.922   3.719
 2146SOL     OW 7336   2.882   2.492   0.960
 2146SOL    HW1 7337   2.821   2.414   0.962
 2146SOL    HW2 7338   2.830   2.576   0.975
 2147SOL     OW 7339   0.236   0.384   4.872
 2147SOL    HW1 7340   0.142   0.416   4.863
 2147SOL    HW2 7341   0.296   0.440   4.814
 2148SOL     OW 7342   6.632   3.680   4.526
 2148SOL    HW1 7343   6.694   3.704   4.601
 2148SOL    HW2 7344   6.682   3.627   4.458
 2149SOL     OW 7345   2.986   1.212   3.206
 2149SOL    HW1 7346   2.924   1.134   3.220
 2149SOL    HW2 7347   2.953   1.290   3.260
 2150SOL     OW 7348   5.061   0.014   2.968
 2150SOL    HW1 7349   5.036   6.970   2.900
 2150SOL    HW2 7350   5.018   0.102   2.945
 2151SOL     OW 7351   4.371   4.824   5.846
 2151SOL    HW1 7352   4.435   4.858   5.777
 2151SOL    HW2 7353   4.407   4.740   5.886
 2152SOL     OW 7354   0.212   6.678   2.552
 2152SOL    HW1 7355   0.214   6.671   2.652
 2152SOL    HW2 7356   0.144   6.746   2.525
 2153SOL     OW 7357   4.259   1.710   3.897
 2153SOL    HW1 7358   4.222   1.660   3.818
 2153SOL    HW2 7359   4.184   1.744   3.953
 2154SOL     OW 7360   3.535   6.574   4.869
 2154SOL    HW1 7361   3.461   6.557   4.803
 2154SOL    HW2 7362   3.521   6.663   4.912
 2155SOL     OW 7363   5.624   3.324   0.319
 2155SOL    HW1 7364   5.531   3.313   0.353
 2155SOL    HW2 7365   5.658   3.237   0.285
 2156SOL     OW 7366   6.426   6.578   2.745
 2156SOL    HW1 7367   6.485   6.509   2.705
 2156SOL    HW2 7368   6.453   6.669   2.711
 2157SOL     OW 7369   6.063   1.392   3.627
 2157SOL    HW1 7370   6.031   1.366   3.536
 2157SOL    HW2 7371   5.986   1.396   3.690
 2158SOL     OW 7372   4.136   6.840   3.523
 2158SOL    HW1 7373   4.117   6.746   3.496
 2158SOL    HW2 7374   4.109   6.902   3.448
 2159SOL     OW 7375   2.407   1.205   5.413
 2159SOL    HW1 7376   2.414   1.268   5.335
 2159SOL    HW2 7377   2.493   1.204   5.463
 2160SOL     OW 7378   2.232   3.791   0.580
 2160SOL    HW1 7379   2.280   3.871   0.543
 2160SOL    HW2 7380   2.299   3.728   0.618
 2161SOL     OW 7381   4.591   2.619   3.553
 2161SOL    HW1 7382   4.511   2.640   3.609
 2161SOL    HW2 7383   4.639   2.540   3.592
 2162SOL     OW 7384   2.624   1.605   2.047
 2162SOL    HW1 7385   2.524   1.616   2.048
 2162SOL    HW2 7386   2.663   1.652   2.126
 2163SOL     OW 7387   3.514   1.739   0.913
 2163SOL    HW1 7388   3.440   1.672   0.917
 2163SOL    HW2 7389   3.534   1.772   1.005
 2164SOL     OW 7390   6.742   0.770   1.382
 2164SOL    HW1 7391   6.836   0.785   1.352
 2164SOL    HW2 7392   6.743   0.729   1.473
 2165SOL     OW 7393   2.555   0.575   2.040
 2165SOL    HW1 7394   2.494   0.556   2.118
 2165SOL    HW2 7395   2.555   0.673   2.022
 2166SOL     OW 7396   5.489   2.721   5.528
 2166SOL    HW1 7397   5.467   2.634   5.484
 2166SOL    HW2 7398   5.524   2.785   5.459
 2167SOL     OW 7399   3.510   1.395   1.044
 2167SOL    HW1 7400   3.454   1.417   0.964
 2167SOL    HW2 7401   3.470   1.319   1.094
 2168SOL     OW 7402   5.558   6.286   4.534
 2168SOL    HW1 7403   5.613   6.239   4.604
 2168SOL    HW2 7404   5.597   6.376   4.515
 2169SOL     OW 7405   5.826   1.372   5.835
 2169SOL    HW1 7406   5.776   1.410   5.757
 2169SOL    HW2 7407   5.791   1.281   5.856
 2170SOL     OW 7408   5.016   4.945   4.098
 2170SOL    HW1 7409   4.966   5.017   4.146
 2170SOL    HW2 7410   5.105   4.980   4.071
 2171SOL     OW 7411   0.129   3.998   0.175
 2171SOL    HW1 7412   0.043   4.031   0.137
 2171SOL    HW2 7413   0.117   3.981   0.273
 2172SOL     OW 7414   2.624   0.459   2.438
 2172SOL    HW1 7415   2.682   0.382   2.413
 2172SOL    HW2 7416   2.545   0.463   2.377
 2173SOL     OW 7417   4.659   2.185   4.639
 2173SOL    HW1 7418   4.591   2.253   4.667
 2173SOL    HW2 7419   4.700   2.212   4.552
 2174SOL     OW 7420   0.902   5.465   5.037
 2174SOL    HW1 7421   0.997   5.434   5.038
 2174SOL    HW2 7422   0.887   5.529   5.112
 2175SOL     OW 7423   1.938   6.835   6.095
 2175SOL    HW1 7424   1.907   6.755   6.146
 2175SOL    HW2 7425   1.948   6.812   5.998
 2176SOL     OW 7426   1.958   2.659   2.769
 2176SOL    HW1 7427   1.982   2.637   2.863
 2176SOL    HW2 7428   1.874   2.611   2.744
 2177SOL     OW 7429   1.543   1.362   1.686
 2177SOL    HW1 7430   1.524   1.420   1.606
 2177SOL    HW2 7431   1.634   1.322   1.677
 2178SOL     OW 7432   6.521   6.237   0.294
 2178SOL    HW1 7433   6.518   6.141   0.267
 2178SOL    HW2 7434   6.558   6.244   0.387
 2179SOL     OW 7435   2.184   3.755   3.997
 2179SOL    HW1 7436   2.133   3.737   3.913
 2179SOL    HW2 7437   2.205   3.852   4.003
 2180SOL     OW 7438   3.006   2.941   1.833
 2180SOL    HW1 7439   3.036   3.026   1.789
 2180SOL    HW2 7440   2.906   2.936   1.831
 2181SOL     OW 7441   3.346   6.675   1.133
 2181SOL    HW1 7442   3.339   6.594   1.192
 2181SOL    HW2 7443   3.258   6.690   1.087
 2182SOL     OW 7444   4.352   3.182   0.722
 2182SOL    HW1 7445   4.415   3.235   0.665
 2182SOL    HW2 7446   4.405   3.127   0.787
 2183SOL     OW 7447   3.645   2.739   1.056
 2183SOL    HW1 7448   3.643   2.835   1.084
 2183SOL    HW2 7449   3.581   2.687   1.113
 2184SOL     OW 7450   5.286   3.022   6.286
 2184SOL    HW1 7451   5.258   2.985   6.374
 2184SOL    HW2 7452   5.225   3.097   6.260
 2185SOL     OW 7453   6.548   6.964   2.188
 2185SOL    HW1 7454   6.604   6.945   2.107
 2185SOL    HW2 7455   6.595   6.931   2.270
 2186SOL     OW 7456   0.391   4.205   3.100
 2186SOL    HW1 7457   0.348   4.195   3.190
 2186SOL    HW2 7458   0.404   4.302   3.080
 2187SOL     OW 7459   6.400   1.394   0.357
 2187SOL    HW1 7460   6.420   1.411   0.261
 2187SOL    HW2 7461   6.454   1.317   0.390
 2188SOL     OW 7462   4.881   1.844   3.870
 2188SOL    HW1 7463   4.844   1.911   3.933
 2188SOL    HW2 7464   4.906   1.761   3.920
 2189SOL     OW 7465   3.714   6.535   0.116
 2189SOL    HW1 7466   3.695   6.629   0.091
 2189SOL    HW2 7467   3.780   6.532   0.192
 2190SOL     OW 7468   5.345   2.890   0.188
 2190SOL    HW1 7469   5.385   2.874   0.278
 2190SOL    HW2 7470   5.406   2.854   0.117
 2191SOL     OW 7471   3.479   1.023   6.768
 2191SOL    HW1 7472   3.448   0.952   6.705
 2191SOL    HW2 7473   3.500   1.107   6.718
 2192SOL     OW 7474   3.639   6.001   2.294
 2192SOL    HW1 7475   3.558   6.019   2.238
 2192SOL    HW2 7476   3.624   6.035   2.387
 2193SOL     OW 7477   6.797   6.208   4.648
 2193SOL    HW1 7478   6.784   6.282   4.582
 2193SOL    HW2 7479   6.789   6.244   4.741
 2194SOL     OW 7480   2.642   0.084   1.989
 2194SOL    HW1 7481   2.549   0.100   1.956
 2194SOL    HW2 7482   2.705   0.082   1.912
 2195SOL     OW 7483   0.287   4.535   1.919
 2195SOL    HW1 7484   0.284   4.514   1.821
 2195SOL    HW2 7485   0.302   4.451   1.971
 2196SOL     OW 7486   4.488   3.892   0.028
 2196SOL    HW1 7487   4.499   3.948   6.970
 2196SOL    HW2 7488   4.467   3.950   0.106
 2197SOL     OW 7489   4.525   3.510   6.565
 2197SOL    HW1 7490   4.507   3.607   6.578
 2197SOL    HW2 7491   4.623   3.493   6.574
 2198SOL     OW 7492   6.908   4.425   6.835
 2198SOL    HW1 7493   6.870   4.333   6.835
 2198SOL    HW2 7494   7.007   4.421   6.821
 2199SOL     OW 7495   4.194   1.369   3.164
 2199SOL    HW1 7496   4.141   1.315   3.229
 2199SOL    HW2 7497   4.183   1.467   3.185
 2200SOL     OW 7498   3.540   0.028   4.400
 2200SOL    HW1 7499   3.620   0.086   4.417
 2200SOL    HW2 7500   3.458   0.085   4.392
 2201SOL     OW 7501   4.709   4.266   4.296
 2201SOL    HW1 7502   4.699   4.173   4.260
 2201SOL    HW2 7503   4.800   4.300   4.273
 2202SOL     OW 7504   4.597   5.834   3.624
 2202SOL    HW1 7505   4.696   5.845   3.634
 2202SOL    HW2 7506   4.575   5.738   3.611
 2203SOL     OW 7507   2.373   2.060   2.906
 2203SOL    HW1 7508   2.434   2.040   2.830
 2203SOL    HW2 7509   2.427   2.090   2.985
 2204SOL     OW 7510   3.214   2.216   0.719
 2204SOL    HW1 7511   3.162   2.283   0.773
 2204SOL    HW2 7512   3.206   2.238   0.622
 2205SOL     OW 7513   3.217   1.370   2.342
 2205SOL    HW1 7514   3.194   1.373   2.440
 2205SOL    HW2 7515   3.278   1.446   2.320
 2206SOL     OW 7516   1.485   3.809   0.412
 2206SOL    HW1 7517   1.431   3.886   0.380
 2206SOL    HW2 7518   1.577   3.813   0.372
 2207SOL     OW 7519   6.701   4.923   4.978
 2207SOL    HW1 7520   6.631   4.986   5.012
 2207SOL    HW2 7521   6.685   4.904   4.881
 2208SOL     OW 7522   6.577   5.253   1.636
 2208SOL    HW1 7523   6.577   5.232   1.733
 2208SOL    HW2 7524   6.510   5.195   1.589
 2209SOL     OW 7525   0.290   6.676   1.732
 2209SOL    HW1 7526   0.373   6.686   1.786
 2209SOL    HW2 7527   0.212   6.713   1.783
 2210SOL     OW 7528   2.199   5.026   4.042
 2210SOL    HW1 7529   2.282   4.999   4.091
 2210SOL    HW2 7530   2.183   5.124   4.054
 2211SOL     OW 7531   6.687   1.243   5.354
 2211SOL    HW1 7532   6.753   1.197   5.413
 2211SOL    HW2 7533   6.688   1.341   5.371
 2212SOL     OW 7534   3.127   0.153   5.720
 2212SOL    HW1 7535   3.133   0.055   5.740
 2212SOL    HW2 7536   3.209   0.199   5.754
 2213SOL     OW 7537   4.873   0.240   3.349
 2213SOL    HW1 7538   4.818   0.318   3.321
 2213SOL    HW2 7539   4.827   0.192   3.424
 2214SOL     OW 7540   3.385   6.803   4.922
 2214SOL    HW1 7541   3.308   6.817   4.859
 2214SOL    HW2 7542   3.350   6.775   5.011
 2215SOL     OW 7543   5.824   1.865   5.291
 2215SOL    HW1 7544   5.823   1.930   5.214
 2215SOL    HW2 7545   5.879   1.903   5.366
 2216SOL     OW 7546   3.029   1.872   2.523
 2216SOL    HW1 7547   2.941   1.919   2.515
 2216SOL    HW2 7548   3.059   1.842   2.432
 2217SOL     OW 7549   3.264   6.972   1.497
 2217SOL    HW1 7550   3.322   6.927   1.429
 2217SOL    HW2 7551   3.319   6.997   1.577
 2218SOL     OW 7552   0.270   0.747   2.205
 2218SOL    HW1 7553   0.260   0.661   2.155
 2218SOL    HW2 7554   0.298   0.728   2.298
 2219SOL     OW 7555   2.836   2.322   3.025
 2219SOL    HW1 7556   2.921   2.271   3.013
 2219SOL    HW2 7557   2.811   2.322   3.121
 2220SOL     OW 7558   1.577   0.183   2.179
 2220SOL    HW1 7559   1.488   0.190   2.133
 2220SOL    HW2 7560   1.606   0.273   2.210
 2221SOL     OW 7561   0.417   7.015   5.446
 2221SOL    HW1 7562   0.486   0.059   5.470
 2221SOL    HW2 7563   0.350   7.008   5.520
 2222SOL     OW 7564   5.860   4.849   3.915
 2222SOL    HW1 7565   5.893   4.842   3.821
 2222SOL    HW2 7566   5.787   4.917   3.920
 2223SOL     OW 7567   0.082   6.728   1.871
 2223SOL    HW1 7568   0.097   6.827   1.872
 2223SOL    HW2 7569   7.010   6.708   1.891
 2224SOL     OW 7570   0.695   5.844   0.623
 2224SOL    HW1 7571   0.783   5.888   0.604
 2224SOL    HW2 7572   0.640   5.840   0.540
 2225SOL     OW 7573   0.719   4.332   0.209
 2225SOL    HW1 7574   0.715   4.237   0.178
 2225SOL    HW2 7575   0.764   4.337   0.297
 2226SOL     OW 7576   4.038   3.499   2.408
 2226SOL    HW1 7577   4.030   3.403   2.432
 2226SOL    HW2 7578   3.959   3.549   2.444
 2227SOL     OW 7579   0.452   1.720   4.423
 2227SOL    HW1 7580   0.518   1.644   4.423
 2227SOL    HW2 7581   0.368   1.691   4.468
 2228SOL     OW 7582   2.533   4.501   4.091
 2228SOL    HW1 7583   2.610   4.440   4.074
 2228SOL    HW2 7584   2.514   4.505   4.189
 2229SOL     OW 7585   6.421   6.168   3.172
 2229SOL    HW1 7586   6.499   6.196   3.117
 2229SOL    HW2 7587   6.360   6.246   3.186
 2230SOL     OW 7588   1.864   5.254   2.674
 2230SOL    HW1 7589   1.892   5.180   2.734
 2230SOL    HW2 7590   1.833   5.216   2.586
 2231SOL     OW 7591   1.954   6.015   1.020
 2231SOL    HW1 7592   1.897   5.990   0.941
 2231SOL    HW2 7593   1.962   6.114   1.024
 2232SOL     OW 7594   5.833   2.234   4.240
 2232SOL    HW1 7595   5.792   2.143   4.240
 2232SOL    HW2 7596   5.813   2.280   4.326
 2233SOL     OW 7597   3.809   1.225   0.184
 2233SOL    HW1 7598   3.856   1.299   0.231
 2233SOL    HW2 7599   3.822   1.233   0.085
 2234SOL     OW 7600   4.077   2.688   1.113
 2234SOL    HW1 7601   4.051   2.674   1.209
 2234SOL    HW2 7602   4.070   2.785   1.090
 2235SOL     OW 7603   2.058   2.144   2.505
 2235SOL    HW1 7604   2.081   2.218   2.568
 2235SOL    HW2 7605   2.124   2.143   2.430
 2236SOL     OW 7606   0.854   4.254   5.228
 2236SOL    HW1 7607   0.931   4.312   5.254
 2236SOL    HW2 7608   0.769   4.294   5.261
 2237SOL     OW 7609   6.630   2.969   4.037
 2237SOL    HW1 7610   6.720   2.977   3.994
 2237SOL    HW2 7611   6.606   2.872   4.045
 2238SOL     OW 7612   5.406   5.978   0.234
 2238SOL    HW1 7613   5.434   5.947   0.325
 2238SOL    HW2 7614   5.477   6.036   0.195
 2239SOL     OW 7615   0.089   5.691   0.897
 2239SOL    HW1 7616   0.172   5.699   0.952
 2239SOL    HW2 7617   0.045   5.781   0.891
 2240SOL     OW 7618   6.219   3.962   1.576
 2240SOL    HW1 7619   6.244   3.923   1.665
 2240SOL    HW2 7620   6.123   3.941   1.556
 2241SOL     OW 7621   1.118   0.529   3.927
 2241SOL    HW1 7622   1.198   0.567   3.974
 2241SOL    HW2 7623   1.133   0.433   3.907
 2242SOL     OW 7624   2.994   1.590   3.257
 2242SOL    HW1 7625   2.959   1.625   3.344
 2242SOL    HW2 7626   2.929   1.612   3.184
 2243SOL     OW 7627   2.066   0.293   5.082
 2243SOL    HW1 7628   2.025   0.219   5.135
 2243SOL    HW2 7629   2.127   0.254   5.013
 2244SOL     OW 7630   3.928   0.649   4.912
 2244SOL    HW1 7631   3.962   0.555   4.905
 2244SOL    HW2 7632   3.893   0.665   5.005
 2245SOL     OW 7633   0.453   2.450   2.254
 2245SOL    HW1 7634   0.409   2.380   2.310
 2245SOL    HW2 7635   0.474   2.530   2.311
 2246SOL     OW 7636   0.884   3.981   5.228
 2246SOL    HW1 7637   0.865   4.073   5.261
 2246SOL    HW2 7638   0.830   3.963   5.146
 2247SOL     OW 7639   2.127   1.325   4.622
 2247SOL    HW1 7640   2.214   1.325   4.671
 2247SOL    HW2 7641   2.072   1.403   4.651
 2248SOL     OW 7642   5.617   4.047   6.093
 2248SOL    HW1 7643   5.701   4.084   6.054
 2248SOL    HW2 7644   5.626   4.040   6.192
 2249SOL     OW 7645   5.090   5.607   5.329
 2249SOL    HW1 7646   5.045   5.632   5.415
 2249SOL    HW2 7647   5.149   5.683   5.300
 2250SOL     OW 7648   4.672   5.016   1.678
 2250SOL    HW1 7649   4.595   4.953   1.681
 2250SOL    HW2 7650   4.727   5.005   1.761
 2251SOL     OW 7651   0.516   0.729   5.547
 2251SOL    HW1 7652   0.493   0.679   5.630
 2251SOL    HW2 7653   0.498   0.671   5.467
 2252SOL     OW 7654   3.469   1.178   6.335
 2252SOL    HW1 7655   3.553   1.192   6.283
 2252SOL    HW2 7656   3.476   1.224   6.423
 2253SOL     OW 7657   0.665   4.099   0.079
 2253SOL    HW1 7658   0.573   4.062   0.091
 2253SOL    HW2 7659   0.693   4.089   7.007
 2254SOL     OW 7660   1.795   4.622   6.623
 2254SOL    HW1 7661   1.699   4.637   6.647
 2254SOL    HW2 7662   1.827   4.698   6.567
 2255SOL     OW 7663   6.819   3.576   6.275
 2255SOL    HW1 7664   6.733   3.544   6.316
 2255SOL    HW2 7665   6.891   3.509   6.295
 2256SOL     OW 7666   2.475   4.768   1.672
 2256SOL    HW1 7667   2.527   4.851   1.695
 2256SOL    HW2 7668   2.538   4.696   1.642
 2257SOL     OW 7669   1.397   4.135   5.109
 2257SOL    HW1 7670   1.413   4.040   5.137
 2257SOL    HW2 7671   1.300   4.148   5.089
 2258SOL     OW 7672   1.890   5.390   5.526
 2258SOL    HW1 7673   1.820   5.353   5.464
 2258SOL    HW2 7674   1.934   5.314   5.575
 2259SOL     OW 7675   6.366   1.849   6.081
 2259SOL    HW1 7676   6.366   1.766   6.024
 2259SOL    HW2 7677   6.394   1.826   6.174
 2260SOL     OW 7678   3.788   3.097   0.380
 2260SOL    HW1 7679   3.832   3.149   0.453
 2260SOL    HW2 7680   3.798   2.999   0.398
 2261SOL     OW 7681   2.182   6.451   5.184
 2261SOL    HW1 7682   2.192   6.407   5.274
 2261SOL    HW2 7683   2.213   6.388   5.113
 2262SOL     OW 7684   3.334   1.819   2.864
 2262SOL    HW1 7685   3.406   1.889   2.859
 2262SOL    HW2 7686   3.268   1.844   2.935
 2263SOL     OW 7687   0.895   4.702   5.972
 2263SOL    HW1 7688   0.939   4.620   5.935
 2263SOL    HW2 7689   0.811   4.677   6.019
 2264SOL     OW 7690   3.635   3.728   3.200
 2264SOL    HW1 7691   3.615   3.638   3.239
 2264SOL    HW2 7692   3.694   3.718   3.120
 2265SOL     OW 7693   0.926   6.762   4.235
 2265SOL    HW1 7694   0.886   6.831   4.174
 2265SOL    HW2 7695   0.905   6.785   4.330
 2266SOL     OW 7696   6.582   0.420   5.617
 2266SOL    HW1 7697   6.645   0.403   5.542
 2266SOL    HW2 7698   6.512   0.349   5.619
 2267SOL     OW 7699   5.609   1.724   5.143
 2267SOL    HW1 7700   5.676   1.756   5.210
 2267SOL    HW2 7701   5.645   1.738   5.050
 2268SOL     OW 7702   0.219   6.020   0.082
 2268SOL    HW1 7703   0.207   5.989   0.177
 2268SOL    HW2 7704   0.246   5.943   0.025
 2269SOL     OW 7705   0.466   6.422   2.937
 2269SOL    HW1 7706   0.537   6.492   2.939
 2269SOL    HW2 7707   0.450   6.393   2.843
 2270SOL     OW 7708   3.374   3.255   3.234
 2270SOL    HW1 7709   3.408   3.178   3.288
 2270SOL    HW2 7710   3.351   3.223   3.142
 2271SOL     OW 7711   1.485   4.406   2.892
 2271SOL    HW1 7712   1.482   4.453   2.980
 2271SOL    HW2 7713   1.430   4.323   2.896
 2272SOL     OW 7714   5.024   0.572   5.464
 2272SOL    HW1 7715   4.994   0.601   5.555
 2272SOL    HW2 7716   5.082   0.490   5.473
 2273SOL     OW 7717   0.642   1.703   2.319
 2273SOL    HW1 7718   0.594   1.641   2.256
 2273SOL    HW2 7719   0.727   1.735   2.275
 2274SOL     OW 7720   0.823   4.086   3.319
 2274SOL    HW1 7721   0.890   4.125   3.383
 2274SOL    HW2 7722   0.741   4.142   3.320
 2275SOL     OW 7723   4.755   6.537   3.218
 2275SOL    HW1 7724   4.781   6.573   3.128
 2275SOL    HW2 7725   4.788   6.444   3.227
 2276SOL     OW 7726   3.537   5.590   2.396
 2276SOL    HW1 7727   3.517   5.688   2.393
 2276SOL    HW2 7728   3.482   5.547   2.468
 2277SOL     OW 7729   3.090   3.005   2.106
 2277SOL    HW1 7730   3.047   3.087   2.142
 2277SOL    HW2 7731   3.044   2.977   2.022
 2278SOL     OW 7732   3.824   5.524   1.117
 2278SOL    HW1 7733   3.817   5.464   1.197
 2278SOL    HW2 7734   3.854   5.615   1.146
 2279SOL     OW 7735   5.803   3.884   5.768
 2279SOL    HW1 7736   5.792   3.785   5.766
 2279SOL    HW2 7737   5.892   3.909   5.731
 2280SOL     OW 7738   5.802   0.468   5.976
 2280SOL    HW1 7739   5.720   0.520   5.951
 2280SOL    HW2 7740   5.775   0.383   6.021
 2281SOL     OW 7741   2.627   0.866   0.801
 2281SOL    HW1 7742   2.579   0.888   0.886
 2281SOL    HW2 7743   2.648   0.950   0.752
 2282SOL     OW 7744   3.923   6.158   2.491
 2282SOL    HW1 7745   3.861   6.226   2.452
 2282SOL    HW2 7746   3.995   6.137   2.425
 2283SOL     OW 7747   0.903   3.505   1.257
 2283SOL    HW1 7748   0.908   3.469   1.164
 2283SOL    HW2 7749   0.902   3.428   1.322
 2284SOL     OW 7750   2.231   2.656   1.288
 2284SOL    HW1 7751   2.292   2.591   1.242
 2284SOL    HW2 7752   2.181   2.609   1.360
 2285SOL     OW 7753   1.770   2.774   6.558
 2285SOL    HW1 7754   1.818   2.714   6.495
 2285SOL    HW2 7755   1.822   2.781   6.644
 2286SOL     OW 7756   6.696   6.612   3.946
 2286SOL    HW1 7757   6.636   6.684   3.981
 2286SOL    HW2 7758   6.672   6.591   3.851
 2287SOL     OW 7759   2.767   1.726   0.940
 2287SOL    HW1 7760   2.692   1.786   0.914
 2287SOL    HW2 7761   2.852   1.778   0.943
 2288SOL     OW 7762   2.412   6.283   4.728
 2288SOL    HW1 7763   2.443   6.295   4.823
 2288SOL    HW2 7764   2.345   6.209   4.724
 2289SOL     OW 7765   4.094   0.272   6.830
 2289SOL    HW1 7766   4.030   0.199   6.849
 2289SOL    HW2 7767   4.127   0.263   6.736
 2290SOL     OW 7768   2.928   3.334   4.677
 2290SOL    HW1 7769   2.956   3.430   4.688
 2290SOL    HW2 7770   2.943   3.285   4.762
 2291SOL     OW 7771   2.550   2.301   0.457
 2291SOL    HW1 7772   2.645   2.269   0.450
 2291SOL    HW2 7773   2.548   2.400   0.447
 2292SOL     OW 7774   5.196   2.628   3.314
 2292SOL    HW1 7775   5.238   2.706   3.362
 2292SOL    HW2 7776   5.268   2.572   3.272
 2293SOL     OW 7777   0.976   1.070   0.037
 2293SOL    HW1 7778   0.914   1.101   0.109
 2293SOL    HW2 7779   0.994   1.146   6.998
 2294SOL     OW 7780   6.558   2.104   5.211
 2294SOL    HW1 7781   6.544   2.085   5.114
 2294SOL    HW2 7782   6.538   2.201   5.229
 2295SOL     OW 7783   5.604   6.025   0.449
 2295SOL    HW1 7784   5.595   6.124   0.437
 2295SOL    HW2 7785   5.701   6.001   0.449
 2296SOL     OW 7786   3.652   5.872   4.700
 2296SOL    HW1 7787   3.681   5.849   4.793
 2296SOL    HW2 7788   3.695   5.810   4.635
 2297SOL     OW 7789   6.055   2.756   6.759
 2297SOL    HW1 7790   6.154   2.762   6.764
 2297SOL    HW2 7791   6.026   2.767   6.664
 2298SOL     OW 7792   2.775   3.922   5.204
 2298SOL    HW1 7793   2.684   3.945   5.170
 2298SOL    HW2 7794   2.819   4.005   5.239
 2299SOL     OW 7795   5.878   3.699   4.930
 2299SOL    HW1 7796   5.925   3.717   5.017
 2299SOL    HW2 7797   5.945   3.693   4.857
 2300SOL     OW 7798   5.257   6.944   2.762
 2300SOL    HW1 7799   5.307   6.999   2.829
 2300SOL    HW2 7800   5.235   6.855   2.801
 2301SOL     OW 7801   3.969   3.163   4.994
 2301SOL    HW1 7802   3.992   3.153   4.897
 2301SOL    HW2 7803   3.931   3.077   5.028
 2302SOL     OW 7804   6.695   3.761   5.647
 2302SOL    HW1 7805   6.685   3.748   5.746
 2302SOL    HW2 7806   6.605   3.758   5.604
 2303SOL     OW 7807   2.928   1.617   6.212
 2303SOL    HW1 7808   2.927   1.547   6.141
 2303SOL    HW2 7809   3.007   1.602   6.272
 2304SOL     OW 7810   5.374   0.049   2.560
 2304SOL    HW1 7811   5.313   0.020   2.635
 2304SOL    HW2 7812   5.455   0.092   2.598
 2305SOL     OW 7813   3.035   6.656   5.155
 2305SOL    HW1 7814   3.071   6.626   5.066
 2305SOL    HW2 7815   3.083   6.608   5.228
 2306SOL     OW 7816   0.863   4.457   4.964
 2306SOL    HW1 7817   0.860   4.457   5.064
 2306SOL    HW2 7818   0.927   4.527   4.933
 2307SOL     OW 7819   5.859   3.928   4.720
 2307SOL    HW1 7820   5.845   4.027   4.711
 2307SOL    HW2 7821   5.781   3.888   4.769
 2308SOL     OW 7822   1.218   6.006   1.886
 2308SOL    HW1 7823   1.233   6.073   1.814
 2308SOL    HW2 7824   1.292   5.938   1.884
 2309SOL     OW 7825   1.814   0.940   4.664
 2309SOL    HW1 7826   1.867   0.975   4.587
 2309SOL    HW2 7827   1.813   1.008   4.737
 2310SOL     OW 7828   5.056   6.405   0.091
 2310SOL    HW1 7829   5.155   6.414   0.102
 2310SOL    HW2 7830   5.013   6.495   0.099
 2311SOL     OW 7831   2.705   6.032   0.613
 2311SOL    HW1 7832   2.749   5.976   0.543
 2311SOL    HW2 7833   2.701   5.982   0.699
 2312SOL     OW 7834   2.968   4.758   2.942
 2312SOL    HW1 7835   3.035   4.689   2.969
 2312SOL    HW2 7836   2.881   4.740   2.987
 2313SOL     OW 7837   4.607   5.201   1.474
 2313SOL    HW1 7838   4.656   5.161   1.397
 2313SOL    HW2 7839   4.619   5.143   1.555
 2314SOL     OW 7840   2.296   4.146   2.907
 2314SOL    HW1 7841   2.308   4.147   3.006
 2314SOL    HW2 7842   2.275   4.053   2.877
 2315SOL     OW 7843   4.205   1.949   6.516
 2315SOL    HW1 7844   4.233   1.969   6.610
 2315SOL    HW2 7845   4.108   1.923   6.515
 2316SOL     OW 7846   4.961   3.262   1.357
 2316SOL    HW1 7847   5.052   3.230   1.332
 2316SOL    HW2 7848   4.917   3.195   1.417
 2317SOL     OW 7849   0.820   5.816   3.851
 2317SOL    HW1 7850   0.741   5.859   3.806
 2317SOL    HW2 7851   0.826   5.849   3.945
 2318SOL     OW 7852   6.683   1.926   3.757
 2318SOL    HW1 7853   6.681   1.827   3.772
 2318SOL    HW2 7854   6.718   1.972   3.838
 2319SOL     OW 7855   1.200   4.732   1.897
 2319SOL    HW1 7856   1.234   4.638   1.894
 2319SOL    HW2 7857   1.104   4.734   1.869
 2320SOL     OW 7858   6.277   4.699   4.172
 2320SOL    HW1 7859   6.265   4.632   4.099
 2320SOL    HW2 7860   6.214   4.776   4.158
 2321SOL     OW 7861   3.638   5.010   4.053
 2321SOL    HW1 7862   3.680   5.073   4.118
 2321SOL    HW2 7863   3.589   4.938   4.102
 2322SOL     OW 7864   2.588   0.834   4.598
 2322SOL    HW1 7865   2.652   0.822   4.522
 2322SOL    HW2 7866   2.501   0.870   4.563
 2323SOL     OW 7867   5.419   3.036   1.877
 2323SOL    HW1 7868   5.354   3.112   1.868
 2323SOL    HW2 7869   5.487   3.042   1.804
 2324SOL     OW 7870   0.002   5.178   3.944
 2324SOL    HW1 7871   6.961   5.178   3.868
 2324SOL    HW2 7872   0.003   5.087   3.987
 2325SOL     OW 7873   6.723   2.260   0.288
 2325SOL    HW1 7874   6.772   2.267   0.201
 2325SOL    HW2 7875   6.637   2.212   0.274
 2326SOL     OW 7876   0.516   4.899   0.564
 2326SOL    HW1 7877   0.591   4.960   0.540
 2326SOL    HW2 7878   0.469   4.870   0.481
 2327SOL     OW 7879   4.984   1.158   3.253
 2327SOL    HW1 7880   5.075   1.192   3.278
 2327SOL    HW2 7881   4.983   1.058   3.259
 2328SOL     OW 7882   6.170   5.220   3.789
 2328SOL    HW1 7883   6.201   5.284   3.858
 2328SOL    HW2 7884   6.216   5.132   3.802
 2329SOL     OW 7885   1.125   6.322   3.178
 2329SOL    HW1 7886   1.201   6.342   3.116
 2329SOL    HW2 7887   1.063   6.257   3.135
 2330SOL     OW 7888   1.577   4.615   0.401
 2330SOL    HW1 7889   1.522   4.533   0.382
 2330SOL    HW2 7890   1.574   4.677   0.323
 2331SOL     OW 7891   1.486   5.150   4.843
 2331SOL    HW1 7892   1.536   5.206   4.909
 2331SOL    HW2 7893   1.461   5.063   4.884
 2332SOL     OW 7894   6.172   3.178   5.613
 2332SOL    HW1 7895   6.185   3.172   5.514
 2332SOL    HW2 7896   6.167   3.274   5.640
 2333SOL     OW 7897   2.328   4.678   4.003
 2333SOL    HW1 7898   2.373   4.591   4.022
 2333SOL    HW2 7899   2.321   4.732   4.087
 2334SOL     OW 7900   2.535   0.390   5.910
 2334SOL    HW1 7901   2.564   0.453   5.839
 2334SOL    HW2 7902   2.556   0.429   6.000
 2335SOL     OW 7903   4.961   4.355   4.246
 2335SOL    HW1 7904   5.035   4.401   4.295
 2335SOL    HW2 7905   4.987   4.345   4.150
 2336SOL     OW 7906   4.307   1.862   6.027
 2336SOL    HW1 7907   4.250   1.913   6.091
 2336SOL    HW2 7908   4.263   1.861   5.937
 2337SOL     OW 7909   5.929   0.649   4.510
 2337SOL    HW1 7910   5.836   0.653   4.474
 2337SOL    HW2 7911   5.943   0.725   4.574
 2338SOL     OW 7912   1.338   0.045   6.713
 2338SOL    HW1 7913   1.254   0.089   6.746
 2338SOL    HW2 7914   1.318   6.974   6.688
 2339SOL     OW 7915   3.984   4.745   6.831
 2339SOL    HW1 7916   3.980   4.737   6.731
 2339SOL    HW2 7917   3.919   4.814   6.861
 2340SOL     OW 7918   3.520   5.199   4.539
 2340SOL    HW1 7919   3.535   5.114   4.589
 2340SOL    HW2 7920   3.608   5.235   4.508
 2341SOL     OW 7921   6.852   4.624   6.601
 2341SOL    HW1 7922   6.912   4.689   6.553
 2341SOL    HW2 7923   6.901   4.586   6.680
 2342SOL     OW 7924   6.689   1.336   5.774
 2342SOL    HW1 7925   6.632   1.264   5.734
 2342SOL    HW2 7926   6.695   1.413   5.710
 2343SOL     OW 7927   1.576   6.051   0.175
 2343SOL    HW1 7928   1.610   6.140   0.145
 2343SOL    HW2 7929   1.619   6.026   0.261
 2344SOL     OW 7930   2.867   1.065   2.889
 2344SOL    HW1 7931   2.846   1.162   2.897
 2344SOL    HW2 7932   2.785   1.015   2.860
 2345SOL     OW 7933   1.287   2.130   2.287
 2345SOL    HW1 7934   1.295   2.095   2.193
 2345SOL    HW2 7935   1.190   2.131   2.314
 2346SOL     OW 7936   4.787   3.087   5.232
 2346SOL    HW1 7937   4.872   3.076   5.283
 2346SOL    HW2 7938   4.754   3.181   5.241
 2347SOL     OW 7939   1.609   4.074   0.595
 2347SOL    HW1 7940   1.620   4.126   0.511
 2347SOL    HW2 7941   1.606   3.976   0.574
 2348SOL     OW 7942   2.590   0.042   1.168
 2348SOL    HW1 7943   2.504   7.023   1.141
 2348SOL    HW2 7944   2.579   0.142   1.163
 2349SOL     OW 7945   5.543   3.173   6.785
 2349SOL    HW1 7946   5.588   3.262   6.789
 2349SOL    HW2 7947   5.510   3.156   6.692
 2350SOL     OW 7948   1.913   6.409   5.214
 2350SOL    HW1 7949   1.914   6.321   5.262
 2350SOL    HW2 7950   2.007   6.434   5.190
 2351SOL     OW 7951   1.605   4.844   2.596
 2351SOL    HW1 7952   1.624   4.789   2.678
 2351SOL    HW2 7953   1.507   4.858   2.588
 2352SOL     OW 7954   5.320   5.142   6.642
 2352SOL    HW1 7955   5.306   5.182   6.552
 2352SOL    HW2 7956   5.417   5.151   6.667
 2353SOL     OW 7957   2.598   3.086   5.911
 2353SOL    HW1 7958   2.655   3.167   5.916
 2353SOL    HW2 7959   2.502   3.112   5.920
 2354SOL     OW 7960   4.299   1.551   2.506
 2354SOL    HW1 7961   4.341   1.553   2.415
 2354SOL    HW2 7962   4.364   1.583   2.574
 2355SOL     OW 7963   0.864   1.412   1.841
 2355SOL    HW1 7964   0.951   1.461   1.839
 2355SOL    HW2 7965   0.812   1.438   1.923
 2356SOL     OW 7966   3.045   5.134   4.469
 2356SOL    HW1 7967   2.968   5.198   4.464
 2356SOL    HW2 7968   3.130   5.185   4.479
 2357SOL     OW 7969   1.254   5.535   0.914
 2357SOL    HW1 7970   1.317   5.457   0.908
 2357SOL    HW2 7971   1.300   5.617   0.880
 2358SOL     OW 7972   2.655   0.853   5.290
 2358SOL    HW1 7973   2.693   0.933   5.244
 2358SOL    HW2 7974   2.635   0.875   5.385
 2359SOL     OW 7975   2.579   2.189   6.191
 2359SOL    HW1 7976   2.561   2.284   6.162
 2359SOL    HW2 7977   2.641   2.146   6.125
 2360SOL     OW 7978   3.203   5.211   0.697
 2360SOL    HW1 7979   3.245   5.301   0.688
 2360SOL    HW2 7980   3.124   5.217   0.758
 2361SOL     OW 7981   3.220   4.925   1.438
 2361SOL    HW1 7982   3.279   4.896   1.363
 2361SOL    HW2 7983   3.133   4.958   1.401
 2362SOL     OW 7984   2.775   5.249   4.527
 2362SOL    HW1 7985   2.751   5.245   4.430
 2362SOL    HW2 7986   2.734   5.172   4.575
 2363SOL     OW 7987   2.011   3.665   0.939
 2363SOL    HW1 7988   2.075   3.717   0.994
 2363SOL    HW2 7989   2.004   3.707   0.848
 2364SOL     OW 7990   4.750   0.834   2.213
 2364SOL    HW1 7991   4.686   0.788   2.276
 2364SOL    HW2 7992   4.761   0.929   2.241
 2365SOL     OW 7993   5.687   4.444   3.189
 2365SOL    HW1 7994   5.675   4.400   3.100
 2365SOL    HW2 7995   5.599   4.478   3.222
 2366SOL     OW 7996   3.489   4.837   5.180
 2366SOL    HW1 7997   3.434   4.915   5.213
 2366SOL    HW2 7998   3.468   4.756   5.234
 2367SOL     OW 7999   6.007   5.466   5.461
 2367SOL    HW1 8000   6.033   5.407   5.384
 2367SOL    HW2 8001   5.909   5.456   5.478
 2368SOL     OW 8002   5.523   0.328   4.800
 2368SOL    HW1 8003   5.567   0.280   4.875
 2368SOL    HW2 8004   5.432   0.358   4.828
 2369SOL     OW 8005   3.953   1.763   4.248
 2369SOL    HW1 8006   3.998   1.677   4.272
 2369SOL    HW2 8007   3.895   1.792   4.325
 2370SOL     OW 8008   4.642   1.744   1.479
 2370SOL    HW1 8009   4.740   1.753   1.491
 2370SOL    HW2 8010   4.600   1.717   1.565
 2371SOL     OW 8011   1.818   0.289   2.067
 2371SOL    HW1 8012   1.774   0.372   2.099
 2371SOL    HW2 8013   1.752   0.233   2.016
 2372SOL     OW 8014   6.758   6.894   5.009
 2372SOL    HW1 8015   6.735   6.990   5.024
 2372SOL    HW2 8016   6.784   6.852   5.096
 2373SOL     OW 8017   6.024   4.321   5.999
 2373SOL    HW1 8018   6.115   4.338   5.962
 2373SOL    HW2 8019   5.982   4.244   5.952
 2374SOL     OW 8020   0.036   6.330   2.298
 2374SOL    HW1 8021   0.107   6.383   2.251
 2374SOL    HW2 8022   6.970   6.369   2.278
 2375SOL     OW 8023   1.548   0.239   3.913
 2375SOL    HW1 8024   1.484   0.186   3.969
 2375SOL    HW2 8025   1.579   0.319   3.964
 2376SOL     OW 8026   5.025   3.536   3.569
 2376SOL    HW1 8027   4.967   3.558   3.490
 2376SOL    HW2 8028   5.120   3.533   3.540
 2377SOL     OW 8029   3.624   3.878   5.672
 2377SOL    HW1 8030   3.713   3.881   5.719
 2377SOL    HW2 8031   3.598   3.783   5.658
 2378SOL     OW 8032   0.710   0.850   0.807
 2378SOL    HW1 8033   0.640   0.787   0.773
 2378SOL    HW2 8034   0.800   0.819   0.779
 2379SOL     OW 8035   0.645   4.784   2.563
 2379SOL    HW1 8036   0.737   4.820   2.547
 2379SOL    HW2 8037   0.650   4.710   2.630
 2380SOL     OW 8038   4.047   5.357   6.500
 2380SOL    HW1 8039   3.993   5.279   6.470
 2380SOL    HW2 8040   4.060   5.420   6.424
 2381SOL     OW 8041   2.131   3.502   4.130
 2381SOL    HW1 8042   2.165   3.578   4.073
 2381SOL    HW2 8043   2.031   3.501   4.127
 2382SOL     OW 8044   7.005   5.586   2.925
 2382SOL    HW1 8045   6.929   5.616   2.982
 2382SOL    HW2 8046   0.000   5.656   2.856
 2383SOL     OW 8047   5.077   3.959   5.763
 2383SOL    HW1 8048   5.071   3.965   5.664
 2383SOL    HW2 8049   5.152   4.017   5.796
 2384SOL     OW 8050   0.230   2.650   3.157
 2384SOL    HW1 8051   0.324   2.615   3.154
 2384SOL    HW2 8052   0.221   2.725   3.093
 2385SOL     OW 8053   0.510   1.059   0.308
 2385SOL    HW1 8054   0.495   1.158   0.313
 2385SOL    HW2 8055   0.494   1.027   0.214
 2386SOL     OW 8056   6.545   5.416   5.028
 2386SOL    HW1 8057   6.574   5.442   4.936
 2386SOL    HW2 8058   6.613   5.353   5.067
 2387SOL     OW 8059   0.287   0.827   3.571
 2387SOL    HW1 8060   0.223   0.883   3.519
 2387SOL    HW2 8061   0.330   0.761   3.509
 2388SOL     OW 8062   1.512   3.384   4.852
 2388SOL    HW1 8063   1.508   3.482   4.873
 2388SOL    HW2 8064   1.549   3.371   4.760
 2389SOL     OW 8065   3.485   5.923   3.129
 2389SOL    HW1 8066   3.534   5.998   3.173
 2389SOL    HW2 8067   3.393   5.917   3.166
 2390SOL     OW 8068   5.486   2.398   5.811
 2390SOL    HW1 8069   5.437   2.442   5.887
 2390SOL    HW2 8070   5.547   2.465   5.768
 2391SOL     OW 8071   3.093   3.830   6.744
 2391SOL    HW1 8072   3.068   3.759   6.677
 2391SOL    HW2 8073   3.122   3.913   6.696
 2392SOL     OW 8074   4.254   5.214   5.844
 2392SOL    HW1 8075   4.342   5.211   5.891
 2392SOL    HW2 8076   4.217   5.121   5.839
 2393SOL     OW 8077   3.895   4.853   0.496
 2393SOL    HW1 8078   3.811   4.800   0.490
 2393SOL    HW2 8079   3.890   4.915   0.574
 2394SOL     OW 8080   6.598   2.351   3.338
 2394SOL    HW1 8081   6.532   2.277   3.325
 2394SOL    HW2 8082   6.687   2.323   3.303
 2395SOL     OW 8083   1.473   2.411   3.827
 2395SOL    HW1 8084   1.374   2.419   3.836
 2395SOL    HW2 8085   1.503   2.322   3.863
 2396SOL     OW 8086   6.865   0.027   6.251
 2396SOL    HW1 8087   6.788   0.045   6.189
 2396SOL    HW2 8088   6.831   0.004   6.342
 2397SOL     OW 8089   2.091   4.638   6.167
 2397SOL    HW1 8090   2.053   4.724   6.133
 2397SOL    HW2 8091   2.186   4.629   6.136
 2398SOL     OW 8092   3.865   5.798   4.896
 2398SOL    HW1 8093   3.959   5.829   4.910
 2398SOL    HW2 8094   3.830   5.760   4.982
 2399SOL     OW 8095   2.762   1.745   2.255
 2399SOL    HW1 8096   2.848   1.794   2.263
 2399SOL    HW2 8097   2.712   1.751   2.342
 2400SOL     OW 8098   0.879   2.985   0.318
 2400SOL    HW1 8099   0.950   2.958   0.383
 2400SOL    HW2 8100   0.850   3.079   0.336
 2401SOL     OW 8101   1.209   6.142   0.375
 2401SOL    HW1 8102   1.131   6.142   0.312
 2401SOL    HW2 8103   1.205   6.224   0.432
 2402SOL     OW 8104   0.703   3.600   1.910
 2402SOL    HW1 8105   0.721   3.556   1.822
 2402SOL    HW2 8106   0.606   3.628   1.914
 2403SOL     OW 8107   2.854   4.165   5.292
 2403SOL    HW1 8108   2.912   4.239   5.326
 2403SOL    HW2 8109   2.759   4.182   5.318
 2404SOL     OW 8110   6.280   1.273   1.996
 2404SOL    HW1 8111   6.292   1.237   1.903
 2404SOL    HW2 8112   6.358   1.330   2.020
 2405SOL     OW 8113   1.554   3.170   0.994
 2405SOL    HW1 8114   1.530   3.138   1.085
 2405SOL    HW2 8115   1.497   3.124   0.926
 2406SOL     OW 8116   3.982   5.588   4.648
 2406SOL    HW1 8117   3.916   5.573   4.721
 2406SOL    HW2 8118   4.074   5.570   4.683
 2407SOL     OW 8119   2.066   1.602   3.875
 2407SOL    HW1 8120   1.971   1.622   3.902
 2407SOL    HW2 8121   2.083   1.638   3.784
 2408SOL     OW 8122   3.636   0.083   6.088
 2408SOL    HW1 8123   3.586   0.128   6.162
 2408SOL    HW2 8124   3.733   0.103   6.096
 2409SOL     OW 8125   0.393   3.100   6.851
 2409SOL    HW1 8126   0.411   3.118   6.948
 2409SOL    HW2 8127   0.380   3.001   6.838
 2410SOL     OW 8128   0.013   3.564   4.630
 2410SOL    HW1 8129   0.100   3.599   4.665
 2410SOL    HW2 8130   0.031   3.485   4.572
 2411SOL     OW 8131   3.169   1.430   0.310
 2411SOL    HW1 8132   3.216   1.460   0.392
 2411SOL    HW2 8133   3.130   1.338   0.325
 2412SOL     OW 8134   2.990   1.565   6.848
 2412SOL    HW1 8135   2.980   1.638   6.915
 2412SOL    HW2 8136   3.083   1.527   6.854
 2413SOL     OW 8137   0.032   4.101   6.846
 2413SOL    HW1 8138   6.957   4.096   6.855
 2413SOL    HW2 8139   0.055   4.160   6.768
 2414SOL     OW 8140   7.004   1.611   4.824
 2414SOL    HW1 8141   0.054   1.594   4.889
 2414SOL    HW2 8142   6.953   1.526   4.808
 2415SOL     OW 8143   3.427   4.121   6.423
 2415SOL    HW1 8144   3.464   4.148   6.512
 2415SOL    HW2 8145   3.409   4.203   6.368
 2416SOL     OW 8146   0.145   3.626   3.899
 2416SOL    HW1 8147   0.145   3.565   3.820
 2416SOL    HW2 8148   0.056   3.671   3.907
 2417SOL     OW 8149   3.375   2.411   1.679
 2417SOL    HW1 8150   3.420   2.443   1.596
 2417SOL    HW2 8151   3.437   2.354   1.732
 2418SOL     OW 8152   5.953   3.999   6.191
 2418SOL    HW1 8153   6.028   3.958   6.243
 2418SOL    HW2 8154   5.877   4.019   6.253
 2419SOL     OW 8155   3.731   0.727   2.984
 2419SOL    HW1 8156   3.782   0.669   2.921
 2419SOL    HW2 8157   3.756   0.822   2.969
 2420SOL     OW 8158   1.174   3.981   2.265
 2420SOL    HW1 8159   1.117   3.900   2.250
 2420SOL    HW2 8160   1.270   3.956   2.255
 2421SOL     OW 8161   2.441   6.767   2.943
 2421SOL    HW1 8162   2.499   6.690   2.916
 2421SOL    HW2 8163   2.494   6.833   2.996
 2422SOL     OW 8164   4.031   6.378   0.127
 2422SOL    HW1 8165   3.982   6.420   0.203
 2422SOL    HW2 8166   4.008   6.281   0.122
 2423SOL     OW 8167   3.301   4.924   4.490
 2423SOL    HW1 8168   3.287   5.023   4.487
 2423SOL    HW2 8169   3.214   4.878   4.470
 2424SOL     OW 8170   5.196   6.748   6.107
 2424SOL    HW1 8171   5.113   6.701   6.136
 2424SOL    HW2 8172   5.231   6.705   6.023
 2425SOL     OW 8173   3.957   5.350   5.268
 2425SOL    HW1 8174   3.861   5.377   5.272
 2425SOL    HW2 8175   4.003   5.401   5.196
 2426SOL     OW 8176   3.066   2.413   5.390
 2426SOL    HW1 8177   2.972   2.440   5.369
 2426SOL    HW2 8178   3.115   2.393   5.305
 2427SOL     OW 8179   3.961   1.926   0.817
 2427SOL    HW1 8180   4.026   1.923   0.742
 2427SOL    HW2 8181   3.998   1.982   0.891
 2428SOL     OW 8182   1.753   1.800   3.079
 2428SOL    HW1 8183   1.655   1.810   3.098
 2428SOL    HW2 8184   1.768   1.805   2.980
 2429SOL     OW 8185   5.785   6.048   1.105
 2429SOL    HW1 8186   5.800   6.122   1.170
 2429SOL    HW2 8187   5.783   6.084   1.012
 2430SOL     OW 8188   6.882   0.117   7.016
 2430SOL    HW1 8189   6.893   0.037   0.051
 2430SOL    HW2 8190   6.926   0.099   6.928
 2431SOL     OW 8191   2.002   3.234   1.903
 2431SOL    HW1 8192   2.060   3.158   1.932
 2431SOL    HW2 8193   1.983   3.293   1.982
 2432SOL     OW 8194   2.600   6.003   2.128
 2432SOL    HW1 8195   2.546   5.963   2.202
 2432SOL    HW2 8196   2.620   5.934   2.059
 2433SOL     OW 8197   6.906   4.491   4.275
 2433SOL    HW1 8198   6.939   4.403   4.240
 2433SOL    HW2 8199   6.819   4.513   4.230
 2434SOL     OW 8200   4.484   1.657   2.679
 2434SOL    HW1 8201   4.475   1.623   2.773
 2434SOL    HW2 8202   4.535   1.742   2.679
 2435SOL     OW 8203   6.027   0.016   6.877
 2435SOL    HW1 8204   6.006   0.032   6.781
 2435SOL    HW2 8205   6.054   6.945   6.890
 2436SOL     OW 8206   6.890   2.767   0.994
 2436SOL    HW1 8207   6.924   2.674   0.979
 2436SOL    HW2 8208   6.837   2.796   0.914
 2437SOL     OW 8209   0.452   4.312   1.443
 2437SOL    HW1 8210   0.493   4.378   1.381
 2437SOL    HW2 8211   0.522   4.272   1.502
 2438SOL     OW 8212   4.245   1.436   4.931
 2438SOL    HW1 8213   4.339   1.414   4.958
 2438SOL    HW2 8214   4.233   1.535   4.926
 2439SOL     OW 8215   0.227   5.962   0.374
 2439SOL    HW1 8216   0.253   5.987   0.468
 2439SOL    HW2 8217   0.274   5.877   0.349
 2440SOL     OW 8218   5.885   1.537   5.326
 2440SOL    HW1 8219   5.874   1.634   5.304
 2440SOL    HW2 8220   5.801   1.488   5.305
 2441SOL     OW 8221   6.138   0.849   0.353
 2441SOL    HW1 8222   6.228   0.847   0.397
 2441SOL    HW2 8223   6.091   0.934   0.377
 2442SOL     OW 8224   5.121   2.935   2.422
 2442SOL    HW1 8225   5.172   2.950   2.338
 2442SOL    HW2 8226   5.023   2.928   2.401
 2443SOL     OW 8227   0.106   3.225   1.408
 2443SOL    HW1 8228   0.172   3.196   1.478
 2443SOL    HW2 8229   0.134   3.190   1.319
 2444SOL     OW 8230   3.609   4.941   3.078
 2444SOL    HW1 8231   3.526   4.938   3.133
 2444SOL    HW2 8232   3.656   5.028   3.093
 2445SOL     OW 8233   0.814   2.098   1.040
 2445SOL    HW1 8234   0.870   2.017   1.061
 2445SOL    HW2 8235   0.838   2.172   1.104
 2446SOL     OW 8236   6.771   5.515   1.840
 2446SOL    HW1 8237   6.731   5.469   1.919
 2446SOL    HW2 8238   6.704   5.578   1.800
 2447SOL     OW 8239   1.802   6.685   0.630
 2447SOL    HW1 8240   1.712   6.729   0.622
 2447SOL    HW2 8241   1.797   6.612   0.697
 2448SOL     OW 8242   5.467   1.271   4.028
 2448SOL    HW1 8243   5.409   1.348   4.000
 2448SOL    HW2 8244   5.507   1.228   3.948
 2449SOL     OW 8245   2.050   4.069   1.124
 2449SOL    HW1 8246   2.131   4.128   1.119
 2449SOL    HW2 8247   1.980   4.113   1.180
 2450SOL     OW 8248   0.925   6.743   5.292
 2450SOL    HW1 8249   0.910   6.833   5.249
 2450SOL    HW2 8250   1.018   6.738   5.327
 2451SOL     OW 8251   1.977   0.087   6.494
 2451SOL    HW1 8252   1.977   0.036   6.408
 2451SOL    HW2 8253   2.037   0.042   6.560
 2452SOL     OW 8254   2.613   1.874   4.707
 2452SOL    HW1 8255   2.554   1.862   4.787
 2452SOL    HW2 8256   2.569   1.933   4.641
 2453SOL     OW 8257   1.301   1.605   6.355
 2453SOL    HW1 8258   1.328   1.509   6.357
 2453SOL    HW2 8259   1.221   1.615   6.295
 2454SOL     OW 8260   3.150   6.435   0.603
 2454SOL    HW1 8261   3.119   6.395   0.517
 2454SOL    HW2 8262   3.071   6.465   0.657
 2455SOL     OW 8263   4.173   2.009   0.614
 2455SOL    HW1 8264   4.085   2.038   0.576
 2455SOL    HW2 8265   4.209   2.082   0.673
 2456SOL     OW 8266   0.809   3.642   6.013
 2456SOL    HW1 8267   0.870   3.594   6.077
 2456SOL    HW2 8268   0.863   3.676   5.935
 2457SOL     OW 8269   4.740   1.655   5.781
 2457SOL    HW1 8270   4.758   1.707   5.865
 2457SOL    HW2 8271   4.743   1.557   5.801
 2458SOL     OW 8272   1.111   0.629   2.403
 2458SOL    HW1 8273   1.054   0.548   2.418
 2458SOL    HW2 8274   1.095   0.695   2.476
 2459SOL     OW 8275   2.181   6.895   1.659
 2459SOL    HW1 8276   2.099   6.865   1.612
 2459SOL    HW2 8277   2.238   6.949   1.597
 2460SOL     OW 8278   0.311   0.514   3.914
 2460SOL    HW1 8279   0.341   0.485   3.823
 2460SOL    HW2 8280   0.240   0.451   3.947
 2461SOL     OW 8281   3.645   1.556   3.537
 2461SOL    HW1 8282   3.642   1.470   3.487
 2461SOL    HW2 8283   3.703   1.621   3.488
 2462SOL     OW 8284   0.486   6.234   1.134
 2462SOL    HW1 8285   0.451   6.320   1.172
 2462SOL    HW2 8286   0.411   6.184   1.091
 2463SOL     OW 8287   6.756   6.722   0.890
 2463SOL    HW1 8288   6.708   6.685   0.969
 2463SOL    HW2 8289   6.848   6.750   0.917
 2464SOL     OW 8290   0.468   3.103   4.158
 2464SOL    HW1 8291   0.532   3.081   4.232
 2464SOL    HW2 8292   0.390   3.153   4.195
 2465SOL     OW 8293   6.229   1.041   0.088
 2465SOL    HW1 8294   6.143   1.072   0.127
 2465SOL    HW2 8295   6.302   1.052   0.155
 2466SOL     OW 8296   0.741   2.743   1.528
 2466SOL    HW1 8297   0.646   2.715   1.541
 2466SOL    HW2 8298   0.756   2.831   1.573
 2467SOL     OW 8299   4.694   2.732   4.879
 2467SOL    HW1 8300   4.683   2.770   4.970
 2467SOL    HW2 8301   4.707   2.806   4.813
 2468SOL     OW 8302   3.856   0.090   5.047
 2468SOL    HW1 8303   3.831   0.093   4.950
 2468SOL    HW2 8304   3.781   0.049   5.100
 2469SOL     OW 8305   3.067   2.119   6.154
 2469SOL    HW1 8306   3.111   2.169   6.228
 2469SOL    HW2 8307   3.003   2.052   6.192
 2470SOL     OW 8308   1.947   6.242   6.586
 2470SOL    HW1 8309   1.873   6.309   6.585
 2470SOL    HW2 8310   1.933   6.176   6.512
 2471SOL     OW 8311   2.871   5.501   2.678
 2471SOL    HW1 8312   2.840   5.545   2.594
 2471SOL    HW2 8313   2.828   5.545   2.757
 2472SOL     OW 8314   4.424   1.132   2.479
 2472SOL    HW1 8315   4.364   1.077   2.421
 2472SOL    HW2 8316   4.427   1.226   2.443
 2473SOL     OW 8317   0.510   4.378   3.975
 2473SOL    HW1 8318   0.460   4.306   4.024
 2473SOL    HW2 8319   0.457   4.406   3.895
 2474SOL     OW 8320   1.618   6.348   1.258
 2474SOL    HW1 8321   1.715   6.335   1.276
 2474SOL    HW2 8322   1.587   6.432   1.302
 2475SOL     OW 8323   5.112   2.133   0.440
 2475SOL    HW1 8324   5.036   2.163   0.383
 2475SOL    HW2 8325   5.164   2.062   0.393
 2476SOL     OW 8326   4.837   6.876   0.655
 2476SOL    HW1 8327   4.892   6.819   0.716
 2476SOL    HW2 8328   4.799   6.953   0.707
 2477SOL     OW 8329   4.054   0.089   3.476
 2477SOL    HW1 8330   3.997   0.076   3.557
 2477SOL    HW2 8331   4.090   0.182   3.474
 2478SOL     OW 8332   3.320   0.161   4.427
 2478SOL    HW1 8333   3.277   0.204   4.507
 2478SOL    HW2 8334   3.296   0.211   4.344
 2479SOL     OW 8335   5.066   3.071   0.931
 2479SOL    HW1 8336   5.004   3.102   0.859
 2479SOL    HW2 8337   5.122   3.147   0.962
 2480SOL     OW 8338   3.321   2.183   1.458
 2480SOL    HW1 8339   3.375   2.194   1.541
 2480SOL    HW2 8340   3.228   2.218   1.473
 2481SOL     OW 8341   3.316   0.238   1.647
 2481SOL    HW1 8342   3.361   0.325   1.667
 2481SOL    HW2 8343   3.237   0.254   1.587
 2482SOL     OW 8344   6.402   3.165   0.478
 2482SOL    HW1 8345   6.433   3.254   0.513
 2482SOL    HW2 8346   6.428   3.157   0.382
 2483SOL     OW 8347   2.707   2.276   0.996
 2483SOL    HW1 8348   2.716   2.275   1.095
 2483SOL    HW2 8349   2.613   2.255   0.971
 2484SOL     OW 8350   4.195   0.521   6.619
 2484SOL    HW1 8351   4.140   0.462   6.679
 2484SOL    HW2 8352   4.225   0.601   6.670
 2485SOL     OW 8353   0.267   1.740   6.080
 2485SOL    HW1 8354   0.257   1.790   6.166
 2485SOL    HW2 8355   0.179   1.702   6.053
 2486SOL     OW 8356   0.352   5.374   3.548
 2486SOL    HW1 8357   0.382   5.467   3.565
 2486SOL    HW2 8358   0.411   5.332   3.479
 2487SOL     OW 8359   4.294   6.009   6.988
 2487SOL    HW1 8360   4.314   6.092   6.936
 2487SOL    HW2 8361   4.357   5.936   6.960
 2488SOL     OW 8362   6.940   3.687   0.711
 2488SOL    HW1 8363   0.011   3.661   0.729
 2488SOL    HW2 8364   6.887   3.674   0.794
 2489SOL     OW 8365   5.971   5.145   4.206
 2489SOL    HW1 8366   5.961   5.194   4.293
 2489SOL    HW2 8367   6.025   5.201   4.143
 2490SOL     OW 8368   2.040   5.892   2.753
 2490SOL    HW1 8369   2.103   5.820   2.724
 2490SOL    HW2 8370   2.084   5.981   2.741
 2491SOL     OW 8371   3.746   4.646   1.456
 2491SOL    HW1 8372   3.835   4.665   1.414
 2491SOL    HW2 8373   3.723   4.550   1.441
 2492SOL     OW 8374   6.728   5.431   1.116
 2492SOL    HW1 8375   6.739   5.395   1.024
 2492SOL    HW2 8376   6.633   5.417   1.146
 2493SOL     OW 8377   5.172   6.821   0.703
 2493SOL    HW1 8378   5.256   6.782   0.740
 2493SOL    HW2 8379   5.144   6.771   0.622
 2494SOL     OW 8380   6.791   3.669   0.942
 2494SOL    HW1 8381   6.777   3.601   1.013
 2494SOL    HW2 8382   6.826   3.754   0.982
 2495SOL     OW 8383   0.401   3.683   1.654
 2495SOL    HW1 8384   0.314   3.697   1.701
 2495SOL    HW2 8385   0.429   3.588   1.662
 2496SOL     OW 8386   5.738   4.426   6.646
 2496SOL    HW1 8387   5.790   4.391   6.724
 2496SOL    HW2 8388   5.652   4.466   6.678
 2497SOL     OW 8389   0.053   0.331   2.384
 2497SOL    HW1 8390   0.031   0.410   2.442
 2497SOL    HW2 8391   0.080   0.254   2.442
 2498SOL     OW 8392   1.993   3.170   4.908
 2498SOL    HW1 8393   2.033   3.113   4.979
 2498SOL    HW2 8394   1.951   3.251   4.949
 2499SOL     OW 8395   7.004   3.626   2.718
 2499SOL    HW1 8396   6.935   3.556   2.734
 2499SOL    HW2 8397   6.980   3.679   2.637
 2500SOL     OW 8398   3.926   3.063   1.815
 2500SOL    HW1 8399   3.990   3.086   1.889
 2500SOL    HW2 8400   3.920   3.140   1.751
 2501SOL     OW 8401   6.291   5.616   6.283
 2501SOL    HW1 8402   6.217   5.665   6.329
 2501SOL    HW2 8403   6.253   5.542   6.227
 2502SOL     OW 8404   2.215   6.633   4.216
 2502SOL    HW1 8405   2.204   6.689   4.134
 2502SOL    HW2 8406   2.312   6.614   4.231
 2503SOL     OW 8407   2.733   0.313   5.623
 2503SOL    HW1 8408   2.767   0.355   5.707
 2503SOL    HW2 8409   2.777   0.224   5.610
 2504SOL     OW 8410   3.434   0.163   3.375
 2504SOL    HW1 8411   3.524   0.147   3.415
 2504SOL    HW2 8412   3.374   0.205   3.443
 2505SOL     OW 8413   6.533   4.543   3.960
 2505SOL    HW1 8414   6.445   4.507   3.930
 2505SOL    HW2 8415   6.595   4.552   3.882
 2506SOL     OW 8416   5.960   5.215   6.500
 2506SOL    HW1 8417   5.931   5.129   6.541
 2506SOL    HW2 8418   6.045   5.245   6.544
 2507SOL     OW 8419   0.525   3.262   2.618
 2507SOL    HW1 8420   0.552   3.277   2.714
 2507SOL    HW2 8421   0.533   3.347   2.567
 2508SOL     OW 8422   5.950   1.177   4.039
 2508SOL    HW1 8423   5.958   1.112   4.115
 2508SOL    HW2 8424   5.897   1.257   4.069
 2509SOL     OW 8425   0.928   3.082   5.677
 2509SOL    HW1 8426   0.916   3.094   5.776
 2509SOL    HW2 8427   1.005   3.139   5.646
 2510SOL     OW 8428   2.979   3.623   2.328
 2510SOL    HW1 8429   2.958   3.696   2.393
 2510SOL    HW2 8430   2.898   3.569   2.310
 2511SOL     OW 8431   1.630   0.471   4.019
 2511SOL    HW1 8432   1.718   0.441   3.982
 2511SOL    HW2 8433   1.642   0.552   4.075
 2512SOL     OW 8434   4.190   4.795   3.811
 2512SOL    HW1 8435   4.240   4.875   3.779
 2512SOL    HW2 8436   4.091   4.813   3.804
 2513SOL     OW 8437   1.962   5.984   6.458
 2513SOL    HW1 8438   1.873   6.012   6.424
 2513SOL    HW2 8439   1.951   5.930   6.541
 2514SOL     OW 8440   1.410   2.085   3.277
 2514SOL    HW1 8441   1.439   2.179   3.259
 2514SOL    HW2 8442   1.482   2.022   3.247
 2515SOL     OW 8443   0.498   2.030   1.219
 2515SOL    HW1 8444   0.535   1.954   1.272
 2515SOL    HW2 8445   0.503   2.009   1.121
 2516SOL     OW 8446   5.852   2.419   4.875
 2516SOL    HW1 8447   5.896   2.331   4.858
 2516SOL    HW2 8448   5.910   2.493   4.841
 2517SOL     OW 8449   0.721   1.248   3.589
 2517SOL    HW1 8450   0.689   1.327   3.536
 2517SOL    HW2 8451   0.759   1.280   3.676
 2518SOL     OW 8452   2.484   4.348   0.864
 2518SOL    HW1 8453   2.409   4.411   0.885
 2518SOL    HW2 8454   2.452   4.254   0.871
 2519SOL     OW 8455   1.113   1.416   0.976
 2519SOL    HW1 8456   1.046   1.473   0.928
 2519SOL    HW2 8457   1.206   1.443   0.950
 2520SOL     OW 8458   2.401   2.287   1.251
 2520SOL    HW1 8459   2.328   2.278   1.184
 2520SOL    HW2 8460   2.381   2.231   1.331
 2521SOL     OW 8461   5.525   0.882   4.736
 2521SOL    HW1 8462   5.557   0.907   4.644
 2521SOL    HW2 8463   5.490   0.964   4.782
 2522SOL     OW 8464   1.096   1.568   6.848
 2522SOL    HW1 8465   1.113   1.643   6.911
 2522SOL    HW2 8466   1.094   1.602   6.754
 2523SOL     OW 8467   1.173   5.010   6.540
 2523SOL    HW1 8468   1.120   5.089   6.508
 2523SOL    HW2 8469   1.134   4.975   6.625
 2524SOL     OW 8470   0.995   0.966   4.438
 2524SOL    HW1 8471   0.976   1.045   4.379
 2524SOL    HW2 8472   0.931   0.892   4.416
 2525SOL     OW 8473   6.523   2.583   5.541
 2525SOL    HW1 8474   6.524   2.663   5.481
 2525SOL    HW2 8475   6.592   2.594   5.612
 2526SOL     OW 8476   1.684   0.038   0.702
 2526SOL    HW1 8477   1.678   6.993   0.630
 2526SOL    HW2 8478   1.601   0.092   0.704
 2527SOL     OW 8479   4.171   5.061   6.097
 2527SOL    HW1 8480   4.233   5.132   6.063
 2527SOL    HW2 8481   4.223   4.992   6.146
 2528SOL     OW 8482   4.850   5.753   6.161
 2528SOL    HW1 8483   4.912   5.722   6.088
 2528SOL    HW2 8484   4.878   5.844   6.191
 2529SOL     OW 8485   0.667   6.392   5.678
 2529SOL    HW1 8486   0.762   6.362   5.665
 2529SOL    HW2 8487   0.664   6.469   5.742
 2530SOL     OW 8488   2.636   6.388   6.607
 2530SOL    HW1 8489   2.612   6.485   6.610
 2530SOL    HW2 8490   2.567   6.335   6.657
 2531SOL     OW 8491   6.917   5.636   6.488
 2531SOL    HW1 8492   6.846   5.627   6.557
 2531SOL    HW2 8493   6.886   5.699   6.417
 2532SOL     OW 8494   5.689   6.177   1.829
 2532SOL    HW1 8495   5.672   6.252   1.766
 2532SOL    HW2 8496   5.639   6.096   1.798
 2533SOL     OW 8497   4.686   0.867   3.889
 2533SOL    HW1 8498   4.719   0.961   3.883
 2533SOL    HW2 8499   4.722   0.814   3.812
 2534SOL     OW 8500   4.045   1.005   2.630
 2534SOL    HW1 8501   3.965   1.056   2.663
 2534SOL    HW2 8502   4.112   1.069   2.591
 2535SOL     OW 8503   3.635   2.737   6.295
 2535SOL    HW1 8504   3.718   2.697   6.256
 2535SOL    HW2 8505   3.566   2.665   6.306
 2536SOL     OW 8506   1.502   0.524   1.544
 2536SOL    HW1 8507   1.577   0.472   1.505
 2536SOL    HW2 8508   1.446   0.464   1.602
 2537SOL     OW 8509   3.779   0.486   6.005
 2537SOL    HW1 8510   3.875   0.457   6.009
 2537SOL    HW2 8511   3.726   0.416   5.957
 2538SOL     OW 8512   6.098   3.610   3.528
 2538SOL    HW1 8513   6.011   3.582   3.488
 2538SOL    HW2 8514   6.171   3.549   3.496
 2539SOL     OW 8515   5.447   2.270   5.487
 2539SOL    HW1 8516   5.398   2.268   5.574
 2539SOL    HW2 8517   5.438   2.181   5.442
 2540SOL     OW 8518   2.618   1.622   1.589
 2540SOL    HW1 8519   2.690   1.675   1.635
 2540SOL    HW2 8520   2.604   1.658   1.497
 2541SOL     OW 8521   3.406   6.627   3.990
 2541SOL    HW1 8522   3.454   6.556   4.042
 2541SOL    HW2 8523   3.414   6.714   4.039
 2542SOL     OW 8524   2.020   5.350   6.004
 2542SOL    HW1 8525   2.097   5.302   6.045
 2542SOL    HW2 8526   2.011   5.323   5.908
 2543SOL     OW 8527   0.926   0.677   4.146
 2543SOL    HW1 8528   0.984   0.734   4.088
 2543SOL    HW2 8529   0.899   0.595   4.096
 2544SOL     OW 8530   0.490   5.532   6.853
 2544SOL    HW1 8531   0.399   5.545   6.893
 2544SOL    HW2 8532   0.556   5.515   6.926
 2545SOL     OW 8533   2.420   5.999   3.460
 2545SOL    HW1 8534   2.444   5.953   3.545
 2545SOL    HW2 8535   2.441   5.938   3.383
 2546SOL     OW 8536   7.007   1.154   1.444
 2546SOL    HW1 8537   0.050   1.221   1.476
 2546SOL    HW2 8538   0.024   1.098   1.372
 2547SOL     OW 8539   0.823   3.517   5.059
 2547SOL    HW1 8540   0.782   3.430   5.086
 2547SOL    HW2 8541   0.817   3.581   5.135
 2548SOL     OW 8542   1.120   0.663   5.401
 2548SOL    HW1 8543   1.168   0.649   5.488
 2548SOL    HW2 8544   1.162   0.606   5.330
 2549SOL     OW 8545   6.357   3.133   2.140
 2549SOL    HW1 8546   6.330   3.129   2.044
 2549SOL    HW2 8547   6.395   3.223   2.160
 2550SOL     OW 8548   5.898   5.274   0.156
 2550SOL    HW1 8549   5.882   5.180   0.188
 2550SOL    HW2 8550   5.823   5.332   0.187
 2551SOL     OW 8551   1.561   4.883   0.536
 2551SOL    HW1 8552   1.572   4.784   0.528
 2551SOL    HW2 8553   1.518   4.919   0.453
 2552SOL     OW 8554   1.872   5.736   3.661
 2552SOL    HW1 8555   1.941   5.722   3.732
 2552SOL    HW2 8556   1.835   5.648   3.633
 2553SOL     OW 8557   4.161   3.667   6.795
 2553SOL    HW1 8558   4.180   3.580   6.840
 2553SOL    HW2 8559   4.247   3.715   6.779
 2554SOL     OW 8560   1.222   1.578   0.621
 2554SOL    HW1 8561   1.191   1.671   0.642
 2554SOL    HW2 8562   1.195   1.555   0.527
 2555SOL     OW 8563   6.112   0.215   6.545
 2555SOL    HW1 8564   6.180   0.267   6.598
 2555SOL    HW2 8565   6.159   0.159   6.477
 2556SOL     OW 8566   4.107   5.073   1.132
 2556SOL    HW1 8567   4.018   5.117   1.144
 2556SOL    HW2 8568   4.173   5.140   1.099
 2557SOL     OW 8569   1.801   4.803   6.874
 2557SOL    HW1 8570   1.880   4.796   6.935
 2557SOL    HW2 8571   1.734   4.733   6.898
 2558SOL     OW 8572   4.082   0.488   5.601
 2558SOL    HW1 8573   3.996   0.463   5.647
 2558SOL    HW2 8574   4.159   0.460   5.658
 2559SOL     OW 8575   0.335   4.931   4.986
 2559SOL    HW1 8576   0.394   4.990   4.931
 2559SOL    HW2 8577   0.248   4.917   4.939
 2560SOL     OW 8578   5.950   1.487   0.261
 2560SOL    HW1 8579   6.015   1.421   0.296
 2560SOL    HW2 8580   5.873   1.496   0.324
 2561SOL     OW 8581   3.002   5.897   4.546
 2561SOL    HW1 8582   3.031   5.848   4.463
 2561SOL    HW2 8583   2.984   5.831   4.619
 2562SOL     OW 8584   2.515   3.608   6.978
 2562SOL    HW1 8585   2.601   3.596   0.004
 2562SOL    HW2 8586   2.502   3.705   6.956
 2563SOL     OW 8587   2.151   0.697   1.564
 2563SOL    HW1 8588   2.054   0.677   1.551
 2563SOL    HW2 8589   2.196   0.707   1.476
 2564SOL     OW 8590   1.488   6.366   2.110
 2564SOL    HW1 8591   1.511   6.456   2.072
 2564SOL    HW2 8592   1.437   6.377   2.195
 2565SOL     OW 8593   0.514   0.986   1.565
 2565SOL    HW1 8594   0.428   1.032   1.585
 2565SOL    HW2 8595   0.533   0.991   1.467
 2566SOL     OW 8596   2.550   0.128   5.881
 2566SOL    HW1 8597   2.557   0.228   5.887
 2566SOL    HW2 8598   2.457   0.100   5.905
 2567SOL     OW 8599   1.471   0.833   0.323
 2567SOL    HW1 8600   1.561   0.795   0.304
 2567SOL    HW2 8601   1.424   0.852   0.237
 2568SOL     OW 8602   5.109   3.998   0.313
 2568SOL    HW1 8603   5.052   4.005   0.232
 2568SOL    HW2 8604   5.171   4.077   0.317
 2569SOL     OW 8605   2.988   0.813   2.716
 2569SOL    HW1 8606   3.087   0.820   2.724
 2569SOL    HW2 8607   2.959   0.847   2.627
 2570SOL     OW 8608   5.746   2.653   6.151
 2570SOL    HW1 8609   5.736   2.743   6.109
 2570SOL    HW2 8610   5.779   2.588   6.083
 2571SOL     OW 8611   0.669   3.973   4.515
 2571SOL    HW1 8612   0.664   3.873   4.518
 2571SOL    HW2 8613   0.661   4.009   4.608
 2572SOL     OW 8614   1.364   4.879   3.885
 2572SOL    HW1 8615   1.463   4.862   3.889
 2572SOL    HW2 8616   1.348   4.975   3.860
 2573SOL     OW 8617   1.223   0.161   1.280
 2573SOL    HW1 8618   1.159   0.161   1.357
 2573SOL    HW2 8619   1.292   0.231   1.294
 2574SOL     OW 8620   6.093   3.490   0.817
 2574SOL    HW1 8621   6.096   3.399   0.776
 2574SOL    HW2 8622   6.077   3.482   0.915
 2575SOL     OW 8623   0.621   6.475   5.961
 2575SOL    HW1 8624   0.652   6.556   6.011
 2575SOL    HW2 8625   0.698   6.414   5.945
 2576SOL     OW 8626   4.243   6.115   4.687
 2576SOL    HW1 8627   4.236   6.035   4.747
 2576SOL    HW2 8628   4.212   6.197   4.736
 2577SOL     OW 8629   2.017   4.049   2.800
 2577SOL    HW1 8630   1.998   4.141   2.835
 2577SOL    HW2 8631   2.078   4.055   2.722
 2578SOL     OW 8632   4.116   1.916   2.818
 2578SOL    HW1 8633   4.016   1.909   2.821
 2578SOL    HW2 8634   4.155   1.828   2.792
 2579SOL     OW 8635   0.613   6.551   3.240
 2579SOL    HW1 8636   0.610   6.603   3.154
 2579SOL    HW2 8637   0.628   6.613   3.316
 2580SOL     OW 8638   2.426   2.506   5.890
 2580SOL    HW1 8639   2.333   2.470   5.889
 2580SOL    HW2 8640   2.450   2.538   5.799
 2581SOL     OW 8641   3.375   0.814   5.152
 2581SOL    HW1 8642   3.344   0.739   5.094
 2581SOL    HW2 8643   3.472   0.832   5.134
 2582SOL     OW 8644   6.876   3.318   1.290
 2582SOL    HW1 8645   6.945   3.382   1.323
 2582SOL    HW2 8646   6.825   3.358   1.214
 2583SOL     OW 8647   6.073   0.428   1.108
 2583SOL    HW1 8648   6.009   0.504   1.099
 2583SOL    HW2 8649   6.118   0.412   1.020
 2584SOL     OW 8650   3.729   4.344   6.221
 2584SOL    HW1 8651   3.808   4.294   6.256
 2584SOL    HW2 8652   3.761   4.415   6.158
 2585SOL     OW 8653   3.288   5.180   6.842
 2585SOL    HW1 8654   3.372   5.198   6.791
 2585SOL    HW2 8655   3.209   5.207   6.787
 2586SOL     OW 8656   2.607   0.911   3.732
 2586SOL    HW1 8657   2.565   0.873   3.650
 2586SOL    HW2 8658   2.703   0.932   3.713
 2587SOL     OW 8659   6.229   0.694   4.176
 2587SOL    HW1 8660   6.215   0.664   4.271
 2587SOL    HW2 8661   6.229   0.615   4.116
 2588SOL     OW 8662   4.577   0.484   6.794
 2588SOL    HW1 8663   4.568   0.572   6.840
 2588SOL    HW2 8664   4.487   0.444   6.780
 2589SOL     OW 8665   2.420   6.411   0.563
 2589SOL    HW1 8666   2.437   6.409   0.465
 2589SOL    HW2 8667   2.331   6.453   0.582
 2590SOL     OW 8668   3.078   5.920   0.333
 2590SOL    HW1 8669   2.986   5.925   0.295
 2590SOL    HW2 8670   3.118   5.831   0.312
 2591SOL     OW 8671   5.507   5.306   2.942
 2591SOL    HW1 8672   5.570   5.321   2.866
 2591SOL    HW2 8673   5.553   5.255   3.014
 2592SOL     OW 8674   2.909   3.990   0.659
 2592SOL    HW1 8675   2.924   4.026   0.751
 2592SOL    HW2 8676   2.909   3.890   0.663
 2593SOL     OW 8677   3.648   4.773   0.456
 2593SOL    HW1 8678   3.663   4.675   0.466
 2593SOL    HW2 8679   3.599   4.790   0.370
 2594SOL     OW 8680   1.883   2.901   3.984
 2594SOL    HW1 8681   1.961   2.898   3.921
 2594SOL    HW2 8682   1.820   2.974   3.956
 2595SOL     OW 8683   2.225   1.684   3.112
 2595SOL    HW1 8684   2.282   1.758   3.075
 2595SOL    HW2 8685   2.179   1.637   3.038
 2596SOL     OW 8686   0.681   1.945   0.683
 2596SOL    HW1 8687   0.713   2.026   0.731
 2596SOL    HW2 8688   0.586   1.926   0.708
 2597SOL     OW 8689   6.406   6.858   7.012
 2597SOL    HW1 8690   6.479   6.907   6.964
 2597SOL    HW2 8691   6.376   6.912   0.066
 2598SOL     OW 8692   4.814   2.534   2.878
 2598SOL    HW1 8693   4.897   2.550   2.823
 2598SOL    HW2 8694   4.821   2.445   2.923
 2599SOL     OW 8695   2.616   5.886   2.621
 2599SOL    HW1 8696   2.692   5.858   2.563
 2599SOL    HW2 8697   2.556   5.807   2.637
 2600SOL     OW 8698   5.819   3.837   4.428
 2600SOL    HW1 8699   5.736   3.816   4.479
 2600SOL    HW2 8700   5.835   3.935   4.429
 2601SOL     OW 8701   6.412   1.427   4.252
 2601SOL    HW1 8702   6.482   1.358   4.232
 2601SOL    HW2 8703   6.445   1.488   4.324
 2602SOL     OW 8704   0.787   4.422   2.500
 2602SOL    HW1 8705   0.846   4.434   2.421
 2602SOL    HW2 8706   0.783   4.507   2.552
 2603SOL     OW 8707   2.287   6.232   2.933
 2603SOL    HW1 8708   2.308   6.321   2.894
 2603SOL    HW2 8709   2.326   6.225   3.024
 2604SOL     OW 8710   4.886   2.644   3.778
 2604SOL    HW1 8711   4.796   2.677   3.804
 2604SOL    HW2 8712   4.939   2.719   3.738
 2605SOL     OW 8713   1.458   3.639   1.721
 2605SOL    HW1 8714   1.420   3.548   1.738
 2605SOL    HW2 8715   1.390   3.697   1.676
 2606SOL     OW 8716   5.336   3.609   0.960
 2606SOL    HW1 8717   5.394   3.644   1.034
 2606SOL    HW2 8718   5.257   3.563   0.999
 2607SOL     OW 8719   2.717   2.910   1.474
 2607SOL    HW1 8720   2.805   2.870   1.448
 2607SOL    HW2 8721   2.644   2.867   1.420
 2608SOL     OW 8722   2.823   5.419   5.501
 2608SOL    HW1 8723   2.825   5.342   5.436
 2608SOL    HW2 8724   2.849   5.387   5.591
 2609SOL     OW 8725   0.624   2.266   1.257
 2609SOL    HW1 8726   0.566   2.185   1.248
 2609SOL    HW2 8727   0.675   2.261   1.342
 2610SOL     OW 8728   1.309   3.973   4.856
 2610SOL    HW1 8729   1.241   4.034   4.816
 2610SOL    HW2 8730   1.397   4.020   4.861
 2611SOL     OW 8731   5.402   0.211   6.064
 2611SOL    HW1 8732   5.406   0.120   6.023
 2611SOL    HW2 8733   5.351   0.272   6.004
 2612SOL     OW 8734   6.737   6.699   6.941
 2612SOL    HW1 8735   6.651   6.664   6.904
 2612SOL    HW2 8736   6.811   6.636   6.918
 2613SOL     OW 8737   1.174   0.012   7.024
 2613SOL    HW1 8738   1.148   0.095   6.974
 2613SOL    HW2 8739   1.271   7.017   7.009
 2614SOL     OW 8740   6.127   2.172   0.300
 2614SOL    HW1 8741   6.190   2.174   0.377
 2614SOL    HW2 8742   6.142   2.089   0.246
 2615SOL     OW 8743   0.330   3.569   6.897
 2615SOL    HW1 8744   0.269   3.648   6.900
 2615SOL    HW2 8745   0.336   3.528   6.988
 2616SOL     OW 8746   1.401   1.035   4.859
 2616SOL    HW1 8747   1.490   1.002   4.892
 2616SOL    HW2 8748   1.366   1.105   4.921
 2617SOL     OW 8749   5.122   6.987   1.746
 2617SOL    HW1 8750   5.072   7.016   1.827
 2617SOL    HW2 8751   5.067   7.007   1.664
 2618SOL     OW 8752   1.660   7.020   6.420
 2618SOL    HW1 8753   1.702   6.943   6.468
 2618SOL    HW2 8754   1.672   7.009   6.321
 2619SOL     OW 8755   4.879   1.426   2.828
 2619SOL    HW1 8756   4.799   1.475   2.861
 2619SOL    HW2 8757   4.853   1.362   2.755
 2620SOL     OW 8758   5.950   1.827   1.788
 2620SOL    HW1 8759   5.892   1.854   1.865
 2620SOL    HW2 8760   5.893   1.793   1.714
 2621SOL     OW 8761   2.483   6.470   1.631
 2621SOL    HW1 8762   2.523   6.547   1.681
 2621SOL    HW2 8763   2.556   6.409   1.600
 2622SOL     OW 8764   2.812   3.739   6.928
 2622SOL    HW1 8765   2.906   3.770   6.944
 2622SOL    HW2 8766   2.779   3.690   7.009
 2623SOL     OW 8767   6.987   0.454   3.822
 2623SOL    HW1 8768   6.910   0.494   3.772
 2623SOL    HW2 8769   0.049   0.489   3.785
 2624SOL     OW 8770   1.080   2.075   5.428
 2624SOL    HW1 8771   1.111   1.983   5.404
 2624SOL    HW2 8772   1.120   2.102   5.516
 2625SOL     OW 8773   2.510   5.579   5.767
 2625SOL    HW1 8774   2.490   5.602   5.862
 2625SOL    HW2 8775   2.521   5.480   5.757
 2626SOL     OW 8776   6.974   6.901   6.661
 2626SOL    HW1 8777   6.997   6.999   6.659
 2626SOL    HW2 8778   6.880   6.890   6.693
 2627SOL     OW 8779   2.271   0.891   5.852
 2627SOL    HW1 8780   2.192   0.948   5.829
 2627SOL    HW2 8781   2.329   0.941   5.917
 2628SOL     OW 8782   6.919   4.898   1.251
 2628SOL    HW1 8783   6.939   4.984   1.202
 2628SOL    HW2 8784   6.838   4.910   1.308
 2629SOL     OW 8785   3.280   3.636   2.706
 2629SOL    HW1 8786   3.296   3.686   2.621
 2629SOL    HW2 8787   3.335   3.676   2.779
 2630SOL     OW 8788   3.548   0.641   4.053
 2630SOL    HW1 8789   3.547   0.741   4.048
 2630SOL    HW2 8790   3.607   0.605   3.981
 2631SOL     OW 8791   5.725   6.502   6.976
 2631SOL    HW1 8792   5.662   6.515   6.900
 2631SOL    HW2 8793   5.679   6.528   0.037
 2632SOL     OW 8794   5.833   4.647   1.528
 2632SOL    HW1 8795   5.919   4.697   1.522
 2632SOL    HW2 8796   5.784   4.673   1.611
 2633SOL     OW 8797   0.213   3.415   5.807
 2633SOL    HW1 8798   0.245   3.478   5.737
 2633SOL    HW2 8799   0.293   3.372   5.851
 2634SOL     OW 8800   1.081   1.865   5.879
 2634SOL    HW1 8801   0.994   1.902   5.911
 2634SOL    HW2 8802   1.065   1.794   5.811
 2635SOL     OW 8803   3.917   5.160   3.207
 2635SOL    HW1 8804   3.963   5.104   3.138
 2635SOL    HW2 8805   3.983   5.225   3.246
 2636SOL     OW 8806   3.361   6.499   6.127
 2636SOL    HW1 8807   3.328   6.473   6.217
 2636SOL    HW2 8808   3.284   6.517   6.066
 2637SOL     OW 8809   0.485   0.682   3.004
 2637SOL    HW1 8810   0.427   0.747   3.053
 2637SOL    HW2 8811   0.565   0.729   2.967
 2638SOL     OW 8812   0.623   6.745   4.588
 2638SOL    HW1 8813   0.575   6.801   4.656
 2638SOL    HW2 8814   0.561   6.720   4.515
 2639SOL     OW 8815   4.828   4.716   4.389
 2639SOL    HW1 8816   4.916   4.669   4.384
 2639SOL    HW2 8817   4.755   4.650   4.408
 2640SOL     OW 8818   2.545   1.330   3.477
 2640SOL    HW1 8819   2.477   1.398   3.504
 2640SOL    HW2 8820   2.518   1.289   3.390
 2641SOL     OW 8821   4.813   2.322   6.931
 2641SOL    HW1 8822   4.717   2.315   6.960
 2641SOL    HW2 8823   4.843   2.417   6.936
 2642SOL     OW 8824   0.278   0.009   2.395
 2642SOL    HW1 8825   0.203   7.012   2.332
 2642SOL    HW2 8826   0.257   6.996   2.485
 2643SOL     OW 8827   1.549   4.805   4.365
 2643SOL    HW1 8828   1.563   4.887   4.421
 2643SOL    HW2 8829   1.452   4.794   4.344
 2644SOL     OW 8830   5.742   5.775   4.139
 2644SOL    HW1 8831   5.693   5.692   4.110
 2644SOL    HW2 8832   5.726   5.848   4.073
 2645SOL     OW 8833   5.234   5.464   2.855
 2645SOL    HW1 8834   5.312   5.418   2.896
 2645SOL    HW2 8835   5.205   5.414   2.773
 2646SOL     OW 8836   0.854   2.410   6.348
 2646SOL    HW1 8837   0.772   2.452   6.387
 2646SOL    HW2 8838   0.871   2.449   6.257
 2647SOL     OW 8839   4.254   6.752   2.644
 2647SOL    HW1 8840   4.172   6.756   2.587
 2647SOL    HW2 8841   4.272   6.657   2.669
 2648SOL     OW 8842   1.503   0.477   5.814
 2648SOL    HW1 8843   1.499   0.446   5.719
 2648SOL    HW2 8844   1.595   0.460   5.851
 2649SOL     OW 8845   5.869   1.691   3.404
 2649SOL    HW1 8846   5.795   1.630   3.375
 2649SOL    HW2 8847   5.836   1.785   3.406
 2650SOL     OW 8848   2.291   0.206   4.162
 2650SOL    HW1 8849   2.243   0.242   4.082
 2650SOL    HW2 8850   2.223   0.173   4.229
 2651SOL     OW 8851   4.280   2.122   3.818
 2651SOL    HW1 8852   4.236   2.212   3.818
 2651SOL    HW2 8853   4.318   2.103   3.908
 2652SOL     OW 8854   5.073   4.031   5.477
 2652SOL    HW1 8855   5.157   4.036   5.423
 2652SOL    HW2 8856   5.051   4.122   5.512
 2653SOL     OW 8857   2.205   6.403   6.868
 2653SOL    HW1 8858   2.131   6.341   6.893
 2653SOL    HW2 8859   2.217   6.403   6.769
 2654SOL     OW 8860   0.174   1.136   0.872
 2654SOL    HW1 8861   0.225   1.185   0.943
 2654SOL    HW2 8862   0.081   1.117   0.904
 2655SOL     OW 8863   5.643   6.264   2.661
 2655SOL    HW1 8864   5.629   6.168   2.638
 2655SOL    HW2 8865   5.585   6.321   2.603
 2656SOL     OW 8866   4.597   5.923   4.127
 2656SOL    HW1 8867   4.534   5.850   4.101
 2656SOL    HW2 8868   4.554   5.982   4.195
 2657SOL     OW 8869   1.479   3.092   6.824
 2657SOL    HW1 8870   1.398   3.074   6.769
 2657SOL    HW2 8871   1.453   3.148   6.903
 2658SOL     OW 8872   3.304   4.577   0.261
 2658SOL    HW1 8873   3.342   4.573   0.169
 2658SOL    HW2 8874   3.239   4.654   0.267
 2659SOL     OW 8875   0.089   1.753   5.370
 2659SOL    HW1 8876   0.022   1.697   5.419
 2659SOL    HW2 8877   0.150   1.694   5.317
 2660SOL     OW 8878   0.677   1.321   1.196
 2660SOL    HW1 8879   0.775   1.331   1.214
 2660SOL    HW2 8880   0.660   1.231   1.155
 2661SOL     OW 8881   1.504   0.825   1.477
 2661SOL    HW1 8882   1.508   0.725   1.469
 2661SOL    HW2 8883   1.497   0.866   1.387
 2662SOL     OW 8884   2.587   1.458   1.813
 2662SOL    HW1 8885   2.590   1.518   1.733
 2662SOL    HW2 8886   2.599   1.512   1.896
 2663SOL     OW 8887   3.788   0.544   0.455
 2663SOL    HW1 8888   3.727   0.570   0.529
 2663SOL    HW2 8889   3.734   0.523   0.373
 2664SOL     OW 8890   5.109   3.078   5.476
 2664SOL    HW1 8891   5.113   3.178   5.477
 2664SOL    HW2 8892   5.119   3.046   5.382
 2665SOL     OW 8893   1.544   3.051   3.699
 2665SOL    HW1 8894   1.529   2.980   3.630
 2665SOL    HW2 8895   1.504   3.137   3.667
 2666SOL     OW 8896   1.830   4.161   2.031
 2666SOL    HW1 8897   1.899   4.120   1.972
 2666SOL    HW2 8898   1.828   4.260   2.017
 2667SOL     OW 8899   6.377   2.676   4.642
 2667SOL    HW1 8900   6.392   2.651   4.546
 2667SOL    HW2 8901   6.459   2.722   4.677
 2668SOL     OW 8902   5.641   0.916   4.066
 2668SOL    HW1 8903   5.704   0.991   4.086
 2668SOL    HW2 8904   5.670   0.870   3.982
 2669SOL     OW 8905   2.603   1.077   1.721
 2669SOL    HW1 8906   2.548   1.084   1.804
 2669SOL    HW2 8907   2.584   0.990   1.676
 2670SOL     OW 8908   0.463   0.403   0.276
 2670SOL    HW1 8909   0.475   0.501   0.263
 2670SOL    HW2 8910   0.548   0.355   0.252
 2671SOL     OW 8911   5.290   4.699   5.867
 2671SOL    HW1 8912   5.290   4.795   5.839
 2671SOL    HW2 8913   5.272   4.641   5.787
 2672SOL     OW 8914   2.459   1.404   2.609
 2672SOL    HW1 8915   2.397   1.333   2.643
 2672SOL    HW2 8916   2.516   1.366   2.536
 2673SOL     OW 8917   3.439   6.865   2.903
 2673SOL    HW1 8918   3.520   6.846   2.959
 2673SOL    HW2 8919   3.363   6.809   2.935
 2674SOL     OW 8920   6.801   5.665   3.083
 2674SOL    HW1 8921   6.795   5.670   3.183
 2674SOL    HW2 8922   6.738   5.731   3.043
 2675SOL     OW 8923   4.408   1.191   4.516
 2675SOL    HW1 8924   4.453   1.110   4.478
 2675SOL    HW2 8925   4.312   1.169   4.536
 2676SOL     OW 8926   3.979   3.334   4.128
 2676SOL    HW1 8927   4.001   3.281   4.046
 2676SOL    HW2 8928   4.026   3.422   4.123
 2677SOL     OW 8929   1.978   5.997   0.048
 2677SOL    HW1 8930   1.992   6.021   0.144
 2677SOL    HW2 8931   1.883   5.967   0.035
 2678SOL     OW 8932   3.535   1.745   2.517
 2678SOL    HW1 8933   3.576   1.708   2.434
 2678SOL    HW2 8934   3.442   1.775   2.497
 2679SOL     OW 8935   2.161   3.736   2.427
 2679SOL    HW1 8936   2.194   3.732   2.521
 2679SOL    HW2 8937   2.090   3.667   2.413
 2680SOL     OW 8938   5.697   2.232   6.826
 2680SOL    HW1 8939   5.745   2.311   6.789
 2680SOL    HW2 8940   5.644   2.259   6.907
 2681SOL     OW 8941   2.437   2.020   3.614
 2681SOL    HW1 8942   2.356   2.078   3.625
 2681SOL    HW2 8943   2.448   1.963   3.696
 2682SOL     OW 8944   3.465   3.840   1.953
 2682SOL    HW1 8945   3.396   3.912   1.964
 2682SOL    HW2 8946   3.556   3.878   1.970
 2683SOL     OW 8947   2.123   4.046   1.438
 2683SOL    HW1 8948   2.223   4.049   1.432
 2683SOL    HW2 8949   2.091   4.111   1.506
 2684SOL     OW 8950   6.061   0.767   3.543
 2684SOL    HW1 8951   6.015   0.856   3.540
 2684SOL    HW2 8952   6.139   0.771   3.606
 2685SOL     OW 8953   1.384   6.766   5.993
 2685SOL    HW1 8954   1.435   6.805   5.916
 2685SOL    HW2 8955   1.296   6.812   6.001
 2686SOL     OW 8956   1.538   1.181   5.639
 2686SOL    HW1 8957   1.528   1.279   5.627
 2686SOL    HW2 8958   1.533   1.135   5.551
 2687SOL     OW 8959   4.502   1.892   1.250
 2687SOL    HW1 8960   4.427   1.953   1.275
 2687SOL    HW2 8961   4.545   1.855   1.332
 2688SOL     OW 8962   3.821   2.643   6.623
 2688SOL    HW1 8963   3.752   2.585   6.581
 2688SOL    HW2 8964   3.804   2.739   6.600
 2689SOL     OW 8965   0.495   3.587   2.803
 2689SOL    HW1 8966   0.527   3.670   2.850
 2689SOL    HW2 8967   0.445   3.613   2.720
 2690SOL     OW 8968   5.165   1.179   4.947
 2690SOL    HW1 8969   5.258   1.206   4.973
 2690SOL    HW2 8970   5.118   1.140   5.026
 2691SOL     OW 8971   0.180   3.703   4.910
 2691SOL    HW1 8972   0.216   3.643   4.981
 2691SOL    HW2 8973   0.094   3.744   4.940
 2692SOL     OW 8974   2.762   5.406   1.729
 2692SOL    HW1 8975   2.700   5.448   1.796
 2692SOL    HW2 8976   2.766   5.463   1.647
 2693SOL     OW 8977   0.935   5.141   2.568
 2693SOL    HW1 8978   0.932   5.086   2.652
 2693SOL    HW2 8979   0.988   5.224   2.585
 2694SOL     OW 8980   2.418   0.514   2.290
 2694SOL    HW1 8981   2.398   0.611   2.305
 2694SOL    HW2 8982   2.341   0.459   2.320
 2695SOL     OW 8983   6.887   5.176   3.393
 2695SOL    HW1 8984   6.853   5.209   3.305
 2695SOL    HW2 8985   6.891   5.076   3.392
 2696SOL     OW 8986   4.082   4.953   6.556
 2696SOL    HW1 8987   4.058   4.862   6.591
 2696SOL    HW2 8988   4.180   4.969   6.568
 2697SOL     OW 8989   4.046   2.320   0.284
 2697SOL    HW1 8990   4.038   2.419   0.274
 2697SOL    HW2 8991   4.132   2.289   0.244
 2698SOL     OW 8992   1.367   5.788   6.119
 2698SOL    HW1 8993   1.420   5.784   6.204
 2698SOL    HW2 8994   1.380   5.704   6.067
 2699SOL     OW 8995   2.486   6.686   2.139
 2699SOL    HW1 8996   2.428   6.759   2.174
 2699SOL    HW2 8997   2.579   6.720   2.126
 2700SOL     OW 8998   4.519   2.104   1.572
 2700SOL    HW1 8999   4.457   2.091   1.495
 2700SOL    HW2 9000   4.475   2.070   1.656
 2701SOL     OW 9001   5.361   3.685   5.432
 2701SOL    HW1 9002   5.307   3.623   5.376
 2701SOL    HW2 9003   5.373   3.647   5.523
 2702SOL     OW 9004   2.620   1.166   4.946
 2702SOL    HW1 9005   2.690   1.212   4.890
 2702SOL    HW2 9006   2.606   1.073   4.912
 2703SOL     OW 9007   2.082   6.162   2.729
 2703SOL    HW1 9008   2.150   6.185   2.798
 2703SOL    HW2 9009   2.008   6.230   2.732
 2704SOL     OW 9010   4.424   0.535   3.495
 2704SOL    HW1 9011   4.437   0.523   3.593
 2704SOL    HW2 9012   4.457   0.625   3.467
 2705SOL     OW 9013   1.909   0.101   5.238
 2705SOL    HW1 9014   1.888   0.016   5.287
 2705SOL    HW2 9015   1.903   0.178   5.302
 2706SOL     OW 9016   6.987   4.593   3.909
 2706SOL    HW1 9017   7.014   4.511   3.960
 2706SOL    HW2 9018   0.037   4.661   3.913
 2707SOL     OW 9019   4.799   1.342   3.324
 2707SOL    HW1 9020   4.875   1.280   3.302
 2707SOL    HW2 9021   4.714   1.305   3.287
 2708SOL     OW 9022   5.016   3.328   5.725
 2708SOL    HW1 9023   5.101   3.375   5.703
 2708SOL    HW2 9024   4.995   3.338   5.822
 2709SOL     OW 9025   5.255   1.382   5.580
 2709SOL    HW1 9026   5.300   1.464   5.545
 2709SOL    HW2 9027   5.193   1.346   5.511
 2710SOL     OW 9028   1.228   2.831   4.304
 2710SOL    HW1 9029   1.281   2.909   4.273
 2710SOL    HW2 9030   1.229   2.827   4.404
 2711SOL     OW 9031   4.624   0.583   1.796
 2711SOL    HW1 9032   4.685   0.660   1.779
 2711SOL    HW2 9033   4.560   0.573   1.719
 2712SOL     OW 9034   5.899   6.009   1.504
 2712SOL    HW1 9035   5.887   5.935   1.437
 2712SOL    HW2 9036   5.890   6.097   1.459
 2713SOL     OW 9037   3.976   5.316   5.866
 2713SOL    HW1 9038   4.071   5.287   5.849
 2713SOL    HW2 9039   3.916   5.270   5.801
 2714SOL     OW 9040   3.230   4.228   6.077
 2714SOL    HW1 9041   3.298   4.213   6.006
 2714SOL    HW2 9042   3.251   4.169   6.156
 2715SOL     OW 9043   4.854   6.038   6.767
 2715SOL    HW1 9044   4.942   6.076   6.797
 2715SOL    HW2 9045   4.802   6.109   6.719
 2716SOL     OW 9046   4.425   0.514   2.718
 2716SOL    HW1 9047   4.351   0.582   2.714
 2716SOL    HW2 9048   4.502   0.552   2.770
 2717SOL     OW 9049   1.113   2.271   2.016
 2717SOL    HW1 9050   1.078   2.326   2.091
 2717SOL    HW2 9051   1.050   2.277   1.938
 2718SOL     OW 9052   6.352   1.200   6.004
 2718SOL    HW1 9053   6.356   1.277   5.940
 2718SOL    HW2 9054   6.256   1.175   6.020
 2719SOL     OW 9055   1.190   4.976   3.550
 2719SOL    HW1 9056   1.112   4.920   3.577
 2719SOL    HW2 9057   1.158   5.067   3.524
 2720SOL     OW 9058   2.114   5.765   6.969
 2720SOL    HW1 9059   2.195   5.814   6.938
 2720SOL    HW2 9060   2.042   5.832   6.993
 2721SOL     OW 9061   2.001   6.914   2.773
 2721SOL    HW1 9062   2.097   6.886   2.772
 2721SOL    HW2 9063   1.950   6.862   2.704
 2722SOL     OW 9064   3.444   4.701   6.315
 2722SOL    HW1 9065   3.438   4.703   6.414
 2722SOL    HW2 9066   3.456   4.794   6.280
 2723SOL     OW 9067   4.079   5.682   6.597
 2723SOL    HW1 9068   4.174   5.651   6.604
 2723SOL    HW2 9069   4.018   5.602   6.595
 2724SOL     OW 9070   6.626   5.716   1.737
 2724SOL    HW1 9071   6.531   5.694   1.715
 2724SOL    HW2 9072   6.650   5.804   1.698
 2725SOL     OW 9073   6.043   4.818   3.145
 2725SOL    HW1 9074   5.954   4.784   3.175
 2725SOL    HW2 9075   6.054   4.800   3.047
 2726SOL     OW 9076   6.579   1.999   2.874
 2726SOL    HW1 9077   6.551   2.047   2.791
 2726SOL    HW2 9078   6.501   1.949   2.913
 2727SOL     OW 9079   1.835   5.492   3.541
 2727SOL    HW1 9080   1.915   5.506   3.483
 2727SOL    HW2 9081   1.770   5.432   3.494
 2728SOL     OW 9082   5.019   5.666   5.572
 2728SOL    HW1 9083   4.944   5.713   5.618
 2728SOL    HW2 9084   5.027   5.573   5.609
 2729SOL     OW 9085   6.609   0.120   0.307
 2729SOL    HW1 9086   6.680   0.051   0.293
 2729SOL    HW2 9087   6.520   0.082   0.282
 2730SOL     OW 9088   1.240   5.675   2.509
 2730SOL    HW1 9089   1.168   5.742   2.531
 2730SOL    HW2 9090   1.228   5.642   2.416
 2731SOL     OW 9091   3.688   4.110   5.007
 2731SOL    HW1 9092   3.727   4.168   5.078
 2731SOL    HW2 9093   3.589   4.112   5.012
 2732SOL     OW 9094   4.818   0.423   1.882
 2732SOL    HW1 9095   4.743   0.470   1.836
 2732SOL    HW2 9096   4.824   0.329   1.849
 2733SOL     OW 9097   0.641   6.850   0.381
 2733SOL    HW1 9098   0.678   6.941   0.366
 2733SOL    HW2 9099   0.665   6.819   0.473
 2734SOL     OW 9100   3.424   6.644   2.434
 2734SOL    HW1 9101   3.468   6.716   2.380
 2734SOL    HW2 9102   3.423   6.559   2.381
 2735SOL     OW 9103   1.031   2.143   2.392
 2735SOL    HW1 9104   0.953   2.130   2.330
 2735SOL    HW2 9105   1.018   2.088   2.475
 2736SOL     OW 9106   5.833   4.067   2.412
 2736SOL    HW1 9107   5.905   4.009   2.372
 2736SOL    HW2 9108   5.873   4.124   2.483
 2737SOL     OW 9109   2.767   0.617   5.251
 2737SOL    HW1 9110   2.719   0.550   5.308
 2737SOL    HW2 9111   2.724   0.707   5.262
 2738SOL     OW 9112   5.169   5.990   1.015
 2738SOL    HW1 9113   5.126   6.048   1.084
 2738SOL    HW2 9114   5.184   5.899   1.053
 2739SOL     OW 9115   6.910   5.558   1.387
 2739SOL    HW1 9116   6.827   5.502   1.386
 2739SOL    HW2 9117   6.985   5.507   1.345
 2740SOL     OW 9118   6.866   4.941   3.977
 2740SOL    HW1 9119   6.786   4.899   4.020
 2740SOL    HW2 9120   6.844   5.035   3.951
 2741SOL     OW 9121   1.496   6.801   6.228
 2741SOL    HW1 9122   1.582   6.846   6.206
 2741SOL    HW2 9123   1.447   6.778   6.144
 2742SOL     OW 9124   2.850   5.199   3.126
 2742SOL    HW1 9125   2.903   5.121   3.093
 2742SOL    HW2 9126   2.755   5.190   3.098
 2743SOL     OW 9127   5.076   1.711   2.882
 2743SOL    HW1 9128   5.087   1.798   2.929
 2743SOL    HW2 9129   4.990   1.711   2.832
 2744SOL     OW 9130   3.331   4.080   1.994
 2744SOL    HW1 9131   3.238   4.097   1.962
 2744SOL    HW2 9132   3.331   4.065   2.092
 2745SOL     OW 9133   0.735   5.654   0.279
 2745SOL    HW1 9134   0.819   5.695   0.316
 2745SOL    HW2 9135   0.687   5.721   0.223
 2746SOL     OW 9136   1.606   1.102   3.940
 2746SOL    HW1 9137   1.557   1.015   3.929
 2746SOL    HW2 9138   1.704   1.085   3.943
 2747SOL     OW 9139   4.396   4.731   0.387
 2747SOL    HW1 9140   4.312   4.687   0.355
 2747SOL    HW2 9141   4.436   4.784   0.313
 2748SOL     OW 9142   4.013   0.631   1.077
 2748SOL    HW1 9143   3.961   0.549   1.054
 2748SOL    HW2 9144   4.109   0.617   1.054
 2749SOL     OW 9145   3.419   1.231   0.758
 2749SOL    HW1 9146   3.329   1.190   0.772
 2749SOL    HW2 9147   3.431   1.253   0.661
 2750SOL     OW 9148   2.910   5.535   3.180
 2750SOL    HW1 9149   2.974   5.524   3.104
 2750SOL    HW2 9150   2.817   5.513   3.149
 2751SOL     OW 9151   5.838   4.762   1.145
 2751SOL    HW1 9152   5.741   4.741   1.139
 2751SOL    HW2 9153   5.867   4.812   1.064
 2752SOL     OW 9154   3.999   5.599   6.926
 2752SOL    HW1 9155   4.005   5.585   6.827
 2752SOL    HW2 9156   4.065   5.669   6.954
 2753SOL     OW 9157   5.742   5.432   5.546
 2753SOL    HW1 9158   5.760   5.334   5.559
 2753SOL    HW2 9159   5.646   5.451   5.563
 2754SOL     OW 9160   1.520   0.745   5.566
 2754SOL    HW1 9161   1.521   0.749   5.666
 2754SOL    HW2 9162   1.540   0.651   5.537
 2755SOL     OW 9163   3.190   6.913   2.378
 2755SOL    HW1 9164   3.265   6.980   2.378
 2755SOL    HW2 9165   3.172   6.884   2.284
 2756SOL     OW 9166   4.522   5.896   6.881
 2756SOL    HW1 9167   4.561   5.963   6.944
 2756SOL    HW2 9168   4.568   5.808   6.893
 2757SOL     OW 9169   0.712   5.094   0.842
 2757SOL    HW1 9170   0.740   5.077   0.747
 2757SOL    HW2 9171   0.624   5.142   0.843
 2758SOL     OW 9172   5.398   0.713   4.887
 2758SOL    HW1 9173   5.435   0.798   4.849
 2758SOL    HW2 9174   5.331   0.734   4.958
 2759SOL     OW 9175   4.623   5.076   4.136
 2759SOL    HW1 9176   4.598   5.007   4.204
 2759SOL    HW2 9177   4.606   5.167   4.174
 2760SOL     OW 9178   0.879   6.441   3.731
 2760SOL    HW1 9179   0.844   6.380   3.660
 2760SOL    HW2 9180   0.972   6.469   3.707
 2761SOL     OW 9181   2.431   4.996   4.196
 2761SOL    HW1 9182   2.508   5.015   4.258
 2761SOL    HW2 9183   2.396   4.904   4.213
 2762SOL     OW 9184   2.165   1.347   5.561
 2762SOL    HW1 9185   2.108   1.286   5.506
 2762SOL    HW2 9186   2.261   1.331   5.539
 2763SOL     OW 9187   5.308   0.690   2.379
 2763SOL    HW1 9188   5.218   0.721   2.409
 2763SOL    HW2 9189   5.364   0.770   2.355
 2764SOL     OW 9190   5.910   0.503   1.515
 2764SOL    HW1 9191   5.842   0.527   1.584
 2764SOL    HW2 9192   5.926   0.582   1.455
 2765SOL     OW 9193   5.217   2.252   3.331
 2765SOL    HW1 9194   5.223   2.154   3.316
 2765SOL    HW2 9195   5.124   2.283   3.313
 2766SOL     OW 9196   5.621   0.167   2.672
 2766SOL    HW1 9197   5.637   0.200   2.765
 2766SOL    HW2 9198   5.685   0.092   2.653
 2767SOL     OW 9199   6.242   4.244   5.863
 2767SOL    HW1 9200   6.323   4.291   5.898
 2767SOL    HW2 9201   6.222   4.276   5.770
 2768SOL     OW 9202   6.111   1.298   6.791
 2768SOL    HW1 9203   6.019   1.288   6.828
 2768SOL    HW2 9204   6.156   1.209   6.788
 2769SOL     OW 9205   0.817   4.559   0.907
 2769SOL    HW1 9206   0.848   4.601   0.992
 2769SOL    HW2 9207   0.748   4.618   0.864
 2770SOL     OW 9208   5.900   5.822   2.345
 2770SOL    HW1 9209   5.916   5.919   2.364
 2770SOL    HW2 9210   5.977   5.785   2.293
 2771SOL     OW 9211   4.747   0.913   1.347
 2771SOL    HW1 9212   4.740   0.963   1.433
 2771SOL    HW2 9213   4.770   0.818   1.366
 2772SOL     OW 9214   3.742   1.897   6.751
 2772SOL    HW1 9215   3.777   1.805   6.771
 2772SOL    HW2 9216   3.650   1.890   6.712
 2773SOL     OW 9217   2.994   5.173   0.877
 2773SOL    HW1 9218   2.973   5.163   0.974
 2773SOL    HW2 9219   2.955   5.096   0.826
 2774SOL     OW 9220   5.554   2.981   2.084
 2774SOL    HW1 9221   5.495   3.011   2.010
 2774SOL    HW2 9222   5.606   3.060   2.119
 2775SOL     OW 9223   0.187   0.211   2.152
 2775SOL    HW1 9224   0.284   0.207   2.178
 2775SOL    HW2 9225   0.134   0.249   2.228
 2776SOL     OW 9226   2.886   6.390   6.739
 2776SOL    HW1 9227   2.802   6.375   6.686
 2776SOL    HW2 9228   2.871   6.462   6.806
 2777SOL     OW 9229   1.732   1.943   3.895
 2777SOL    HW1 9230   1.805   1.920   3.959
 2777SOL    HW2 9231   1.768   2.002   3.822
 2778SOL     OW 9232   2.695   2.367   4.910
 2778SOL    HW1 9233   2.794   2.376   4.896
 2778SOL    HW2 9234   2.656   2.310   4.838
 2779SOL     OW 9235   6.286   1.418   1.283
 2779SOL    HW1 9236   6.250   1.356   1.353
 2779SOL    HW2 9237   6.301   1.508   1.322
 2780SOL     OW 9238   3.534   6.058   0.260
 2780SOL    HW1 9239   3.545   6.019   0.352
 2780SOL    HW2 9240   3.437   6.062   0.238
 2781SOL     OW 9241   4.905   4.535   6.319
 2781SOL    HW1 9242   4.920   4.633   6.325
 2781SOL    HW2 9243   4.984   4.486   6.356
 2782SOL     OW 9244   3.469   1.491   5.780
 2782SOL    HW1 9245   3.528   1.563   5.815
 2782SOL    HW2 9246   3.508   1.402   5.802
 2783SOL     OW 9247   0.360   3.821   5.931
 2783SOL    HW1 9248   0.415   3.738   5.918
 2783SOL    HW2 9249   0.418   3.892   5.972
 2784SOL     OW 9250   2.452   2.494   1.872
 2784SOL    HW1 9251   2.474   2.570   1.812
 2784SOL    HW2 9252   2.355   2.498   1.897
 2785SOL     OW 9253   5.909   1.340   1.915
 2785SOL    HW1 9254   5.993   1.310   1.962
 2785SOL    HW2 9255   5.876   1.424   1.957
 2786SOL     OW 9256   3.470   0.637   0.102
 2786SOL    HW1 9257   3.556   0.686   0.111
 2786SOL    HW2 9258   3.488   0.542   0.075
 2787SOL     OW 9259   1.956   3.833   6.449
 2787SOL    HW1 9260   1.982   3.813   6.355
 2787SOL    HW2 9261   1.870   3.787   6.472
 2788SOL     OW 9262   0.003   3.807   6.831
 2788SOL    HW1 9263   0.016   3.907   6.835
 2788SOL    HW2 9264   0.053   3.764   6.906
 2789SOL     OW 9265   0.415   2.783   4.226
 2789SOL    HW1 9266   0.359   2.817   4.151
 2789SOL    HW2 9267   0.511   2.806   4.210
 2790SOL     OW 9268   3.295   6.178   4.376
 2790SOL    HW1 9269   3.336   6.106   4.321
 2790SOL    HW2 9270   3.287   6.262   4.322
 2791SOL     OW 9271   1.883   3.820   2.799
 2791SOL    HW1 9272   1.923   3.911   2.810
 2791SOL    HW2 9273   1.795   3.816   2.846
 2792SOL     OW 9274   1.174   2.627   5.095
 2792SOL    HW1 9275   1.250   2.577   5.137
 2792SOL    HW2 9276   1.193   2.725   5.096
 2793SOL     OW 9277   4.579   0.645   4.287
 2793SOL    HW1 9278   4.553   0.580   4.216
 2793SOL    HW2 9279   4.528   0.625   4.371
 2794SOL     OW 9280   1.135   1.488   1.642
 2794SOL    HW1 9281   1.152   1.587   1.642
 2794SOL    HW2 9282   1.137   1.454   1.736
 2795SOL     OW 9283   1.271   3.988   1.447
 2795SOL    HW1 9284   1.212   3.974   1.367
 2795SOL    HW2 9285   1.230   4.058   1.506
 2796SOL     OW 9286   5.101   4.097   2.277
 2796SOL    HW1 9287   5.161   4.020   2.298
 2796SOL    HW2 9288   5.013   4.084   2.322
 2797SOL     OW 9289   4.688   4.292   5.010
 2797SOL    HW1 9290   4.638   4.376   4.990
 2797SOL    HW2 9291   4.774   4.314   5.057
 2798SOL     OW 9292   1.991   3.676   3.280
 2798SOL    HW1 9293   1.952   3.729   3.205
 2798SOL    HW2 9294   1.958   3.712   3.367
 2799SOL     OW 9295   6.457   5.995   5.744
 2799SOL    HW1 9296   6.454   6.021   5.840
 2799SOL    HW2 9297   6.494   5.903   5.735
 2800SOL     OW 9298   2.865   1.617   6.573
 2800SOL    HW1 9299   2.788   1.670   6.610
 2800SOL    HW2 9300   2.918   1.579   6.649
 2801SOL     OW 9301   4.026   5.663   2.520
 2801SOL    HW1 9302   4.087   5.737   2.493
 2801SOL    HW2 9303   3.960   5.646   2.446
 2802SOL     OW 9304   6.087   0.667   6.354
 2802SOL    HW1 9305   6.012   0.607   6.327
 2802SOL    HW2 9306   6.057   0.762   6.352
 2803SOL     OW 9307   2.105   5.975   5.540
 2803SOL    HW1 9308   2.134   5.974   5.444
 2803SOL    HW2 9309   2.186   5.972   5.599
 2804SOL     OW 9310   0.210   4.707   2.252
 2804SOL    HW1 9311   0.148   4.632   2.229
 2804SOL    HW2 9312   0.297   4.693   2.204
 2805SOL     OW 9313   5.483   3.688   6.849
 2805SOL    HW1 9314   5.429   3.688   6.765
 2805SOL    HW2 9315   5.440   3.747   6.917
 2806SOL     OW 9316   6.596   5.437   2.598
 2806SOL    HW1 9317   6.557   5.508   2.540
 2806SOL    HW2 9318   6.653   5.376   2.543
 2807SOL     OW 9319   3.804   5.083   3.819
 2807SOL    HW1 9320   3.817   5.014   3.748
 2807SOL    HW2 9321   3.750   5.044   3.894
 2808SOL     OW 9322   4.184   5.996   4.438
 2808SOL    HW1 9323   4.236   6.028   4.359
 2808SOL    HW2 9324   4.211   6.047   4.519
 2809SOL     OW 9325   5.722   3.099   0.211
 2809SOL    HW1 9326   5.753   3.067   0.122
 2809SOL    HW2 9327   5.775   3.054   0.283
 2810SOL     OW 9328   1.498   0.968   6.237
 2810SOL    HW1 9329   1.467   1.052   6.191
 2810SOL    HW2 9330   1.438   0.948   6.314
 2811SOL     OW 9331   6.955   0.864   3.958
 2811SOL    HW1 9332   6.897   0.892   3.881
 2811SOL    HW2 9333   0.018   0.828   3.923
 2812SOL     OW 9334   4.662   4.284   2.539
 2812SOL    HW1 9335   4.706   4.229   2.468
 2812SOL    HW2 9336   4.585   4.334   2.499
 2813SOL     OW 9337   6.380   1.791   6.369
 2813SOL    HW1 9338   6.346   1.841   6.449
 2813SOL    HW2 9339   6.465   1.745   6.392
 2814SOL     OW 9340   5.494   4.412   4.709
 2814SOL    HW1 9341   5.535   4.501   4.727
 2814SOL    HW2 9342   5.488   4.398   4.610
 2815SOL     OW 9343   0.240   1.140   4.322
 2815SOL    HW1 9344   0.266   1.228   4.283
 2815SOL    HW2 9345   0.167   1.099   4.267
 2816SOL     OW 9346   5.311   6.130   2.918
 2816SOL    HW1 9347   5.399   6.115   2.962
 2816SOL    HW2 9348   5.315   6.099   2.823
 2817SOL     OW 9349   1.232   1.532   1.389
 2817SOL    HW1 9350   1.170   1.505   1.464
 2817SOL    HW2 9351   1.291   1.455   1.365
 2818SOL     OW 9352   0.792   3.164   6.841
 2818SOL    HW1 9353   0.837   3.250   6.816
 2818SOL    HW2 9354   0.760   3.118   6.758
 2819SOL     OW 9355   6.278   3.281   1.206
 2819SOL    HW1 9356   6.214   3.216   1.166
 2819SOL    HW2 9357   6.283   3.266   1.305
 2820SOL     OW 9358   5.156   2.419   4.023
 2820SOL    HW1 9359   5.066   2.377   4.030
 2820SOL    HW2 9360   5.166   2.489   4.094
 2821SOL     OW 9361   1.787   3.366   3.697
 2821SOL    HW1 9362   1.708   3.305   3.703
 2821SOL    HW2 9363   1.760   3.450   3.650
 2822SOL     OW 9364   3.163   1.785   0.786
 2822SOL    HW1 9365   3.260   1.779   0.761
 2822SOL    HW2 9366   3.106   1.760   0.708
 2823SOL     OW 9367   1.810   6.826   3.898
 2823SOL    HW1 9368   1.794   6.924   3.896
 2823SOL    HW2 9369   1.888   6.803   3.839
 2824SOL     OW 9370   3.097   2.237   5.644
 2824SOL    HW1 9371   3.149   2.152   5.654
 2824SOL    HW2 9372   3.079   2.254   5.548
 2825SOL     OW 9373   6.517   6.373   1.198
 2825SOL    HW1 9374   6.456   6.296   1.217
 2825SOL    HW2 9375   6.607   6.339   1.171
 2826SOL     OW 9376   4.847   3.188   4.603
 2826SOL    HW1 9377   4.874   3.152   4.514
 2826SOL    HW2 9378   4.850   3.288   4.600
 2827SOL     OW 9379   6.386   0.352   6.982
 2827SOL    HW1 9380   6.393   0.435   0.014
 2827SOL    HW2 9381   6.478   0.322   6.956
 2828SOL     OW 9382   3.917   2.101   6.829
 2828SOL    HW1 9383   3.929   2.162   6.751
 2828SOL    HW2 9384   3.851   2.029   6.805
 2829SOL     OW 9385   3.020   0.498   6.849
 2829SOL    HW1 9386   2.963   0.550   6.912
 2829SOL    HW2 9387   3.109   0.481   6.890
 2830SOL     OW 9388   3.326   3.674   6.722
 2830SOL    HW1 9389   3.252   3.613   6.696
 2830SOL    HW2 9390   3.293   3.769   6.723
 2831SOL     OW 9391   6.929   6.136   3.942
 2831SOL    HW1 9392   6.945   6.164   3.848
 2831SOL    HW2 9393   6.865   6.059   3.944
 2832SOL     OW 9394   0.423   1.245   1.947
 2832SOL    HW1 9395   0.444   1.337   1.912
 2832SOL    HW2 9396   0.331   1.218   1.919
 2833SOL     OW 9397   6.832   3.412   2.730
 2833SOL    HW1 9398   6.758   3.405   2.797
 2833SOL    HW2 9399   6.891   3.332   2.737
 2834SOL     OW 9400   4.465   0.767   5.611
 2834SOL    HW1 9401   4.469   0.684   5.556
 2834SOL    HW2 9402   4.372   0.804   5.609
 2835SOL     OW 9403   6.790   5.895   3.505
 2835SOL    HW1 9404   6.877   5.849   3.487
 2835SOL    HW2 9405   6.796   5.991   3.478
 2836SOL     OW 9406   6.393   0.364   0.639
 2836SOL    HW1 9407   6.306   0.398   0.606
 2836SOL    HW2 9408   6.403   0.384   0.736
 2837SOL     OW 9409   6.290   3.241   3.616
 2837SOL    HW1 9410   6.223   3.201   3.678
 2837SOL    HW2 9411   6.380   3.202   3.634
 2838SOL     OW 9412   1.986   4.326   4.356
 2838SOL    HW1 9413   1.987   4.361   4.262
 2838SOL    HW2 9414   1.949   4.395   4.417
 2839SOL     OW 9415   4.635   2.746   0.587
 2839SOL    HW1 9416   4.696   2.787   0.654
 2839SOL    HW2 9417   4.587   2.819   0.536
 2840SOL     OW 9418   6.263   2.840   4.972
 2840SOL    HW1 9419   6.342   2.888   4.935
 2840SOL    HW2 9420   6.179   2.876   4.931
 2841SOL     OW 9421   0.363   6.513   1.007
 2841SOL    HW1 9422   0.291   6.469   1.060
 2841SOL    HW2 9423   0.327   6.544   0.920
 2842SOL     OW 9424   5.932   3.181   2.906
 2842SOL    HW1 9425   5.886   3.183   2.817
 2842SOL    HW2 9426   5.906   3.262   2.959
 2843SOL     OW 9427   4.266   1.311   4.123
 2843SOL    HW1 9428   4.348   1.262   4.153
 2843SOL    HW2 9429   4.223   1.262   4.048
 2844SOL     OW 9430   0.951   3.750   5.802
 2844SOL    HW1 9431   0.865   3.711   5.768
 2844SOL    HW2 9432   0.989   3.811   5.732
 2845SOL     OW 9433   0.095   4.336   5.908
 2845SOL    HW1 9434   0.039   4.271   5.959
 2845SOL    HW2 9435   0.126   4.294   5.823
 2846SOL     OW 9436   5.336   1.184   6.020
 2846SOL    HW1 9437   5.245   1.209   6.051
 2846SOL    HW2 9438   5.391   1.153   6.098
 2847SOL     OW 9439   4.508   4.410   4.143
 2847SOL    HW1 9440   4.464   4.491   4.183
 2847SOL    HW2 9441   4.565   4.365   4.211
 2848SOL     OW 9442   2.170   6.614   5.697
 2848SOL    HW1 9443   2.239   6.643   5.763
 2848SOL    HW2 9444   2.207   6.540   5.640
 2849SOL     OW 9445   1.953   2.828   1.829
 2849SOL    HW1 9446   1.994   2.737   1.824
 2849SOL    HW2 9447   1.995   2.880   1.903
 2850SOL     OW 9448   3.839   1.376   0.791
 2850SOL    HW1 9449   3.811   1.472   0.781
 2850SOL    HW2 9450   3.854   1.355   0.888
 2851SOL     OW 9451   2.465   5.410   6.047
 2851SOL    HW1 9452   2.404   5.342   6.007
 2851SOL    HW2 9453   2.435   5.430   6.141
 2852SOL     OW 9454   0.261   2.841   6.444
 2852SOL    HW1 9455   0.276   2.863   6.347
 2852SOL    HW2 9456   0.303   2.753   6.465
 2853SOL     OW 9457   3.555   2.506   1.497
 2853SOL    HW1 9458   3.561   2.567   1.576
 2853SOL    HW2 9459   3.625   2.436   1.503
 2854SOL     OW 9460   0.957   1.236   3.407
 2854SOL    HW1 9461   0.892   1.228   3.483
 2854SOL    HW2 9462   0.961   1.149   3.358
 2855SOL     OW 9463   3.292   1.517   5.053
 2855SOL    HW1 9464   3.298   1.417   5.052
 2855SOL    HW2 9465   3.322   1.552   4.964
 2856SOL     OW 9466   2.180   1.988   5.541
 2856SOL    HW1 9467   2.169   2.043   5.459
 2856SOL    HW2 9468   2.263   1.932   5.532
 2857SOL     OW 9469   3.446   3.558   3.546
 2857SOL    HW1 9470   3.418   3.595   3.458
 2857SOL    HW2 9471   3.405   3.468   3.559
 2858SOL     OW 9472   5.646   2.330   3.090
 2858SOL    HW1 9473   5.568   2.392   3.088
 2858SOL    HW2 9474   5.633   2.262   3.162
 2859SOL     OW 9475   5.526   6.530   0.241
 2859SOL    HW1 9476   5.463   6.570   0.308
 2859SOL    HW2 9477   5.609   6.585   0.235
 2860SOL     OW 9478   4.244   2.459   1.102
 2860SOL    HW1 9479   4.213   2.391   1.169
 2860SOL    HW2 9480   4.175   2.531   1.093
 2861SOL     OW 9481   3.957   5.259   6.153
 2861SOL    HW1 9482   3.923   5.219   6.068
 2861SOL    HW2 9483   4.048   5.223   6.173
 2862SOL     OW 9484   6.450   6.753   3.973
 2862SOL    HW1 9485   6.367   6.714   4.014
 2862SOL    HW2 9486   6.438   6.763   3.875
 2863SOL     OW 9487   0.083   1.091   0.167
 2863SOL    HW1 9488   0.036   1.079   0.255
 2863SOL    HW2 9489   0.044   1.028   0.100
 2864SOL     OW 9490   3.587   1.819   0.431
 2864SOL    HW1 9491   3.683   1.792   0.432
 2864SOL    HW2 9492   3.535   1.758   0.372
 2865SOL     OW 9493   4.846   5.062   5.262
 2865SOL    HW1 9494   4.890   5.146   5.229
 2865SOL    HW2 9495   4.848   4.993   5.190
 2866SOL     OW 9496   0.175   6.974   6.451
 2866SOL    HW1 9497   0.085   6.957   6.492
 2866SOL    HW2 9498   0.164   0.002   6.367
 2867SOL     OW 9499   6.784   4.578   3.368
 2867SOL    HW1 9500   6.728   4.629   3.303
 2867SOL    HW2 9501   6.755   4.482   3.367
 2868SOL     OW 9502   1.782   5.357   4.616
 2868SOL    HW1 9503   1.819   5.266   4.635
 2868SOL    HW2 9504   1.806   5.419   4.690
 2869SOL     OW 9505   6.053   0.914   2.231
 2869SOL    HW1 9506   6.094   1.005   2.224
 2869SOL    HW2 9507   6.082   0.871   2.316
 2870SOL     OW 9508   4.463   2.141   2.470
 2870SOL    HW1 9509   4.541   2.151   2.409
 2870SOL    HW2 9510   4.412   2.227   2.474
 2871SOL     OW 9511   1.376   1.600   5.851
 2871SOL    HW1 9512   1.280   1.572   5.849
 2871SOL    HW2 9513   1.383   1.696   5.823
 2872SOL     OW 9514   1.628   6.636   3.921
 2872SOL    HW1 9515   1.701   6.704   3.918
 2872SOL    HW2 9516   1.651   6.565   3.987
 2873SOL     OW 9517   6.860   5.774   2.027
 2873SOL    HW1 9518   6.945   5.769   2.080
 2873SOL    HW2 9519   6.852   5.693   1.969
 2874SOL     OW 9520   5.535   1.526   2.464
 2874SOL    HW1 9521   5.626   1.502   2.432
 2874SOL    HW2 9522   5.468   1.503   2.393
 2875SOL     OW 9523   2.765   4.924   1.515
 2875SOL    HW1 9524   2.727   5.012   1.545
 2875SOL    HW2 9525   2.698   4.878   1.456
 2876SOL     OW 9526   6.686   2.279   1.873
 2876SOL    HW1 9527   6.662   2.326   1.789
 2876SOL    HW2 9528   6.777   2.307   1.903
 2877SOL     OW 9529   2.164   4.073   5.830
 2877SOL    HW1 9530   2.151   4.057   5.732
 2877SOL    HW2 9531   2.163   4.172   5.848
 2878SOL     OW 9532   3.349   5.054   0.474
 2878SOL    HW1 9533   3.288   5.106   0.534
 2878SOL    HW2 9534   3.441   5.094   0.478
 2879SOL     OW 9535   4.498   4.336   6.971
 2879SOL    HW1 9536   4.430   4.339   0.021
 2879SOL    HW2 9537   4.487   4.250   6.921
 2880SOL     OW 9538   1.572   6.903   2.161
 2880SOL    HW1 9539   1.599   7.000   2.164
 2880SOL    HW2 9540   1.480   6.895   2.123
 2881SOL     OW 9541   0.231   0.384   6.437
 2881SOL    HW1 9542   0.136   0.357   6.456
 2881SOL    HW2 9543   0.293   0.325   6.489
 2882SOL     OW 9544   6.906   3.251   3.547
 2882SOL    HW1 9545   6.870   3.290   3.462
 2882SOL    HW2 9546   6.949   3.163   3.527
 2883SOL     OW 9547   4.393   6.085   2.299
 2883SOL    HW1 9548   4.409   6.011   2.234
 2883SOL    HW2 9549   4.399   6.173   2.252
 2884SOL     OW 9550   1.606   5.818   2.764
 2884SOL    HW1 9551   1.575   5.839   2.671
 2884SOL    HW2 9552   1.669   5.889   2.795
 2885SOL     OW 9553   0.863   2.396   4.084
 2885SOL    HW1 9554   0.901   2.429   4.170
 2885SOL    HW2 9555   0.889   2.301   4.070
 2886SOL     OW 9556   2.808   2.898   6.346
 2886SOL    HW1 9557   2.902   2.896   6.382
 2886SOL    HW2 9558   2.766   2.808   6.359
 2887SOL     OW 9559   2.857   1.516   5.019
 2887SOL    HW1 9560   2.788   1.553   4.956
 2887SOL    HW2 9561   2.929   1.584   5.034
 2888SOL     OW 9562   0.001   5.225   0.231
 2888SOL    HW1 9563   0.036   5.154   0.170
 2888SOL    HW2 9564   6.938   5.259   0.194
 2889SOL     OW 9565   0.746   6.728   1.239
 2889SOL    HW1 9566   0.648   6.741   1.253
 2889SOL    HW2 9567   0.764   6.706   1.143
 2890SOL     OW 9568   2.824   0.635   0.568
 2890SOL    HW1 9569   2.895   0.571   0.538
 2890SOL    HW2 9570   2.735   0.603   0.536
 2891SOL     OW 9571   2.978   4.889   4.617
 2891SOL    HW1 9572   2.974   4.862   4.521
 2891SOL    HW2 9573   3.006   4.985   4.624
 2892SOL     OW 9574   4.378   4.233   5.357
 2892SOL    HW1 9575   4.353   4.280   5.272
 2892SOL    HW2 9576   4.383   4.134   5.340
 2893SOL     OW 9577   3.503   1.266   5.959
 2893SOL    HW1 9578   3.565   1.198   6.000
 2893SOL    HW2 9579   3.430   1.219   5.910
 2894SOL     OW 9580   3.480   2.560   1.222
 2894SOL    HW1 9581   3.504   2.481   1.166
 2894SOL    HW2 9582   3.462   2.530   1.316
 2895SOL     OW 9583   3.149   3.096   0.099
 2895SOL    HW1 9584   3.105   3.150   0.028
 2895SOL    HW2 9585   3.240   3.067   0.068
 2896SOL     OW 9586   2.209   4.933   0.970
 2896SOL    HW1 9587   2.236   5.024   1.000
 2896SOL    HW2 9588   2.124   4.906   1.016
 2897SOL     OW 9589   1.299   6.797   3.501
 2897SOL    HW1 9590   1.292   6.710   3.452
 2897SOL    HW2 9591   1.354   6.785   3.583
 2898SOL     OW 9592   2.581   4.587   2.838
 2898SOL    HW1 9593   2.634   4.638   2.771
 2898SOL    HW2 9594   2.526   4.517   2.791
 2899SOL     OW 9595   6.044   1.396   0.594
 2899SOL    HW1 9596   6.092   1.375   0.680
 2899SOL    HW2 9597   5.945   1.400   0.612
 2900SOL     OW 9598   3.313   5.718   6.588
 2900SOL    HW1 9599   3.225   5.725   6.543
 2900SOL    HW2 9600   3.369   5.798   6.565
 2901SOL     OW 9601   2.828   6.907   0.997
 2901SOL    HW1 9602   2.776   6.890   1.080
 2901SOL    HW2 9603   2.788   6.984   0.947
 2902SOL     OW 9604   5.416   5.053   0.837
 2902SOL    HW1 9605   5.349   4.979   0.828
 2902SOL    HW2 9606   5.508   5.015   0.831
 2903SOL     OW 9607   2.730   2.506   1.773
 2903SOL    HW1 9608   2.666   2.467   1.839
 2903SOL    HW2 9609   2.824   2.485   1.802
 2904SOL     OW 9610   2.597   2.498   4.139
 2904SOL    HW1 9611   2.599   2.508   4.238
 2904SOL    HW2 9612   2.527   2.558   4.101
 2905SOL     OW 9613   1.556   2.199   1.893
 2905SOL    HW1 9614   1.628   2.215   1.826
 2905SOL    HW2 9615   1.468   2.224   1.854
 2906SOL     OW 9616   5.297   5.452   2.150
 2906SOL    HW1 9617   5.219   5.444   2.087
 2906SOL    HW2 9618   5.376   5.486   2.099
 2907SOL     OW 9619   6.182   0.597   4.431
 2907SOL    HW1 9620   6.212   0.509   4.469
 2907SOL    HW2 9621   6.089   0.615   4.461
 2908SOL     OW 9622   3.837   6.259   5.305
 2908SOL    HW1 9623   3.752   6.225   5.265
 2908SOL    HW2 9624   3.905   6.186   5.308
 2909SOL     OW 9625   1.768   6.119   5.294
 2909SOL    HW1 9626   1.784   6.076   5.383
 2909SOL    HW2 9627   1.670   6.133   5.281
 2910SOL     OW 9628   4.883   6.521   5.270
 2910SOL    HW1 9629   4.950   6.533   5.198
 2910SOL    HW2 9630   4.892   6.594   5.338
 2911SOL     OW 9631   2.383   4.388   3.598
 2911SOL    HW1 9632   2.466   4.443   3.595
 2911SOL    HW2 9633   2.367   4.356   3.691
 2912SOL     OW 9634   2.767   5.343   0.787
 2912SOL    HW1 9635   2.787   5.427   0.736
 2912SOL    HW2 9636   2.837   5.275   0.768
 2913SOL     OW 9637   1.058   3.709   2.253
 2913SOL    HW1 9638   0.960   3.720   2.266
 2913SOL    HW2 9639   1.076   3.676   2.160
 2914SOL     OW 9640   5.292   4.941   5.777
 2914SOL    HW1 9641   5.291   4.950   5.677
 2914SOL    HW2 9642   5.221   5.000   5.816
 2915SOL     OW 9643   4.440   1.500   4.012
 2915SOL    HW1 9644   4.376   1.425   4.028
 2915SOL    HW2 9645   4.393   1.588   4.021
 2916SOL     OW 9646   4.473   6.152   4.529
 2916SOL    HW1 9647   4.544   6.135   4.597
 2916SOL    HW2 9648   4.384   6.154   4.574
 2917SOL     OW 9649   4.467   0.615   2.044
 2917SOL    HW1 9650   4.526   0.639   1.967
 2917SOL    HW2 9651   4.378   0.659   2.032
 2918SOL     OW 9652   0.758   3.426   4.079
 2918SOL    HW1 9653   0.767   3.330   4.054
 2918SOL    HW2 9654   0.688   3.436   4.148
 2919SOL     OW 9655   6.067   6.179   0.451
 2919SOL    HW1 9656   6.126   6.229   0.388
 2919SOL    HW2 9657   6.052   6.234   0.533
 2920SOL     OW 9658   4.488   2.134   2.732
 2920SOL    HW1 9659   4.544   2.215   2.749
 2920SOL    HW2 9660   4.468   2.128   2.634
 2921SOL     OW 9661   0.067   0.218   1.522
 2921SOL    HW1 9662   0.034   0.222   1.427
 2921SOL    HW2 9663   0.133   0.291   1.537
 2922SOL     OW 9664   4.428   6.240   5.102
 2922SOL    HW1 9665   4.468   6.295   5.176
 2922SOL    HW2 9666   4.462   6.146   5.109
 2923SOL     OW 9667   0.082   4.257   0.056
 2923SOL    HW1 9668   0.041   4.214   7.000
 2923SOL    HW2 9669   0.180   4.241   0.056
 2924SOL     OW 9670   6.426   0.271   5.934
 2924SOL    HW1 9671   6.515   0.255   5.892
 2924SOL    HW2 9672   6.403   0.369   5.926
 2925SOL     OW 9673   5.748   3.332   1.421
 2925SOL    HW1 9674   5.760   3.248   1.369
 2925SOL    HW2 9675   5.682   3.391   1.375
 2926SOL     OW 9676   6.978   1.397   3.844
 2926SOL    HW1 9677   6.994   1.486   3.886
 2926SOL    HW2 9678   6.949   1.409   3.750
 2927SOL     OW 9679   0.898   3.234   2.323
 2927SOL    HW1 9680   0.863   3.216   2.415
 2927SOL    HW2 9681   0.831   3.290   2.273
 2928SOL     OW 9682   5.474   6.177   1.183
 2928SOL    HW1 9683   5.498   6.093   1.135
 2928SOL    HW2 9684   5.511   6.256   1.134
 2929SOL     OW 9685   0.776   0.294   6.036
 2929SOL    HW1 9686   0.697   0.301   5.974
 2929SOL    HW2 9687   0.749   0.244   6.119
 2930SOL     OW 9688   3.004   6.278   4.266
 2930SOL    HW1 9689   2.917   6.302   4.309
 2930SOL    HW2 9690   3.071   6.351   4.282
 2931SOL     OW 9691   3.798   4.958   6.791
 2931SOL    HW1 9692   3.761   5.030   6.732
 2931SOL    HW2 9693   3.780   4.869   6.750
 2932SOL     OW 9694   1.260   4.641   2.200
 2932SOL    HW1 9695   1.291   4.680   2.113
 2932SOL    HW2 9696   1.340   4.614   2.254
 2933SOL     OW 9697   4.849   2.427   3.557
 2933SOL    HW1 9698   4.938   2.439   3.600
 2933SOL    HW2 9699   4.845   2.483   3.474
 2934SOL     OW 9700   2.107   1.034   0.732
 2934SOL    HW1 9701   2.121   0.943   0.771
 2934SOL    HW2 9702   2.152   1.040   0.643
 2935SOL     OW 9703   6.423   1.650   1.366
 2935SOL    HW1 9704   6.477   1.616   1.443
 2935SOL    HW2 9705   6.481   1.657   1.285
 2936SOL     OW 9706   3.371   5.733   0.611
 2936SOL    HW1 9707   3.417   5.684   0.537
 2936SOL    HW2 9708   3.330   5.817   0.575
 2937SOL     OW 9709   2.678   4.648   0.217
 2937SOL    HW1 9710   2.590   4.627   0.261
 2937SOL    HW2 9711   2.661   4.679   0.123
 2938SOL     OW 9712   5.448   4.778   5.389
 2938SOL    HW1 9713   5.509   4.783   5.468
 2938SOL    HW2 9714   5.500   4.800   5.306
 2939SOL     OW 9715   0.426   6.591   6.171
 2939SOL    HW1 9716   0.489   6.637   6.108
 2939SOL    HW2 9717   0.475   6.518   6.219
 2940SOL     OW 9718   4.018   6.900   5.372
 2940SOL    HW1 9719   4.102   6.848   5.383
 2940SOL    HW2 9720   3.995   6.908   5.275
 2941SOL     OW 9721   3.628   1.762   5.358
 2941SOL    HW1 9722   3.678   1.689   5.312
 2941SOL    HW2 9723   3.531   1.758   5.332
 2942SOL     OW 9724   3.730   6.264   4.420
 2942SOL    HW1 9725   3.732   6.363   4.401
 2942SOL    HW2 9726   3.796   6.243   4.492
 2943SOL     OW 9727   5.400   4.472   2.670
 2943SOL    HW1 9728   5.446   4.472   2.581
 2943SOL    HW2 9729   5.313   4.423   2.663
 2944SOL     OW 9730   4.583   6.319   6.917
 2944SOL    HW1 9731   4.530   6.370   6.985
 2944SOL    HW2 9732   4.521   6.284   6.847
 2945SOL     OW 9733   3.074   3.972   3.483
 2945SOL    HW1 9734   3.058   4.070   3.472
 2945SOL    HW2 9735   3.075   3.950   3.581
 2946SOL     OW 9736   0.293   6.058   6.084
 2946SOL    HW1 9737   0.389   6.046   6.061
 2946SOL    HW2 9738   0.251   6.124   6.022
 2947SOL     OW 9739   0.493   5.286   0.331
 2947SOL    HW1 9740   0.469   5.221   0.404
 2947SOL    HW2 9741   0.409   5.327   0.294
 2948SOL     OW 9742   5.907   4.189   5.377
 2948SOL    HW1 9743   5.864   4.274   5.409
 2948SOL    HW2 9744   5.839   4.115   5.379
 2949SOL     OW 9745   0.794   6.030   1.038
 2949SOL    HW1 9746   0.864   5.993   0.976
 2949SOL    HW2 9747   0.703   6.011   1.001
 2950SOL     OW 9748   5.070   3.510   4.794
 2950SOL    HW1 9749   5.131   3.574   4.749
 2950SOL    HW2 9750   5.042   3.547   4.883
 2951SOL     OW 9751   5.906   0.640   1.056
 2951SOL    HW1 9752   5.966   0.712   1.020
 2951SOL    HW2 9753   5.817   0.680   1.079
 2952SOL     OW 9754   1.048   3.799   1.758
 2952SOL    HW1 9755   0.981   3.782   1.831
 2952SOL    HW2 9756   1.126   3.848   1.795
 2953SOL     OW 9757   5.601   1.209   2.394
 2953SOL    HW1 9758   5.688   1.244   2.359
 2953SOL    HW2 9759   5.601   1.213   2.494
 2954SOL     OW 9760   6.052   6.237   1.117
 2954SOL    HW1 9761   6.026   6.169   1.186
 2954SOL    HW2 9762   6.145   6.218   1.085
 2955SOL     OW 9763   6.686   2.485   0.418
 2955SOL    HW1 9764   6.698   2.475   0.517
 2955SOL    HW2 9765   6.688   2.395   0.375
 2956SOL     OW 9766   6.585   5.155   3.009
 2956SOL    HW1 9767   6.517   5.103   3.060
 2956SOL    HW2 9768   6.539   5.222   2.950
 2957SOL     OW 9769   0.940   5.118   1.643
 2957SOL    HW1 9770   0.870   5.116   1.572
 2957SOL    HW2 9771   0.901   5.150   1.729
 2958SOL     OW 9772   3.551   5.177   6.827
 2958SOL    HW1 9773   3.606   5.160   6.909
 2958SOL    HW2 9774   3.609   5.173   6.746
 2959SOL     OW 9775   4.173   5.656   0.319
 2959SOL    HW1 9776   4.169   5.751   0.287
 2959SOL    HW2 9777   4.215   5.599   0.249
 2960SOL     OW 9778   2.699   1.686   0.155
 2960SOL    HW1 9779   2.635   1.676   0.079
 2960SOL    HW2 9780   2.649   1.697   0.240
 2961SOL     OW 9781   6.175   1.881   4.422
 2961SOL    HW1 9782   6.167   1.981   4.418
 2961SOL    HW2 9783   6.139   1.843   4.336
 2962SOL     OW 9784   4.098   0.542   2.330
 2962SOL    HW1 9785   4.016   0.558   2.385
 2962SOL    HW2 9786   4.128   0.447   2.343
 2963SOL     OW 9787   2.102   3.572   5.028
 2963SOL    HW1 9788   2.126   3.659   5.072
 2963SOL    HW2 9789   2.130   3.575   4.932
 2964SOL     OW 9790   2.877   5.923   0.146
 2964SOL    HW1 9791   2.877   6.013   0.103
 2964SOL    HW2 9792   2.919   5.856   0.085
 2965SOL     OW 9793   0.284   2.472   5.870
 2965SOL    HW1 9794   0.186   2.490   5.865
 2965SOL    HW2 9795   0.333   2.536   5.811
 2966SOL     OW 9796   4.962   4.539   3.395
 2966SOL    HW1 9797   4.947   4.636   3.375
 2966SOL    HW2 9798   4.910   4.513   3.476
 2967SOL     OW 9799   5.815   2.375   3.517
 2967SOL    HW1 9800   5.745   2.372   3.589
 2967SOL    HW2 9801   5.841   2.469   3.499
 2968SOL     OW 9802   6.508   3.612   3.536
 2968SOL    HW1 9803   6.468   3.702   3.551
 2968SOL    HW2 9804   6.602   3.611   3.567
 2969SOL     OW 9805   4.179   1.067   4.351
 2969SOL    HW1 9806   4.205   0.973   4.375
 2969SOL    HW2 9807   4.158   1.118   4.434
 2970SOL     OW 9808   1.135   4.570   6.229
 2970SOL    HW1 9809   1.136   4.670   6.233
 2970SOL    HW2 9810   1.204   4.539   6.164
 2971SOL     OW 9811   5.138   3.537   2.682
 2971SOL    HW1 9812   5.044   3.532   2.646
 2971SOL    HW2 9813   5.140   3.600   2.759
 2972SOL     OW 9814   1.051   4.486   5.819
 2972SOL    HW1 9815   1.135   4.509   5.771
 2972SOL    HW2 9816   0.983   4.453   5.754
 2973SOL     OW 9817   5.719   0.099   4.479
 2973SOL    HW1 9818   5.787   0.173   4.481
 2973SOL    HW2 9819   5.686   0.087   4.386
 2974SOL     OW 9820   7.020   3.908   1.886
 2974SOL    HW1 9821   0.002   4.007   1.868
 2974SOL    HW2 9822   6.942   3.870   1.836
 2975SOL     OW 9823   0.323   1.590   4.050
 2975SOL    HW1 9824   0.420   1.604   4.068
 2975SOL    HW2 9825   0.269   1.623   4.127
 2976SOL     OW 9826   2.419   6.287   1.840
 2976SOL    HW1 9827   2.445   6.353   1.910
 2976SOL    HW2 9828   2.411   6.333   1.752
 2977SOL     OW 9829   3.251   6.451   4.273
 2977SOL    HW1 9830   3.348   6.473   4.262
 2977SOL    HW2 9831   3.196   6.533   4.254
 2978SOL     OW 9832   3.761   0.077   6.464
 2978SOL    HW1 9833   3.708   0.154   6.429
 2978SOL    HW2 9834   3.741   0.064   6.561
 2979SOL     OW 9835   3.610   1.304   3.402
 2979SOL    HW1 9836   3.688   1.265   3.353
 2979SOL    HW2 9837   3.536   1.323   3.337
 2980SOL     OW 9838   0.016   5.854   4.131
 2980SOL    HW1 9839   0.042   5.906   4.050
 2980SOL    HW2 9840   0.097   5.836   4.187
 2981SOL     OW 9841   1.643   1.669   5.454
 2981SOL    HW1 9842   1.632   1.625   5.365
 2981SOL    HW2 9843   1.585   1.623   5.521
 2982SOL     OW 9844   5.031   6.270   2.524
 2982SOL    HW1 9845   5.107   6.326   2.557
 2982SOL    HW2 9846   5.059   6.174   2.522
 2983SOL     OW 9847   6.629   0.029   2.924
 2983SOL    HW1 9848   6.694   0.053   2.852
 2983SOL    HW2 9849   6.624   6.954   2.934
 2984SOL     OW 9850   5.598   4.729   1.788
 2984SOL    HW1 9851   5.660   4.753   1.862
 2984SOL    HW2 9852   5.558   4.639   1.805
 2985SOL     OW 9853   6.844   2.147   3.021
 2985SOL    HW1 9854   6.835   2.052   3.048
 2985SOL    HW2 9855   6.755   2.193   3.030
 2986SOL     OW 9856   2.219   3.769   5.223
 2986SOL    HW1 9857   2.263   3.853   5.191
 2986SOL    HW2 9858   2.273   3.730   5.298
 2987SOL     OW 9859   4.686   1.608   4.911
 2987SOL    HW1 9860   4.772   1.646   4.877
 2987SOL    HW2 9861   4.670   1.640   5.005
 2988SOL     OW 9862   0.658   6.535   2.028
 2988SOL    HW1 9863   0.585   6.509   1.966
 2988SOL    HW2 9864   0.713   6.454   2.050
 2989SOL     OW 9865   6.195   5.959   0.538
 2989SOL    HW1 9866   6.278   6.004   0.571
 2989SOL    HW2 9867   6.139   6.024   0.488
 2990SOL     OW 9868   3.239   1.179   1.599
 2990SOL    HW1 9869   3.163   1.148   1.542
 2990SOL    HW2 9870   3.237   1.279   1.604
 2991SOL     OW 9871   6.164   4.651   0.234
 2991SOL    HW1 9872   6.118   4.580   0.182
 2991SOL    HW2 9873   6.250   4.615   0.271
 2992SOL     OW 9874   4.380   4.495   6.760
 2992SOL    HW1 9875   4.452   4.464   6.822
 2992SOL    HW2 9876   4.294   4.450   6.784
 2993SOL     OW 9877   1.805   4.976   0.299
 2993SOL    HW1 9878   1.859   4.903   0.339
 2993SOL    HW2 9879   1.862   5.058   0.287
 2994SOL     OW 9880   4.102   6.338   6.883
 2994SOL    HW1 9881   4.068   6.346   6.977
 2994SOL    HW2 9882   4.031   6.296   6.825
 2995SOL     OW 9883   2.635   1.134   5.552
 2995SOL    HW1 9884   2.626   1.039   5.581
 2995SOL    HW2 9885   2.721   1.145   5.502
 2996SOL     OW 9886   4.296   5.770   5.707
 2996SOL    HW1 9887   4.197   5.777   5.705
 2996SOL    HW2 9888   4.330   5.755   5.614
 2997SOL     OW 9889   4.538   6.223   0.559
 2997SOL    HW1 9890   4.536   6.236   0.460
 2997SOL    HW2 9891   4.540   6.312   0.604
 2998SOL     OW 9892   6.067   5.312   5.224
 2998SOL    HW1 9893   6.064   5.218   5.191
 2998SOL    HW2 9894   6.124   5.367   5.164
 2999SOL     OW 9895   2.681   0.213   2.260
 2999SOL    HW1 9896   2.766   0.180   2.301
 2999SOL    HW2 9897   2.682   0.194   2.162
 3000SOL     OW 9898   1.178   1.870   4.577
 3000SOL    HW1 9899   1.196   1.968   4.576
 3000SOL    HW2 9900   1.254   1.821   4.535
 3001SOL     OW 9901   4.889   6.459   5.552
 3001SOL    HW1 9902   4.941   6.484   5.470
 3001SOL    HW2 9903   4.923   6.372   5.587
 3002SOL     OW 9904   3.163   0.839   5.801
 3002SOL    HW1 9905   3.091   0.899   5.835
 3002SOL    HW2 9906   3.219   0.806   5.877
 3003SOL     OW 9907   2.336   7.009   5.978
 3003SOL    HW1 9908   2.365   7.023   6.072
 3003SOL    HW2 9909   2.295   6.918   5.969
 3004SOL     OW 9910   6.624   3.075   5.439
 3004SOL    HW1 9911   6.607   3.116   5.529
 3004SOL    HW2 9912   6.639   3.147   5.371
 3005SOL     OW 9913   4.473   2.487   0.979
 3005SOL    HW1 9914   4.551   2.433   1.010
 3005SOL    HW2 9915   4.396   2.474   1.041
 3006SOL     OW 9916   4.668   0.184   0.929
 3006SOL    HW1 9917   4.687   0.161   0.833
 3006SOL    HW2 9918   4.607   0.115   0.968
 3007SOL     OW 9919   6.158   5.296   1.782
 3007SOL    HW1 9920   6.227   5.361   1.751
 3007SOL    HW2 9921   6.159   5.292   1.882
 3008SOL     OW 9922   4.970   6.116   5.217
 3008SOL    HW1 9923   4.970   6.053   5.139
 3008SOL    HW2 9924   5.035   6.083   5.286
 3009SOL     OW 9925   1.397   0.667   2.508
 3009SOL    HW1 9926   1.327   0.628   2.569
 3009SOL    HW2 9927   1.423   0.598   2.440
 3010SOL     OW 9928   2.645   6.448   2.754
 3010SOL    HW1 9929   2.578   6.427   2.684
 3010SOL    HW2 9930   2.725   6.491   2.712
 3011SOL     OW 9931   5.612   0.503   0.159
 3011SOL    HW1 9932   5.647   0.573   0.221
 3011SOL    HW2 9933   5.684   0.435   0.143
 3012SOL     OW 9934   6.878   4.378   1.748
 3012SOL    HW1 9935   6.781   4.355   1.739
 3012SOL    HW2 9936   6.914   4.404   1.659
 3013SOL     OW 9937   6.343   3.702   2.203
 3013SOL    HW1 9938   6.356   3.772   2.133
 3013SOL    HW2 9939   6.305   3.620   2.162
 3014SOL     OW 9940   5.084   0.413   5.070
 3014SOL    HW1 9941   4.999   0.415   5.017
 3014SOL    HW2 9942   5.063   0.390   5.165
 3015SOL     OW 9943   2.926   1.389   0.092
 3015SOL    HW1 9944   2.973   1.422   0.010
 3015SOL    HW2 9945   2.966   1.302   0.121
 3016SOL     OW 9946   3.880   6.157   3.312
 3016SOL    HW1 9947   3.877   6.076   3.371
 3016SOL    HW2 9948   3.917   6.132   3.223
 3017SOL     OW 9949   6.905   5.856   1.440
 3017SOL    HW1 9950   6.817   5.900   1.422
 3017SOL    HW2 9951   6.892   5.758   1.454
 3018SOL     OW 9952   3.909   0.090   6.059
 3018SOL    HW1 9953   3.935   0.187   6.063
 3018SOL    HW2 9954   3.967   0.038   6.122
 3019SOL     OW 9955   5.262   6.669   2.128
 3019SOL    HW1 9956   5.180   6.722   2.106
 3019SOL    HW2 9957   5.321   6.662   2.048
 3020SOL     OW 9958   2.164   0.911   1.760
 3020SOL    HW1 9959   2.090   0.907   1.826
 3020SOL    HW2 9960   2.185   0.819   1.727
 3021SOL     OW 9961   4.286   0.814   5.932
 3021SOL    HW1 9962   4.237   0.897   5.905
 3021SOL    HW2 9963   4.382   0.822   5.904
 3022SOL     OW 9964   6.476   0.191   2.215
 3022SOL    HW1 9965   6.483   0.095   2.189
 3022SOL    HW2 9966   6.564   0.236   2.199
 3023SOL     OW 9967   5.762   6.965   1.614
 3023SOL    HW1 9968   5.663   6.979   1.607
 3023SOL    HW2 9969   5.808   0.027   1.593
 3024SOL     OW 9970   3.224   0.045   6.352
 3024SOL    HW1 9971   3.228   0.126   6.294
 3024SOL    HW2 9972   3.154   0.058   6.423
 3025SOL     OW 9973   2.195   2.454   2.040
 3025SOL    HW1 9974   2.104   2.440   2.078
 3025SOL    HW2 9975   2.230   2.543   2.067
 3026SOL     OW 9976   2.355   5.410   0.215
 3026SOL    HW1 9977   2.271   5.379   0.170
 3026SOL    HW2 9978   2.434   5.369   0.169
 3027SOL     OW 9979   1.436   1.276   3.799
 3027SOL    HW1 9980   1.436   1.376   3.798
 3027SOL    HW2 9981   1.465   1.244   3.889
 3028SOL     OW 9982   1.180   0.735   4.338
 3028SOL    HW1 9983   1.103   0.730   4.402
 3028SOL    HW2 9984   1.199   0.830   4.316
 3029SOL     OW 9985   5.398   5.309   6.124
 3029SOL    HW1 9986   5.425   5.293   6.029
 3029SOL    HW2 9987   5.459   5.258   6.185
 3030SOL     OW 9988   1.028   1.656   5.719
 3030SOL    HW1 9989   1.036   1.560   5.747
 3030SOL    HW2 9990   1.091   1.673   5.643
 3031SOL     OW 9991   0.485   5.173   6.553
 3031SOL    HW1 9992   0.506   5.256   6.501
 3031SOL    HW2 9993   0.475   5.096   6.490
 3032SOL     OW 9994   3.717   6.897   5.562
 3032SOL    HW1 9995   3.790   6.965   5.556
 3032SOL    HW2 9996   3.653   6.909   5.486
 3033SOL     OW 9997   5.574   4.892   5.851
 3033SOL    HW1 9998   5.476   4.898   5.833
 3033SOL    HW2 9999   5.619   4.841   5.778
 3034SOL     OW10000   2.821   6.649   4.306
 3034SOL    HW110001   2.779   6.713   4.242
 3034SOL    HW210002   2.906   6.689   4.341
 3035SOL     OW10003   6.705   6.922   6.766
 3035SOL    HW110004   6.721   6.844   6.826
 3035SOL    HW210005   6.626   6.974   6.799
 3036SOL     OW10006   0.755   4.901   5.499
 3036SOL    HW110007   0.790   4.906   5.593
 3036SOL    HW210008   0.657   4.882   5.501
 3037SOL     OW10009   6.309   7.006   5.660
 3037SOL    HW110010   6.340   6.936   5.596
 3037SOL    HW210011   6.240   6.968   5.721
 3038SOL     OW10012   5.883   6.649   5.678
 3038SOL    HW110013   5.855   6.553   5.669
 3038SOL    HW210014   5.983   6.653   5.686
 3039SOL     OW10015   6.950   4.838   0.264
 3039SOL    HW110016   6.949   4.799   0.172
 3039SOL    HW210017   6.860   4.876   0.285
 3040SOL     OW10018   2.390   1.755   0.052
 3040SOL    HW110019   2.311   1.816   0.062
 3040SOL    HW210020   2.411   1.743   6.979
 3041SOL     OW10021   1.447   2.463   5.995
 3041SOL    HW110022   1.539   2.501   5.995
 3041SOL    HW210023   1.409   2.466   5.902
 3042SOL     OW10024   5.473   6.819   1.880
 3042SOL    HW110025   5.438   6.902   1.837
 3042SOL    HW210026   5.469   6.743   1.816
 3043SOL     OW10027   6.560   5.042   6.825
 3043SOL    HW110028   6.492   5.114   6.842
 3043SOL    HW210029   6.629   5.044   6.898
 3044SOL     OW10030   2.721   3.497   5.793
 3044SOL    HW110031   2.752   3.516   5.700
 3044SOL    HW210032   2.657   3.568   5.822
 3045SOL     OW10033   5.432   1.875   4.397
 3045SOL    HW110034   5.411   1.966   4.434
 3045SOL    HW210035   5.411   1.806   4.467
 3046SOL     OW10036   1.917   2.198   6.250
 3046SOL    HW110037   1.895   2.206   6.347
 3046SOL    HW210038   2.004   2.245   6.232
 3047SOL     OW10039   6.950   4.550   1.526
 3047SOL    HW110040   7.014   4.627   1.532
 3047SOL    HW210041   6.860   4.585   1.500
 3048SOL     OW10042   2.998   2.641   1.698
 3048SOL    HW110043   2.967   2.567   1.757
 3048SOL    HW210044   2.946   2.724   1.718
 3049SOL     OW10045   0.975   0.396   1.499
 3049SOL    HW110046   0.882   0.431   1.498
 3049SOL    HW210047   1.038   0.468   1.470
 3050SOL     OW10048   2.360   6.996   3.898
 3050SOL    HW110049   2.431   6.936   3.861
 3050SOL    HW210050   2.327   0.033   3.825
 3051SOL     OW10051   2.785   4.245   5.650
 3051SOL    HW110052   2.732   4.286   5.725
 3051SOL    HW210053   2.875   4.217   5.685
 3052SOL     OW10054   5.062   6.660   2.912
 3052SOL    HW110055   5.081   6.578   2.859
 3052SOL    HW210056   4.964   6.665   2.933
 3053SOL     OW10057   4.866   6.799   1.814
 3053SOL    HW110058   4.884   6.750   1.729
 3053SOL    HW210059   4.948   6.803   1.870
 3054SOL     OW10060   1.985   4.279   5.462
 3054SOL    HW110061   2.068   4.283   5.518
 3054SOL    HW210062   2.008   4.238   5.373
 3055SOL     OW10063   5.851   6.470   2.798
 3055SOL    HW110064   5.778   6.421   2.750
 3055SOL    HW210065   5.938   6.425   2.782
 3056SOL     OW10066   6.187   0.698   1.776
 3056SOL    HW110067   6.218   0.729   1.866
 3056SOL    HW210068   6.088   0.708   1.769
 3057SOL     OW10069   6.501   6.154   2.588
 3057SOL    HW110070   6.448   6.152   2.673
 3057SOL    HW210071   6.543   6.244   2.577
 3058SOL     OW10072   6.360   5.134   1.512
 3058SOL    HW110073   6.263   5.130   1.536
 3058SOL    HW210074   6.382   5.057   1.452
 3059SOL     OW10075   2.028   2.704   5.187
 3059SOL    HW110076   1.977   2.737   5.108
 3059SOL    HW210077   2.103   2.767   5.207
 3060SOL     OW10078   0.295   6.374   0.383
 3060SOL    HW110079   0.230   6.390   0.456
 3060SOL    HW210080   0.311   6.460   0.333
 3061SOL     OW10081   0.487   0.613   5.801
 3061SOL    HW110082   0.391   0.592   5.818
 3061SOL    HW210083   0.521   0.675   5.872
 3062SOL     OW10084   3.207   5.492   5.995
 3062SOL    HW110085   3.285   5.535   6.040
 3062SOL    HW210086   3.180   5.410   6.045
 3063SOL     OW10087   2.337   5.624   0.640
 3063SOL    HW110088   2.435   5.625   0.659
 3063SOL    HW210089   2.310   5.710   0.599
 3064SOL     OW10090   6.983   4.735   3.560
 3064SOL    HW110091   6.897   4.687   3.546
 3064SOL    HW210092   0.004   4.750   3.473
 3065SOL     OW10093   2.818   1.038   1.231
 3065SOL    HW110094   2.892   1.016   1.167
 3065SOL    HW210095   2.762   1.111   1.193
 3066SOL     OW10096   5.299   5.892   0.573
 3066SOL    HW110097   5.335   5.980   0.540
 3066SOL    HW210098   5.211   5.874   0.528
 3067SOL     OW10099   4.330   6.650   3.100
 3067SOL    HW110100   4.368   6.716   3.035
 3067SOL    HW210101   4.257   6.598   3.056
 3068SOL     OW10102   5.724   4.606   0.613
 3068SOL    HW110103   5.729   4.530   0.550
 3068SOL    HW210104   5.628   4.629   0.631
 3069SOL     OW10105   0.736   5.202   3.835
 3069SOL    HW110106   0.683   5.177   3.916
 3069SOL    HW210107   0.794   5.126   3.808
 3070SOL     OW10108   3.917   1.571   4.551
 3070SOL    HW110109   3.861   1.650   4.525
 3070SOL    HW210110   3.982   1.550   4.478
 3071SOL     OW10111   5.296   7.013   3.934
 3071SOL    HW110112   5.250   0.034   4.011
 3071SOL    HW210113   5.258   6.922   3.921
 3072SOL     OW10114   0.854   0.541   1.839
 3072SOL    HW110115   0.918   0.517   1.765
 3072SOL    HW210116   0.769   0.488   1.828
 3073SOL     OW10117   1.671   2.468   4.548
 3073SOL    HW110118   1.721   2.442   4.466
 3073SOL    HW210119   1.720   2.435   4.629
 3074SOL     OW10120   4.665   3.406   5.934
 3074SOL    HW110121   4.647   3.308   5.929
 3074SOL    HW210122   4.743   3.422   5.994
 3075SOL     OW10123   6.993   6.075   0.766
 3075SOL    HW110124   6.997   6.146   0.697
 3075SOL    HW210125   0.049   6.080   0.825
 3076SOL     OW10126   0.588   0.691   5.047
 3076SOL    HW110127   0.654   0.749   5.096
 3076SOL    HW210128   0.631   0.655   4.964
 3077SOL     OW10129   5.255   4.200   4.027
 3077SOL    HW110130   5.258   4.184   4.125
 3077SOL    HW210131   5.160   4.204   3.997
 3078SOL     OW10132   2.218   2.722   0.149
 3078SOL    HW110133   2.127   2.688   0.175
 3078SOL    HW210134   2.208   2.801   0.089
 3079SOL     OW10135   5.716   2.264   6.518
 3079SOL    HW110136   5.646   2.285   6.586
 3079SOL    HW210137   5.681   2.197   6.453
 3080SOL     OW10138   6.011   6.511   1.384
 3080SOL    HW110139   5.943   6.582   1.397
 3080SOL    HW210140   6.074   6.537   1.310
 3081SOL     OW10141   0.234   4.588   5.842
 3081SOL    HW110142   0.184   4.508   5.876
 3081SOL    HW210143   0.169   4.662   5.824
 3082SOL     OW10144   2.074   6.978   2.212
 3082SOL    HW110145   1.981   6.945   2.200
 3082SOL    HW210146   2.087   0.037   2.157
 3083SOL     OW10147   3.285   0.414   2.177
 3083SOL    HW110148   3.283   0.504   2.222
 3083SOL    HW210149   3.367   0.409   2.119
 3084SOL     OW10150   4.447   6.458   3.788
 3084SOL    HW110151   4.484   6.426   3.701
 3084SOL    HW210152   4.401   6.545   3.775
 3085SOL     OW10153   1.183   5.512   1.941
 3085SOL    HW110154   1.252   5.577   1.907
 3085SOL    HW210155   1.092   5.554   1.935
 3086SOL     OW10156   5.855   1.950   4.091
 3086SOL    HW110157   5.841   2.049   4.094
 3086SOL    HW210158   5.795   1.906   4.158
 3087SOL     OW10159   5.652   3.569   2.061
 3087SOL    HW110160   5.554   3.553   2.053
 3087SOL    HW210161   5.668   3.652   2.116
 3088SOL     OW10162   2.934   3.756   6.498
 3088SOL    HW110163   2.986   3.673   6.479
 3088SOL    HW210164   2.837   3.733   6.505
 3089SOL     OW10165   3.037   2.148   1.022
 3089SOL    HW110166   3.135   2.156   1.037
 3089SOL    HW210167   2.989   2.213   1.081
 3090SOL     OW10168   6.958   2.003   0.931
 3090SOL    HW110169   6.951   1.958   0.842
 3090SOL    HW210170   0.021   2.050   0.939
 3091SOL     OW10171   2.507   6.834   0.610
 3091SOL    HW110172   2.555   6.747   0.607
 3091SOL    HW210173   2.492   6.861   0.705
 3092SOL     OW10174   4.212   6.107   0.516
 3092SOL    HW110175   4.288   6.095   0.580
 3092SOL    HW210176   4.236   6.176   0.448
 3093SOL     OW10177   4.979   6.107   3.827
 3093SOL    HW110178   4.898   6.121   3.884
 3093SOL    HW210179   5.056   6.157   3.865
 3094SOL     OW10180   3.092   5.427   5.756
 3094SOL    HW110181   3.102   5.505   5.695
 3094SOL    HW210182   3.153   5.438   5.835
 3095SOL     OW10183   1.950   5.006   5.020
 3095SOL    HW110184   1.907   4.954   4.947
 3095SOL    HW210185   2.047   4.983   5.025
 3096SOL     OW10186   0.231   0.605   5.511
 3096SOL    HW110187   0.199   0.594   5.605
 3096SOL    HW210188   0.245   0.702   5.492
 3097SOL     OW10189   1.509   2.301   0.197
 3097SOL    HW110190   1.511   2.382   0.255
 3097SOL    HW210191   1.574   2.313   0.121
 3098SOL     OW10192   3.974   2.203   0.526
 3098SOL    HW110193   4.022   2.255   0.455
 3098SOL    HW210194   3.919   2.265   0.582
 3099SOL     OW10195   1.051   5.866   5.227
 3099SOL    HW110196   1.128   5.884   5.166
 3099SOL    HW210197   0.995   5.949   5.237
 3100SOL     OW10198   5.859   6.321   6.633
 3100SOL    HW110199   5.914   6.378   6.694
 3100SOL    HW210200   5.878   6.225   6.652
 3101SOL     OW10201   4.264   0.152   1.012
 3101SOL    HW110202   4.297   0.074   0.959
 3101SOL    HW210203   4.188   0.196   0.964
 3102SOL     OW10204   0.940   6.033   0.525
 3102SOL    HW110205   1.020   6.048   0.583
 3102SOL    HW210206   0.875   6.108   0.538
 3103SOL     OW10207   4.120   3.737   1.961
 3103SOL    HW110208   4.127   3.812   1.895
 3103SOL    HW210209   4.026   3.730   1.995
 3104SOL     OW10210   6.281   5.817   3.880
 3104SOL    HW110211   6.322   5.737   3.925
 3104SOL    HW210212   6.249   5.881   3.949
 3105SOL     OW10213   5.889   5.550   3.394
 3105SOL    HW110214   5.988   5.553   3.382
 3105SOL    HW210215   5.846   5.618   3.334
 3106SOL     OW10216   6.889   3.311   4.796
 3106SOL    HW110217   6.943   3.241   4.748
 3106SOL    HW210218   6.937   3.339   4.879
 3107SOL     OW10219   2.960   6.417   3.961
 3107SOL    HW110220   2.925   6.464   3.879
 3107SOL    HW210221   3.028   6.475   4.006
 3108SOL     OW10222   3.141   0.891   3.226
 3108SOL    HW110223   3.156   0.821   3.156
 3108SOL    HW210224   3.204   0.967   3.211
 3109SOL     OW10225   4.897   5.652   3.071
 3109SOL    HW110226   4.899   5.742   3.113
 3109SOL    HW210227   4.849   5.588   3.130
 3110SOL     OW10228   1.286   3.100   1.776
 3110SOL    HW110229   1.370   3.050   1.798
 3110SOL    HW210230   1.293   3.138   1.684
 3111SOL     OW10231   6.646   4.845   2.666
 3111SOL    HW110232   6.565   4.888   2.627
 3111SOL    HW210233   6.687   4.905   2.734
 3112SOL     OW10234   2.618   4.029   6.485
 3112SOL    HW110235   2.560   3.950   6.466
 3112SOL    HW210236   2.693   4.033   6.419
 3113SOL     OW10237   4.065   6.495   4.327
 3113SOL    HW110238   4.072   6.409   4.278
 3113SOL    HW210239   4.106   6.568   4.272
 3114SOL     OW10240   5.550   5.773   0.877
 3114SOL    HW110241   5.484   5.731   0.815
 3114SOL    HW210242   5.626   5.810   0.824
 3115SOL     OW10243   2.574   3.347   1.707
 3115SOL    HW110244   2.649   3.371   1.769
 3115SOL    HW210245   2.487   3.358   1.753
 3116SOL     OW10246   0.378   1.680   0.047
 3116SOL    HW110247   0.330   1.751   7.019
 3116SOL    HW210248   0.332   1.592   0.033
 3117SOL     OW10249   4.000   3.661   5.548
 3117SOL    HW110250   3.984   3.759   5.537
 3117SOL    HW210251   4.012   3.619   5.458
 3118SOL     OW10252   5.798   5.387   6.781
 3118SOL    HW110253   5.741   5.375   6.862
 3118SOL    HW210254   5.743   5.373   6.699
 3119SOL     OW10255   2.369   4.770   6.476
 3119SOL    HW110256   2.401   4.675   6.473
 3119SOL    HW210257   2.379   4.806   6.568
 3120SOL     OW10258   2.239   5.877   6.086
 3120SOL    HW110259   2.179   5.806   6.048
 3120SOL    HW210260   2.211   5.898   6.180
 3121SOL     OW10261   0.405   6.075   3.253
 3121SOL    HW110262   0.382   6.071   3.351
 3121SOL    HW210263   0.373   5.991   3.208
 3122SOL     OW10264   2.908   5.802   0.669
 3122SOL    HW110265   2.901   5.860   0.588
 3122SOL    HW210266   2.951   5.853   0.744
 3123SOL     OW10267   3.737   6.619   4.453
 3123SOL    HW110268   3.719   6.693   4.518
 3123SOL    HW210269   3.832   6.589   4.463
 3124SOL     OW10270   3.710   0.562   6.252
 3124SOL    HW110271   3.789   0.618   6.278
 3124SOL    HW210272   3.715   0.541   6.154
 3125SOL     OW10273   0.062   1.802   5.863
 3125SOL    HW110274   0.159   1.796   5.839
 3125SOL    HW210275   0.045   1.886   5.915
 3126SOL     OW10276   3.686   6.268   0.065
 3126SOL    HW110277   3.730   6.188   0.105
 3126SOL    HW210278   3.692   6.345   0.128
 3127SOL     OW10279   1.238   1.150   3.656
 3127SOL    HW110280   1.321   1.193   3.691
 3127SOL    HW210281   1.240   1.150   3.556
 3128SOL     OW10282   1.718   0.845   0.746
 3128SOL    HW110283   1.786   0.834   0.818
 3128SOL    HW210284   1.756   0.899   0.671
 3129SOL     OW10285   1.830   3.125   3.474
 3129SOL    HW110286   1.798   3.186   3.547
 3129SOL    HW210287   1.756   3.112   3.407
 3130SOL     OW10288   2.095   5.859   3.525
 3130SOL    HW110289   2.095   5.921   3.446
 3130SOL    HW210290   2.005   5.862   3.569
 3131SOL     OW10291   0.496   3.735   4.254
 3131SOL    HW110292   0.516   3.637   4.257
 3131SOL    HW210293   0.402   3.751   4.286
 3132SOL     OW10294   5.419   5.418   5.038
 3132SOL    HW110295   5.446   5.387   5.129
 3132SOL    HW210296   5.500   5.449   4.988
 3133SOL     OW10297   2.498   1.866   3.164
 3133SOL    HW110298   2.537   1.849   3.255
 3133SOL    HW210299   2.450   1.954   3.164
 3134SOL     OW10300   5.615   2.831   1.847
 3134SOL    HW110301   5.546   2.814   1.918
 3134SOL    HW210302   5.674   2.907   1.875
 3135SOL     OW10303   2.612   1.862   3.435
 3135SOL    HW110304   2.657   1.780   3.470
 3135SOL    HW210305   2.556   1.903   3.507
 3136SOL     OW10306   6.734   0.245   4.913
 3136SOL    HW110307   6.687   0.207   4.833
 3136SOL    HW210308   6.686   0.326   4.945
 3137SOL     OW10309   0.153   1.360   4.798
 3137SOL    HW110310   0.241   1.324   4.765
 3137SOL    HW210311   0.166   1.406   4.886
 3138SOL     OW10312   5.460   1.696   4.623
 3138SOL    HW110313   5.521   1.624   4.653
 3138SOL    HW210314   5.367   1.660   4.615
 3139SOL     OW10315   4.920   5.896   5.051
 3139SOL    HW110316   5.017   5.871   5.051
 3139SOL    HW210317   4.864   5.814   5.041
 3140SOL     OW10318   6.113   5.800   6.359
 3140SOL    HW110319   6.127   5.871   6.428
 3140SOL    HW210320   6.064   5.723   6.400
 3141SOL     OW10321   0.742   5.666   1.165
 3141SOL    HW110322   0.787   5.588   1.209
 3141SOL    HW210323   0.753   5.659   1.066
 3142SOL     OW10324   3.721   6.799   0.077
 3142SOL    HW110325   3.627   6.782   0.048
 3142SOL    HW210326   3.730   6.893   0.110
 3143SOL     OW10327   0.316   1.582   1.037
 3143SOL    HW110328   0.377   1.573   1.116
 3143SOL    HW210329   0.264   1.667   1.045
 3144SOL     OW10330   1.758   2.891   6.979
 3144SOL    HW110331   1.803   2.835   6.909
 3144SOL    HW210332   1.669   2.850   7.002
 3145SOL     OW10333   3.132   5.323   3.832
 3145SOL    HW110334   3.037   5.352   3.845
 3145SOL    HW210335   3.148   5.238   3.881
 3146SOL     OW10336   2.271   0.206   3.668
 3146SOL    HW110337   2.228   0.131   3.617
 3146SOL    HW210338   2.268   0.290   3.613
 3147SOL     OW10339   3.999   4.572   0.788
 3147SOL    HW110340   4.041   4.649   0.740
 3147SOL    HW210341   3.989   4.495   0.725
 3148SOL     OW10342   3.712   5.462   5.220
 3148SOL    HW110343   3.658   5.467   5.136
 3148SOL    HW210344   3.665   5.403   5.286
 3149SOL     OW10345   2.953   6.330   6.081
 3149SOL    HW110346   2.975   6.284   6.168
 3149SOL    HW210347   2.905   6.266   6.022
 3150SOL     OW10348   0.227   0.108   4.095
 3150SOL    HW110349   0.289   0.059   4.033
 3150SOL    HW210350   0.199   0.194   4.053
 3151SOL     OW10351   4.297   6.984   0.806
 3151SOL    HW110352   4.198   6.993   0.803
 3151SOL    HW210353   4.337   7.023   0.723
 3152SOL     OW10354   1.497   4.853   6.943
 3152SOL    HW110355   1.453   4.902   7.018
 3152SOL    HW210356   1.554   4.916   6.890
 3153SOL     OW10357   0.045   4.501   2.986
 3153SOL    HW110358   0.052   4.408   3.023
 3153SOL    HW210359   7.015   4.499   2.902
 3154SOL     OW10360   5.614   2.089   6.336
 3154SOL    HW110361   5.698   2.035   6.335
 3154SOL    HW210362   5.561   2.070   6.253
 3155SOL     OW10363   4.362   6.170   0.212
 3155SOL    HW110364   4.351   6.109   0.134
 3155SOL    HW210365   4.460   6.188   0.227
 3156SOL     OW10366   3.321   3.164   2.962
 3156SOL    HW110367   3.238   3.141   3.013
 3156SOL    HW210368   3.310   3.254   2.919
 3157SOL     OW10369   1.950   2.799   4.934
 3157SOL    HW110370   1.994   2.786   4.845
 3157SOL    HW210371   1.982   2.885   4.974
 3158SOL     OW10372   4.704   6.247   1.347
 3158SOL    HW110373   4.717   6.225   1.443
 3158SOL    HW210374   4.723   6.167   1.291
 3159SOL     OW10375   5.262   4.277   0.424
 3159SOL    HW110376   5.264   4.335   0.342
 3159SOL    HW210377   5.354   4.267   0.460
 3160SOL     OW10378   5.824   4.860   0.606
 3160SOL    HW110379   5.814   4.761   0.617
 3160SOL    HW210380   5.920   4.885   0.610
 3161SOL     OW10381   0.911   1.648   3.005
 3161SOL    HW110382   0.927   1.615   3.098
 3161SOL    HW210383   0.830   1.707   3.004
 3162SOL     OW10384   6.622   0.093   6.098
 3162SOL    HW110385   6.624   0.144   6.012
 3162SOL    HW210386   6.610   0.156   6.175
 3163SOL     OW10387   2.187   4.623   5.726
 3163SOL    HW110388   2.218   4.621   5.631
 3163SOL    HW210389   2.091   4.592   5.730
 3164SOL     OW10390   6.211   5.406   6.153
 3164SOL    HW110391   6.239   5.394   6.058
 3164SOL    HW210392   6.193   5.317   6.195
 3165SOL     OW10393   0.211   2.403   1.632
 3165SOL    HW110394   0.244   2.329   1.691
 3165SOL    HW210395   0.120   2.381   1.599
 3166SOL     OW10396   4.503   2.802   6.169
 3166SOL    HW110397   4.593   2.799   6.213
 3166SOL    HW210398   4.433   2.813   6.238
 3167SOL     OW10399   0.205   4.210   1.673
 3167SOL    HW110400   0.120   4.206   1.621
 3167SOL    HW210401   0.245   4.301   1.666
 3168SOL     OW10402   5.738   2.895   1.064
 3168SOL    HW110403   5.827   2.861   1.095
 3168SOL    HW210404   5.680   2.819   1.038
 3169SOL     OW10405   1.970   2.201   4.893
 3169SOL    HW110406   2.023   2.286   4.889
 3169SOL    HW210407   2.028   2.127   4.926
 3170SOL     OW10408   4.035   0.114   5.475
 3170SOL    HW110409   4.016   0.186   5.408
 3170SOL    HW210410   4.028   0.024   5.431
 3171SOL     OW10411   6.413   6.549   3.333
 3171SOL    HW110412   6.356   6.596   3.401
 3171SOL    HW210413   6.469   6.615   3.284
 3172SOL     OW10414   6.069   0.054   5.472
 3172SOL    HW110415   6.036   0.050   5.567
 3172SOL    HW210416   5.994   0.034   5.409
 3173SOL     OW10417   2.272   1.106   1.597
 3173SOL    HW110418   2.240   1.047   1.670
 3173SOL    HW210419   2.196   1.130   1.537
 3174SOL     OW10420   2.033   3.441   6.844
 3174SOL    HW110421   1.972   3.435   6.923
 3174SOL    HW210422   2.128   3.426   6.874
 3175SOL     OW10423   6.971   6.128   0.059
 3175SOL    HW110424   6.881   6.155   0.025
 3175SOL    HW210425   7.006   6.051   0.007
 3176SOL     OW10426   1.044   5.734   6.847
 3176SOL    HW110427   0.985   5.701   6.773
 3176SOL    HW210428   1.134   5.692   6.839
 3177SOL     OW10429   1.166   6.966   4.119
 3177SOL    HW110430   1.105   6.889   4.132
 3177SOL    HW210431   1.117   0.027   4.137
 3178SOL     OW10432   2.859   3.486   6.806
 3178SOL    HW110433   2.868   3.579   6.842
 3178SOL    HW210434   2.762   3.464   6.794
 3179SOL     OW10435   1.208   2.423   3.874
 3179SOL    HW110436   1.234   2.361   3.949
 3179SOL    HW210437   1.150   2.374   3.810
 3180SOL     OW10438   6.016   1.221   6.364
 3180SOL    HW110439   6.060   1.259   6.445
 3180SOL    HW210440   5.951   1.150   6.392
 3181SOL     OW10441   0.764   1.711   2.607
 3181SOL    HW110442   0.763   1.728   2.509
 3181SOL    HW210443   0.858   1.712   2.641
 3182SOL     OW10444   1.567   4.504   5.347
 3182SOL    HW110445   1.649   4.521   5.402
 3182SOL    HW210446   1.520   4.422   5.381
 3183SOL     OW10447   4.630   2.907   1.231
 3183SOL    HW110448   4.631   2.807   1.232
 3183SOL    HW210449   4.719   2.941   1.198
 3184SOL     OW10450   0.842   2.157   3.415
 3184SOL    HW110451   0.835   2.230   3.483
 3184SOL    HW210452   0.912   2.182   3.347
 3185SOL     OW10453   0.472   6.468   0.091
 3185SOL    HW110454   0.499   6.374   0.073
 3185SOL    HW210455   0.550   6.529   0.075
 3186SOL     OW10456   3.278   0.698   1.685
 3186SOL    HW110457   3.204   0.759   1.656
 3186SOL    HW210458   3.280   0.693   1.785
 3187SOL     OW10459   2.675   4.266   6.793
 3187SOL    HW110460   2.690   4.168   6.806
 3187SOL    HW210461   2.635   4.304   6.876
 3188SOL     OW10462   4.123   6.972   3.048
 3188SOL    HW110463   4.146   0.024   3.109
 3188SOL    HW210464   4.206   6.924   3.021
 3189SOL     OW10465   6.670   6.811   2.384
 3189SOL    HW110466   6.654   6.720   2.347
 3189SOL    HW210467   6.589   6.842   2.433
 3190SOL     OW10468   0.908   6.918   1.403
 3190SOL    HW110469   0.847   6.854   1.355
 3190SOL    HW210470   0.890   6.913   1.502
 3191SOL     OW10471   3.295   0.916   0.292
 3191SOL    HW110472   3.287   0.817   0.288
 3191SOL    HW210473   3.293   0.954   0.200
 3192SOL     OW10474   5.576   2.267   3.641
 3192SOL    HW110475   5.538   2.179   3.668
 3192SOL    HW210476   5.509   2.317   3.585
 3193SOL     OW10477   4.980   4.638   1.154
 3193SOL    HW110478   5.022   4.728   1.169
 3193SOL    HW210479   4.884   4.640   1.181
 3194SOL     OW10480   1.973   5.030   5.367
 3194SOL    HW110481   1.991   5.074   5.455
 3194SOL    HW210482   2.058   5.022   5.316
 3195SOL     OW10483   0.409   4.468   3.348
 3195SOL    HW110484   0.375   4.375   3.361
 3195SOL    HW210485   0.332   4.532   3.356
 3196SOL     OW10486   0.338   0.024   5.700
 3196SOL    HW110487   0.426   0.020   5.747
 3196SOL    HW210488   0.303   0.118   5.702
 3197SOL     OW10489   0.376   4.604   4.614
 3197SOL    HW110490   0.315   4.628   4.690
 3197SOL    HW210491   0.323   4.584   4.533
 3198SOL     OW10492   5.746   6.672   0.193
 3198SOL    HW110493   5.812   6.620   0.248
 3198SOL    HW210494   5.790   6.706   0.110
 3199SOL     OW10495   3.707   1.796   3.377
 3199SOL    HW110496   3.761   1.877   3.353
 3199SOL    HW210497   3.611   1.822   3.386
 3200SOL     OW10498   6.859   2.107   0.467
 3200SOL    HW110499   6.836   2.137   0.374
 3200SOL    HW210500   6.818   2.017   0.483
 3201SOL     OW10501   4.829   4.849   3.403
 3201SOL    HW110502   4.841   4.825   3.307
 3201SOL    HW210503   4.732   4.868   3.421
 3202SOL     OW10504   1.283   5.727   1.578
 3202SOL    HW110505   1.197   5.774   1.558
 3202SOL    HW210506   1.312   5.677   1.496
 3203SOL     OW10507   4.932   0.052   1.014
 3203SOL    HW110508   4.949   6.980   0.995
 3203SOL    HW210509   4.962   0.107   0.936
 3204SOL     OW10510   6.223   6.020   1.897
 3204SOL    HW110511   6.133   6.057   1.877
 3204SOL    HW210512   6.214   5.942   1.959
 3205SOL     OW10513   0.970   3.856   4.055
 3205SOL    HW110514   0.915   3.885   4.133
 3205SOL    HW210515   0.973   3.756   4.052
 3206SOL     OW10516   1.447   0.014   0.290
 3206SOL    HW110517   1.459   0.114   0.292
 3206SOL    HW210518   1.386   7.011   0.365
 3207SOL     OW10519   1.319   1.941   2.689
 3207SOL    HW110520   1.380   1.954   2.610
 3207SOL    HW210521   1.345   2.006   2.761
 3208SOL     OW10522   6.279   0.313   4.493
 3208SOL    HW110523   6.348   0.342   4.559
 3208SOL    HW210524   6.246   0.222   4.516
 3209SOL     OW10525   1.928   0.600   3.079
 3209SOL    HW110526   2.011   0.610   3.133
 3209SOL    HW210527   1.848   0.608   3.138
 3210SOL     OW10528   0.427   4.943   2.064
 3210SOL    HW110529   0.403   5.036   2.036
 3210SOL    HW210530   0.499   4.946   2.133
 3211SOL     OW10531   0.451   4.179   2.844
 3211SOL    HW110532   0.454   4.194   2.943
 3211SOL    HW210533   0.495   4.256   2.797
 3212SOL     OW10534   5.237   2.960   5.684
 3212SOL    HW110535   5.205   3.028   5.618
 3212SOL    HW210536   5.184   2.876   5.674
 3213SOL     OW10537   5.487   6.931   1.546
 3213SOL    HW110538   5.440   7.017   1.529
 3213SOL    HW210539   5.420   6.857   1.552
 3214SOL     OW10540   4.106   4.209   6.591
 3214SOL    HW110541   4.021   4.156   6.592
 3214SOL    HW210542   4.142   4.211   6.498
 3215SOL     OW10543   6.138   1.311   0.348
 3215SOL    HW110544   6.237   1.323   0.344
 3215SOL    HW210545   6.104   1.340   0.437
 3216SOL     OW10546   5.375   6.571   4.796
 3216SOL    HW110547   5.355   6.473   4.783
 3216SOL    HW210548   5.398   6.612   4.707
 3217SOL     OW10549   6.613   4.292   6.994
 3217SOL    HW110550   6.527   4.249   6.968
 3217SOL    HW210551   6.612   4.388   6.968
 3218SOL     OW10552   3.858   1.612   1.874
 3218SOL    HW110553   3.760   1.629   1.879
 3218SOL    HW210554   3.879   1.565   1.788
 3219SOL     OW10555   0.342   0.028   3.732
 3219SOL    HW110556   0.247   0.053   3.753
 3219SOL    HW210557   0.380   0.093   3.666
 3220SOL     OW10558   6.496   3.279   6.217
 3220SOL    HW110559   6.584   3.281   6.169
 3220SOL    HW210560   6.511   3.267   6.315
 3221SOL     OW10561   3.736   0.766   1.753
 3221SOL    HW110562   3.730   0.705   1.832
 3221SOL    HW210563   3.713   0.859   1.782
 3222SOL     OW10564   6.522   4.133   1.808
 3222SOL    HW110565   6.443   4.096   1.757
 3222SOL    HW210566   6.491   4.166   1.897
 3223SOL     OW10567   2.270   4.276   3.852
 3223SOL    HW110568   2.211   4.218   3.796
 3223SOL    HW210569   2.220   4.359   3.878
 3224SOL     OW10570   3.070   6.271   1.246
 3224SOL    HW110571   3.143   6.329   1.285
 3224SOL    HW210572   3.057   6.192   1.305
 3225SOL     OW10573   1.988   2.936   1.105
 3225SOL    HW110574   2.049   2.941   1.185
 3225SOL    HW210575   1.897   2.970   1.131
 3226SOL     OW10576   6.806   0.586   3.676
 3226SOL    HW110577   6.832   0.575   3.580
 3226SOL    HW210578   6.747   0.666   3.685
 3227SOL     OW10579   1.892   2.318   5.859
 3227SOL    HW110580   1.957   2.386   5.892
 3227SOL    HW210581   1.834   2.288   5.935
 3228SOL     OW10582   4.994   3.459   5.052
 3228SOL    HW110583   4.919   3.521   5.074
 3228SOL    HW210584   4.960   3.365   5.049
 3229SOL     OW10585   4.823   1.548   5.358
 3229SOL    HW110586   4.787   1.619   5.299
 3229SOL    HW210587   4.875   1.482   5.303
 3230SOL     OW10588   1.379   0.256   3.690
 3230SOL    HW110589   1.451   0.244   3.759
 3230SOL    HW210590   1.359   0.167   3.648
 3231SOL     OW10591   4.814   4.662   0.617
 3231SOL    HW110592   4.854   4.623   0.700
 3231SOL    HW210593   4.859   4.748   0.596
 3232SOL     OW10594   1.266   4.126   2.826
 3232SOL    HW110595   1.261   4.208   2.883
 3232SOL    HW210596   1.344   4.070   2.855
 3233SOL     OW10597   2.089   4.326   0.894
 3233SOL    HW110598   2.089   4.422   0.868
 3233SOL    HW210599   2.079   4.269   0.812
 3234SOL     OW10600   6.722   1.890   5.041
 3234SOL    HW110601   6.665   1.814   5.072
 3234SOL    HW210602   6.670   1.946   4.976
 3235SOL     OW10603   5.557   0.791   2.086
 3235SOL    HW110604   5.545   0.844   2.170
 3235SOL    HW210605   5.552   0.693   2.108
 3236SOL     OW10606   0.177   2.409   1.233
 3236SOL    HW110607   0.086   2.448   1.220
 3236SOL    HW210608   0.215   2.442   1.319
 3237SOL     OW10609   2.955   6.109   4.951
 3237SOL    HW110610   2.912   6.126   4.862
 3237SOL    HW210611   2.938   6.015   4.979
 3238SOL     OW10612   6.475   6.448   6.378
 3238SOL    HW110613   6.564   6.418   6.410
 3238SOL    HW210614   6.480   6.471   6.281
 3239SOL     OW10615   1.130   6.306   5.428
 3239SOL    HW110616   1.112   6.388   5.374
 3239SOL    HW210617   1.217   6.315   5.475
 3240SOL     OW10618   0.483   2.373   4.534
 3240SOL    HW110619   0.490   2.283   4.491
 3240SOL    HW210620   0.529   2.371   4.623
 3241SOL     OW10621   4.152   6.707   5.175
 3241SOL    HW110622   4.058   6.716   5.143
 3241SOL    HW210623   4.213   6.756   5.112
 3242SOL     OW10624   3.460   0.319   0.351
 3242SOL    HW110625   3.513   0.394   0.310
 3242SOL    HW210626   3.401   0.278   0.281
 3243SOL     OW10627   3.621   5.156   1.434
 3243SOL    HW110628   3.582   5.126   1.347
 3243SOL    HW210629   3.548   5.189   1.494
 3244SOL     OW10630   1.047   6.732   5.785
 3244SOL    HW110631   1.077   6.806   5.724
 3244SOL    HW210632   0.947   6.731   5.788
 3245SOL     OW10633   3.469   2.074   5.966
 3245SOL    HW110634   3.544   2.123   5.923
 3245SOL    HW210635   3.382   2.118   5.943
 3246SOL     OW10636   5.450   6.077   3.593
 3246SOL    HW110637   5.532   6.119   3.633
 3246SOL    HW210638   5.473   6.038   3.504
 3247SOL     OW10639   6.399   3.093   5.784
 3247SOL    HW110640   6.394   3.062   5.879
 3247SOL    HW210641   6.309   3.126   5.755
 3248SOL     OW10642   4.881   3.998   2.893
 3248SOL    HW110643   4.934   4.083   2.892
 3248SOL    HW210644   4.844   3.983   2.985
 3249SOL     OW10645   3.318   4.649   5.665
 3249SOL    HW110646   3.361   4.565   5.631
 3249SOL    HW210647   3.256   4.626   5.741
 3250SOL     OW10648   4.860   5.148   1.236
 3250SOL    HW110649   4.781   5.106   1.192
 3250SOL    HW210650   4.944   5.115   1.193
 3251SOL     OW10651   3.374   0.787   3.809
 3251SOL    HW110652   3.336   0.828   3.892
 3251SOL    HW210653   3.411   0.859   3.750
 3252SOL     OW10654   3.865   2.171   3.588
 3252SOL    HW110655   3.869   2.175   3.688
 3252SOL    HW210656   3.784   2.120   3.560
 3253SOL     OW10657   5.051   4.286   1.390
 3253SOL    HW110658   4.987   4.250   1.457
 3253SOL    HW210659   5.040   4.237   1.304
 3254SOL     OW10660   6.447   4.263   2.781
 3254SOL    HW110661   6.401   4.235   2.696
 3254SOL    HW210662   6.542   4.231   2.779
 3255SOL     OW10663   3.813   4.965   0.982
 3255SOL    HW110664   3.817   5.052   1.032
 3255SOL    HW210665   3.820   4.889   1.047
 3256SOL     OW10666   6.763   6.624   5.223
 3256SOL    HW110667   6.692   6.560   5.193
 3256SOL    HW210668   6.841   6.619   5.159
 3257SOL     OW10669   2.589   1.226   1.135
 3257SOL    HW110670   2.613   1.301   1.072
 3257SOL    HW210671   2.592   1.259   1.229
 3258SOL     OW10672   5.180   6.575   0.990
 3258SOL    HW110673   5.209   6.494   0.939
 3258SOL    HW210674   5.259   6.634   1.007
 3259SOL     OW10675   5.603   5.738   3.584
 3259SOL    HW110676   5.542   5.690   3.522
 3259SOL    HW210677   5.635   5.676   3.655
 3260SOL     OW10678   2.347   1.667   1.398
 3260SOL    HW110679   2.349   1.751   1.344
 3260SOL    HW210680   2.352   1.588   1.337
 3261SOL     OW10681   4.710   6.451   4.106
 3261SOL    HW110682   4.613   6.442   4.129
 3261SOL    HW210683   4.719   6.464   4.007
 3262SOL     OW10684   3.935   1.797   3.989
 3262SOL    HW110685   3.953   1.711   3.942
 3262SOL    HW210686   3.925   1.780   4.087
 3263SOL     OW10687   3.059   4.896   3.285
 3263SOL    HW110688   2.979   4.838   3.303
 3263SOL    HW210689   3.101   4.922   3.372
 3264SOL     OW10690   5.548   5.122   6.209
 3264SOL    HW110691   5.610   5.072   6.148
 3264SOL    HW210692   5.483   5.058   6.249
 3265SOL     OW10693   5.634   0.294   5.767
 3265SOL    HW110694   5.605   0.321   5.675
 3265SOL    HW210695   5.667   0.376   5.816
 3266SOL     OW10696   1.225   2.815   6.589
 3266SOL    HW110697   1.243   2.896   6.643
 3266SOL    HW210698   1.282   2.815   6.507
 3267SOL     OW10699   5.187   3.241   2.184
 3267SOL    HW110700   5.144   3.153   2.163
 3267SOL    HW210701   5.116   3.311   2.194
 3268SOL     OW10702   1.752   5.720   6.854
 3268SOL    HW110703   1.765   5.779   6.933
 3268SOL    HW210704   1.656   5.693   6.848
 3269SOL     OW10705   4.002   3.524   0.896
 3269SOL    HW110706   3.903   3.514   0.904
 3269SOL    HW210707   4.046   3.484   0.976
 3270SOL     OW10708   6.710   5.168   3.876
 3270SOL    HW110709   6.726   5.123   3.788
 3270SOL    HW210710   6.753   5.258   3.876
 3271SOL     OW10711   4.846   6.954   1.299
 3271SOL    HW110712   4.940   6.931   1.272
 3271SOL    HW210713   4.788   6.873   1.290
 3272SOL     OW10714   4.795   5.781   6.710
 3272SOL    HW110715   4.777   5.799   6.614
 3272SOL    HW210716   4.822   5.866   6.756
 3273SOL     OW10717   0.923   0.567   2.933
 3273SOL    HW110718   0.942   0.471   2.952
 3273SOL    HW210719   0.875   0.575   2.846
 3274SOL     OW10720   2.527   1.406   0.186
 3274SOL    HW110721   2.430   1.419   0.167
 3274SOL    HW210722   2.581   1.457   0.119
 3275SOL     OW10723   4.629   0.674   6.980
 3275SOL    HW110724   4.548   0.635   0.000
 3275SOL    HW210725   4.603   0.756   6.930
 3276SOL     OW10726   1.686   6.357   0.095
 3276SOL    HW110727   1.729   6.353   0.185
 3276SOL    HW210728   1.757   6.364   0.024
 3277SOL     OW10729   0.267   6.048   6.749
 3277SOL    HW110730   0.176   6.083   6.770
 3277SOL    HW210731   0.298   6.087   6.662
 3278SOL     OW10732   1.105   0.705   7.010
 3278SOL    HW110733   1.163   0.772   6.962
 3278SOL    HW210734   1.110   0.723   0.084
 3279SOL     OW10735   2.071   6.806   1.406
 3279SOL    HW110736   2.147   6.794   1.342
 3279SOL    HW210737   1.987   6.824   1.355
 3280SOL     OW10738   3.177   5.956   3.602
 3280SOL    HW110739   3.086   5.961   3.559
 3280SOL    HW210740   3.174   5.889   3.677
 3281SOL     OW10741   1.773   6.424   0.353
 3281SOL    HW110742   1.770   6.506   0.295
 3281SOL    HW210743   1.716   6.438   0.434
 3282SOL     OW10744   2.375   5.124   2.471
 3282SOL    HW110745   2.359   5.026   2.459
 3282SOL    HW210746   2.297   5.176   2.438
 3283SOL     OW10747   2.052   0.236   3.372
 3283SOL    HW110748   2.051   0.153   3.428
 3283SOL    HW210749   1.961   0.277   3.371
 3284SOL     OW10750   1.504   5.301   5.403
 3284SOL    HW110751   1.582   5.252   5.364
 3284SOL    HW210752   1.531   5.395   5.423
 3285SOL     OW10753   0.362   2.910   3.992
 3285SOL    HW110754   0.391   2.990   4.044
 3285SOL    HW210755   0.290   2.937   3.927
 3286SOL     OW10756   4.543   4.637   6.070
 3286SOL    HW110757   4.485   4.556   6.079
 3286SOL    HW210758   4.493   4.718   6.103
 3287SOL     OW10759   6.890   3.146   1.598
 3287SOL    HW110760   6.857   3.106   1.512
 3287SOL    HW210761   6.917   3.241   1.582
 3288SOL     OW10762   0.936   0.064   0.329
 3288SOL    HW110763   1.020   0.117   0.344
 3288SOL    HW210764   0.960   6.996   0.299
 3289SOL     OW10765   1.365   6.768   3.755
 3289SOL    HW110766   1.353   6.724   3.844
 3289SOL    HW210767   1.458   6.801   3.746
 3290SOL     OW10768   0.319   5.045   3.576
 3290SOL    HW110769   0.243   5.107   3.556
 3290SOL    HW210770   0.380   5.088   3.642
 3291SOL     OW10771   1.635   1.458   2.029
 3291SOL    HW110772   1.652   1.374   1.977
 3291SOL    HW210773   1.700   1.529   2.000
 3292SOL     OW10774   0.466   6.061   4.675
 3292SOL    HW110775   0.464   5.962   4.690
 3292SOL    HW210776   0.547   6.099   4.719
 3293SOL     OW10777   5.909   0.608   3.391
 3293SOL    HW110778   5.976   0.668   3.434
 3293SOL    HW210779   5.945   0.573   3.305
 3294SOL     OW10780   0.018   6.711   0.680
 3294SOL    HW110781   0.018   6.759   0.768
 3294SOL    HW210782   6.953   6.720   0.637
 3295SOL     OW10783   2.046   3.072   5.857
 3295SOL    HW110784   2.043   3.011   5.777
 3295SOL    HW210785   2.141   3.088   5.883
 3296SOL     OW10786   1.375   6.409   2.357
 3296SOL    HW110787   1.381   6.507   2.379
 3296SOL    HW210788   1.285   6.375   2.381
 3297SOL     OW10789   3.605   1.099   5.557
 3297SOL    HW110790   3.588   1.197   5.549
 3297SOL    HW210791   3.597   1.057   5.467
 3298SOL     OW10792   0.683   4.557   2.737
 3298SOL    HW110793   0.710   4.531   2.830
 3298SOL    HW210794   0.592   4.520   2.717
 3299SOL     OW10795   0.950   1.217   4.233
 3299SOL    HW110796   0.987   1.235   4.324
 3299SOL    HW210797   1.006   1.263   4.164
 3300SOL     OW10798   0.384   6.895   4.648
 3300SOL    HW110799   0.354   6.979   4.693
 3300SOL    HW210800   0.340   6.888   4.559
 3301SOL     OW10801   6.697   3.869   2.786
 3301SOL    HW110802   6.760   3.803   2.826
 3301SOL    HW210803   6.634   3.902   2.856
 3302SOL     OW10804   0.895   6.084   5.231
 3302SOL    HW110805   0.919   6.178   5.206
 3302SOL    HW210806   0.799   6.067   5.206
 3303SOL     OW10807   3.019   3.889   4.347
 3303SOL    HW110808   3.055   3.977   4.379
 3303SOL    HW210809   3.006   3.893   4.248
 3304SOL     OW10810   1.671   0.880   3.483
 3304SOL    HW110811   1.710   0.922   3.401
 3304SOL    HW210812   1.616   0.947   3.533
 3305SOL     OW10813   1.163   2.963   0.426
 3305SOL    HW110814   1.190   2.927   0.516
 3305SOL    HW210815   1.238   3.019   0.389
 3306SOL     OW10816   1.245   2.515   1.801
 3306SOL    HW110817   1.293   2.578   1.864
 3306SOL    HW210818   1.291   2.426   1.802
 3307SOL     OW10819   1.120   0.197   6.766
 3307SOL    HW110820   1.145   0.254   6.688
 3307SOL    HW210821   1.075   0.253   6.836
 3308SOL     OW10822   4.767   6.039   1.179
 3308SOL    HW110823   4.695   6.061   1.113
 3308SOL    HW210824   4.739   5.960   1.234
 3309SOL     OW10825   1.426   4.766   1.661
 3309SOL    HW110826   1.474   4.851   1.683
 3309SOL    HW210827   1.374   4.735   1.741
 3310SOL     OW10828   1.747   6.553   2.509
 3310SOL    HW110829   1.754   6.492   2.430
 3310SOL    HW210830   1.707   6.504   2.586
 3311SOL     OW10831   4.000   5.687   0.736
 3311SOL    HW110832   4.089   5.728   0.755
 3311SOL    HW210833   4.013   5.594   0.701
 3312SOL     OW10834   1.238   2.650   5.999
 3312SOL    HW110835   1.308   2.582   6.018
 3312SOL    HW210836   1.277   2.724   5.945
 3313SOL     OW10837   5.848   6.684   4.655
 3313SOL    HW110838   5.868   6.777   4.625
 3313SOL    HW210839   5.800   6.686   4.742
 3314SOL     OW10840   0.403   4.515   6.316
 3314SOL    HW110841   0.500   4.515   6.339
 3314SOL    HW210842   0.355   4.579   6.375
 3315SOL     OW10843   6.334   2.920   3.355
 3315SOL    HW110844   6.397   2.847   3.381
 3315SOL    HW210845   6.259   2.924   3.421
 3316SOL     OW10846   4.317   0.721   6.745
 3316SOL    HW110847   4.404   0.764   6.771
 3316SOL    HW210848   4.242   0.768   6.791
 3317SOL     OW10849   4.455   2.576   1.308
 3317SOL    HW110850   4.555   2.576   1.319
 3317SOL    HW210851   4.429   2.647   1.243
 3318SOL     OW10852   2.725   5.312   6.036
 3318SOL    HW110853   2.775   5.382   6.088
 3318SOL    HW210854   2.628   5.338   6.031
 3319SOL     OW10855   0.287   6.137   6.455
 3319SOL    HW110856   0.363   6.147   6.391
 3319SOL    HW210857   0.202   6.126   6.403
 3320SOL     OW10858   1.073   0.381   0.794
 3320SOL    HW110859   1.079   0.288   0.829
 3320SOL    HW210860   1.060   0.379   0.695
 3321SOL     OW10861   3.753   3.705   4.331
 3321SOL    HW110862   3.777   3.702   4.234
 3321SOL    HW210863   3.788   3.622   4.376
 3322SOL     OW10864   4.456   2.485   2.463
 3322SOL    HW110865   4.366   2.444   2.478
 3322SOL    HW210866   4.509   2.482   2.547
 3323SOL     OW10867   1.819   4.758   0.749
 3323SOL    HW110868   1.839   4.768   0.652
 3323SOL    HW210869   1.720   4.760   0.763
 3324SOL     OW10870   6.312   3.214   1.475
 3324SOL    HW110871   6.257   3.202   1.557
 3324SOL    HW210872   6.366   3.132   1.458
 3325SOL     OW10873   1.161   4.834   5.537
 3325SOL    HW110874   1.180   4.927   5.568
 3325SOL    HW210875   1.235   4.803   5.478
 3326SOL     OW10876   5.332   0.331   2.513
 3326SOL    HW110877   5.249   0.335   2.456
 3326SOL    HW210878   5.392   0.258   2.480
 3327SOL     OW10879   4.844   6.149   2.046
 3327SOL    HW110880   4.752   6.181   2.068
 3327SOL    HW210881   4.864   6.168   1.950
 3328SOL     OW10882   6.553   6.372   4.130
 3328SOL    HW110883   6.551   6.464   4.169
 3328SOL    HW210884   6.510   6.374   4.040
 3329SOL     OW10885   5.308   0.636   6.003
 3329SOL    HW110886   5.355   0.658   6.089
 3329SOL    HW210887   5.231   0.698   5.990
 3330SOL     OW10888   6.424   0.127   3.071
 3330SOL    HW110889   6.500   0.099   3.013
 3330SOL    HW210890   6.360   0.050   3.081
 3331SOL     OW10891   1.438   3.803   2.232
 3331SOL    HW110892   1.387   3.750   2.164
 3331SOL    HW210893   1.497   3.869   2.185
 3332SOL     OW10894   4.159   5.027   0.571
 3332SOL    HW110895   4.200   5.102   0.520
 3332SOL    HW210896   4.074   5.057   0.614
 3333SOL     OW10897   1.969   3.773   0.607
 3333SOL    HW110898   2.065   3.778   0.580
 3333SOL    HW210899   1.943   3.857   0.655
 3334SOL     OW10900   1.529   2.267   2.600
 3334SOL    HW110901   1.501   2.186   2.548
 3334SOL    HW210902   1.598   2.317   2.548
 3335SOL     OW10903   3.978   4.273   5.950
 3335SOL    HW110904   4.017   4.209   6.016
 3335SOL    HW210905   4.026   4.360   5.956
 3336SOL     OW10906   3.839   5.779   6.208
 3336SOL    HW110907   3.931   5.777   6.246
 3336SOL    HW210908   3.841   5.824   6.119
 3337SOL     OW10909   2.896   3.424   4.135
 3337SOL    HW110910   2.813   3.474   4.161
 3337SOL    HW210911   2.913   3.350   4.200
 3338SOL     OW10912   2.649   3.253   1.368
 3338SOL    HW110913   2.632   3.351   1.363
 3338SOL    HW210914   2.563   3.203   1.354
 3339SOL     OW10915   0.885   6.617   6.520
 3339SOL    HW110916   0.904   6.629   6.423
 3339SOL    HW210917   0.787   6.630   6.536
 3340SOL     OW10918   4.836   1.086   6.258
 3340SOL    HW110919   4.825   1.117   6.352
 3340SOL    HW210920   4.747   1.065   6.218
 3341SOL     OW10921   1.543   4.313   1.349
 3341SOL    HW110922   1.470   4.316   1.280
 3341SOL    HW210923   1.555   4.218   1.379
 3342SOL     OW10924   5.885   7.001   1.865
 3342SOL    HW110925   5.817   6.970   1.931
 3342SOL    HW210926   5.842   7.010   1.775
 3343SOL     OW10927   3.244   5.478   0.700
 3343SOL    HW110928   3.194   5.490   0.786
 3343SOL    HW210929   3.270   5.568   0.664
 3344SOL     OW10930   1.301   3.374   1.203
 3344SOL    HW110931   1.340   3.413   1.120
 3344SOL    HW210932   1.252   3.445   1.254
 3345SOL     OW10933   5.199   5.234   1.038
 3345SOL    HW110934   5.274   5.198   0.982
 3345SOL    HW210935   5.227   5.233   1.134
 3346SOL     OW10936   1.254   0.835   6.823
 3346SOL    HW110937   1.217   0.758   6.771
 3346SOL    HW210938   1.242   0.920   6.771
 3347SOL     OW10939   0.932   4.189   5.713
 3347SOL    HW110940   1.004   4.221   5.652
 3347SOL    HW210941   0.847   4.178   5.662
 3348SOL     OW10942   3.536   4.182   5.974
 3348SOL    HW110943   3.561   4.223   6.062
 3348SOL    HW210944   3.612   4.193   5.910
 3349SOL     OW10945   1.780   5.492   1.723
 3349SOL    HW110946   1.823   5.456   1.640
 3349SOL    HW210947   1.744   5.416   1.777
 3350SOL     OW10948   2.554   5.376   5.142
 3350SOL    HW110949   2.488   5.350   5.212
 3350SOL    HW210950   2.607   5.296   5.114
 3351SOL     OW10951   5.581   6.881   1.168
 3351SOL    HW110952   5.605   6.859   1.262
 3351SOL    HW210953   5.545   6.974   1.163
 3352SOL     OW10954   5.663   1.206   0.157
 3352SOL    HW110955   5.620   1.216   0.247
 3352SOL    HW210956   5.617   1.264   0.091
 3353SOL     OW10957   3.920   0.714   6.307
 3353SOL    HW110958   3.979   0.685   6.232
 3353SOL    HW210959   3.967   0.781   6.364
 3354SOL     OW10960   2.071   2.487   0.506
 3354SOL    HW110961   2.066   2.424   0.584
 3354SOL    HW210962   1.979   2.505   0.472
 3355SOL     OW10963   1.590   1.285   5.077
 3355SOL    HW110964   1.572   1.210   5.012
 3355SOL    HW210965   1.635   1.249   5.158
 3356SOL     OW10966   3.498   0.966   5.767
 3356SOL    HW110967   3.432   1.030   5.808
 3356SOL    HW210968   3.539   1.009   5.686
 3357SOL     OW10969   3.058   3.902   3.747
 3357SOL    HW110970   2.990   3.828   3.738
 3357SOL    HW210971   3.046   3.948   3.835
 3358SOL     OW10972   0.175   1.999   1.472
 3358SOL    HW110973   0.104   2.062   1.442
 3358SOL    HW210974   0.133   1.912   1.498
 3359SOL     OW10975   1.168   0.270   3.904
 3359SOL    HW110976   1.122   0.181   3.915
 3359SOL    HW210977   1.230   0.265   3.826
 3360SOL     OW10978   1.329   5.625   4.949
 3360SOL    HW110979   1.385   5.686   5.005
 3360SOL    HW210980   1.290   5.676   4.873
 3361SOL     OW10981   0.445   6.691   4.405
 3361SOL    HW110982   0.372   6.759   4.395
 3361SOL    HW210983   0.444   6.630   4.325
 3362SOL     OW10984   3.626   0.579   4.302
 3362SOL    HW110985   3.640   0.481   4.319
 3362SOL    HW210986   3.592   0.591   4.208
 3363SOL     OW10987   4.660   3.278   0.801
 3363SOL    HW110988   4.727   3.229   0.746
 3363SOL    HW210989   4.677   3.260   0.898
 3364SOL     OW10990   1.691   3.260   1.398
 3364SOL    HW110991   1.688   3.336   1.332
 3364SOL    HW210992   1.722   3.294   1.486
 3365SOL     OW10993   1.134   2.991   2.909
 3365SOL    HW110994   1.151   2.912   2.968
 3365SOL    HW210995   1.038   3.017   2.914
 3366SOL     OW10996   6.087   3.535   4.306
 3366SOL    HW110997   6.040   3.557   4.392
 3366SOL    HW210998   6.182   3.511   4.326
 3367SOL     OW10999   3.110   3.126   3.991
 3367SOL    HW111000   3.101   3.170   3.902
 3367SOL    HW211001   3.087   3.191   4.063
 3368SOL     OW11002   2.288   0.963   3.635
 3368SOL    HW111003   2.296   1.026   3.558
 3368SOL    HW211004   2.348   0.884   3.621
 3369SOL     OW11005   5.280   2.575   1.143
 3369SOL    HW111006   5.361   2.545   1.093
 3369SOL    HW211007   5.303   2.655   1.199
 3370SOL     OW11008   0.576   5.604   3.030
 3370SOL    HW111009   0.494   5.595   3.086
 3370SOL    HW211010   0.650   5.641   3.087
 3371SOL     OW11011   2.452   2.799   1.373
 3371SOL    HW111012   2.382   2.741   1.331
 3371SOL    HW211013   2.449   2.890   1.332
 3372SOL     OW11014   5.520   2.708   3.195
 3372SOL    HW111015   5.527   2.610   3.215
 3372SOL    HW211016   5.453   2.722   3.122
 3373SOL     OW11017   0.240   4.571   0.630
 3373SOL    HW111018   0.262   4.661   0.668
 3373SOL    HW211019   0.248   4.573   0.531
 3374SOL     OW11020   1.371   5.353   4.062
 3374SOL    HW111021   1.327   5.404   4.136
 3374SOL    HW211022   1.393   5.416   3.987
 3375SOL     OW11023   0.030   6.310   5.464
 3375SOL    HW111024   0.009   6.396   5.509
 3375SOL    HW211025   0.013   6.234   5.527
 3376SOL     OW11026   3.352   3.829   4.991
 3376SOL    HW111027   3.396   3.919   4.998
 3376SOL    HW211028   3.270   3.827   5.048
 3377SOL     OW11029   0.245   5.556   4.177
 3377SOL    HW111030   0.178   5.484   4.157
 3377SOL    HW211031   0.337   5.517   4.173
 3378SOL     OW11032   1.277   5.443   0.298
 3378SOL    HW111033   1.280   5.437   0.398
 3378SOL    HW211034   1.194   5.398   0.265
 3379SOL     OW11035   5.589   4.546   4.044
 3379SOL    HW111036   5.679   4.551   4.088
 3379SOL    HW211037   5.565   4.636   4.007
 3380SOL     OW11038   2.138   5.313   1.900
 3380SOL    HW111039   2.149   5.385   1.831
 3380SOL    HW211040   2.063   5.337   1.962
 3381SOL     OW11041   2.992   4.025   6.416
 3381SOL    HW111042   2.977   3.927   6.429
 3381SOL    HW211043   2.914   4.064   6.368
 3382SOL     OW11044   0.416   4.051   6.524
 3382SOL    HW111045   0.515   4.048   6.535
 3382SOL    HW211046   0.372   4.012   6.605
 3383SOL     OW11047   3.230   5.972   0.533
 3383SOL    HW111048   3.160   5.936   0.471
 3383SOL    HW211049   3.198   5.963   0.628
 3384SOL     OW11050   2.938   2.857   6.656
 3384SOL    HW111051   2.927   2.759   6.673
 3384SOL    HW211052   3.014   2.872   6.593
 3385SOL     OW11053   5.689   2.752   4.716
 3385SOL    HW111054   5.774   2.702   4.696
 3385SOL    HW211055   5.652   2.790   4.631
 3386SOL     OW11056   6.926   5.000   5.596
 3386SOL    HW111057   6.992   4.953   5.538
 3386SOL    HW211058   6.834   4.991   5.557
 3387SOL     OW11059   5.990   0.087   2.945
 3387SOL    HW111060   5.990   0.155   2.871
 3387SOL    HW211061   5.952   0.129   3.028
 3388SOL     OW11062   0.906   4.051   0.204
 3388SOL    HW111063   0.827   4.078   0.150
 3388SOL    HW211064   0.876   4.026   0.296
 3389SOL     OW11065   6.495   5.169   6.147
 3389SOL    HW111066   6.432   5.205   6.078
 3389SOL    HW211067   6.459   5.187   6.238
 3390SOL     OW11068   3.040   5.559   0.875
 3390SOL    HW111069   2.987   5.554   0.791
 3390SOL    HW211070   2.996   5.503   0.946
 3391SOL     OW11071   5.266   4.176   5.729
 3391SOL    HW111072   5.241   4.235   5.805
 3391SOL    HW211073   5.339   4.219   5.676
 3392SOL     OW11074   5.247   6.122   6.021
 3392SOL    HW111075   5.223   6.198   6.081
 3392SOL    HW211076   5.166   6.065   6.004
 3393SOL     OW11077   3.495   0.451   0.758
 3393SOL    HW111078   3.518   0.368   0.708
 3393SOL    HW211079   3.544   0.529   0.716
 3394SOL     OW11080   2.717   6.296   1.655
 3394SOL    HW111081   2.720   6.263   1.749
 3394SOL    HW211082   2.713   6.217   1.593
 3395SOL     OW11083   2.026   6.387   3.432
 3395SOL    HW111084   2.113   6.359   3.473
 3395SOL    HW211085   1.970   6.306   3.414
 3396SOL     OW11086   4.532   0.990   4.391
 3396SOL    HW111087   4.489   0.901   4.400
 3396SOL    HW211088   4.621   0.989   4.437
 3397SOL     OW11089   2.269   6.269   1.230
 3397SOL    HW111090   2.169   6.270   1.226
 3397SOL    HW211091   2.304   6.362   1.216
 3398SOL     OW11092   6.663   1.014   6.940
 3398SOL    HW111093   6.595   0.974   7.002
 3398SOL    HW211094   6.722   1.076   6.991
 3399SOL     OW11095   0.042   5.794   2.242
 3399SOL    HW111096   0.039   5.882   2.289
 3399SOL    HW211097   7.006   5.728   2.288
 3400SOL     OW11098   3.443   3.251   5.899
 3400SOL    HW111099   3.443   3.154   5.877
 3400SOL    HW211100   3.511   3.269   5.970
 3401SOL     OW11101   6.624   3.178   4.260
 3401SOL    HW111102   6.718   3.170   4.294
 3401SOL    HW211103   6.625   3.176   4.160
 3402SOL     OW11104   5.173   3.345   6.996
 3402SOL    HW111105   5.089   3.290   6.998
 3402SOL    HW211106   5.244   3.299   0.025
 3403SOL     OW11107   5.375   6.850   4.381
 3403SOL    HW111108   5.426   6.889   4.458
 3403SOL    HW211109   5.420   6.765   4.352
 3404SOL     OW11110   5.411   4.546   3.206
 3404SOL    HW111111   5.332   4.560   3.145
 3404SOL    HW211112   5.399   4.599   3.289
 3405SOL     OW11113   4.205   6.207   1.489
 3405SOL    HW111114   4.246   6.194   1.580
 3405SOL    HW211115   4.118   6.254   1.498
 3406SOL     OW11116   4.392   5.027   1.202
 3406SOL    HW111117   4.313   5.000   1.148
 3406SOL    HW211118   4.365   5.099   1.267
 3407SOL     OW11119   1.214   2.481   0.398
 3407SOL    HW111120   1.164   2.488   0.312
 3407SOL    HW211121   1.191   2.394   0.443
 3408SOL     OW11122   3.774   6.653   3.633
 3408SOL    HW111123   3.794   6.689   3.542
 3408SOL    HW211124   3.687   6.604   3.631
 3409SOL     OW11125   4.509   1.756   6.763
 3409SOL    HW111126   4.539   1.745   6.857
 3409SOL    HW211127   4.437   1.826   6.759
 3410SOL     OW11128   6.892   0.579   2.334
 3410SOL    HW111129   6.797   0.612   2.336
 3410SOL    HW211130   6.937   0.601   2.420
 3411SOL     OW11131   5.867   3.433   6.337
 3411SOL    HW111132   5.951   3.470   6.298
 3411SOL    HW211133   5.872   3.436   6.437
 3412SOL     OW11134   5.440   3.332   3.517
 3412SOL    HW111135   5.343   3.334   3.493
 3412SOL    HW211136   5.488   3.407   3.470
 3413SOL     OW11137   0.682   2.456   1.043
 3413SOL    HW111138   0.654   2.412   0.958
 3413SOL    HW211139   0.667   2.394   1.120
 3414SOL     OW11140   3.880   2.927   2.217
 3414SOL    HW111141   3.928   2.840   2.228
 3414SOL    HW211142   3.787   2.910   2.185
 3415SOL     OW11143   2.342   0.995   6.591
 3415SOL    HW111144   2.324   0.898   6.574
 3415SOL    HW211145   2.257   1.041   6.619
 3416SOL     OW11146   5.054   6.895   5.735
 3416SOL    HW111147   5.133   6.847   5.696
 3416SOL    HW211148   4.991   6.828   5.774
 3417SOL     OW11149   5.817   0.857   2.307
 3417SOL    HW111150   5.820   0.798   2.388
 3417SOL    HW211151   5.908   0.862   2.266
 3418SOL     OW11152   4.162   5.716   1.134
 3418SOL    HW111153   4.095   5.682   1.200
 3418SOL    HW211154   4.125   5.798   1.089
 3419SOL     OW11155   3.120   4.684   5.310
 3419SOL    HW111156   3.047   4.624   5.278
 3419SOL    HW211157   3.190   4.692   5.238
 3420SOL     OW11158   3.906   1.112   1.534
 3420SOL    HW111159   3.997   1.144   1.509
 3420SOL    HW211160   3.899   1.106   1.634
 3421SOL     OW11161   0.484   1.066   4.215
 3421SOL    HW111162   0.393   1.050   4.255
 3421SOL    HW211163   0.482   1.045   4.117
 3422SOL     OW11164   3.340   5.455   1.578
 3422SOL    HW111165   3.306   5.496   1.493
 3422SOL    HW211166   3.263   5.442   1.641
 3423SOL     OW11167   1.938   4.812   6.439
 3423SOL    HW111168   2.005   4.822   6.366
 3423SOL    HW211169   1.949   4.887   6.505
 3424SOL     OW11170   5.634   6.789   2.362
 3424SOL    HW111171   5.592   6.837   2.285
 3424SOL    HW211172   5.571   6.719   2.396
 3425SOL     OW11173   5.503   2.643   6.498
 3425SOL    HW111174   5.504   2.695   6.413
 3425SOL    HW211175   5.410   2.644   6.537
 3426SOL     OW11176   6.756   5.627   6.762
 3426SOL    HW111177   6.699   5.560   6.808
 3426SOL    HW211178   6.698   5.698   6.721
 3427SOL     OW11179   1.847   1.363   6.688
 3427SOL    HW111180   1.761   1.407   6.663
 3427SOL    HW211181   1.867   1.289   6.624
 3428SOL     OW11182   4.585   0.389   4.189
 3428SOL    HW111183   4.511   0.419   4.130
 3428SOL    HW211184   4.563   0.299   4.228
 3429SOL     OW11185   4.404   6.100   0.781
 3429SOL    HW111186   4.465   6.123   0.706
 3429SOL    HW211187   4.362   6.183   0.817
 3430SOL     OW11188   2.271   4.457   6.698
 3430SOL    HW111189   2.192   4.400   6.675
 3430SOL    HW211190   2.327   4.471   6.617
 3431SOL     OW11191   1.081   4.478   2.697
 3431SOL    HW111192   1.013   4.421   2.743
 3431SOL    HW211193   1.137   4.420   2.637
 3432SOL     OW11194   0.213   5.307   6.640
 3432SOL    HW111195   0.212   5.267   6.731
 3432SOL    HW211196   0.307   5.315   6.607
 3433SOL     OW11197   0.696   0.877   0.413
 3433SOL    HW111198   0.623   0.935   0.376
 3433SOL    HW211199   0.657   0.813   0.480
 3434SOL     OW11200   4.231   2.312   2.452
 3434SOL    HW111201   4.194   2.254   2.380
 3434SOL    HW211202   4.197   2.280   2.541
 3435SOL     OW11203   2.712   2.932   1.130
 3435SOL    HW111204   2.703   2.987   1.047
 3435SOL    HW211205   2.759   2.985   1.200
 3436SOL     OW11206   4.302   5.482   5.410
 3436SOL    HW111207   4.303   5.431   5.324
 3436SOL    HW211208   4.295   5.580   5.390
 3437SOL     OW11209   1.500   6.672   0.359
 3437SOL    HW111210   1.571   6.664   0.289
 3437SOL    HW211211   1.411   6.682   0.315
 3438SOL     OW11212   2.398   4.404   0.150
 3438SOL    HW111213   2.357   4.477   0.096
 3438SOL    HW211214   2.335   4.326   0.157
 3439SOL     OW11215   2.852   5.994   1.217
 3439SOL    HW111216   2.941   6.002   1.261
 3439SOL    HW211217   2.852   6.045   1.131
 3440SOL     OW11218   4.165   3.996   5.769
 3440SOL    HW111219   4.206   3.905   5.766
 3440SOL    HW211220   4.089   4.002   5.704
 3441SOL     OW11221   6.947   5.254   4.888
 3441SOL    HW111222   6.938   5.187   4.962
 3441SOL    HW211223   6.990   5.337   4.923
 3442SOL     OW11224   0.986   1.932   0.323
 3442SOL    HW111225   0.965   2.015   0.375
 3442SOL    HW211226   0.957   1.943   0.228
 3443SOL     OW11227   6.905   5.636   2.395
 3443SOL    HW111228   6.818   5.627   2.345
 3443SOL    HW211229   6.886   5.652   2.492
 3444SOL     OW11230   0.936   3.944   6.530
 3444SOL    HW111231   0.943   3.895   6.617
 3444SOL    HW211232   0.963   3.883   6.455
 3445SOL     OW11233   6.099   5.489   4.260
 3445SOL    HW111234   6.092   5.473   4.162
 3445SOL    HW211235   6.036   5.427   4.308
 3446SOL     OW11236   4.754   1.337   0.236
 3446SOL    HW111237   4.805   1.382   0.163
 3446SOL    HW211238   4.686   1.400   0.273
 3447SOL     OW11239   5.734   1.506   5.618
 3447SOL    HW111240   5.710   1.478   5.525
 3447SOL    HW211241   5.693   1.595   5.638
 3448SOL     OW11242   0.767   5.241   5.122
 3448SOL    HW111243   0.784   5.320   5.062
 3448SOL    HW211244   0.855   5.199   5.147
 3449SOL     OW11245   1.840   3.738   4.914
 3449SOL    HW111246   1.935   3.730   4.885
 3449SOL    HW211247   1.781   3.693   4.848
 3450SOL     OW11248   2.292   6.712   2.490
 3450SOL    HW111249   2.293   6.750   2.582
 3450SOL    HW211250   2.225   6.638   2.485
 3451SOL     OW11251   1.958   1.797   0.697
 3451SOL    HW111252   1.902   1.772   0.776
 3451SOL    HW211253   1.958   1.896   0.686
 3452SOL     OW11254   4.785   1.387   5.812
 3452SOL    HW111255   4.843   1.351   5.885
 3452SOL    HW211256   4.807   1.341   5.726
 3453SOL     OW11257   4.377   5.775   5.442
 3453SOL    HW111258   4.452   5.710   5.423
 3453SOL    HW211259   4.390   5.857   5.387
 3454SOL     OW11260   1.063   3.009   3.584
 3454SOL    HW111261   1.064   3.003   3.684
 3454SOL    HW211262   0.969   3.004   3.551
 3455SOL     OW11263   1.477   4.233   6.720
 3455SOL    HW111264   1.508   4.181   6.641
 3455SOL    HW211265   1.430   4.315   6.690
 3456SOL     OW11266   4.385   5.335   2.839
 3456SOL    HW111267   4.351   5.426   2.817
 3456SOL    HW211268   4.462   5.313   2.779
 3457SOL     OW11269   4.189   3.979   6.854
 3457SOL    HW111270   4.163   4.070   6.887
 3457SOL    HW211271   4.124   3.912   6.887
 3458SOL     OW11272   4.506   2.104   0.856
 3458SOL    HW111273   4.559   2.078   0.776
 3458SOL    HW211274   4.471   2.022   0.902
 3459SOL     OW11275   6.621   6.782   2.918
 3459SOL    HW111276   6.698   6.739   2.872
 3459SOL    HW211277   6.550   6.714   2.935
 3460SOL     OW11278   4.623   1.287   5.243
 3460SOL    HW111279   4.592   1.251   5.331
 3460SOL    HW211280   4.696   1.354   5.259
 3461SOL     OW11281   4.527   4.400   3.417
 3461SOL    HW111282   4.462   4.421   3.490
 3461SOL    HW211283   4.515   4.305   3.388
 3462SOL     OW11284   1.307   4.435   6.652
 3462SOL    HW111285   1.256   4.495   6.590
 3462SOL    HW211286   1.271   4.445   6.745
 3463SOL     OW11287   5.586   4.393   7.002
 3463SOL    HW111288   5.597   4.492   7.007
 3463SOL    HW211289   5.677   4.350   7.008
 3464SOL     OW11290   0.047   4.946   3.707
 3464SOL    HW111291   0.028   4.877   3.637
 3464SOL    HW211292   0.055   5.036   3.663
 3465SOL     OW11293   0.856   2.800   1.279
 3465SOL    HW111294   0.927   2.860   1.315
 3465SOL    HW211295   0.781   2.794   1.344
 3466SOL     OW11296   6.112   3.816   3.122
 3466SOL    HW111297   6.131   3.718   3.120
 3466SOL    HW211298   6.176   3.864   3.062
 3467SOL     OW11299   1.635   2.267   5.734
 3467SOL    HW111300   1.720   2.305   5.769
 3467SOL    HW211301   1.604   2.192   5.792
 3468SOL     OW11302   4.804   5.512   1.929
 3468SOL    HW111303   4.774   5.602   1.962
 3468SOL    HW211304   4.745   5.442   1.968
 3469SOL     OW11305   4.912   3.956   0.082
 3469SOL    HW111306   4.995   3.970   0.028
 3469SOL    HW211307   4.906   3.859   0.108
 3470SOL     OW11308   6.397   5.529   0.357
 3470SOL    HW111309   6.337   5.603   0.388
 3470SOL    HW211310   6.342   5.461   0.309
 3471SOL     OW11311   4.590   6.663   4.624
 3471SOL    HW111312   4.564   6.742   4.569
 3471SOL    HW211313   4.527   6.588   4.606
 3472SOL     OW11314   4.001   0.269   4.608
 3472SOL    HW111315   4.094   0.287   4.576
 3472SOL    HW211316   3.984   0.321   4.691
 3473SOL     OW11317   4.434   6.457   4.062
 3473SOL    HW111318   4.390   6.368   4.070
 3473SOL    HW211319   4.461   6.473   3.966
 3474SOL     OW11320   4.486   4.788   0.123
 3474SOL    HW111321   4.404   4.756   0.075
 3474SOL    HW211322   4.563   4.789   0.059
 3475SOL     OW11323   0.954   5.429   5.538
 3475SOL    HW111324   0.983   5.524   5.554
 3475SOL    HW211325   0.902   5.424   5.453
 3476SOL     OW11326   3.959   1.483   3.465
 3476SOL    HW111327   3.917   1.481   3.375
 3476SOL    HW211328   3.965   1.578   3.497
 3477SOL     OW11329   4.408   5.811   2.262
 3477SOL    HW111330   4.374   5.760   2.183
 3477SOL    HW211331   4.469   5.753   2.316
 3478SOL     OW11332   3.738   4.523   0.460
 3478SOL    HW111333   3.705   4.472   0.381
 3478SOL    HW211334   3.792   4.462   0.518
 3479SOL     OW11335   1.916   0.674   0.499
 3479SOL    HW111336   1.834   0.626   0.532
 3479SOL    HW211337   1.993   0.653   0.559
 3480SOL     OW11338   1.254   6.505   4.456
 3480SOL    HW111339   1.329   6.474   4.514
 3480SOL    HW211340   1.169   6.503   4.509
 3481SOL     OW11341   2.217   5.452   0.466
 3481SOL    HW111342   2.280   5.483   0.537
 3481SOL    HW211343   2.257   5.470   0.376
 3482SOL     OW11344   0.316   2.099   1.677
 3482SOL    HW111345   0.376   2.022   1.698
 3482SOL    HW211346   0.254   2.075   1.602
 3483SOL     OW11347   3.916   1.125   1.167
 3483SOL    HW111348   3.983   1.051   1.163
 3483SOL    HW211349   3.863   1.127   1.081
 3484SOL     OW11350   3.707   4.047   3.159
 3484SOL    HW111351   3.676   3.955   3.184
 3484SOL    HW211352   3.699   4.107   3.239
 3485SOL     OW11353   6.131   2.153   4.610
 3485SOL    HW111354   6.200   2.225   4.626
 3485SOL    HW211355   6.088   2.167   4.521
 3486SOL     OW11356   6.210   1.461   3.081
 3486SOL    HW111357   6.220   1.392   3.153
 3486SOL    HW211358   6.152   1.425   3.008
 3487SOL     OW11359   1.465   0.415   0.714
 3487SOL    HW111360   1.490   0.405   0.810
 3487SOL    HW211361   1.435   0.509   0.697
 3488SOL     OW11362   6.470   3.726   5.251
 3488SOL    HW111363   6.567   3.724   5.273
 3488SOL    HW211364   6.457   3.708   5.153
 3489SOL     OW11365   3.324   5.227   0.091
 3489SOL    HW111366   3.383   5.306   0.109
 3489SOL    HW211367   3.301   5.223   7.018
 3490SOL     OW11368   4.678   3.669   0.019
 3490SOL    HW111369   4.616   3.747   0.010
 3490SOL    HW211370   4.638   3.589   6.999
 3491SOL     OW11371   5.467   2.679   5.085
 3491SOL    HW111372   5.395   2.685   5.154
 3491SOL    HW211373   5.543   2.738   5.110
 3492SOL     OW11374   6.571   4.154   6.585
 3492SOL    HW111375   6.625   4.107   6.514
 3492SOL    HW211376   6.620   4.237   6.613
 3493SOL     OW11377   6.271   4.598   1.013
 3493SOL    HW111378   6.229   4.689   1.012
 3493SOL    HW211379   6.222   4.538   0.949
 3494SOL     OW11380   3.436   6.868   1.285
 3494SOL    HW111381   3.446   6.954   1.235
 3494SOL    HW211382   3.387   6.802   1.227
 3495SOL     OW11383   6.049   4.807   6.380
 3495SOL    HW111384   5.997   4.740   6.433
 3495SOL    HW211385   6.088   4.763   6.299
 3496SOL     OW11386   0.222   6.152   0.892
 3496SOL    HW111387   0.198   6.242   0.929
 3496SOL    HW211388   0.232   6.086   0.966
 3497SOL     OW11389   2.773   0.220   5.160
 3497SOL    HW111390   2.810   0.248   5.249
 3497SOL    HW211391   2.787   0.122   5.148
 3498SOL     OW11392   0.909   1.677   0.359
 3498SOL    HW111393   0.931   1.771   0.332
 3498SOL    HW211394   0.965   1.614   0.306
 3499SOL     OW11395   6.392   4.058   3.744
 3499SOL    HW111396   6.361   4.151   3.728
 3499SOL    HW211397   6.354   4.025   3.831
 3500SOL     OW11398   6.011   2.832   1.128
 3500SOL    HW111399   6.062   2.848   1.212
 3500SOL    HW211400   5.998   2.734   1.114
 3501SOL     OW11401   0.469   5.034   3.346
 3501SOL    HW111402   0.404   5.010   3.419
 3501SOL    HW211403   0.422   5.032   3.258
 3502SOL     OW11404   0.983   5.935   1.231
 3502SOL    HW111405   0.925   5.989   1.169
 3502SOL    HW211406   0.927   5.866   1.276
 3503SOL     OW11407   3.542   0.004   3.690
 3503SOL    HW111408   3.517   6.953   3.628
 3503SOL    HW211409   3.600   0.069   3.641
 3504SOL     OW11410   2.187   3.196   2.963
 3504SOL    HW111411   2.177   3.187   2.864
 3504SOL    HW211412   2.182   3.293   2.988
 3505SOL     OW11413   4.128   6.411   4.571
 3505SOL    HW111414   4.100   6.442   4.480
 3505SOL    HW211415   4.106   6.314   4.581
 3506SOL     OW11416   6.679   4.369   2.494
 3506SOL    HW111417   6.605   4.395   2.432
 3506SOL    HW211418   6.701   4.446   2.554
 3507SOL     OW11419   6.883   0.448   5.965
 3507SOL    HW111420   6.827   0.531   5.955
 3507SOL    HW211421   6.869   0.410   6.057
 3508SOL     OW11422   6.687   4.567   6.918
 3508SOL    HW111423   6.766   4.514   6.886
 3508SOL    HW211424   6.644   4.613   6.840
 3509SOL     OW11425   5.255   6.794   6.926
 3509SOL    HW111426   5.184   6.840   6.872
 3509SOL    HW211427   5.334   6.854   6.935
 3510SOL     OW11428   2.095   1.304   2.486
 3510SOL    HW111429   2.175   1.274   2.434
 3510SOL    HW211430   2.120   1.377   2.549
 3511SOL     OW11431   1.036   0.839   3.951
 3511SOL    HW111432   1.044   0.874   3.858
 3511SOL    HW211433   0.981   0.902   4.006
 3512SOL     OW11434   3.930   3.285   1.599
 3512SOL    HW111435   3.980   3.372   1.599
 3512SOL    HW211436   3.988   3.214   1.559
 3513SOL     OW11437   6.516   4.516   1.075
 3513SOL    HW111438   6.425   4.548   1.047
 3513SOL    HW211439   6.512   4.482   1.169
 3514SOL     OW11440   2.716   5.941   2.992
 3514SOL    HW111441   2.775   5.990   2.927
 3514SOL    HW211442   2.763   5.930   3.079
 3515SOL     OW11443   3.748   5.638   3.606
 3515SOL    HW111444   3.737   5.733   3.634
 3515SOL    HW211445   3.689   5.580   3.662
 3516SOL     OW11446   1.335   1.281   0.468
 3516SOL    HW111447   1.278   1.355   0.433
 3516SOL    HW211448   1.285   1.195   0.462
 3517SOL     OW11449   0.538   0.554   6.919
 3517SOL    HW111450   0.551   0.646   6.957
 3517SOL    HW211451   0.589   0.488   6.975
 3518SOL     OW11452   4.173   3.781   6.233
 3518SOL    HW111453   4.228   3.833   6.167
 3518SOL    HW211454   4.108   3.724   6.184
 3519SOL     OW11455   3.698   0.428   0.235
 3519SOL    HW111456   3.760   0.475   0.173
 3519SOL    HW211457   3.685   0.334   0.206
 3520SOL     OW11458   4.045   4.933   1.517
 3520SOL    HW111459   3.997   4.859   1.564
 3520SOL    HW211460   4.009   5.021   1.547
 3521SOL     OW11461   6.785   2.093   5.652
 3521SOL    HW111462   6.836   2.063   5.572
 3521SOL    HW211463   6.722   2.020   5.680
 3522SOL     OW11464   2.266   0.673   1.215
 3522SOL    HW111465   2.220   0.753   1.252
 3522SOL    HW211466   2.337   0.702   1.151
 3523SOL     OW11467   2.484   4.531   5.096
 3523SOL    HW111468   2.412   4.541   5.165
 3523SOL    HW211469   2.447   4.485   5.015
 3524SOL     OW11470   3.102   1.748   3.721
 3524SOL    HW111471   3.192   1.784   3.697
 3524SOL    HW211472   3.108   1.650   3.740
 3525SOL     OW11473   1.619   3.190   3.329
 3525SOL    HW111474   1.604   3.091   3.326
 3525SOL    HW211475   1.581   3.232   3.247
 3526SOL     OW11476   3.421   6.105   3.410
 3526SOL    HW111477   3.322   6.105   3.393
 3526SOL    HW211478   3.462   6.185   3.366
 3527SOL     OW11479   6.307   3.911   6.985
 3527SOL    HW111480   6.280   3.827   6.937
 3527SOL    HW211481   6.365   3.965   6.925
 3528SOL     OW11482   1.242   0.143   4.609
 3528SOL    HW111483   1.333   0.137   4.651
 3528SOL    HW211484   1.216   0.239   4.598
 3529SOL     OW11485   3.685   5.661   0.634
 3529SOL    HW111486   3.708   5.720   0.712
 3529SOL    HW211487   3.649   5.574   0.667
 3530SOL     OW11488   2.029   5.531   3.176
 3530SOL    HW111489   2.089   5.553   3.252
 3530SOL    HW211490   1.934   5.541   3.204
 3531SOL     OW11491   4.820   4.786   0.043
 3531SOL    HW111492   4.807   4.687   0.046
 3531SOL    HW211493   4.810   4.824   0.135
 3532SOL     OW11494   2.649   6.586   0.623
 3532SOL    HW111495   2.730   6.565   0.679
 3532SOL    HW211496   2.580   6.514   0.637
 3533SOL     OW11497   1.768   0.910   3.225
 3533SOL    HW111498   1.722   0.984   3.176
 3533SOL    HW211499   1.725   0.823   3.202
 3534SOL     OW11500   5.178   0.074   4.153
 3534SOL    HW111501   5.193   0.048   4.249
 3534SOL    HW211502   5.082   0.100   4.141
 3535SOL     OW11503   4.795   5.684   0.196
 3535SOL    HW111504   4.711   5.733   0.175
 3535SOL    HW211505   4.802   5.602   0.138
 3536SOL     OW11506   1.922   3.558   2.411
 3536SOL    HW111507   1.866   3.493   2.361
 3536SOL    HW211508   1.863   3.623   2.459
 3537SOL     OW11509   3.238   4.877   2.224
 3537SOL    HW111510   3.193   4.831   2.147
 3537SOL    HW211511   3.168   4.916   2.284
 3538SOL     OW11512   3.776   0.354   3.362
 3538SOL    HW111513   3.756   0.300   3.443
 3538SOL    HW211514   3.826   0.298   3.296
 3539SOL     OW11515   4.943   5.374   4.905
 3539SOL    HW111516   4.947   5.429   4.822
 3539SOL    HW211517   4.878   5.415   4.969
 3540SOL     OW11518   4.369   4.441   6.471
 3540SOL    HW111519   4.370   4.446   6.571
 3540SOL    HW211520   4.456   4.475   6.434
 3541SOL     OW11521   0.255   2.874   2.428
 3541SOL    HW111522   0.335   2.821   2.402
 3541SOL    HW211523   0.283   2.952   2.483
 3542SOL     OW11524   5.840   1.470   0.006
 3542SOL    HW111525   5.769   1.537   7.012
 3542SOL    HW211526   5.866   1.474   0.103
 3543SOL     OW11527   0.006   3.345   4.256
 3543SOL    HW111528   7.006   3.442   4.255
 3543SOL    HW211529   7.014   3.305   4.166
 3544SOL     OW11530   2.831   4.563   6.260
 3544SOL    HW111531   2.753   4.500   6.265
 3544SOL    HW211532   2.829   4.613   6.173
 3545SOL     OW11533   2.958   6.558   0.970
 3545SOL    HW111534   2.999   6.625   1.031
 3545SOL    HW211535   2.993   6.467   0.992
 3546SOL     OW11536   6.591   4.863   1.123
 3546SOL    HW111537   6.662   4.793   1.111
 3546SOL    HW211538   6.533   4.838   1.200
 3547SOL     OW11539   1.229   3.546   4.490
 3547SOL    HW111540   1.196   3.580   4.577
 3547SOL    HW211541   1.324   3.575   4.476
 3548SOL     OW11542   6.505   0.524   5.872
 3548SOL    HW111543   6.517   0.493   5.778
 3548SOL    HW211544   6.583   0.579   5.900
 3549SOL     OW11545   2.389   6.805   6.610
 3549SOL    HW111546   2.427   6.791   6.518
 3549SOL    HW211547   2.438   6.747   6.675
 3550SOL     OW11548   6.011   1.895   5.490
 3550SOL    HW111549   5.986   1.963   5.559
 3550SOL    HW211550   6.037   1.810   5.536
 3551SOL     OW11551   6.217   1.184   4.714
 3551SOL    HW111552   6.296   1.154   4.767
 3551SOL    HW211553   6.164   1.105   4.685
 3552SOL     OW11554   6.860   0.769   3.200
 3552SOL    HW111555   6.903   0.735   3.284
 3552SOL    HW211556   6.925   0.763   3.125
 3553SOL     OW11557   5.656   6.292   6.077
 3553SOL    HW111558   5.610   6.216   6.122
 3553SOL    HW211559   5.630   6.378   6.120
 3554SOL     OW11560   5.398   4.235   6.026
 3554SOL    HW111561   5.440   4.317   5.987
 3554SOL    HW211562   5.470   4.168   6.046
 3555SOL     OW11563   2.963   1.380   5.532
 3555SOL    HW111564   3.043   1.433   5.501
 3555SOL    HW211565   2.946   1.305   5.468
 3556SOL     OW11566   5.805   1.724   0.724
 3556SOL    HW111567   5.797   1.655   0.652
 3556SOL    HW211568   5.860   1.801   0.691
 3557SOL     OW11569   4.857   6.397   1.610
 3557SOL    HW111570   4.930   6.330   1.623
 3557SOL    HW211571   4.877   6.451   1.528
 3558SOL     OW11572   4.152   5.553   2.724
 3558SOL    HW111573   4.252   5.549   2.714
 3558SOL    HW211574   4.112   5.604   2.648
 3559SOL     OW11575   4.341   6.270   5.967
 3559SOL    HW111576   4.429   6.263   6.014
 3559SOL    HW211577   4.335   6.200   5.896
 3560SOL     OW11578   2.255   6.059   4.655
 3560SOL    HW111579   2.252   5.987   4.723
 3560SOL    HW211580   2.251   6.019   4.563
 3561SOL     OW11581   3.670   3.007   6.175
 3561SOL    HW111582   3.571   2.997   6.164
 3561SOL    HW211583   3.713   2.918   6.167
 3562SOL     OW11584   3.063   1.180   0.297
 3562SOL    HW111585   3.081   1.130   0.382
 3562SOL    HW211586   3.060   1.115   0.220
 3563SOL     OW11587   0.101   2.163   6.933
 3563SOL    HW111588   0.108   2.263   6.935
 3563SOL    HW211589   0.005   2.137   6.941
 3564SOL     OW11590   6.310   3.487   2.870
 3564SOL    HW111591   6.303   3.400   2.821
 3564SOL    HW211592   6.269   3.560   2.815
 3565SOL     OW11593   5.090   0.058   4.654
 3565SOL    HW111594   5.015   0.124   4.660
 3565SOL    HW211595   5.055   6.995   4.621
 3566SOL     OW11596   0.837   1.050   5.362
 3566SOL    HW111597   0.751   1.000   5.377
 3566SOL    HW211598   0.817   1.147   5.351
 3567SOL     OW11599   0.354   4.676   6.555
 3567SOL    HW111600   0.317   4.765   6.528
 3567SOL    HW211601   0.398   4.684   6.645
 3568SOL     OW11602   3.591   4.097   5.496
 3568SOL    HW111603   3.497   4.128   5.510
 3568SOL    HW211604   3.611   4.021   5.558
 3569SOL     OW11605   1.671   0.543   3.125
 3569SOL    HW111606   1.593   0.551   3.063
 3569SOL    HW211607   1.733   0.472   3.093
 3570SOL     OW11608   6.765   1.945   4.664
 3570SOL    HW111609   6.732   2.013   4.598
 3570SOL    HW211610   6.857   1.971   4.695
 3571SOL     OW11611   6.501   5.286   4.384
 3571SOL    HW111612   6.493   5.312   4.481
 3571SOL    HW211613   6.544   5.196   4.378
 3572SOL     OW11614   5.857   0.040   5.283
 3572SOL    HW111615   5.923   7.000   5.243
 3572SOL    HW211616   5.764   0.006   5.268
 3573SOL     OW11617   0.531   2.267   1.805
 3573SOL    HW111618   0.562   2.232   1.894
 3573SOL    HW211619   0.468   2.201   1.764
 3574SOL     OW11620   6.790   3.731   0.179
 3574SOL    HW111621   6.711   3.736   0.117
 3574SOL    HW211622   6.772   3.787   0.260
 3575SOL     OW11623   5.936   0.266   2.719
 3575SOL    HW111624   5.953   0.339   2.652
 3575SOL    HW211625   5.937   0.178   2.673
 3576SOL     OW11626   0.737   1.080   0.665
 3576SOL    HW111627   0.659   1.132   0.632
 3576SOL    HW211628   0.706   1.007   0.726
 3577SOL     OW11629   2.638   4.826   7.010
 3577SOL    HW111630   2.646   4.825   6.910
 3577SOL    HW211631   2.564   4.887   0.012
 3578SOL     OW11632   3.356   4.596   1.689
 3578SOL    HW111633   3.440   4.627   1.733
 3578SOL    HW211634   3.278   4.609   1.751
 3579SOL     OW11635   1.892   3.236   5.697
 3579SOL    HW111636   1.935   3.280   5.619
 3579SOL    HW211637   1.963   3.200   5.758
 3580SOL     OW11638   5.881   2.028   1.502
 3580SOL    HW111639   5.884   1.957   1.432
 3580SOL    HW211640   5.966   2.028   1.554
 3581SOL     OW11641   0.152   1.027   2.971
 3581SOL    HW111642   0.078   0.962   2.952
 3581SOL    HW211643   0.116   1.105   3.023
 3582SOL     OW11644   0.477   0.266   5.928
 3582SOL    HW111645   0.385   0.301   5.950
 3582SOL    HW211646   0.483   0.170   5.954
 3583SOL     OW11647   1.313   6.123   1.417
 3583SOL    HW111648   1.303   6.049   1.351
 3583SOL    HW211649   1.244   6.193   1.401
 3584SOL     OW11650   5.300   0.444   4.879
 3584SOL    HW111651   5.313   0.543   4.869
 3584SOL    HW211652   5.217   0.426   4.931
 3585SOL     OW11653   2.607   4.547   3.535
 3585SOL    HW111654   2.567   4.619   3.593
 3585SOL    HW211655   2.707   4.551   3.543
 3586SOL     OW11656   1.164   1.048   6.601
 3586SOL    HW111657   1.196   1.123   6.658
 3586SOL    HW211658   1.238   1.016   6.542
 3587SOL     OW11659   3.881   6.780   6.284
 3587SOL    HW111660   3.918   6.872   6.291
 3587SOL    HW211661   3.783   6.785   6.262
 3588SOL     OW11662   2.648   2.400   5.538
 3588SOL    HW111663   2.597   2.485   5.524
 3588SOL    HW211664   2.658   2.383   5.636
 3589SOL     OW11665   3.161   6.250   4.851
 3589SOL    HW111666   3.100   6.200   4.913
 3589SOL    HW211667   3.140   6.225   4.756
 3590SOL     OW11668   1.398   5.075   0.060
 3590SOL    HW111669   1.363   5.137   7.013
 3590SOL    HW211670   1.477   5.117   0.105
 3591SOL     OW11671   5.223   1.032   5.513
 3591SOL    HW111672   5.319   1.023   5.486
 3591SOL    HW211673   5.172   1.078   5.440
 3592SOL     OW11674   5.878   1.965   2.041
 3592SOL    HW111675   5.968   2.007   2.048
 3592SOL    HW211676   5.868   1.894   2.110
 3593SOL     OW11677   1.218   5.453   4.312
 3593SOL    HW111678   1.173   5.540   4.335
 3593SOL    HW211679   1.218   5.393   4.392
 3594SOL     OW11680   3.984   1.271   4.285
 3594SOL    HW111681   3.950   1.200   4.222
 3594SOL    HW211682   4.077   1.248   4.314
 3595SOL     OW11683   2.386   6.572   6.279
 3595SOL    HW111684   2.371   6.514   6.198
 3595SOL    HW211685   2.300   6.584   6.328
 3596SOL     OW11686   0.047   3.821   3.296
 3596SOL    HW111687   0.076   3.731   3.265
 3596SOL    HW211688   0.121   3.865   3.346
 3597SOL     OW11689   3.941   6.969   4.333
 3597SOL    HW111690   3.865   6.927   4.283
 3597SOL    HW211691   3.988   6.900   4.388
 3598SOL     OW11692   2.017   0.175   6.997
 3598SOL    HW111693   1.958   0.096   7.012
 3598SOL    HW211694   2.099   0.167   0.030
 3599SOL     OW11695   0.196   1.669   4.527
 3599SOL    HW111696   0.157   1.579   4.544
 3599SOL    HW211697   0.137   1.739   4.567
 3600SOL     OW11698   6.645   6.829   1.199
 3600SOL    HW111699   6.593   6.914   1.205
 3600SOL    HW211700   6.659   6.792   1.291
 3601SOL     OW11701   6.811   3.482   6.022
 3601SOL    HW111702   6.891   3.494   5.962
 3601SOL    HW211703   6.832   3.517   6.113
 3602SOL     OW11704   3.208   2.370   1.206
 3602SOL    HW111705   3.143   2.335   1.274
 3602SOL    HW211706   3.267   2.296   1.175
 3603SOL     OW11707   3.856   4.857   4.590
 3603SOL    HW111708   3.798   4.934   4.616
 3603SOL    HW211709   3.799   4.781   4.561
 3604SOL     OW11710   6.285   3.989   3.388
 3604SOL    HW111711   6.189   4.000   3.413
 3604SOL    HW211712   6.301   4.033   3.300
 3605SOL     OW11713   6.248   1.894   6.596
 3605SOL    HW111714   6.244   1.993   6.607
 3605SOL    HW211715   6.300   1.853   6.671
 3606SOL     OW11716   1.998   4.318   2.870
 3606SOL    HW111717   2.094   4.308   2.897
 3606SOL    HW211718   1.978   4.415   2.857
 3607SOL     OW11719   4.652   0.152   5.853
 3607SOL    HW111720   4.617   0.091   5.924
 3607SOL    HW211721   4.709   0.101   5.790
 3608SOL     OW11722   0.600   2.963   3.227
 3608SOL    HW111723   0.630   3.058   3.234
 3608SOL    HW211724   0.604   2.919   3.317
 3609SOL     OW11725   6.917   0.514   3.419
 3609SOL    HW111726   6.983   0.568   3.366
 3609SOL    HW211727   6.910   0.423   3.379
 3610SOL     OW11728   1.352   5.329   5.717
 3610SOL    HW111729   1.448   5.334   5.690
 3610SOL    HW211730   1.334   5.398   5.787
 3611SOL     OW11731   5.047   5.244   5.209
 3611SOL    HW111732   5.129   5.296   5.231
 3611SOL    HW211733   4.988   5.298   5.149
 3612SOL     OW11734   2.155   6.203   0.790
 3612SOL    HW111735   2.242   6.154   0.793
 3612SOL    HW211736   2.129   6.230   0.883
 3613SOL     OW11737   5.231   5.184   6.333
 3613SOL    HW111738   5.288   5.104   6.351
 3613SOL    HW211739   5.270   5.236   6.257
 3614SOL     OW11740   3.508   2.974   4.341
 3614SOL    HW111741   3.426   2.980   4.285
 3614SOL    HW211742   3.498   3.035   4.421
 3615SOL     OW11743   5.183   0.073   5.450
 3615SOL    HW111744   5.132   0.119   5.523
 3615SOL    HW211745   5.128   7.021   5.415
 3616SOL     OW11746   6.171   1.452   4.368
 3616SOL    HW111747   6.112   1.372   4.357
 3616SOL    HW211748   6.254   1.441   4.312
 3617SOL     OW11749   0.336   1.016   0.520
 3617SOL    HW111750   0.407   1.026   0.449
 3617SOL    HW211751   0.380   1.003   0.609
 3618SOL     OW11752   3.393   6.232   6.107
 3618SOL    HW111753   3.487   6.205   6.083
 3618SOL    HW211754   3.390   6.331   6.121
 3619SOL     OW11755   5.304   3.773   3.700
 3619SOL    HW111756   5.236   3.707   3.733
 3619SOL    HW211757   5.301   3.855   3.756
 3620SOL     OW11758   5.951   1.487   4.865
 3620SOL    HW111759   5.977   1.438   4.781
 3620SOL    HW211760   5.943   1.421   4.940
 3621SOL     OW11761   1.390   2.621   5.396
 3621SOL    HW111762   1.435   2.707   5.422
 3621SOL    HW211763   1.410   2.601   5.300
 3622SOL     OW11764   0.901   3.948   0.685
 3622SOL    HW111765   0.990   3.994   0.675
 3622SOL    HW211766   0.906   3.882   0.759
 3623SOL     OW11767   6.529   4.800   4.713
 3623SOL    HW111768   6.616   4.821   4.669
 3623SOL    HW211769   6.454   4.826   4.653
 3624SOL     OW11770   2.440   0.515   1.359
 3624SOL    HW111771   2.357   0.559   1.326
 3624SOL    HW211772   2.483   0.464   1.284
 3625SOL     OW11773   0.921   2.687   4.240
 3625SOL    HW111774   0.942   2.590   4.250
 3625SOL    HW211775   1.002   2.735   4.206
 3626SOL     OW11776   2.368   3.967   5.617
 3626SOL    HW111777   2.448   3.973   5.676
 3626SOL    HW211778   2.396   3.972   5.522
 3627SOL     OW11779   3.481   3.338   3.976
 3627SOL    HW111780   3.538   3.271   4.024
 3627SOL    HW211781   3.539   3.411   3.940
 3628SOL     OW11782   2.306   5.913   4.358
 3628SOL    HW111783   2.247   5.930   4.279
 3628SOL    HW211784   2.356   5.827   4.344
 3629SOL     OW11785   5.977   3.367   5.237
 3629SOL    HW111786   5.942   3.296   5.176
 3629SOL    HW211787   5.926   3.367   5.323
 3630SOL     OW11788   5.767   1.083   4.951
 3630SOL    HW111789   5.669   1.064   4.959
 3630SOL    HW211790   5.784   1.137   4.868
 3631SOL     OW11791   2.128   0.734   3.902
 3631SOL    HW111792   2.134   0.739   4.002
 3631SOL    HW211793   2.115   0.827   3.866
 3632SOL     OW11794   4.861   6.770   6.017
 3632SOL    HW111795   4.904   6.716   5.945
 3632SOL    HW211796   4.880   6.867   6.002
 3633SOL     OW11797   1.166   2.572   5.508
 3633SOL    HW111798   1.087   2.566   5.447
 3633SOL    HW211799   1.248   2.588   5.455
 3634SOL     OW11800   3.055   5.207   6.045
 3634SOL    HW111801   3.039   5.118   6.088
 3634SOL    HW211802   3.000   5.215   5.962
 3635SOL     OW11803   2.459   1.681   5.005
 3635SOL    HW111804   2.428   1.737   5.081
 3635SOL    HW211805   2.386   1.673   4.937
 3636SOL     OW11806   1.271   6.037   0.913
 3636SOL    HW111807   1.241   6.094   0.989
 3636SOL    HW211808   1.219   6.059   0.831
 3637SOL     OW11809   5.050   0.684   1.681
 3637SOL    HW111810   5.017   0.724   1.767
 3637SOL    HW211811   5.147   0.662   1.690
 3638SOL     OW11812   6.413   4.680   3.511
 3638SOL    HW111813   6.383   4.615   3.442
 3638SOL    HW211814   6.334   4.712   3.564
 3639SOL     OW11815   2.954   6.355   0.052
 3639SOL    HW111816   2.989   6.420   0.119
 3639SOL    HW211817   3.009   6.272   0.053
 3640SOL     OW11818   2.383   0.084   1.857
 3640SOL    HW111819   2.397   0.106   1.760
 3640SOL    HW211820   2.374   7.009   1.868
 3641SOL     OW11821   1.962   0.707   4.611
 3641SOL    HW111822   1.972   0.643   4.688
 3641SOL    HW211823   1.898   0.780   4.636
 3642SOL     OW11824   6.070   6.839   2.315
 3642SOL    HW111825   5.982   6.800   2.288
 3642SOL    HW211826   6.074   6.935   2.286
 3643SOL     OW11827   3.627   6.118   4.783
 3643SOL    HW111828   3.626   6.020   4.764
 3643SOL    HW211829   3.576   6.167   4.712
 3644SOL     OW11830   6.443   7.004   1.774
 3644SOL    HW111831   6.347   6.990   1.799
 3644SOL    HW211832   6.470   0.074   1.795
 3645SOL     OW11833   4.310   5.737   3.354
 3645SOL    HW111834   4.280   5.765   3.446
 3645SOL    HW211835   4.234   5.692   3.307
 3646SOL     OW11836   0.346   5.457   5.048
 3646SOL    HW111837   0.358   5.474   5.146
 3646SOL    HW211838   0.411   5.513   4.996
 3647SOL     OW11839   2.930   3.189   0.885
 3647SOL    HW111840   2.882   3.230   0.963
 3647SOL    HW211841   2.879   3.111   0.851
 3648SOL     OW11842   2.985   6.976   3.321
 3648SOL    HW111843   2.905   0.010   3.334
 3648SOL    HW211844   2.985   6.903   3.390
 3649SOL     OW11845   3.344   3.231   1.928
 3649SOL    HW111846   3.419   3.288   1.893
 3649SOL    HW211847   3.258   3.264   1.891
 3650SOL     OW11848   5.788   6.893   0.823
 3650SOL    HW111849   5.695   6.930   0.813
 3650SOL    HW211850   5.840   6.951   0.886
 3651SOL     OW11851   1.467   6.151   2.512
 3651SOL    HW111852   1.478   6.074   2.449
 3651SOL    HW211853   1.415   6.224   2.467
 3652SOL     OW11854   4.646   5.759   2.568
 3652SOL    HW111855   4.699   5.686   2.611
 3652SOL    HW211856   4.705   5.838   2.550
 3653SOL     OW11857   6.219   2.837   4.496
 3653SOL    HW111858   6.257   2.786   4.573
 3653SOL    HW211859   6.170   2.775   4.435
 3654SOL     OW11860   2.080   0.165   2.066
 3654SOL    HW111861   1.994   0.214   2.082
 3654SOL    HW211862   2.083   0.134   1.971
 3655SOL     OW11863   6.723   1.674   3.813
 3655SOL    HW111864   6.694   1.610   3.884
 3655SOL    HW211865   6.725   1.626   3.725
 3656SOL     OW11866   2.437   1.773   2.916
 3656SOL    HW111867   2.405   1.865   2.897
 3656SOL    HW211868   2.476   1.769   3.008
 3657SOL     OW11869   4.652   5.312   2.027
 3657SOL    HW111870   4.591   5.348   2.097
 3657SOL    HW211871   4.615   5.226   1.991
 3658SOL     OW11872   2.303   5.201   5.975
 3658SOL    HW111873   2.320   5.164   5.884
 3658SOL    HW211874   2.323   5.131   6.044
 3659SOL     OW11875   1.127   4.226   0.157
 3659SOL    HW111876   1.204   4.188   0.106
 3659SOL    HW211877   1.057   4.155   0.169
 3660SOL     OW11878   4.284   4.474   0.923
 3660SOL    HW111879   4.235   4.398   0.880
 3660SOL    HW211880   4.344   4.438   0.995
 3661SOL     OW11881   5.608   1.554   1.386
 3661SOL    HW111882   5.656   1.466   1.385
 3661SOL    HW211883   5.515   1.541   1.419
 3662SOL     OW11884   1.786   6.248   4.804
 3662SOL    HW111885   1.751   6.234   4.711
 3662SOL    HW211886   1.805   6.345   4.817
 3663SOL     OW11887   1.627   3.285   5.795
 3663SOL    HW111888   1.636   3.379   5.828
 3663SOL    HW211889   1.717   3.243   5.787
 3664SOL     OW11890   3.557   6.800   2.269
 3664SOL    HW111891   3.624   6.743   2.222
 3664SOL    HW211892   3.574   6.896   2.249
 3665SOL     OW11893   1.902   1.455   5.424
 3665SOL    HW111894   1.915   1.501   5.336
 3665SOL    HW211895   1.888   1.524   5.496
 3666SOL     OW11896   1.252   4.643   3.938
 3666SOL    HW111897   1.310   4.720   3.914
 3666SOL    HW211898   1.167   4.677   3.978
 3667SOL     OW11899   0.742   1.441   0.019
 3667SOL    HW111900   0.744   1.513   6.974
 3667SOL    HW211901   0.708   1.478   0.105
 3668SOL     OW11902   1.896   6.709   2.235
 3668SOL    HW111903   1.856   6.707   2.327
 3668SOL    HW211904   1.953   6.628   2.221
 3669SOL     OW11905   5.321   1.497   3.939
 3669SOL    HW111906   5.242   1.496   3.877
 3669SOL    HW211907   5.293   1.531   4.028
 3670SOL     OW11908   2.493   5.824   6.320
 3670SOL    HW111909   2.556   5.898   6.296
 3670SOL    HW211910   2.445   5.793   6.238
 3671SOL     OW11911   2.222   0.414   3.509
 3671SOL    HW111912   2.148   0.354   3.478
 3671SOL    HW211913   2.183   0.494   3.555
 3672SOL     OW11914   6.329   6.831   0.713
 3672SOL    HW111915   6.355   6.928   0.711
 3672SOL    HW211916   6.368   6.784   0.634
 3673SOL     OW11917   4.591   6.790   6.455
 3673SOL    HW111918   4.505   6.795   6.507
 3673SOL    HW211919   4.585   6.850   6.376
 3674SOL     OW11920   1.143   6.330   0.586
 3674SOL    HW111921   1.115   6.422   0.558
 3674SOL    HW211922   1.219   6.337   0.651
 3675SOL     OW11923   2.192   2.258   4.323
 3675SOL    HW111924   2.193   2.339   4.264
 3675SOL    HW211925   2.174   2.286   4.417
 3676SOL     OW11926   1.376   4.522   2.459
 3676SOL    HW111927   1.298   4.581   2.480
 3676SOL    HW211928   1.371   4.439   2.514
 3677SOL     OW11929   5.954   0.380   3.910
 3677SOL    HW111930   5.902   0.459   3.943
 3677SOL    HW211931   5.911   0.296   3.944
 3678SOL     OW11932   0.990   2.110   3.974
 3678SOL    HW111933   0.977   2.073   4.066
 3678SOL    HW211934   1.086   2.136   3.962
 3679SOL     OW11935   6.825   0.575   1.905
 3679SOL    HW111936   6.868   0.525   1.980
 3679SOL    HW211937   6.730   0.598   1.930
 3680SOL     OW11938   5.806   4.243   4.774
 3680SOL    HW111939   5.893   4.288   4.754
 3680SOL    HW211940   5.731   4.305   4.750
 3681SOL     OW11941   5.267   6.395   4.438
 3681SOL    HW111942   5.316   6.392   4.351
 3681SOL    HW211943   5.277   6.307   4.484
 3682SOL     OW11944   0.641   2.544   6.872
 3682SOL    HW111945   0.547   2.529   6.903
 3682SOL    HW211946   0.640   2.600   6.789
 3683SOL     OW11947   5.489   6.211   3.291
 3683SOL    HW111948   5.515   6.166   3.206
 3683SOL    HW211949   5.570   6.249   3.335
 3684SOL     OW11950   2.090   3.156   0.869
 3684SOL    HW111951   2.009   3.144   0.926
 3684SOL    HW211952   2.115   3.068   0.828
 3685SOL     OW11953   5.629   6.856   6.087
 3685SOL    HW111954   5.680   6.795   6.026
 3685SOL    HW211955   5.692   6.922   6.128
 3686SOL     OW11956   6.938   4.242   0.836
 3686SOL    HW111957   7.002   4.211   0.766
 3686SOL    HW211958   6.862   4.291   0.794
 3687SOL     OW11959   3.759   1.561   0.444
 3687SOL    HW111960   3.856   1.540   0.433
 3687SOL    HW211961   3.716   1.492   0.503
 3688SOL     OW11962   6.882   3.373   0.343
 3688SOL    HW111963   6.899   3.300   0.409
 3688SOL    HW211964   6.834   3.335   0.264
 3689SOL     OW11965   2.227   6.755   3.502
 3689SOL    HW111966   2.267   6.680   3.554
 3689SOL    HW211967   2.144   6.723   3.455
 3690SOL     OW11968   4.676   5.578   4.801
 3690SOL    HW111969   4.756   5.528   4.769
 3690SOL    HW211970   4.600   5.514   4.813
 3691SOL     OW11971   3.028   3.243   5.910
 3691SOL    HW111972   3.043   3.295   5.994
 3691SOL    HW211973   3.040   3.145   5.929
 3692SOL     OW11974   0.205   0.285   6.008
 3692SOL    HW111975   0.207   0.197   6.055
 3692SOL    HW211976   0.134   0.284   5.938
 3693SOL     OW11977   1.915   1.153   3.595
 3693SOL    HW111978   1.935   1.078   3.531
 3693SOL    HW211979   1.817   1.157   3.612
 3694SOL     OW11980   2.098   5.258   3.046
 3694SOL    HW111981   2.057   5.349   3.044
 3694SOL    HW211982   2.049   5.198   2.983
 3695SOL     OW11983   1.768   2.398   0.846
 3695SOL    HW111984   1.710   2.472   0.881
 3695SOL    HW211985   1.746   2.313   0.893
 3696SOL     OW11986   3.137   6.566   5.745
 3696SOL    HW111987   3.131   6.542   5.842
 3696SOL    HW211988   3.059   6.623   5.720
 3697SOL     OW11989   5.098   0.634   3.964
 3697SOL    HW111990   5.016   0.578   3.979
 3697SOL    HW211991   5.125   0.676   4.051
 3698SOL     OW11992   3.440   6.968   6.481
 3698SOL    HW111993   3.522   6.957   6.424
 3698SOL    HW211994   3.363   6.993   6.423
 3699SOL     OW11995   0.394   5.250   1.791
 3699SOL    HW111996   0.494   5.252   1.796
 3699SOL    HW211997   0.357   5.222   1.880
 3700SOL     OW11998   6.665   0.807   3.627
 3700SOL    HW111999   6.668   0.839   3.532
 3700SOL    HW212000   6.701   0.878   3.688
 3701SOL     OW12001   5.456   0.645   3.956
 3701SOL    HW112002   5.549   0.663   3.926
 3701SOL    HW212003   5.439   0.546   3.958
 3702SOL     OW12004   5.228   0.946   6.291
 3702SOL    HW112005   5.213   0.965   6.388
 3702SOL    HW212006   5.271   0.856   6.281
 3703SOL     OW12007   3.579   5.053   0.870
 3703SOL    HW112008   3.567   5.035   0.772
 3703SOL    HW212009   3.666   5.015   0.901
 3704SOL     OW12010   3.188   6.541   1.543
 3704SOL    HW112011   3.273   6.564   1.591
 3704SOL    HW212012   3.123   6.617   1.552
 3705SOL     OW12013   6.534   1.200   4.162
 3705SOL    HW112014   6.616   1.152   4.131
 3705SOL    HW212015   6.456   1.173   4.106
 3706SOL     OW12016   3.235   2.181   3.513
 3706SOL    HW112017   3.274   2.273   3.515
 3706SOL    HW212018   3.271   2.131   3.434
 3707SOL     OW12019   4.431   2.515   5.440
 3707SOL    HW112020   4.488   2.553   5.368
 3707SOL    HW212021   4.465   2.546   5.529
 3708SOL     OW12022   6.530   0.620   6.855
 3708SOL    HW112023   6.570   0.698   6.808
 3708SOL    HW212024   6.588   0.594   6.932
 3709SOL     OW12025   6.158   0.209   7.024
 3709SOL    HW112026   6.132   0.135   6.962
 3709SOL    HW212027   6.249   0.242   7.000
 3710SOL     OW12028   0.482   4.710   6.794
 3710SOL    HW112029   0.436   4.629   6.830
 3710SOL    HW212030   0.567   4.683   6.750
 3711SOL     OW12031   6.775   5.229   2.501
 3711SOL    HW112032   6.745   5.197   2.411
 3711SOL    HW212033   6.859   5.182   2.527
 3712SOL     OW12034   1.642   0.477   6.562
 3712SOL    HW112035   1.634   0.460   6.660
 3712SOL    HW212036   1.620   0.573   6.542
 3713SOL     OW12037   3.786   4.913   6.048
 3713SOL    HW112038   3.813   4.967   5.968
 3713SOL    HW212039   3.864   4.907   6.111
 3714SOL     OW12040   4.700   1.714   5.173
 3714SOL    HW112041   4.751   1.799   5.166
 3714SOL    HW212042   4.615   1.729   5.224
 3715SOL     OW12043   5.374   4.030   3.829
 3715SOL    HW112044   5.384   4.112   3.886
 3715SOL    HW212045   5.369   4.057   3.733
 3716SOL     OW12046   0.682   1.285   4.242
 3716SOL    HW112047   0.619   1.208   4.227
 3716SOL    HW212048   0.776   1.251   4.246
 3717SOL     OW12049   5.963   0.677   6.927
 3717SOL    HW112050   5.865   0.677   6.949
 3717SOL    HW212051   6.015   0.657   7.010
 3718SOL     OW12052   0.639   5.859   6.716
 3718SOL    HW112053   0.593   5.889   6.800
 3718SOL    HW212054   0.570   5.837   6.647
 3719SOL     OW12055   3.373   4.764   0.578
 3719SOL    HW112056   3.327   4.830   0.519
 3719SOL    HW212057   3.471   4.780   0.577
 3720SOL     OW12058   0.166   1.148   5.789
 3720SOL    HW112059   0.245   1.202   5.816
 3720SOL    HW212060   0.194   1.053   5.774
 3721SOL     OW12061   4.996   3.352   0.204
 3721SOL    HW112062   4.984   3.321   0.109
 3721SOL    HW212063   5.076   3.308   0.244
 3722SOL     OW12064   5.782   5.854   1.310
 3722SOL    HW112065   5.752   5.909   1.232
 3722SOL    HW212066   5.743   5.762   1.304
 3723SOL     OW12067   4.841   0.880   0.221
 3723SOL    HW112068   4.807   0.960   0.172
 3723SOL    HW212069   4.764   0.828   0.258
 3724SOL     OW12070   0.612   4.276   5.850
 3724SOL    HW112071   0.589   4.257   5.755
 3724SOL    HW212072   0.594   4.372   5.871
 3725SOL     OW12073   5.790   6.155   0.848
 3725SOL    HW112074   5.715   6.190   0.792
 3725SOL    HW212075   5.851   6.230   0.873
 3726SOL     OW12076   6.148   2.836   1.355
 3726SOL    HW112077   6.245   2.857   1.345
 3726SOL    HW212078   6.135   2.764   1.423
 3727SOL     OW12079   2.549   2.733   5.262
 3727SOL    HW112080   2.513   2.820   5.228
 3727SOL    HW212081   2.551   2.666   5.187
 3728SOL     OW12082   0.496   3.821   6.814
 3728SOL    HW112083   0.471   3.752   6.882
 3728SOL    HW212084   0.553   3.778   6.743
 3729SOL     OW12085   0.764   3.137   4.036
 3729SOL    HW112086   0.804   3.096   3.954
 3729SOL    HW212087   0.672   3.100   4.050
 3730SOL     OW12088   2.114   0.445   1.173
 3730SOL    HW112089   2.177   0.520   1.195
 3730SOL    HW212090   2.156   0.384   1.107
 3731SOL     OW12091   2.967   5.481   6.776
 3731SOL    HW112092   2.989   5.538   6.855
 3731SOL    HW212093   2.868   5.484   6.760
 3732SOL     OW12094   2.160   3.578   4.389
 3732SOL    HW112095   2.191   3.581   4.294
 3732SOL    HW212096   2.193   3.659   4.438
 3733SOL     OW12097   3.473   3.724   0.900
 3733SOL    HW112098   3.518   3.666   0.967
 3733SOL    HW212099   3.375   3.728   0.919
 3734SOL     OW12100   4.485   0.168   3.462
 3734SOL    HW112101   4.541   0.229   3.406
 3734SOL    HW212102   4.495   0.074   3.429
 3735SOL     OW12103   3.444   2.021   2.010
 3735SOL    HW112104   3.382   2.078   1.956
 3735SOL    HW212105   3.531   2.069   2.024
 3736SOL     OW12106   5.034   1.080   5.884
 3736SOL    HW112107   5.018   0.995   5.933
 3736SOL    HW212108   5.070   1.149   5.946
 3737SOL     OW12109   3.720   6.733   3.930
 3737SOL    HW112110   3.802   6.680   3.953
 3737SOL    HW212111   3.662   6.680   3.868
 3738SOL     OW12112   7.010   0.033   4.223
 3738SOL    HW112113   0.064   0.080   4.182
 3738SOL    HW212114   6.939   0.101   4.245
 3739SOL     OW12115   0.616   3.162   1.179
 3739SOL    HW112116   0.585   3.204   1.264
 3739SOL    HW212117   0.716   3.162   1.178
 3740SOL     OW12118   5.316   0.304   6.796
 3740SOL    HW112119   5.415   0.312   6.791
 3740SOL    HW212120   5.283   0.247   6.721
 3741SOL     OW12121   3.440   2.165   6.779
 3741SOL    HW112122   3.532   2.182   6.744
 3741SOL    HW212123   3.443   2.087   6.842
 3742SOL     OW12124   3.567   3.508   5.882
 3742SOL    HW112125   3.591   3.444   5.955
 3742SOL    HW212126   3.484   3.557   5.907
 3743SOL     OW12127   0.819   5.820   6.328
 3743SOL    HW112128   0.857   5.747   6.386
 3743SOL    HW212129   0.869   5.905   6.346
 3744SOL     OW12130   6.368   5.545   3.038
 3744SOL    HW112131   6.351   5.475   3.109
 3744SOL    HW212132   6.396   5.500   2.954
 3745SOL     OW12133   5.156   5.001   1.863
 3745SOL    HW112134   5.058   4.984   1.869
 3745SOL    HW212135   5.183   5.007   1.767
 3746SOL     OW12136   4.262   1.711   1.587
 3746SOL    HW112137   4.360   1.724   1.599
 3746SOL    HW212138   4.233   1.629   1.637
 3747SOL     OW12139   3.062   0.514   0.624
 3747SOL    HW112140   3.066   0.549   0.717
 3747SOL    HW212141   3.100   0.422   0.621
 3748SOL     OW12142   5.119   0.281   1.525
 3748SOL    HW112143   5.173   0.209   1.482
 3748SOL    HW212144   5.176   0.333   1.588
 3749SOL     OW12145   1.433   0.882   3.909
 3749SOL    HW112146   1.473   0.821   3.977
 3749SOL    HW212147   1.385   0.828   3.840
 3750SOL     OW12148   0.367   4.135   6.276
 3750SOL    HW112149   0.376   4.124   6.375
 3750SOL    HW212150   0.354   4.232   6.254
 3751SOL     OW12151   1.630   4.986   1.297
 3751SOL    HW112152   1.720   5.007   1.260
 3751SOL    HW212153   1.578   5.070   1.308
 3752SOL     OW12154   5.206   6.042   6.944
 3752SOL    HW112155   5.273   6.048   6.870
 3752SOL    HW212156   5.233   5.968   7.007
 3753SOL     OW12157   0.816   0.403   3.272
 3753SOL    HW112158   0.792   0.466   3.346
 3753SOL    HW212159   0.909   0.369   3.286
 3754SOL     OW12160   3.196   1.452   1.568
 3754SOL    HW112161   3.159   1.545   1.566
 3754SOL    HW212162   3.266   1.442   1.497
 3755SOL     OW12163   2.480   5.669   4.058
 3755SOL    HW112164   2.484   5.682   4.157
 3755SOL    HW212165   2.568   5.693   4.017
 3756SOL     OW12166   1.576   6.840   0.555
 3756SOL    HW112167   1.566   6.778   0.477
 3756SOL    HW212168   1.490   6.888   0.570
 3757SOL     OW12169   0.263   4.569   0.354
 3757SOL    HW112170   0.183   4.543   0.300
 3757SOL    HW212171   0.336   4.501   0.340
 3758SOL     OW12172   1.273   6.630   3.982
 3758SOL    HW112173   1.226   6.625   4.070
 3758SOL    HW212174   1.352   6.568   3.983
 3759SOL     OW12175   4.576   0.240   3.869
 3759SOL    HW112176   4.518   0.275   3.796
 3759SOL    HW212177   4.648   0.307   3.889
 3760SOL     OW12178   1.046   0.885   2.918
 3760SOL    HW112179   1.061   0.812   2.852
 3760SOL    HW212180   1.100   0.869   3.000
 3761SOL     OW12181   4.967   1.585   5.616
 3761SOL    HW112182   4.889   1.598   5.678
 3761SOL    HW212183   4.934   1.562   5.525
 3762SOL     OW12184   0.583   2.332   4.066
 3762SOL    HW112185   0.674   2.373   4.058
 3762SOL    HW212186   0.539   2.366   4.148
 3763SOL     OW12187   0.428   5.841   6.463
 3763SOL    HW112188   0.330   5.830   6.478
 3763SOL    HW212189   0.446   5.927   6.415
 3764SOL     OW12190   3.123   1.102   2.768
 3764SOL    HW112191   3.043   1.064   2.815
 3764SOL    HW212192   3.141   1.194   2.804
 3765SOL     OW12193   5.467   2.955   2.655
 3765SOL    HW112194   5.465   2.955   2.555
 3765SOL    HW212195   5.377   2.984   2.690
 3766SOL     OW12196   1.843   2.832   2.343
 3766SOL    HW112197   1.812   2.740   2.366
 3766SOL    HW212198   1.855   2.839   2.244
 3767SOL     OW12199   1.906   6.202   6.150
 3767SOL    HW112200   1.974   6.229   6.219
 3767SOL    HW212201   1.914   6.261   6.070
 3768SOL     OW12202   1.623   6.730   2.860
 3768SOL    HW112203   1.714   6.721   2.901
 3768SOL    HW212204   1.616   6.818   2.813
 3769SOL     OW12205   5.175   5.313   4.594
 3769SOL    HW112206   5.197   5.338   4.688
 3769SOL    HW212207   5.120   5.385   4.552
 3770SOL     OW12208   3.041   0.059   1.358
 3770SOL    HW112209   2.983   7.002   1.345
 3770SOL    HW212210   3.131   0.031   1.390
 3771SOL     OW12211   6.790   6.111   5.584
 3771SOL    HW112212   6.724   6.037   5.579
 3771SOL    HW212213   6.853   6.094   5.660
 3772SOL     OW12214   2.153   6.191   2.195
 3772SOL    HW112215   2.108   6.149   2.116
 3772SOL    HW212216   2.105   6.165   2.279
 3773SOL     OW12217   4.487   4.736   6.661
 3773SOL    HW112218   4.445   4.657   6.706
 3773SOL    HW212219   4.523   4.709   6.572
 3774SOL     OW12220   6.706   4.656   1.444
 3774SOL    HW112221   6.712   4.649   1.345
 3774SOL    HW212222   6.681   4.750   1.469
 3775SOL     OW12223   5.364   5.507   4.439
 3775SOL    HW112224   5.420   5.433   4.477
 3775SOL    HW212225   5.325   5.561   4.514
 3776SOL     OW12226   4.176   2.789   6.138
 3776SOL    HW112227   4.147   2.698   6.166
 3776SOL    HW212228   4.101   2.835   6.089
 3777SOL     OW12229   2.753   5.018   3.918
 3777SOL    HW112230   2.662   5.037   3.884
 3777SOL    HW212231   2.817   5.012   3.842
 3778SOL     OW12232   2.951   5.004   6.806
 3778SOL    HW112233   3.003   4.921   6.784
 3778SOL    HW212234   2.982   5.079   6.748
 3779SOL     OW12235   0.022   4.791   6.462
 3779SOL    HW112236   0.118   4.817   6.472
 3779SOL    HW212237   0.004   4.769   6.366
 3780SOL     OW12238   6.212   2.948   1.891
 3780SOL    HW112239   6.198   2.855   1.925
 3780SOL    HW212240   6.125   2.986   1.861
 3781SOL     OW12241   1.709   6.684   5.890
 3781SOL    HW112242   1.769   6.748   5.842
 3781SOL    HW212243   1.653   6.634   5.824
 3782SOL     OW12244   3.876   5.448   0.422
 3782SOL    HW112245   3.824   5.533   0.415
 3782SOL    HW212246   3.968   5.467   0.457
 3783SOL     OW12247   4.460   4.856   5.228
 3783SOL    HW112248   4.532   4.893   5.287
 3783SOL    HW212249   4.419   4.930   5.175
 3784SOL     OW12250   5.882   3.185   5.066
 3784SOL    HW112251   5.786   3.198   5.091
 3784SOL    HW212252   5.888   3.129   4.984
 3785SOL     OW12253   1.153   2.940   2.614
 3785SOL    HW112254   1.127   2.926   2.710
 3785SOL    HW212255   1.243   2.985   2.611
 3786SOL     OW12256   1.960   2.667   5.515
 3786SOL    HW112257   1.868   2.651   5.550
 3786SOL    HW212258   1.956   2.720   5.431
 3787SOL     OW12259   4.895   5.859   4.286
 3787SOL    HW112260   4.938   5.794   4.224
 3787SOL    HW212261   4.829   5.914   4.235
 3788SOL     OW12262   5.799   3.279   6.045
 3788SOL    HW112263   5.731   3.221   6.090
 3788SOL    HW212264   5.877   3.292   6.106
 3789SOL     OW12265   2.023   3.285   1.380
 3789SOL    HW112266   1.985   3.372   1.350
 3789SOL    HW212267   1.963   3.210   1.350
 3790SOL     OW12268   1.297   6.777   1.277
 3790SOL    HW112269   1.216   6.835   1.266
 3790SOL    HW212270   1.376   6.835   1.299
 3791SOL     OW12271   4.636   0.384   4.687
 3791SOL    HW112272   4.659   0.465   4.742
 3791SOL    HW212273   4.585   0.413   4.606
 3792SOL     OW12274   5.980   6.848   3.836
 3792SOL    HW112275   5.960   6.752   3.855
 3792SOL    HW212276   5.974   6.900   3.921
 3793SOL     OW12277   4.504   4.051   0.299
 3793SOL    HW112278   4.549   4.131   0.338
 3793SOL    HW212279   4.532   3.969   0.348
 3794SOL     OW12280   1.302   5.167   6.806
 3794SOL    HW112281   1.281   5.126   6.717
 3794SOL    HW212282   1.401   5.181   6.814
 3795SOL     OW12283   3.524   6.241   0.863
 3795SOL    HW112284   3.595   6.208   0.924
 3795SOL    HW212285   3.558   6.321   0.812
 3796SOL     OW12286   5.682   0.669   6.942
 3796SOL    HW112287   5.601   0.728   6.939
 3796SOL    HW212288   5.666   0.593   7.006
 3797SOL     OW12289   0.251   3.096   1.179
 3797SOL    HW112290   0.338   3.067   1.219
 3797SOL    HW212291   0.262   3.187   1.138
 3798SOL     OW12292   1.063   5.234   3.587
 3798SOL    HW112293   1.087   5.309   3.648
 3798SOL    HW212294   1.025   5.158   3.640
 3799SOL     OW12295   6.507   1.442   2.852
 3799SOL    HW112296   6.589   1.441   2.795
 3799SOL    HW212297   6.533   1.455   2.948
 3800SOL     OW12298   5.460   2.773   2.872
 3800SOL    HW112299   5.373   2.784   2.920
 3800SOL    HW212300   5.480   2.856   2.820
 3801SOL     OW12301   6.312   1.319   1.038
 3801SOL    HW112302   6.297   1.374   1.120
 3801SOL    HW212303   6.328   1.223   1.064
 3802SOL     OW12304   6.762   3.482   2.480
 3802SOL    HW112305   6.750   3.580   2.467
 3802SOL    HW212306   6.805   3.464   2.569
 3803SOL     OW12307   4.485   3.932   5.633
 3803SOL    HW112308   4.472   4.031   5.625
 3803SOL    HW212309   4.464   3.903   5.727
 3804SOL     OW12310   3.686   6.272   3.513
 3804SOL    HW112311   3.684   6.213   3.594
 3804SOL    HW212312   3.749   6.233   3.445
 3805SOL     OW12313   2.544   2.128   6.896
 3805SOL    HW112314   2.524   2.048   6.840
 3805SOL    HW212315   2.577   2.100   6.986
 3806SOL     OW12316   1.960   4.555   2.038
 3806SOL    HW112317   1.873   4.583   1.998
 3806SOL    HW212318   1.999   4.481   1.984
 3807SOL     OW12319   0.582   4.444   3.609
 3807SOL    HW112320   0.483   4.458   3.616
 3807SOL    HW212321   0.620   4.431   3.700
 3808SOL     OW12322   2.670   6.865   5.872
 3808SOL    HW112323   2.613   6.841   5.950
 3808SOL    HW212324   2.657   6.961   5.848
 3809SOL     OW12325   5.298   1.497   2.205
 3809SOL    HW112326   5.252   1.563   2.145
 3809SOL    HW212327   5.392   1.483   2.173
 3810SOL     OW12328   5.008   2.413   3.145
 3810SOL    HW112329   4.933   2.380   3.202
 3810SOL    HW212330   5.019   2.352   3.066
 3811SOL     OW12331   7.007   6.181   5.765
 3811SOL    HW112332   6.961   6.220   5.846
 3811SOL    HW212333   0.081   6.192   5.775
 3812SOL     OW12334   3.933   5.735   0.476
 3812SOL    HW112335   4.021   5.707   0.438
 3812SOL    HW212336   3.918   5.690   0.564
 3813SOL     OW12337   5.968   3.524   0.210
 3813SOL    HW112338   5.873   3.554   0.198
 3813SOL    HW212339   5.972   3.451   0.278
 3814SOL     OW12340   0.377   0.272   5.107
 3814SOL    HW112341   0.365   0.327   5.190
 3814SOL    HW212342   0.351   0.326   5.027
 3815SOL     OW12343   5.351   2.546   5.999
 3815SOL    HW112344   5.327   2.636   5.962
 3815SOL    HW212345   5.316   2.539   6.093
 3816SOL     OW12346   6.571   6.621   1.067
 3816SOL    HW112347   6.532   6.545   1.119
 3816SOL    HW212348   6.573   6.702   1.125
 3817SOL     OW12349   3.519   3.677   1.752
 3817SOL    HW112350   3.602   3.706   1.704
 3817SOL    HW212351   3.495   3.745   1.822
 3818SOL     OW12352   4.929   5.921   2.165
 3818SOL    HW112353   4.920   5.917   2.265
 3818SOL    HW212354   4.893   6.007   2.131
 3819SOL     OW12355   6.467   3.607   3.043
 3819SOL    HW112356   6.407   3.565   2.975
 3819SOL    HW212357   6.415   3.626   3.127
 3820SOL     OW12358   3.410   6.592   5.694
 3820SOL    HW112359   3.311   6.584   5.706
 3820SOL    HW212360   3.438   6.535   5.617
 3821SOL     OW12361   1.953   6.787   0.430
 3821SOL    HW112362   1.884   6.852   0.397
 3821SOL    HW212363   1.921   6.745   0.514
 3822SOL     OW12364   5.432   6.894   2.147
 3822SOL    HW112365   5.467   6.878   2.055
 3822SOL    HW212366   5.387   6.811   2.181
 3823SOL     OW12367   5.224   5.859   4.891
 3823SOL    HW112368   5.285   5.938   4.882
 3823SOL    HW212369   5.277   5.775   4.878
 3824SOL     OW12370   1.948   2.707   0.937
 3824SOL    HW112371   1.952   2.619   0.984
 3824SOL    HW212372   1.970   2.781   1.001
 3825SOL     OW12373   0.351   5.152   5.629
 3825SOL    HW112374   0.327   5.134   5.533
 3825SOL    HW212375   0.429   5.215   5.632
 3826SOL     OW12376   4.941   3.820   3.517
 3826SOL    HW112377   4.918   3.774   3.603
 3826SOL    HW212378   4.941   3.753   3.443
 3827SOL     OW12379   0.484   1.559   6.720
 3827SOL    HW112380   0.553   1.537   6.651
 3827SOL    HW212381   0.397   1.517   6.695
 3828SOL     OW12382   3.300   3.276   4.790
 3828SOL    HW112383   3.303   3.287   4.889
 3828SOL    HW212384   3.236   3.203   4.766
 3829SOL     OW12385   0.437   3.283   1.353
 3829SOL    HW112386   0.468   3.378   1.342
 3829SOL    HW212387   0.381   3.277   1.436
 3830SOL     OW12388   5.479   6.883   3.749
 3830SOL    HW112389   5.453   6.885   3.653
 3830SOL    HW212390   5.433   6.958   3.798
 3831SOL     OW12391   5.003   2.858   3.481
 3831SOL    HW112392   4.954   2.777   3.447
 3831SOL    HW212393   4.971   2.939   3.431
 3832SOL     OW12394   6.260   1.347   3.793
 3832SOL    HW112395   6.252   1.365   3.891
 3832SOL    HW212396   6.171   1.356   3.750
 3833SOL     OW12397   1.565   3.106   5.357
 3833SOL    HW112398   1.535   3.191   5.400
 3833SOL    HW212399   1.658   3.117   5.322
 3834SOL     OW12400   5.234   4.562   1.055
 3834SOL    HW112401   5.138   4.582   1.072
 3834SOL    HW212402   5.270   4.504   1.128
 3835SOL     OW12403   4.371   5.471   5.120
 3835SOL    HW112404   4.358   5.395   5.057
 3835SOL    HW212405   4.297   5.538   5.108
 3836SOL     OW12406   6.923   6.875   4.492
 3836SOL    HW112407   6.961   6.951   4.439
 3836SOL    HW212408   6.992   6.804   4.504
 3837SOL     OW12409   4.583   4.646   5.581
 3837SOL    HW112410   4.634   4.720   5.624
 3837SOL    HW212411   4.537   4.592   5.651
 3838SOL     OW12412   6.711   0.423   4.261
 3838SOL    HW112413   6.645   0.472   4.318
 3838SOL    HW212414   6.737   0.481   4.183
 3839SOL     OW12415   4.695   0.483   3.804
 3839SOL    HW112416   4.757   0.474   3.883
 3839SOL    HW212417   4.625   0.551   3.824
 3840SOL     OW12418   3.979   1.585   6.537
 3840SOL    HW112419   3.917   1.552   6.466
 3840SOL    HW212420   3.995   1.513   6.603
 3841SOL     OW12421   6.002   4.025   3.253
 3841SOL    HW112422   5.984   4.002   3.349
 3841SOL    HW212423   6.055   3.953   3.210
 3842SOL     OW12424   1.696   4.224   5.643
 3842SOL    HW112425   1.719   4.197   5.549
 3842SOL    HW212426   1.778   4.218   5.700
 3843SOL     OW12427   5.759   2.544   6.446
 3843SOL    HW112428   5.730   2.456   6.484
 3843SOL    HW212429   5.694   2.615   6.474
 3844SOL     OW12430   6.709   0.239   0.995
 3844SOL    HW112431   6.615   0.218   0.968
 3844SOL    HW212432   6.737   0.177   1.068
 3845SOL     OW12433   2.145   5.699   0.213
 3845SOL    HW112434   2.224   5.718   0.155
 3845SOL    HW212435   2.075   5.653   0.159
 3846SOL     OW12436   0.224   3.146   2.854
 3846SOL    HW112437   0.236   3.090   2.773
 3846SOL    HW212438   0.247   3.241   2.833
 3847SOL     OW12439   0.611   1.696   6.933
 3847SOL    HW112440   0.573   1.659   6.848
 3847SOL    HW212441   0.546   1.679   7.008
 3848SOL     OW12442   6.738   4.538   2.122
 3848SOL    HW112443   6.758   4.556   2.219
 3848SOL    HW212444   6.722   4.440   2.109
 3849SOL     OW12445   0.784   4.092   5.932
 3849SOL    HW112446   0.715   4.165   5.926
 3849SOL    HW212447   0.842   4.094   5.851
 3850SOL     OW12448   3.087   2.615   1.251
 3850SOL    HW112449   3.107   2.519   1.232
 3850SOL    HW212450   3.166   2.658   1.293
 3851SOL     OW12451   0.657   5.943   3.066
 3851SOL    HW112452   0.640   5.858   3.115
 3851SOL    HW212453   0.711   6.004   3.124
 3852SOL     OW12454   1.977   0.571   4.842
 3852SOL    HW112455   1.930   0.502   4.897
 3852SOL    HW212456   2.069   0.540   4.820
 3853SOL     OW12457   2.845   0.980   3.182
 3853SOL    HW112458   2.868   0.888   3.216
 3853SOL    HW212459   2.858   0.983   3.083
 3854SOL     OW12460   0.523   1.888   2.077
 3854SOL    HW112461   0.430   1.861   2.101
 3854SOL    HW212462   0.530   1.988   2.077
 3855SOL     OW12463   3.478   6.642   6.515
 3855SOL    HW112464   3.497   6.673   6.421
 3855SOL    HW212465   3.379   6.631   6.527
 3856SOL     OW12466   0.054   2.436   6.312
 3856SOL    HW112467   0.036   2.482   6.399
 3856SOL    HW212468   6.993   2.395   6.278
 3857SOL     OW12469   2.536   0.575   6.133
 3857SOL    HW112470   2.464   0.611   6.075
 3857SOL    HW212471   2.624   0.614   6.105
 3858SOL     OW12472   4.266   1.012   4.090
 3858SOL    HW112473   4.245   1.032   4.186
 3858SOL    HW212474   4.359   0.975   4.084
 3859SOL     OW12475   6.104   6.676   1.920
 3859SOL    HW112476   6.189   6.670   1.972
 3859SOL    HW212477   6.047   6.596   1.938
 3860SOL     OW12478   1.669   6.978   4.276
 3860SOL    HW112479   1.709   0.040   4.306
 3860SOL    HW212480   1.597   6.996   4.210
 3861SOL     OW12481   2.843   5.650   1.774
 3861SOL    HW112482   2.797   5.587   1.836
 3861SOL    HW212483   2.805   5.641   1.682
 3862SOL     OW12484   1.556   0.915   4.308
 3862SOL    HW112485   1.481   0.890   4.247
 3862SOL    HW212486   1.637   0.938   4.254
 3863SOL     OW12487   3.446   0.822   0.688
 3863SOL    HW112488   3.372   0.765   0.653
 3863SOL    HW212489   3.441   0.827   0.788
 3864SOL     OW12490   1.189   0.408   4.543
 3864SOL    HW112491   1.108   0.418   4.485
 3864SOL    HW212492   1.269   0.442   4.494
 3865SOL     OW12493   5.050   1.507   0.786
 3865SOL    HW112494   5.027   1.481   0.692
 3865SOL    HW212495   4.977   1.562   0.824
 3866SOL     OW12496   3.225   1.103   6.632
 3866SOL    HW112497   3.254   1.198   6.635
 3866SOL    HW212498   3.272   1.056   6.557
 3867SOL     OW12499   6.935   3.118   2.353
 3867SOL    HW112500   6.931   3.088   2.448
 3867SOL    HW212501   6.843   3.118   2.314
 3868SOL     OW12502   4.257   0.428   6.987
 3868SOL    HW112503   4.222   0.521   6.997
 3868SOL    HW212504   4.188   0.372   6.942
 3869SOL     OW12505   4.762   1.237   4.147
 3869SOL    HW112506   4.808   1.176   4.212
 3869SOL    HW212507   4.764   1.196   4.056
 3870SOL     OW12508   6.928   0.805   5.822
 3870SOL    HW112509   6.919   0.904   5.830
 3870SOL    HW212510   6.963   0.768   5.908
 3871SOL     OW12511   2.775   5.845   4.181
 3871SOL    HW112512   2.874   5.837   4.168
 3871SOL    HW212513   2.754   5.937   4.215
 3872SOL     OW12514   2.853   3.395   5.160
 3872SOL    HW112515   2.915   3.415   5.085
 3872SOL    HW212516   2.840   3.476   5.217
 3873SOL     OW12517   4.403   2.044   0.068
 3873SOL    HW112518   4.403   2.143   0.056
 3873SOL    HW212519   4.352   2.002   7.017
 3874SOL     OW12520   2.354   1.421   0.984
 3874SOL    HW112521   2.442   1.428   0.937
 3874SOL    HW212522   2.287   1.381   0.921
 3875SOL     OW12523   1.007   1.951   6.635
 3875SOL    HW112524   0.960   2.003   6.564
 3875SOL    HW212525   0.945   1.933   6.711
 3876SOL     OW12526   3.203   5.479   2.310
 3876SOL    HW112527   3.271   5.475   2.383
 3876SOL    HW212528   3.180   5.386   2.281
 3877SOL     OW12529   0.351   1.560   5.886
 3877SOL    HW112530   0.369   1.627   5.958
 3877SOL    HW212531   0.395   1.589   5.801
 3878SOL     OW12532   4.859   1.469   4.618
 3878SOL    HW112533   4.888   1.411   4.694
 3878SOL    HW212534   4.767   1.442   4.588
 3879SOL     OW12535   5.148   5.900   0.346
 3879SOL    HW112536   5.206   5.970   0.302
 3879SOL    HW212537   5.150   5.817   0.291
 3880SOL     OW12538   5.001   4.656   4.059
 3880SOL    HW112539   5.060   4.625   4.134
 3880SOL    HW212540   4.969   4.749   4.078
 3881SOL     OW12541   0.987   3.417   0.304
 3881SOL    HW112542   0.931   3.360   0.364
 3881SOL    HW212543   0.939   3.504   0.287
 3882SOL     OW12544   0.581   1.956   5.416
 3882SOL    HW112545   0.558   2.053   5.410
 3882SOL    HW212546   0.606   1.934   5.511
 3883SOL     OW12547   4.261   6.092   3.898
 3883SOL    HW112548   4.356   6.060   3.895
 3883SOL    HW212549   4.244   6.152   3.820
 3884SOL     OW12550   0.355   3.502   1.975
 3884SOL    HW112551   0.258   3.525   1.962
 3884SOL    HW212552   0.369   3.468   2.068
 3885SOL     OW12553   4.192   5.876   2.425
 3885SOL    HW112554   4.256   5.850   2.353
 3885SOL    HW212555   4.238   5.938   2.489
 3886SOL     OW12556   2.764   5.916   6.019
 3886SOL    HW112557   2.843   5.907   6.079
 3886SOL    HW212558   2.787   5.880   5.928
 3887SOL     OW12559   1.611   5.864   1.887
 3887SOL    HW112560   1.588   5.872   1.790
 3887SOL    HW212561   1.639   5.770   1.906
 3888SOL     OW12562   5.713   5.093   3.906
 3888SOL    HW112563   5.764   5.123   3.825
 3888SOL    HW212564   5.719   5.164   3.976
 3889SOL     OW12565   5.509   4.251   0.529
 3889SOL    HW112566   5.533   4.170   0.582
 3889SOL    HW212567   5.592   4.299   0.501
 3890SOL     OW12568   5.060   3.107   3.966
 3890SOL    HW112569   5.029   3.013   3.948
 3890SOL    HW212570   4.991   3.156   4.020
 3891SOL     OW12571   5.065   5.686   3.600
 3891SOL    HW112572   5.154   5.709   3.561
 3891SOL    HW212573   5.064   5.590   3.626
 3892SOL     OW12574   6.734   1.967   1.526
 3892SOL    HW112575   6.654   1.994   1.580
 3892SOL    HW212576   6.804   1.929   1.586
 3893SOL     OW12577   4.059   3.732   2.799
 3893SOL    HW112578   4.101   3.643   2.779
 3893SOL    HW212579   4.096   3.801   2.736
 3894SOL     OW12580   4.287   0.500   5.811
 3894SOL    HW112581   4.354   0.438   5.852
 3894SOL    HW212582   4.314   0.594   5.830
 3895SOL     OW12583   0.611   0.455   4.146
 3895SOL    HW112584   0.562   0.368   4.149
 3895SOL    HW212585   0.708   0.439   4.128
 3896SOL     OW12586   1.830   1.561   6.050
 3896SOL    HW112587   1.913   1.605   6.086
 3896SOL    HW212588   1.750   1.603   6.093
 3897SOL     OW12589   3.831   5.818   1.478
 3897SOL    HW112590   3.831   5.773   1.567
 3897SOL    HW212591   3.882   5.763   1.412
 3898SOL     OW12592   3.769   3.370   1.417
 3898SOL    HW112593   3.844   3.325   1.466
 3898SOL    HW212594   3.685   3.363   1.471
 3899SOL     OW12595   3.538   0.313   5.415
 3899SOL    HW112596   3.491   0.401   5.417
 3899SOL    HW212597   3.487   0.249   5.356
 3900SOL     OW12598   4.702   4.245   2.886
 3900SOL    HW112599   4.674   4.219   2.794
 3900SOL    HW212600   4.778   4.310   2.880
 3901SOL     OW12601   2.772   1.086   6.809
 3901SOL    HW112602   2.869   1.066   6.825
 3901SOL    HW212603   2.760   1.185   6.800
 3902SOL     OW12604   5.162   3.163   2.572
 3902SOL    HW112605   5.164   3.074   2.528
 3902SOL    HW212606   5.249   3.210   2.558
 3903SOL     OW12607   2.971   4.324   6.111
 3903SOL    HW112608   2.975   4.413   6.156
 3903SOL    HW212609   3.064   4.291   6.093
 3904SOL     OW12610   1.919   0.304   1.046
 3904SOL    HW112611   1.994   0.362   1.078
 3904SOL    HW212612   1.954   0.214   1.021
 3905SOL     OW12613   6.848   6.324   4.886
 3905SOL    HW112614   6.837   6.347   4.983
 3905SOL    HW212615   6.865   6.408   4.834
 3906SOL     OW12616   6.870   6.534   4.732
 3906SOL    HW112617   6.904   6.503   4.643
 3906SOL    HW212618   6.917   6.620   4.756
 3907SOL     OW12619   6.210   2.366   3.429
 3907SOL    HW112620   6.232   2.394   3.336
 3907SOL    HW212621   6.151   2.434   3.472
 3908SOL     OW12622   2.832   4.193   6.292
 3908SOL    HW112623   2.883   4.218   6.210
 3908SOL    HW212624   2.755   4.257   6.304
 3909SOL     OW12625   5.908   5.916   3.693
 3909SOL    HW112626   5.900   6.015   3.708
 3909SOL    HW212627   5.996   5.897   3.650
 3910SOL     OW12628   3.677   3.219   2.891
 3910SOL    HW112629   3.607   3.288   2.910
 3910SOL    HW212630   3.751   3.260   2.837
 3911SOL     OW12631   6.400   2.364   5.270
 3911SOL    HW112632   6.332   2.307   5.225
 3911SOL    HW212633   6.430   2.436   5.207
 3912SOL     OW12634   4.959   2.943   6.159
 3912SOL    HW112635   5.059   2.947   6.152
 3912SOL    HW212636   4.934   2.882   6.235
 3913SOL     OW12637   1.450   6.580   1.374
 3913SOL    HW112638   1.391   6.511   1.417
 3913SOL    HW212639   1.394   6.640   1.317
 3914SOL     OW12640   3.178   5.661   5.630
 3914SOL    HW112641   3.198   5.728   5.701
 3914SOL    HW212642   3.254   5.657   5.565
 3915SOL     OW12643   6.611   6.229   1.489
 3915SOL    HW112644   6.635   6.326   1.493
 3915SOL    HW212645   6.531   6.213   1.546
 3916SOL     OW12646   1.001   0.077   2.996
 3916SOL    HW112647   1.037   0.159   2.951
 3916SOL    HW212648   0.915   0.098   3.043
 3917SOL     OW12649   2.119   0.706   0.072
 3917SOL    HW112650   2.147   0.789   0.025
 3917SOL    HW212651   2.019   0.698   0.070
 3918SOL     OW12652   5.628   3.406   7.002
 3918SOL    HW112653   5.547   3.445   0.022
 3918SOL    HW212654   5.686   3.364   0.048
 3919SOL     OW12655   3.260   6.890   0.700
 3919SOL    HW112656   3.277   6.942   0.616
 3919SOL    HW212657   3.337   6.901   0.763
 3920SOL     OW12658   2.116   1.539   6.808
 3920SOL    HW112659   2.093   1.560   6.903
 3920SOL    HW212660   2.055   1.467   6.774
 3921SOL     OW12661   0.845   3.742   1.580
 3921SOL    HW112662   0.768   3.804   1.564
 3921SOL    HW212663   0.909   3.783   1.644
 3922SOL     OW12664   1.303   5.214   1.276
 3922SOL    HW112665   1.391   5.259   1.290
 3922SOL    HW212666   1.251   5.215   1.361
 3923SOL     OW12667   6.716   0.563   0.770
 3923SOL    HW112668   6.714   0.663   0.771
 3923SOL    HW212669   6.720   0.529   0.864
 3924SOL     OW12670   6.409   5.088   4.627
 3924SOL    HW112671   6.429   5.168   4.683
 3924SOL    HW212672   6.482   5.074   4.560
 3925SOL     OW12673   1.355   5.094   1.738
 3925SOL    HW112674   1.320   5.089   1.644
 3925SOL    HW212675   1.432   5.157   1.741
 3926SOL     OW12676   3.599   5.374   2.787
 3926SOL    HW112677   3.645   5.346   2.871
 3926SOL    HW212678   3.654   5.442   2.739
 3927SOL     OW12679   0.807   3.439   6.773
 3927SOL    HW112680   0.894   3.468   6.733
 3927SOL    HW212681   0.737   3.509   6.755
 3928SOL     OW12682   6.418   5.641   6.551
 3928SOL    HW112683   6.439   5.543   6.555
 3928SOL    HW212684   6.395   5.666   6.457
 3929SOL     OW12685   0.599   1.495   4.423
 3929SOL    HW112686   0.546   1.439   4.486
 3929SOL    HW212687   0.628   1.439   4.346
 3930SOL     OW12688   3.171   1.759   4.002
 3930SOL    HW112689   3.266   1.731   3.988
 3930SOL    HW212690   3.133   1.793   3.916
 3931SOL     OW12691   5.031   0.124   2.559
 3931SOL    HW112692   5.097   0.104   2.486
 3931SOL    HW212693   5.041   0.220   2.587
 3932SOL     OW12694   1.675   1.554   4.472
 3932SOL    HW112695   1.582   1.524   4.494
 3932SOL    HW212696   1.674   1.606   4.387
 3933SOL     OW12697   1.475   0.234   5.989
 3933SOL    HW112698   1.380   0.212   5.964
 3933SOL    HW212699   1.487   0.333   5.994
 3934SOL     OW12700   5.591   6.219   6.825
 3934SOL    HW112701   5.675   6.261   6.861
 3934SOL    HW212702   5.535   6.290   6.782
 3935SOL     OW12703   5.117   6.872   1.347
 3935SOL    HW112704   5.094   6.791   1.293
 3935SOL    HW212705   5.140   6.843   1.440
 3936SOL     OW12706   0.512   4.505   2.391
 3936SOL    HW112707   0.602   4.463   2.403
 3936SOL    HW212708   0.504   4.541   2.298
 3937SOL     OW12709   0.282   1.703   2.623
 3937SOL    HW112710   0.240   1.644   2.692
 3937SOL    HW212711   0.213   1.766   2.586
 3938SOL     OW12712   0.475   2.585   3.069
 3938SOL    HW112713   0.520   2.554   3.153
 3938SOL    HW212714   0.511   2.534   2.991
 3939SOL     OW12715   2.348   2.118   1.702
 3939SOL    HW112716   2.388   2.026   1.702
 3939SOL    HW212717   2.294   2.131   1.785
 3940SOL     OW12718   4.106   3.762   1.505
 3940SOL    HW112719   4.064   3.827   1.442
 3940SOL    HW212720   4.197   3.738   1.472
 3941SOL     OW12721   4.626   3.120   6.615
 3941SOL    HW112722   4.529   3.102   6.632
 3941SOL    HW212723   4.669   3.155   6.698
 3942SOL     OW12724   6.971   0.424   0.143
 3942SOL    HW112725   0.001   0.507   0.158
 3942SOL    HW212726   6.945   0.419   0.046
 3943SOL     OW12727   0.022   3.114   5.007
 3943SOL    HW112728   6.956   3.073   4.995
 3943SOL    HW212729   0.043   3.120   5.105
 3944SOL     OW12730   5.339   1.475   4.812
 3944SOL    HW112731   5.284   1.538   4.868
 3944SOL    HW212732   5.301   1.470   4.720
 3945SOL     OW12733   6.900   0.667   0.496
 3945SOL    HW112734   6.902   0.716   0.583
 3945SOL    HW212735   6.925   0.571   0.512
 3946SOL     OW12736   3.964   4.811   3.268
 3946SOL    HW112737   3.956   4.846   3.175
 3946SOL    HW212738   3.880   4.764   3.293
 3947SOL     OW12739   6.753   4.336   6.311
 3947SOL    HW112740   6.690   4.272   6.267
 3947SOL    HW212741   6.755   4.318   6.410
 3948SOL     OW12742   5.952   3.802   0.905
 3948SOL    HW112743   5.984   3.730   0.966
 3948SOL    HW212744   5.961   3.891   0.951
 3949SOL     OW12745   5.742   6.206   3.455
 3949SOL    HW112746   5.776   6.270   3.385
 3949SOL    HW212747   5.727   6.116   3.414
 3950SOL     OW12748   2.001   6.292   0.569
 3950SOL    HW112749   2.049   6.271   0.654
 3950SOL    HW212750   2.031   6.382   0.535
 3951SOL     OW12751   5.735   6.664   1.758
 3951SOL    HW112752   5.804   6.725   1.719
 3951SOL    HW212753   5.709   6.696   1.849
 3952SOL     OW12754   5.867   2.032   6.898
 3952SOL    HW112755   5.841   1.990   6.985
 3952SOL    HW212756   5.802   2.105   6.875
 3953SOL     OW12757   3.795   4.034   2.864
 3953SOL    HW112758   3.787   3.937   2.888
 3953SOL    HW212759   3.796   4.089   2.947
 3954SOL     OW12760   4.148   4.961   5.836
 3954SOL    HW112761   4.232   4.908   5.824
 3954SOL    HW212762   4.149   5.004   5.927
 3955SOL     OW12763   4.144   1.203   4.592
 3955SOL    HW112764   4.048   1.232   4.586
 3955SOL    HW212765   4.160   1.164   4.683
 3956SOL     OW12766   2.429   1.227   2.050
 3956SOL    HW112767   2.377   1.279   1.982
 3956SOL    HW212768   2.505   1.283   2.085
 3957SOL     OW12769   3.770   0.927   4.551
 3957SOL    HW112770   3.859   0.910   4.595
 3957SOL    HW212771   3.770   1.019   4.512
 3958SOL     OW12772   5.587   6.988   5.240
 3958SOL    HW112773   5.571   7.000   5.338
 3958SOL    HW212774   5.517   6.927   5.202
 3959SOL     OW12775   4.998   5.292   0.145
 3959SOL    HW112776   5.087   5.328   0.171
 3959SOL    HW212777   4.995   5.193   0.161
 3960SOL     OW12778   6.125   1.687   4.912
 3960SOL    HW112779   6.074   1.612   4.869
 3960SOL    HW212780   6.147   1.756   4.843
 3961SOL     OW12781   5.418   6.157   4.162
 3961SOL    HW112782   5.482   6.136   4.088
 3961SOL    HW212783   5.450   6.116   4.247
 3962SOL     OW12784   6.769   5.683   5.219
 3962SOL    HW112785   6.850   5.667   5.274
 3962SOL    HW212786   6.786   5.655   5.125
 3963SOL     OW12787   4.350   6.755   1.884
 3963SOL    HW112788   4.344   6.709   1.795
 3963SOL    HW212789   4.395   6.843   1.873
 3964SOL     OW12790   5.524   2.995   3.336
 3964SOL    HW112791   5.569   2.917   3.294
 3964SOL    HW212792   5.548   3.078   3.286
 3965SOL     OW12793   5.029   4.120   4.394
 3965SOL    HW112794   4.990   4.139   4.485
 3965SOL    HW212795   5.013   4.199   4.334
 3966SOL     OW12796   2.598   6.866   6.406
 3966SOL    HW112797   2.640   6.779   6.380
 3966SOL    HW212798   2.631   6.894   6.496
 3967SOL     OW12799   2.097   4.446   3.624
 3967SOL    HW112800   2.193   4.455   3.599
 3967SOL    HW212801   2.061   4.534   3.652
 3968SOL     OW12802   3.605   7.003   0.528
 3968SOL    HW112803   3.581   6.924   0.586
 3968SOL    HW212804   3.703   7.001   0.508
 3969SOL     OW12805   0.928   5.090   3.189
 3969SOL    HW112806   0.902   5.182   3.163
 3969SOL    HW212807   0.886   5.024   3.126
 3970SOL     OW12808   5.084   6.429   2.085
 3970SOL    HW112809   5.072   6.446   1.987
 3970SOL    HW212810   5.145   6.499   2.123
 3971SOL     OW12811   2.024   6.239   3.683
 3971SOL    HW112812   2.104   6.215   3.629
 3971SOL    HW212813   2.031   6.335   3.711
 3972SOL     OW12814   1.248   3.553   6.864
 3972SOL    HW112815   1.218   3.574   6.957
 3972SOL    HW212816   1.348   3.564   6.858
 3973SOL     OW12817   1.852   5.063   1.170
 3973SOL    HW112818   1.832   5.116   1.088
 3973SOL    HW212819   1.883   4.971   1.144
 3974SOL     OW12820   2.516   1.630   5.596
 3974SOL    HW112821   2.461   1.632   5.679
 3974SOL    HW212822   2.611   1.612   5.619
 3975SOL     OW12823   6.390   3.063   6.507
 3975SOL    HW112824   6.342   3.096   6.426
 3975SOL    HW212825   6.483   3.101   6.508
 3976SOL     OW12826   1.713   4.453   2.713
 3976SOL    HW112827   1.648   4.404   2.772
 3976SOL    HW212828   1.774   4.509   2.770
 3977SOL     OW12829   0.632   3.148   0.025
 3977SOL    HW112830   0.693   3.162   6.971
 3977SOL    HW212831   0.626   3.051   0.046
 3978SOL     OW12832   5.851   4.208   3.880
 3978SOL    HW112833   5.770   4.149   3.889
 3978SOL    HW212834   5.933   4.154   3.898
 3979SOL     OW12835   4.154   6.464   6.122
 3979SOL    HW112836   4.095   6.542   6.098
 3979SOL    HW212837   4.167   6.406   6.042
 3980SOL     OW12838   5.478   5.489   5.714
 3980SOL    HW112839   5.551   5.524   5.773
 3980SOL    HW212840   5.392   5.533   5.738
 3981SOL     OW12841   4.606   5.883   0.203
 3981SOL    HW112842   4.604   5.943   0.124
 3981SOL    HW212843   4.678   5.913   0.266
 3982SOL     OW12844   2.968   5.927   3.425
 3982SOL    HW112845   2.930   5.896   3.338
 3982SOL    HW212846   2.897   5.972   3.479
 3983SOL     OW12847   3.444   5.535   4.524
 3983SOL    HW112848   3.390   5.501   4.447
 3983SOL    HW212849   3.415   5.628   4.546
 3984SOL     OW12850   6.386   2.591   3.463
 3984SOL    HW112851   6.459   2.600   3.531
 3984SOL    HW212852   6.392   2.500   3.421
 3985SOL     OW12853   3.915   5.102   6.382
 3985SOL    HW112854   3.925   5.088   6.283
 3985SOL    HW212855   3.983   5.048   6.431
 3986SOL     OW12856   5.416   0.612   3.003
 3986SOL    HW112857   5.343   0.575   3.061
 3986SOL    HW212858   5.398   0.708   2.983
 3987SOL     OW12859   3.497   5.539   5.052
 3987SOL    HW112860   3.511   5.638   5.051
 3987SOL    HW212861   3.507   5.503   4.960
 3988SOL     OW12862   3.722   5.820   1.172
 3988SOL    HW112863   3.784   5.886   1.216
 3988SOL    HW212864   3.642   5.807   1.230
 3989SOL     OW12865   5.454   2.123   0.799
 3989SOL    HW112866   5.379   2.157   0.742
 3989SOL    HW212867   5.421   2.105   0.891
 3990SOL     OW12868   6.400   1.898   2.507
 3990SOL    HW112869   6.446   1.973   2.553
 3990SOL    HW212870   6.351   1.932   2.427
 3991SOL     OW12871   6.013   0.531   3.145
 3991SOL    HW112872   5.956   0.521   3.064
 3991SOL    HW212873   6.068   0.449   3.157
 3992SOL     OW12874   3.404   2.095   0.876
 3992SOL    HW112875   3.475   2.055   0.818
 3992SOL    HW212876   3.337   2.142   0.819
 3993SOL     OW12877   0.757   2.962   1.891
 3993SOL    HW112878   0.780   2.960   1.988
 3993SOL    HW212879   0.841   2.956   1.836
 3994SOL     OW12880   2.429   6.160   4.355
 3994SOL    HW112881   2.379   6.074   4.342
 3994SOL    HW212882   2.365   6.232   4.384
 3995SOL     OW12883   1.855   1.706   4.611
 3995SOL    HW112884   1.911   1.724   4.530
 3995SOL    HW212885   1.766   1.670   4.583
 3996SOL     OW12886   6.810   6.461   4.473
 3996SOL    HW112887   6.890   6.463   4.413
 3996SOL    HW212888   6.735   6.512   4.431
 3997SOL     OW12889   4.307   0.808   4.379
 3997SOL    HW112890   4.323   0.770   4.470
 3997SOL    HW212891   4.280   0.735   4.316
 3998SOL     OW12892   4.693   1.819   3.055
 3998SOL    HW112893   4.757   1.829   3.131
 3998SOL    HW212894   4.604   1.858   3.082
 3999SOL     OW12895   4.976   1.989   4.672
 3999SOL    HW112896   4.958   2.056   4.599
 3999SOL    HW212897   5.075   1.977   4.682
 4000SOL     OW12898   4.210   6.624   4.137
 4000SOL    HW112899   4.162   6.694   4.083
 4000SOL    HW212900   4.274   6.575   4.078
 4001SOL     OW12901   1.267   1.851   4.077
 4001SOL    HW112902   1.355   1.821   4.115
 4001SOL    HW212903   1.234   1.783   4.012
 4002SOL     OW12904   2.420   4.447   1.765
 4002SOL    HW112905   2.395   4.367   1.819
 4002SOL    HW212906   2.350   4.517   1.773
 4003SOL     OW12907   3.878   2.195   5.153
 4003SOL    HW112908   3.821   2.113   5.152
 4003SOL    HW212909   3.840   2.260   5.219
 4004SOL     OW12910   6.396   1.808   5.571
 4004SOL    HW112911   6.413   1.831   5.475
 4004SOL    HW212912   6.298   1.796   5.585
 4005SOL     OW12913   5.921   4.670   5.394
 4005SOL    HW112914   5.879   4.580   5.407
 4005SOL    HW212915   6.008   4.660   5.345
 4006SOL     OW12916   3.793   5.563   2.718
 4006SOL    HW112917   3.849   5.570   2.636
 4006SOL    HW212918   3.784   5.653   2.760
 4007SOL     OW12919   6.980   1.612   6.373
 4007SOL    HW112920   6.933   1.588   6.288
 4007SOL    HW212921   0.011   1.534   6.404
 4008SOL     OW12922   2.934   2.053   5.441
 4008SOL    HW112923   3.013   2.053   5.502
 4008SOL    HW212924   2.958   2.099   5.355
 4009SOL     OW12925   3.196   3.410   2.849
 4009SOL    HW112926   3.104   3.378   2.870
 4009SOL    HW212927   3.192   3.480   2.777
 4010SOL     OW12928   1.452   2.741   6.722
 4010SOL    HW112929   1.385   2.755   6.649
 4010SOL    HW212930   1.511   2.822   6.729
 4011SOL     OW12931   0.911   2.772   0.614
 4011SOL    HW112932   0.927   2.727   0.526
 4011SOL    HW212933   0.997   2.781   0.663
 4012SOL     OW12934   5.556   3.113   3.594
 4012SOL    HW112935   5.552   3.051   3.516
 4012SOL    HW212936   5.514   3.200   3.570
 4013SOL     OW12937   4.906   2.616   3.355
 4013SOL    HW112938   4.998   2.587   3.331
 4013SOL    HW212939   4.849   2.617   3.273
 4014SOL     OW12940   5.940   6.085   2.385
 4014SOL    HW112941   5.867   6.153   2.397
 4014SOL    HW212942   6.024   6.131   2.356
 4015SOL     OW12943   4.548   3.428   6.953
 4015SOL    HW112944   4.487   3.442   0.007
 4015SOL    HW212945   4.495   3.407   6.871
 4016SOL     OW12946   3.438   5.882   5.287
 4016SOL    HW112947   3.449   5.868   5.188
 4016SOL    HW212948   3.355   5.936   5.304
 4017SOL     OW12949   6.165   6.784   6.881
 4017SOL    HW112950   6.248   6.800   6.934
 4017SOL    HW212951   6.189   6.748   6.791
 4018SOL     OW12952   1.484   6.737   6.880
 4018SOL    HW112953   1.467   6.664   6.946
 4018SOL    HW212954   1.449   6.824   6.917
 4019SOL     OW12955   4.791   5.340   3.216
 4019SOL    HW112956   4.725   5.386   3.157
 4019SOL    HW212957   4.799   5.390   3.302
 4020SOL     OW12958   5.343   1.796   5.076
 4020SOL    HW112959   5.417   1.746   5.121
 4020SOL    HW212960   5.371   1.891   5.063
 4021SOL     OW12961   4.510   4.065   6.832
 4021SOL    HW112962   4.464   4.024   6.754
 4021SOL    HW212963   4.594   4.111   6.801
 4022SOL     OW12964   5.053   0.481   0.961
 4022SOL    HW112965   5.122   0.409   0.966
 4022SOL    HW212966   5.062   0.531   0.874
 4023SOL     OW12967   6.570   0.087   5.396
 4023SOL    HW112968   6.655   0.115   5.353
 4023SOL    HW212969   6.518   0.167   5.425
 4024SOL     OW12970   4.415   4.682   4.737
 4024SOL    HW112971   4.509   4.648   4.730
 4024SOL    HW212972   4.363   4.625   4.800
 4025SOL     OW12973   0.955   4.098   3.889
 4025SOL    HW112974   0.874   4.100   3.830
 4025SOL    HW212975   0.968   4.005   3.924
 4026SOL     OW12976   5.126   0.025   4.935
 4026SOL    HW112977   5.110   0.057   4.841
 4026SOL    HW212978   5.044   0.038   4.990
 4027SOL     OW12979   3.292   5.135   2.487
 4027SOL    HW112980   3.358   5.210   2.497
 4027SOL    HW212981   3.339   5.048   2.500
 4028SOL     OW12982   2.675   6.174   3.426
 4028SOL    HW112983   2.597   6.116   3.449
 4028SOL    HW212984   2.740   6.176   3.502
 4029SOL     OW12985   1.862   3.976   3.711
 4029SOL    HW112986   1.776   3.927   3.719
 4029SOL    HW212987   1.865   4.024   3.624
 4030SOL     OW12988   1.472   1.762   6.194
 4030SOL    HW112989   1.436   1.774   6.101
 4030SOL    HW212990   1.420   1.692   6.242
 4031SOL     OW12991   6.127   5.724   4.515
 4031SOL    HW112992   6.100   5.818   4.495
 4031SOL    HW212993   6.062   5.661   4.473
 4032SOL     OW12994   3.771   0.111   4.783
 4032SOL    HW112995   3.863   0.097   4.747
 4032SOL    HW212996   3.726   0.023   4.796
 4033SOL     OW12997   3.598   3.818   6.052
 4033SOL    HW112998   3.549   3.744   6.007
 4033SOL    HW212999   3.573   3.822   6.149
 4034SOL     OW13000   5.667   3.086   5.271
 4034SOL    HW113001   5.690   3.029   5.350
 4034SOL    HW213002   5.670   3.182   5.298
 4035SOL     OW13003   0.437   5.693   1.651
 4035SOL    HW113004   0.358   5.634   1.636
 4035SOL    HW213005   0.429   5.738   1.740
 4036SOL     OW13006   6.819   6.029   2.556
 4036SOL    HW113007   6.720   6.040   2.552
 4036SOL    HW213008   6.859   6.100   2.614
 4037SOL     OW13009   0.234   3.973   5.545
 4037SOL    HW113010   0.317   4.006   5.590
 4037SOL    HW213011   0.188   3.906   5.604
 4038SOL     OW13012   5.942   5.121   3.235
 4038SOL    HW113013   5.912   5.045   3.294
 4038SOL    HW213014   6.024   5.094   3.185
 4039SOL     OW13015   2.816   6.107   0.953
 4039SOL    HW113016   2.904   6.091   0.910
 4039SOL    HW213017   2.767   6.021   0.961
 4040SOL     OW13018   3.332   6.857   0.266
 4040SOL    HW113019   3.243   6.832   0.227
 4040SOL    HW213020   3.361   6.788   0.332
 4041SOL     OW13021   0.833   6.080   3.281
 4041SOL    HW113022   0.754   6.142   3.279
 4041SOL    HW213023   0.840   6.038   3.371
 4042SOL     OW13024   6.063   6.001   2.656
 4042SOL    HW113025   6.004   6.003   2.575
 4042SOL    HW213026   6.062   5.908   2.694
 4043SOL     OW13027   6.370   3.757   1.447
 4043SOL    HW113028   6.335   3.681   1.392
 4043SOL    HW213029   6.295   3.821   1.467
 4044SOL     OW13030   5.931   5.170   2.506
 4044SOL    HW113031   5.880   5.187   2.591
 4044SOL    HW213032   5.973   5.255   2.476
 4045SOL     OW13033   2.451   4.670   5.857
 4045SOL    HW113034   2.365   4.669   5.806
 4045SOL    HW213035   2.521   4.717   5.804
 4046SOL     OW13036   6.890   3.398   0.713
 4046SOL    HW113037   6.947   3.352   0.781
 4046SOL    HW213038   6.903   3.497   0.719
 4047SOL     OW13039   2.955   3.789   2.532
 4047SOL    HW113040   2.905   3.702   2.537
 4047SOL    HW213041   2.988   3.813   2.623
 4048SOL     OW13042   4.588   2.477   0.685
 4048SOL    HW113043   4.607   2.574   0.671
 4048SOL    HW213044   4.557   2.463   0.779
 4049SOL     OW13045   6.662   0.825   6.734
 4049SOL    HW113046   6.717   0.851   6.655
 4049SOL    HW213047   6.653   0.904   6.795
 4050SOL     OW13048   3.368   0.725   2.547
 4050SOL    HW113049   3.464   0.738   2.520
 4050SOL    HW213050   3.355   0.758   2.640
 4051SOL     OW13051   1.662   4.143   1.030
 4051SOL    HW113052   1.644   4.148   1.129
 4051SOL    HW213053   1.738   4.203   1.007
 4052SOL     OW13054   1.538   6.959   1.297
 4052SOL    HW113055   1.603   6.889   1.324
 4052SOL    HW213056   1.511   7.013   1.377
 4053SOL     OW13057   2.528   5.176   3.377
 4053SOL    HW113058   2.591   5.100   3.389
 4053SOL    HW213059   2.434   5.144   3.390
 4054SOL     OW13060   5.524   1.427   6.995
 4054SOL    HW113061   5.483   1.451   0.058
 4054SOL    HW213062   5.493   1.335   6.968
 4055SOL     OW13063   4.722   3.284   6.816
 4055SOL    HW113064   4.772   3.350   6.759
 4055SOL    HW213065   4.660   3.333   6.877
 4056SOL     OW13066   4.331   2.880   0.184
 4056SOL    HW113067   4.354   2.977   0.175
 4056SOL    HW213068   4.240   2.871   0.224
 4057SOL     OW13069   6.288   2.700   0.496
 4057SOL    HW113070   6.342   2.742   0.569
 4057SOL    HW213071   6.279   2.765   0.420
 4058SOL     OW13072   0.894   1.689   3.698
 4058SOL    HW113073   0.796   1.687   3.715
 4058SOL    HW213074   0.938   1.752   3.762
 4059SOL     OW13075   6.951   1.996   5.447
 4059SOL    HW113076   7.024   2.062   5.429
 4059SOL    HW213077   6.987   1.903   5.441
 4060SOL     OW13078   3.503   6.030   5.625
 4060SOL    HW113079   3.488   5.952   5.686
 4060SOL    HW213080   3.536   6.108   5.679
 4061SOL     OW13081   2.244   3.133   1.429
 4061SOL    HW113082   2.171   3.199   1.413
 4061SOL    HW213083   2.211   3.041   1.410
 4062SOL     OW13084   2.994   6.565   2.866
 4062SOL    HW113085   2.956   6.592   2.778
 4062SOL    HW213086   2.973   6.469   2.883
 4063SOL     OW13087   2.727   5.615   6.367
 4063SOL    HW113088   2.627   5.612   6.362
 4063SOL    HW213089   2.766   5.558   6.295
 4064SOL     OW13090   6.665   0.019   4.004
 4064SOL    HW113091   6.702   0.081   4.073
 4064SOL    HW213092   6.586   0.061   3.960
 4065SOL     OW13093   0.648   4.618   6.101
 4065SOL    HW113094   0.581   4.574   6.041
 4065SOL    HW213095   0.646   4.575   6.191
 4066SOL     OW13096   4.996   5.523   1.280
 4066SOL    HW113097   4.987   5.622   1.293
 4066SOL    HW213098   4.905   5.481   1.284
 4067SOL     OW13099   5.663   0.757   1.131
 4067SOL    HW113100   5.682   0.855   1.141
 4067SOL    HW213101   5.564   0.743   1.121
 4068SOL     OW13102   5.296   0.900   4.338
 4068SOL    HW113103   5.346   0.829   4.287
 4068SOL    HW213104   5.352   0.932   4.414
 4069SOL     OW13105   6.558   5.999   0.876
 4069SOL    HW113106   6.544   5.926   0.942
 4069SOL    HW213107   6.630   6.060   0.908
 4070SOL     OW13108   6.628   3.854   3.269
 4070SOL    HW113109   6.679   3.769   3.282
 4070SOL    HW213110   6.530   3.834   3.266
 4071SOL     OW13111   2.725   0.410   4.201
 4071SOL    HW113112   2.765   0.318   4.207
 4071SOL    HW213113   2.777   0.472   4.259
 4072SOL     OW13114   0.850   0.020   4.268
 4072SOL    HW113115   0.801   6.980   4.327
 4072SOL    HW213116   0.907   0.079   4.325
 4073SOL     OW13117   2.659   5.102   2.196
 4073SOL    HW113118   2.648   5.136   2.103
 4073SOL    HW213119   2.612   5.014   2.206
 4074SOL     OW13120   0.132   3.354   0.464
 4074SOL    HW113121   0.050   3.407   0.487
 4074SOL    HW213122   0.211   3.416   0.460
 4075SOL     OW13123   5.503   0.132   4.007
 4075SOL    HW113124   5.513   0.102   4.102
 4075SOL    HW213125   5.431   0.078   3.963
 4076SOL     OW13126   1.857   2.788   3.004
 4076SOL    HW113127   1.822   2.855   2.938
 4076SOL    HW213128   1.908   2.836   3.075
 4077SOL     OW13129   3.854   0.779   0.882
 4077SOL    HW113130   3.905   0.740   0.959
 4077SOL    HW213131   3.909   0.849   0.837
 4078SOL     OW13132   4.640   4.809   3.147
 4078SOL    HW113133   4.580   4.736   3.180
 4078SOL    HW213134   4.591   4.865   3.080
 4079SOL     OW13135   5.006   0.470   4.303
 4079SOL    HW113136   4.936   0.412   4.345
 4079SOL    HW213137   5.009   0.558   4.349
 4080SOL     OW13138   2.921   3.678   3.687
 4080SOL    HW113139   2.866   3.669   3.604
 4080SOL    HW213140   2.897   3.605   3.750
 4081SOL     OW13141   2.268   1.436   0.136
 4081SOL    HW113142   2.244   1.481   0.050
 4081SOL    HW213143   2.240   1.493   0.213
 4082SOL     OW13144   1.075   1.524   6.184
 4082SOL    HW113145   1.074   1.428   6.212
 4082SOL    HW213146   0.983   1.562   6.193
 4083SOL     OW13147   6.218   5.109   2.401
 4083SOL    HW113148   6.145   5.047   2.429
 4083SOL    HW213149   6.306   5.071   2.429
 4084SOL     OW13150   4.608   6.611   2.017
 4084SOL    HW113151   4.609   6.683   1.947
 4084SOL    HW213152   4.521   6.562   2.013
 4085SOL     OW13153   2.512   4.550   2.437
 4085SOL    HW113154   2.534   4.561   2.340
 4085SOL    HW213155   2.481   4.456   2.453
 4086SOL     OW13156   5.694   5.372   4.917
 4086SOL    HW113157   5.713   5.275   4.932
 4086SOL    HW213158   5.765   5.427   4.960
 4087SOL     OW13159   2.109   0.890   2.455
 4087SOL    HW113160   2.050   0.815   2.487
 4087SOL    HW213161   2.114   0.961   2.526
 4088SOL     OW13162   0.478   1.609   5.629
 4088SOL    HW113163   0.533   1.677   5.581
 4088SOL    HW213164   0.390   1.599   5.583
 4089SOL     OW13165   1.334   0.635   2.911
 4089SOL    HW113166   1.360   0.732   2.902
 4089SOL    HW213167   1.414   0.578   2.895
 4090SOL     OW13168   3.258   2.504   5.564
 4090SOL    HW113169   3.337   2.472   5.512
 4090SOL    HW213170   3.174   2.479   5.515
 4091SOL     OW13171   3.346   6.052   2.117
 4091SOL    HW113172   3.350   5.953   2.102
 4091SOL    HW213173   3.361   6.100   2.031
 4092SOL     OW13174   5.513   1.748   6.354
 4092SOL    HW113175   5.449   1.824   6.362
 4092SOL    HW213176   5.580   1.768   6.282
 4093SOL     OW13177   5.546   3.939   2.461
 4093SOL    HW113178   5.518   3.922   2.555
 4093SOL    HW213179   5.641   3.969   2.459
 4094SOL     OW13180   6.844   6.753   0.158
 4094SOL    HW113181   6.783   6.738   0.080
 4094SOL    HW213182   6.934   6.714   0.138
 4095SOL     OW13183   1.923   5.275   0.956
 4095SOL    HW113184   1.833   5.243   0.927
 4095SOL    HW213185   1.993   5.231   0.900
 4096SOL     OW13186   0.643   0.219   6.291
 4096SOL    HW113187   0.661   0.154   6.365
 4096SOL    HW213188   0.556   0.266   6.307
 4097SOL     OW13189   1.085   3.864   5.592
 4097SOL    HW113190   1.091   3.964   5.582
 4097SOL    HW213191   1.177   3.825   5.593
 4098SOL     OW13192   1.443   5.962   2.058
 4098SOL    HW113193   1.504   5.921   1.990
 4098SOL    HW213194   1.470   5.932   2.149
 4099SOL     OW13195   0.055   3.310   5.469
 4099SOL    HW113196   0.056   3.218   5.429
 4099SOL    HW213197   0.010   3.307   5.559
 4100SOL     OW13198   2.386   0.540   3.307
 4100SOL    HW113199   2.343   0.472   3.366
 4100SOL    HW213200   2.405   0.500   3.218
 4101SOL     OW13201   6.045   6.440   5.900
 4101SOL    HW113202   6.072   6.355   5.854
 4101SOL    HW213203   6.011   6.419   5.991
 4102SOL     OW13204   1.737   5.585   0.438
 4102SOL    HW113205   1.825   5.630   0.449
 4102SOL    HW213206   1.705   5.595   0.343
 4103SOL     OW13207   2.267   5.114   2.858
 4103SOL    HW113208   2.252   5.190   2.920
 4103SOL    HW213209   2.365   5.109   2.835
 4104SOL     OW13210   1.499   6.168   5.336
 4104SOL    HW113211   1.490   6.267   5.336
 4104SOL    HW213212   1.417   6.127   5.296
 4105SOL     OW13213   3.665   6.653   1.846
 4105SOL    HW113214   3.647   6.746   1.817
 4105SOL    HW213215   3.698   6.653   1.941
 4106SOL     OW13216   1.416   0.108   2.806
 4106SOL    HW113217   1.348   0.094   2.877
 4106SOL    HW213218   1.495   0.156   2.843
 4107SOL     OW13219   1.790   1.861   0.922
 4107SOL    HW113220   1.749   1.928   0.861
 4107SOL    HW213221   1.739   1.857   1.008
 4108SOL     OW13222   0.004   6.658   5.028
 4108SOL    HW113223   6.999   6.707   4.946
 4108SOL    HW213224   0.024   6.563   5.005
 4109SOL     OW13225   4.884   6.826   4.666
 4109SOL    HW113226   4.798   6.788   4.632
 4109SOL    HW213227   4.866   6.880   4.748
 4110SOL     OW13228   3.969   3.205   0.541
 4110SOL    HW113229   3.985   3.189   0.638
 4110SOL    HW213230   4.031   3.149   0.487
 4111SOL     OW13231   5.634   4.845   3.635
 4111SOL    HW113232   5.588   4.784   3.700
 4111SOL    HW213233   5.733   4.836   3.645
 4112SOL     OW13234   4.162   5.736   5.206
 4112SOL    HW113235   4.102   5.697   5.276
 4112SOL    HW213236   4.225   5.802   5.247
 4113SOL     OW13237   4.868   5.472   5.193
 4113SOL    HW113238   4.945   5.513   5.243
 4113SOL    HW213239   4.796   5.448   5.258
 4114SOL     OW13240   6.789   0.995   2.876
 4114SOL    HW113241   6.737   1.071   2.838
 4114SOL    HW213242   6.788   0.999   2.975
 4115SOL     OW13243   3.936   6.107   4.548
 4115SOL    HW113244   3.951   6.011   4.522
 4115SOL    HW213245   3.940   6.115   4.648
 4116SOL     OW13246   6.230   3.250   4.142
 4116SOL    HW113247   6.254   3.186   4.215
 4116SOL    HW213248   6.216   3.341   4.181
 4117SOL     OW13249   0.180   1.570   2.830
 4117SOL    HW113250   0.252   1.596   2.894
 4117SOL    HW213251   0.109   1.519   2.878
 4118SOL     OW13252   1.293   0.256   1.618
 4118SOL    HW113253   1.245   0.291   1.700
 4118SOL    HW213254   1.232   0.262   1.539
 4119SOL     OW13255   7.019   0.858   5.183
 4119SOL    HW113256   0.068   0.804   5.225
 4119SOL    HW213257   6.941   0.798   5.164
 4120SOL     OW13258   1.853   0.749   6.025
 4120SOL    HW113259   1.874   0.781   5.932
 4120SOL    HW213260   1.894   0.812   6.091
 4121SOL     OW13261   6.560   0.961   1.469
 4121SOL    HW113262   6.472   0.915   1.481
 4121SOL    HW213263   6.631   0.893   1.450
 4122SOL     OW13264   0.719   4.855   3.442
 4122SOL    HW113265   0.658   4.865   3.521
 4122SOL    HW213266   0.758   4.944   3.419
 4123SOL     OW13267   5.740   4.480   1.334
 4123SOL    HW113268   5.809   4.543   1.370
 4123SOL    HW213269   5.782   4.418   1.268
 4124SOL     OW13270   6.409   6.928   0.272
 4124SOL    HW113271   6.447   6.867   0.341
 4124SOL    HW213272   6.373   7.010   0.316
 4125SOL     OW13273   0.084   2.641   6.559
 4125SOL    HW113274   0.125   2.717   6.508
 4125SOL    HW213275   0.005   2.674   6.610
 4126SOL     OW13276   1.336   4.192   4.024
 4126SOL    HW113277   1.426   4.186   3.981
 4126SOL    HW213278   1.276   4.123   3.985
 4127SOL     OW13279   4.849   2.389   4.007
 4127SOL    HW113280   4.901   2.329   3.947
 4127SOL    HW213281   4.752   2.366   4.001
 4128SOL     OW13282   6.680   2.236   6.100
 4128SOL    HW113283   6.742   2.292   6.155
 4128SOL    HW213284   6.667   2.147   6.144
 4129SOL     OW13285   3.497   0.521   1.672
 4129SOL    HW113286   3.425   0.579   1.635
 4129SOL    HW213287   3.559   0.494   1.598
 4130SOL     OW13288   5.472   2.432   6.916
 4130SOL    HW113289   5.504   2.513   6.965
 4130SOL    HW213290   5.388   2.398   6.959
 4131SOL     OW13291   4.746   6.100   3.989
 4131SOL    HW113292   4.818   6.146   4.041
 4131SOL    HW213293   4.692   6.042   4.050
 4132SOL     OW13294   6.613   4.124   3.257
 4132SOL    HW113295   6.623   4.028   3.281
 4132SOL    HW213296   6.517   4.150   3.262
 4133SOL     OW13297   5.456   6.396   3.744
 4133SOL    HW113298   5.484   6.452   3.822
 4133SOL    HW213299   5.460   6.451   3.661
 4134SOL     OW13300   1.302   3.528   0.946
 4134SOL    HW113301   1.394   3.506   0.916
 4134SOL    HW213302   1.236   3.474   0.894
 4135SOL     OW13303   5.906   1.428   1.057
 4135SOL    HW113304   5.871   1.335   1.046
 4135SOL    HW213305   5.930   1.443   1.153
 4136SOL     OW13306   0.846   4.920   0.295
 4136SOL    HW113307   0.903   4.927   0.213
 4136SOL    HW213308   0.751   4.905   0.269
 4137SOL     OW13309   0.117   2.834   5.939
 4137SOL    HW113310   0.056   2.839   5.860
 4137SOL    HW213311   0.089   2.757   5.997
 4138SOL     OW13312   5.380   6.850   6.267
 4138SOL    HW113313   5.471   6.853   6.226
 4138SOL    HW213314   5.313   6.825   6.197
 4139SOL     OW13315   1.659   4.534   2.443
 4139SOL    HW113316   1.674   4.505   2.537
 4139SOL    HW213317   1.562   4.555   2.429
 4140SOL     OW13318   2.387   0.096   6.919
 4140SOL    HW113319   2.465   0.072   6.977
 4140SOL    HW213320   2.342   0.012   6.888
 4141SOL     OW13321   5.261   0.408   5.906
 4141SOL    HW113322   5.288   0.495   5.947
 4141SOL    HW213323   5.283   0.409   5.809
 4142SOL     OW13324   6.871   6.607   1.457
 4142SOL    HW113325   6.967   6.597   1.484
 4142SOL    HW213326   6.815   6.544   1.510
 4143SOL     OW13327   6.560   3.971   6.777
 4143SOL    HW113328   6.529   4.034   6.706
 4143SOL    HW213329   6.598   3.889   6.735
 4144SOL     OW13330   4.288   0.321   1.597
 4144SOL    HW113331   4.267   0.400   1.539
 4144SOL    HW213332   4.221   0.314   1.671
 4145SOL     OW13333   5.396   0.695   1.056
 4145SOL    HW113334   5.344   0.780   1.044
 4145SOL    HW213335   5.428   0.663   0.966
 4146SOL     OW13336   4.300   0.060   2.585
 4146SOL    HW113337   4.235   0.080   2.659
 4146SOL    HW213338   4.305   6.986   2.571
 4147SOL     OW13339   4.688   4.526   7.001
 4147SOL    HW113340   4.759   4.474   0.023
 4147SOL    HW213341   4.599   4.485   7.021
 4148SOL     OW13342   3.040   1.495   5.981
 4148SOL    HW113343   3.113   1.560   5.961
 4148SOL    HW213344   3.077   1.402   5.977
 4149SOL     OW13345   1.731   3.082   6.725
 4149SOL    HW113346   1.823   3.100   6.761
 4149SOL    HW213347   1.669   3.065   6.802
 4150SOL     OW13348   6.096   1.396   0.873
 4150SOL    HW113349   6.012   1.397   0.928
 4150SOL    HW213350   6.170   1.356   0.927
 4151SOL     OW13351   2.732   5.739   4.905
 4151SOL    HW113352   2.656   5.691   4.948
 4151SOL    HW213353   2.796   5.771   4.974
 4152SOL     OW13354   2.880   4.287   1.130
 4152SOL    HW113355   2.898   4.228   1.209
 4152SOL    HW213356   2.788   4.271   1.096
 4153SOL     OW13357   6.705   6.050   1.285
 4153SOL    HW113358   6.658   6.120   1.339
 4153SOL    HW213359   6.782   6.090   1.238
 4154SOL     OW13360   0.392   6.405   4.646
 4154SOL    HW113361   0.419   6.393   4.550
 4154SOL    HW213362   0.362   6.499   4.661
 4155SOL     OW13363   5.650   1.226   1.601
 4155SOL    HW113364   5.647   1.257   1.506
 4155SOL    HW213365   5.627   1.302   1.662
 4156SOL     OW13366   0.755   4.604   5.687
 4156SOL    HW113367   0.794   4.612   5.778
 4156SOL    HW213368   0.657   4.624   5.690
 4157SOL     OW13369   5.348   6.025   0.812
 4157SOL    HW113370   5.328   5.961   0.738
 4157SOL    HW213371   5.279   6.015   0.884
 4158SOL     OW13372   6.826   2.320   0.676
 4158SOL    HW113373   6.747   2.288   0.727
 4158SOL    HW213374   6.861   2.246   0.618
 4159SOL     OW13375   3.178   0.369   4.562
 4159SOL    HW113376   3.157   0.362   4.465
 4159SOL    HW213377   3.256   0.430   4.575
 4160SOL     OW13378   1.781   0.256   5.607
 4160SOL    HW113379   1.733   0.331   5.654
 4160SOL    HW213380   1.844   0.294   5.540
 4161SOL     OW13381   3.318   2.907   3.731
 4161SOL    HW113382   3.302   2.932   3.827
 4161SOL    HW213383   3.287   2.813   3.716
 4162SOL     OW13384   5.565   5.979   1.507
 4162SOL    HW113385   5.540   5.985   1.410
 4162SOL    HW213386   5.665   5.969   1.515
 4163SOL     OW13387   3.501   5.754   1.340
 4163SOL    HW113388   3.414   5.706   1.330
 4163SOL    HW213389   3.569   5.691   1.380
 4164SOL     OW13390   5.618   1.670   6.909
 4164SOL    HW113391   5.565   1.738   6.959
 4164SOL    HW213392   5.579   1.579   6.925
 4165SOL     OW13393   3.507   1.850   4.171
 4165SOL    HW113394   3.581   1.908   4.205
 4165SOL    HW213395   3.473   1.793   4.246
 4166SOL     OW13396   6.061   2.193   2.397
 4166SOL    HW113397   6.093   2.105   2.362
 4166SOL    HW213398   5.993   2.231   2.335
 4167SOL     OW13399   3.947   5.451   4.360
 4167SOL    HW113400   3.954   5.509   4.441
 4167SOL    HW213401   3.856   5.461   4.320
 4168SOL     OW13402   5.134   4.023   6.430
 4168SOL    HW113403   5.084   3.983   6.506
 4168SOL    HW213404   5.070   4.047   6.357
 4169SOL     OW13405   5.024   3.683   6.721
 4169SOL    HW113406   5.027   3.630   6.636
 4169SOL    HW213407   5.065   3.629   6.795
 4170SOL     OW13408   1.073   3.320   5.213
 4170SOL    HW113409   0.995   3.286   5.161
 4170SOL    HW213410   1.155   3.267   5.190
 4171SOL     OW13411   0.406   1.119   6.164
 4171SOL    HW113412   0.473   1.159   6.102
 4171SOL    HW213413   0.320   1.169   6.158
 4172SOL     OW13414   2.663   2.647   6.389
 4172SOL    HW113415   2.580   2.682   6.346
 4172SOL    HW213416   2.640   2.567   6.445
 4173SOL     OW13417   5.172   1.231   5.342
 4173SOL    HW113418   5.176   1.315   5.289
 4173SOL    HW213419   5.124   1.161   5.290
 4174SOL     OW13420   3.656   7.002   3.932
 4174SOL    HW113421   3.709   6.916   3.939
 4174SOL    HW213422   3.591   6.995   3.857
 4175SOL     OW13423   0.941   4.673   6.750
 4175SOL    HW113424   0.929   4.614   6.830
 4175SOL    HW213425   0.986   4.622   6.677
 4176SOL     OW13426   4.770   0.225   5.354
 4176SOL    HW113427   4.691   0.175   5.317
 4176SOL    HW213428   4.741   0.276   5.435
 4177SOL     OW13429   4.098   5.604   3.237
 4177SOL    HW113430   4.103   5.523   3.178
 4177SOL    HW213431   4.072   5.684   3.183
 4178SOL     OW13432   3.937   6.321   1.262
 4178SOL    HW113433   3.842   6.351   1.252
 4178SOL    HW213434   3.989   6.346   1.180
 4179SOL     OW13435   4.510   2.195   6.807
 4179SOL    HW113436   4.529   2.212   6.904
 4179SOL    HW213437   4.447   2.265   6.772
 4180SOL     OW13438   3.759   4.222   6.845
 4180SOL    HW113439   3.676   4.276   6.833
 4180SOL    HW213440   3.735   4.125   6.847
 4181SOL     OW13441   5.595   6.174   5.806
 4181SOL    HW113442   5.568   6.136   5.895
 4181SOL    HW213443   5.607   6.273   5.814
 4182SOL     OW13444   0.241   5.775   5.277
 4182SOL    HW113445   0.145   5.750   5.289
 4182SOL    HW213446   0.248   5.854   5.216
 4183SOL     OW13447   4.909   2.113   0.275
 4183SOL    HW113448   4.928   2.100   0.178
 4183SOL    HW213449   4.810   2.110   0.290
 4184SOL     OW13450   3.078   5.220   3.303
 4184SOL    HW113451   2.991   5.202   3.258
 4184SOL    HW213452   3.113   5.309   3.276
 4185SOL     OW13453   4.776   4.188   3.159
 4185SOL    HW113454   4.784   4.094   3.193
 4185SOL    HW213455   4.741   4.187   3.066
 4186SOL     OW13456   2.055   5.183   6.886
 4186SOL    HW113457   2.086   5.259   6.830
 4186SOL    HW213458   1.979   5.137   6.841
 4187SOL     OW13459   2.634   4.363   6.244
 4187SOL    HW113460   2.554   4.419   6.262
 4187SOL    HW213461   2.618   4.306   6.164
 4188SOL     OW13462   5.243   0.719   6.646
 4188SOL    HW113463   5.171   0.744   6.710
 4188SOL    HW213464   5.322   0.778   6.659
 4189SOL     OW13465   5.254   5.167   2.985
 4189SOL    HW113466   5.254   5.146   2.887
 4189SOL    HW213467   5.344   5.202   3.011
 4190SOL     OW13468   6.334   6.656   2.060
 4190SOL    HW113469   6.404   6.587   2.079
 4190SOL    HW213470   6.376   6.746   2.056
 4191SOL     OW13471   4.311   2.607   6.459
 4191SOL    HW113472   4.322   2.703   6.434
 4191SOL    HW213473   4.259   2.600   6.544
 4192SOL     OW13474   1.690   3.760   6.275
 4192SOL    HW113475   1.703   3.670   6.232
 4192SOL    HW213476   1.710   3.753   6.372
 4193SOL     OW13477   6.840   0.221   0.745
 4193SOL    HW113478   6.751   0.196   0.705
 4193SOL    HW213479   6.835   0.213   0.844
 4194SOL     OW13480   5.684   0.688   6.424
 4194SOL    HW113481   5.718   0.598   6.452
 4194SOL    HW213482   5.739   0.721   6.347
 4195SOL     OW13483   2.603   6.297   0.908
 4195SOL    HW113484   2.679   6.231   0.912
 4195SOL    HW213485   2.639   6.389   0.920
 4196SOL     OW13486   0.341   2.711   3.648
 4196SOL    HW113487   0.347   2.750   3.556
 4196SOL    HW213488   0.301   2.778   3.710
 4197SOL     OW13489   3.931   0.568   0.058
 4197SOL    HW113490   3.861   0.606   7.022
 4197SOL    HW213491   4.013   0.625   0.054
 4198SOL     OW13492   6.925   2.351   2.034
 4198SOL    HW113493   6.866   2.354   2.115
 4198SOL    HW213494   6.998   2.419   2.043
 4199SOL     OW13495   0.711   3.703   6.673
 4199SOL    HW113496   0.723   3.671   6.579
 4199SOL    HW213497   0.790   3.758   6.701
 4200SOL     OW13498   5.019   1.916   3.488
 4200SOL    HW113499   5.107   1.901   3.533
 4200SOL    HW213500   4.982   2.005   3.516
 4201SOL     OW13501   5.505   6.950   4.577
 4201SOL    HW113502   5.577   7.015   4.554
 4201SOL    HW213503   5.504   6.935   4.676
 4202SOL     OW13504   4.417   3.983   1.695
 4202SOL    HW113505   4.464   4.047   1.756
 4202SOL    HW213506   4.332   3.951   1.739
 4203SOL     OW13507   6.163   4.171   5.434
 4203SOL    HW113508   6.070   4.190   5.404
 4203SOL    HW213509   6.204   4.102   5.374
 4204SOL     OW13510   1.616   4.261   6.271
 4204SOL    HW113511   1.666   4.188   6.224
 4204SOL    HW213512   1.655   4.276   6.362
 4205SOL     OW13513   5.288   6.091   5.747
 4205SOL    HW113514   5.387   6.099   5.731
 4205SOL    HW213515   5.269   6.107   5.844
 4206SOL     OW13516   2.581   2.104   4.532
 4206SOL    HW113517   2.651   2.166   4.567
 4206SOL    HW213518   2.620   2.046   4.461
 4207SOL     OW13519   1.659   2.590   1.824
 4207SOL    HW113520   1.672   2.555   1.731
 4207SOL    HW213521   1.744   2.634   1.854
 4208SOL     OW13522   2.744   2.343   3.552
 4208SOL    HW113523   2.818   2.277   3.565
 4208SOL    HW213524   2.734   2.399   3.635
 4209SOL     OW13525   6.432   5.600   2.435
 4209SOL    HW113526   6.483   5.676   2.395
 4209SOL    HW213527   6.398   5.626   2.526
 4210SOL     OW13528   2.980   4.405   5.388
 4210SOL    HW113529   2.949   4.430   5.296
 4210SOL    HW213530   2.936   4.466   5.455
 4211SOL     OW13531   4.032   2.835   5.518
 4211SOL    HW113532   4.076   2.841   5.607
 4211SOL    HW213533   4.101   2.832   5.446
 4212SOL     OW13534   1.049   2.338   3.075
 4212SOL    HW113535   1.067   2.266   3.142
 4212SOL    HW213536   0.950   2.352   3.069
 4213SOL     OW13537   4.056   0.398   3.826
 4213SOL    HW113538   3.982   0.430   3.885
 4213SOL    HW213539   4.104   0.322   3.870
 4214SOL     OW13540   6.638   5.790   3.696
 4214SOL    HW113541   6.593   5.712   3.653
 4214SOL    HW213542   6.681   5.847   3.626
 4215SOL     OW13543   6.265   0.294   5.177
 4215SOL    HW113544   6.167   0.284   5.158
 4215SOL    HW213545   6.303   0.204   5.200
 4216SOL     OW13546   2.633   5.555   2.324
 4216SOL    HW113547   2.544   5.588   2.291
 4216SOL    HW213548   2.630   5.456   2.334
 4217SOL     OW13549   1.238   0.840   3.123
 4217SOL    HW113550   1.245   0.741   3.111
 4217SOL    HW213551   1.321   0.884   3.088
 4218SOL     OW13552   3.359   0.780   1.953
 4218SOL    HW113553   3.291   0.784   2.026
 4218SOL    HW213554   3.352   0.863   1.897
 4219SOL     OW13555   3.597   5.300   3.523
 4219SOL    HW113556   3.505   5.296   3.563
 4219SOL    HW213557   3.665   5.303   3.596
 4220SOL     OW13558   6.043   2.309   1.496
 4220SOL    HW113559   6.083   2.228   1.539
 4220SOL    HW213560   5.970   2.344   1.555
 4221SOL     OW13561   0.725   6.200   0.561
 4221SOL    HW113562   0.733   6.240   0.653
 4221SOL    HW213563   0.628   6.186   0.539
 4222SOL     OW13564   4.980   3.239   4.851
 4222SOL    HW113565   4.981   3.338   4.860
 4222SOL    HW213566   4.947   3.214   4.760
 4223SOL     OW13567   3.268   4.037   2.303
 4223SOL    HW113568   3.243   4.043   2.399
 4223SOL    HW213569   3.192   4.001   2.250
 4224SOL     OW13570   4.915   4.524   4.713
 4224SOL    HW113571   4.992   4.474   4.753
 4224SOL    HW213572   4.931   4.622   4.723
 4225SOL     OW13573   0.764   1.914   5.936
 4225SOL    HW113574   0.763   1.815   5.925
 4225SOL    HW213575   0.721   1.938   6.023
 4226SOL     OW13576   6.036   4.795   4.558
 4226SOL    HW113577   6.105   4.731   4.522
 4226SOL    HW213578   6.081   4.863   4.615
 4227SOL     OW13579   5.285   5.268   1.307
 4227SOL    HW113580   5.245   5.227   1.390
 4227SOL    HW213581   5.335   5.351   1.333
 4228SOL     OW13582   1.550   4.339   3.582
 4228SOL    HW113583   1.647   4.336   3.557
 4228SOL    HW213584   1.522   4.433   3.599
 4229SOL     OW13585   6.096   6.254   5.213
 4229SOL    HW113586   6.065   6.336   5.260
 4229SOL    HW213587   6.119   6.184   5.281
 4230SOL     OW13588   0.272   1.109   1.642
 4230SOL    HW113589   0.221   1.128   1.727
 4230SOL    HW213590   0.334   1.185   1.623
 4231SOL     OW13591   0.825   0.441   6.542
 4231SOL    HW113592   0.865   0.426   6.451
 4231SOL    HW213593   0.812   0.353   6.587
 4232SOL     OW13594   1.621   4.822   3.883
 4232SOL    HW113595   1.649   4.915   3.859
 4232SOL    HW213596   1.677   4.789   3.960
 4233SOL     OW13597   4.438   5.378   2.208
 4233SOL    HW113598   4.361   5.334   2.162
 4233SOL    HW213599   4.440   5.349   2.304
 4234SOL     OW13600   3.565   5.464   6.060
 4234SOL    HW113601   3.525   5.388   6.009
 4234SOL    HW213602   3.493   5.531   6.081
 4235SOL     OW13603   6.744   6.352   6.424
 4235SOL    HW113604   6.787   6.293   6.493
 4235SOL    HW213605   6.815   6.404   6.377
 4236SOL     OW13606   0.613   5.203   2.990
 4236SOL    HW113607   0.671   5.254   3.054
 4236SOL    HW213608   0.612   5.107   3.015
 4237SOL     OW13609   6.620   4.760   3.669
 4237SOL    HW113610   6.549   4.728   3.606
 4237SOL    HW213611   6.591   4.846   3.712
 4238SOL     OW13612   2.717   5.673   2.860
 4238SOL    HW113613   2.704   5.607   2.933
 4238SOL    HW213614   2.708   5.766   2.897
 4239SOL     OW13615   4.123   1.034   3.616
 4239SOL    HW113616   4.207   0.995   3.655
 4239SOL    HW213617   4.046   1.014   3.676
 4240SOL     OW13618   5.860   6.662   2.274
 4240SOL    HW113619   5.795   6.720   2.323
 4240SOL    HW213620   5.856   6.569   2.311
 4241SOL     OW13621   6.691   4.625   0.434
 4241SOL    HW113622   6.742   4.566   0.370
 4241SOL    HW213623   6.740   4.711   0.447
 4242SOL     OW13624   3.637   2.044   3.534
 4242SOL    HW113625   3.625   2.004   3.625
 4242SOL    HW213626   3.552   2.032   3.481
 4243SOL     OW13627   3.781   2.007   2.929
 4243SOL    HW113628   3.816   1.918   2.958
 4243SOL    HW213629   3.829   2.036   2.846
 4244SOL     OW13630   3.234   2.973   4.762
 4244SOL    HW113631   3.170   2.995   4.836
 4244SOL    HW213632   3.190   2.990   4.674
 4245SOL     OW13633   6.316   0.355   6.694
 4245SOL    HW113634   6.323   0.374   6.791
 4245SOL    HW213635   6.374   0.419   6.643
 4246SOL     OW13636   0.062   4.753   6.181
 4246SOL    HW113637   6.994   4.714   6.179
 4246SOL    HW213638   0.083   4.792   6.091
 4247SOL     OW13639   6.949   5.895   5.076
 4247SOL    HW113640   6.873   5.929   5.131
 4247SOL    HW213641   6.987   5.971   5.022
 4248SOL     OW13642   2.549   3.515   6.478
 4248SOL    HW113643   2.575   3.550   6.568
 4248SOL    HW213644   2.459   3.472   6.483
 4249SOL     OW13645   5.625   3.521   6.202
 4249SOL    HW113646   5.625   3.506   6.104
 4249SOL    HW213647   5.719   3.514   6.237
 4250SOL     OW13648   0.196   3.879   3.730
 4250SOL    HW113649   0.207   3.782   3.710
 4250SOL    HW213650   0.273   3.910   3.787
 4251SOL     OW13651   5.546   4.641   6.730
 4251SOL    HW113652   5.474   4.578   6.759
 4251SOL    HW213653   5.589   4.682   6.811
 4252SOL     OW13654   6.510   5.116   4.988
 4252SOL    HW113655   6.445   5.192   4.979
 4252SOL    HW213656   6.466   5.030   4.963
 4253SOL     OW13657   3.257   6.112   3.176
 4253SOL    HW113658   3.234   6.015   3.187
 4253SOL    HW213659   3.240   6.140   3.081
 4254SOL     OW13660   2.746   3.702   1.485
 4254SOL    HW113661   2.673   3.634   1.476
 4254SOL    HW213662   2.739   3.748   1.573
 4255SOL     OW13663   0.436   2.492   4.291
 4255SOL    HW113664   0.439   2.592   4.284
 4255SOL    HW213665   0.483   2.464   4.375
 4256SOL     OW13666   2.135   1.033   2.195
 4256SOL    HW113667   2.129   1.010   2.292
 4256SOL    HW213668   2.134   0.948   2.141
 4257SOL     OW13669   4.389   2.233   5.243
 4257SOL    HW113670   4.449   2.203   5.169
 4257SOL    HW213671   4.402   2.173   5.322
 4258SOL     OW13672   5.299   5.972   2.653
 4258SOL    HW113673   5.224   5.943   2.712
 4258SOL    HW213674   5.366   5.898   2.644
 4259SOL     OW13675   2.437   3.087   1.279
 4259SOL    HW113676   2.391   3.086   1.190
 4259SOL    HW213677   2.376   3.129   1.347
 4260SOL     OW13678   3.686   5.633   4.488
 4260SOL    HW113679   3.611   5.572   4.514
 4260SOL    HW213680   3.681   5.652   4.390
 4261SOL     OW13681   0.993   1.656   2.744
 4261SOL    HW113682   0.969   1.645   2.840
 4261SOL    HW213683   1.001   1.753   2.722
 4262SOL     OW13684   0.561   6.405   6.337
 4262SOL    HW113685   0.537   6.351   6.418
 4262SOL    HW213686   0.625   6.353   6.281
 4263SOL     OW13687   4.298   5.148   6.460
 4263SOL    HW113688   4.277   5.242   6.489
 4263SOL    HW213689   4.334   5.096   6.538
 4264SOL     OW13690   0.707   0.428   1.446
 4264SOL    HW113691   0.654   0.492   1.501
 4264SOL    HW213692   0.645   0.372   1.391
 4265SOL     OW13693   1.609   1.663   0.178
 4265SOL    HW113694   1.612   1.731   0.104
 4265SOL    HW213695   1.683   1.597   0.165
 4266SOL     OW13696   3.554   4.590   1.039
 4266SOL    HW113697   3.628   4.565   0.976
 4266SOL    HW213698   3.468   4.552   1.005
 4267SOL     OW13699   1.263   4.582   5.675
 4267SOL    HW113700   1.201   4.649   5.635
 4267SOL    HW213701   1.270   4.503   5.614
 4268SOL     OW13702   1.798   0.829   1.146
 4268SOL    HW113703   1.790   0.927   1.130
 4268SOL    HW213704   1.709   0.791   1.170
 4269SOL     OW13705   2.637   4.058   0.655
 4269SOL    HW113706   2.587   4.026   0.736
 4269SOL    HW213707   2.735   4.062   0.675
 4270SOL     OW13708   3.647   2.912   6.507
 4270SOL    HW113709   3.644   2.889   6.409
 4270SOL    HW213710   3.614   3.005   6.520
 4271SOL     OW13711   1.515   0.889   0.965
 4271SOL    HW113712   1.426   0.927   0.939
 4271SOL    HW213713   1.577   0.895   0.887
 4272SOL     OW13714   0.199   4.077   4.037
 4272SOL    HW113715   0.194   4.109   3.942
 4272SOL    HW213716   0.251   3.992   4.041
 4273SOL     OW13717   5.677   6.838   4.104
 4273SOL    HW113718   5.709   6.933   4.096
 4273SOL    HW213719   5.609   6.820   4.033
 4274SOL     OW13720   2.368   0.401   3.865
 4274SOL    HW113721   2.452   0.405   3.919
 4274SOL    HW213722   2.370   0.319   3.807
 4275SOL     OW13723   0.622   0.368   5.717
 4275SOL    HW113724   0.589   0.459   5.741
 4275SOL    HW213725   0.576   0.300   5.773
 4276SOL     OW13726   1.947   4.579   2.392
 4276SOL    HW113727   1.986   4.671   2.384
 4276SOL    HW213728   1.849   4.585   2.408
 4277SOL     OW13729   0.634   5.540   5.730
 4277SOL    HW113730   0.569   5.548   5.806
 4277SOL    HW213731   0.727   5.551   5.766
 4278SOL     OW13732   1.318   6.601   6.335
 4278SOL    HW113733   1.413   6.627   6.315
 4278SOL    HW213734   1.289   6.643   6.421
 4279SOL     OW13735   3.156   5.731   3.782
 4279SOL    HW113736   3.214   5.663   3.736
 4279SOL    HW213737   3.060   5.711   3.762
 4280SOL     OW13738   4.977   2.941   3.741
 4280SOL    HW113739   5.021   2.907   3.657
 4280SOL    HW213740   4.939   3.031   3.724
 4281SOL     OW13741   2.387   4.158   5.358
 4281SOL    HW113742   2.474   4.202   5.379
 4281SOL    HW213743   2.399   4.089   5.287
 4282SOL     OW13744   0.539   3.013   0.675
 4282SOL    HW113745   0.544   2.998   0.774
 4282SOL    HW213746   0.447   3.040   0.650
 4283SOL     OW13747   2.331   1.000   4.558
 4283SOL    HW113748   2.403   1.053   4.603
 4283SOL    HW213749   2.256   0.984   4.623
 4284SOL     OW13750   0.322   2.094   3.404
 4284SOL    HW113751   0.293   2.091   3.499
 4284SOL    HW213752   0.273   2.168   3.356
 4285SOL     OW13753   1.014   5.864   4.710
 4285SOL    HW113754   0.936   5.916   4.675
 4285SOL    HW213755   1.054   5.911   4.787
 4286SOL     OW13756   4.412   5.872   6.084
 4286SOL    HW113757   4.491   5.817   6.055
 4286SOL    HW213758   4.390   5.938   6.011
 4287SOL     OW13759   4.089   6.371   5.830
 4287SOL    HW113760   4.096   6.467   5.805
 4287SOL    HW213761   4.056   6.318   5.752
 4288SOL     OW13762   1.055   5.815   3.205
 4288SOL    HW113763   1.149   5.783   3.190
 4288SOL    HW213764   1.058   5.904   3.251
 4289SOL     OW13765   7.023   3.965   0.472
 4289SOL    HW113766   0.060   3.885   0.471
 4289SOL    HW213767   0.037   4.035   0.532
 4290SOL     OW13768   2.076   1.596   3.305
 4290SOL    HW113769   1.986   1.640   3.307
 4290SOL    HW213770   2.138   1.650   3.248
 4291SOL     OW13771   6.704   4.179   1.064
 4291SOL    HW113772   6.618   4.230   1.070
 4291SOL    HW213773   6.778   4.242   1.038
 4292SOL     OW13774   5.811   5.351   5.963
 4292SOL    HW113775   5.835   5.314   6.052
 4292SOL    HW213776   5.748   5.288   5.916
 4293SOL     OW13777   0.354   2.102   6.450
 4293SOL    HW113778   0.292   2.116   6.527
 4293SOL    HW213779   0.414   2.024   6.469
 4294SOL     OW13780   4.864   1.777   6.020
 4294SOL    HW113781   4.813   1.805   6.101
 4294SOL    HW213782   4.902   1.857   5.974
 4295SOL     OW13783   3.845   6.006   5.978
 4295SOL    HW113784   3.793   6.090   5.994
 4295SOL    HW213785   3.942   6.028   5.971
 4296SOL     OW13786   2.699   1.287   2.913
 4296SOL    HW113787   2.710   1.386   2.915
 4296SOL    HW213788   2.611   1.263   2.872
 4297SOL     OW13789   5.544   0.399   0.603
 4297SOL    HW113790   5.638   0.432   0.593
 4297SOL    HW213791   5.487   0.440   0.532
 4298SOL     OW13792   2.059   5.143   1.702
 4298SOL    HW113793   2.095   5.175   1.790
 4298SOL    HW213794   2.103   5.195   1.628
 4299SOL     OW13795   0.984   4.897   5.336
 4299SOL    HW113796   0.898   4.912   5.384
 4299SOL    HW213797   1.060   4.902   5.402
 4300SOL     OW13798   6.075   6.712   5.339
 4300SOL    HW113799   6.107   6.622   5.370
 4300SOL    HW213800   5.976   6.717   5.349
 4301SOL     OW13801   2.828   0.911   0.449
 4301SOL    HW113802   2.842   0.828   0.503
 4301SOL    HW213803   2.742   0.953   0.475
 4302SOL     OW13804   1.093   7.017   6.489
 4302SOL    HW113805   1.176   6.992   6.440
 4302SOL    HW213806   1.084   0.093   6.489
 4303SOL     OW13807   6.586   4.406   1.453
 4303SOL    HW113808   6.620   4.321   1.494
 4303SOL    HW213809   6.646   4.481   1.478
 4304SOL     OW13810   3.045   3.148   4.928
 4304SOL    HW113811   2.990   3.080   4.976
 4304SOL    HW213812   3.047   3.233   4.981
 4305SOL     OW13813   6.577   1.091   5.164
 4305SOL    HW113814   6.630   1.140   5.234
 4305SOL    HW213815   6.617   1.108   5.074
 4306SOL     OW13816   6.029   6.108   5.771
 4306SOL    HW113817   5.939   6.085   5.809
 4306SOL    HW213818   6.084   6.025   5.764
 4307SOL     OW13819   5.299   3.196   0.159
 4307SOL    HW113820   5.323   3.223   0.252
 4307SOL    HW213821   5.324   3.100   0.144
 4308SOL     OW13822   3.592   6.698   5.180
 4308SOL    HW113823   3.656   6.626   5.205
 4308SOL    HW213824   3.499   6.661   5.178
 4309SOL     OW13825   1.915   0.624   1.456
 4309SOL    HW113826   1.893   0.667   1.368
 4309SOL    HW213827   1.856   0.545   1.471
 4310SOL     OW13828   1.531   0.473   2.854
 4310SOL    HW113829   1.598   0.528   2.805
 4310SOL    HW213830   1.568   0.382   2.872
 4311SOL     OW13831   1.212   5.653   4.657
 4311SOL    HW113832   1.219   5.576   4.593
 4311SOL    HW213833   1.116   5.676   4.671
 4312SOL     OW13834   1.526   5.775   1.373
 4312SOL    HW113835   1.475   5.689   1.372
 4312SOL    HW213836   1.596   5.773   1.301
 4313SOL     OW13837   5.238   1.040   1.275
 4313SOL    HW113838   5.185   1.060   1.193
 4313SOL    HW213839   5.183   0.984   1.337
 4314SOL     OW13840   5.965   3.494   1.947
 4314SOL    HW113841   5.930   3.402   1.966
 4314SOL    HW213842   6.062   3.498   1.971
 4315SOL     OW13843   2.215   1.512   2.649
 4315SOL    HW113844   2.190   1.609   2.644
 4315SOL    HW213845   2.313   1.502   2.631
 4316SOL     OW13846   0.731   0.856   2.413
 4316SOL    HW113847   0.640   0.868   2.373
 4316SOL    HW213848   0.730   0.780   2.477
 4317SOL     OW13849   4.178   0.525   3.304
 4317SOL    HW113850   4.252   0.465   3.272
 4317SOL    HW213851   4.215   0.615   3.326
 4318SOL     OW13852   6.390   2.308   4.933
 4318SOL    HW113853   6.323   2.269   4.996
 4318SOL    HW213854   6.371   2.406   4.921
 4319SOL     OW13855   2.963   3.017   6.108
 4319SOL    HW113856   2.936   2.936   6.159
 4319SOL    HW213857   3.046   3.056   6.146
 4320SOL     OW13858   0.281   5.663   3.627
 4320SOL    HW113859   0.217   5.724   3.675
 4320SOL    HW213860   0.236   5.576   3.609
 4321SOL     OW13861   0.721   0.605   4.826
 4321SOL    HW113862   0.749   0.680   4.767
 4321SOL    HW213863   0.799   0.545   4.844
 4322SOL     OW13864   5.685   1.291   1.341
 4322SOL    HW113865   5.596   1.288   1.295
 4322SOL    HW213866   5.754   1.246   1.284
 4323SOL     OW13867   0.204   2.029   3.944
 4323SOL    HW113868   0.219   2.018   4.042
 4323SOL    HW213869   0.108   2.053   3.928
 4324SOL     OW13870   5.517   2.772   6.274
 4324SOL    HW113871   5.608   2.734   6.256
 4324SOL    HW213872   5.477   2.806   6.189
 4325SOL     OW13873   1.551   2.142   6.293
 4325SOL    HW113874   1.481   2.168   6.227
 4325SOL    HW213875   1.536   2.047   6.322
 4326SOL     OW13876   6.459   2.607   5.161
 4326SOL    HW113877   6.403   2.673   5.209
 4326SOL    HW213878   6.533   2.654   5.112
 4327SOL     OW13879   5.366   1.044   3.135
 4327SOL    HW113880   5.404   1.096   3.212
 4327SOL    HW213881   5.335   1.107   3.064
 4328SOL     OW13882   5.890   5.016   0.309
 4328SOL    HW113883   5.849   5.066   0.386
 4328SOL    HW213884   5.968   4.963   0.342
 4329SOL     OW13885   5.069   1.556   6.911
 4329SOL    HW113886   5.160   1.532   6.878
 4329SOL    HW213887   5.000   1.510   6.856
 4330SOL     OW13888   1.357   0.882   6.491
 4330SOL    HW113889   1.274   0.830   6.470
 4330SOL    HW213890   1.433   0.819   6.506
 4331SOL     OW13891   5.575   2.027   6.678
 4331SOL    HW113892   5.645   1.976   6.626
 4331SOL    HW213893   5.618   2.105   6.724
 4332SOL     OW13894   5.784   3.098   1.839
 4332SOL    HW113895   5.736   3.071   1.756
 4332SOL    HW213896   5.741   3.180   1.877
 4333SOL     OW13897   6.353   1.363   5.481
 4333SOL    HW113898   6.439   1.412   5.469
 4333SOL    HW213899   6.276   1.422   5.456
 4334SOL     OW13900   4.556   0.252   1.561
 4334SOL    HW113901   4.459   0.277   1.571
 4334SOL    HW213902   4.570   0.213   1.470
 4335SOL     OW13903   3.689   4.427   5.672
 4335SOL    HW113904   3.664   4.468   5.760
 4335SOL    HW213905   3.715   4.499   5.608
 4336SOL     OW13906   1.108   6.470   5.837
 4336SOL    HW113907   1.102   6.562   5.800
 4336SOL    HW213908   1.186   6.464   5.900
 4337SOL     OW13909   0.360   5.727   0.320
 4337SOL    HW113910   0.435   5.793   0.319
 4337SOL    HW213911   0.387   5.647   0.373
 4338SOL     OW13912   5.673   6.203   3.717
 4338SOL    HW113913   5.697   6.196   3.620
 4338SOL    HW213914   5.629   6.292   3.734
 4339SOL     OW13915   6.717   1.264   6.750
 4339SOL    HW113916   6.653   1.324   6.702
 4339SOL    HW213917   6.668   1.208   6.816
 4340SOL     OW13918   4.382   3.415   1.715
 4340SOL    HW113919   4.452   3.344   1.719
 4340SOL    HW213920   4.423   3.501   1.687
 4341SOL     OW13921   0.923   3.706   0.258
 4341SOL    HW113922   0.842   3.761   0.281
 4341SOL    HW213923   0.911   3.666   0.167
 4342SOL     OW13924   0.421   2.136   3.055
 4342SOL    HW113925   0.487   2.068   3.023
 4342SOL    HW213926   0.449   2.171   3.144
 4343SOL     OW13927   2.643   1.690   1.277
 4343SOL    HW113928   2.545   1.712   1.275
 4343SOL    HW213929   2.696   1.774   1.263
 4344SOL     OW13930   1.877   3.798   2.239
 4344SOL    HW113931   1.971   3.818   2.211
 4344SOL    HW213932   1.879   3.731   2.313
 4345SOL     OW13933   2.607   1.532   6.019
 4345SOL    HW113934   2.684   1.573   5.971
 4345SOL    HW213935   2.522   1.573   5.987
 4346SOL     OW13936   6.752   3.402   1.043
 4346SOL    HW113937   6.736   3.370   0.949
 4346SOL    HW213938   6.666   3.403   1.093
 4347SOL     OW13939   5.166   5.894   2.304
 4347SOL    HW113940   5.262   5.885   2.278
 4347SOL    HW213941   5.109   5.850   2.235
 4348SOL     OW13942   1.346   4.097   0.074
 4348SOL    HW113943   1.317   4.024   0.013
 4348SOL    HW213944   1.429   4.141   0.038
 4349SOL     OW13945   6.707   0.943   1.770
 4349SOL    HW113946   6.784   0.936   1.706
 4349SOL    HW213947   6.702   1.035   1.806
 4350SOL     OW13948   4.432   0.030   3.152
 4350SOL    HW113949   4.384   0.108   3.193
 4350SOL    HW213950   4.445   6.983   3.221
 4351SOL     OW13951   3.074   6.930   6.930
 4351SOL    HW113952   3.109   7.011   6.977
 4351SOL    HW213953   3.130   6.909   6.850
 4352SOL     OW13954   6.230   1.815   2.751
 4352SOL    HW113955   6.273   1.833   2.663
 4352SOL    HW213956   6.142   1.862   2.755
 4353SOL     OW13957   3.062   5.828   1.754
 4353SOL    HW113958   2.989   5.762   1.739
 4353SOL    HW213959   3.143   5.801   1.702
 4354SOL     OW13960   2.824   0.590   1.277
 4354SOL    HW113961   2.737   0.638   1.262
 4354SOL    HW213962   2.837   0.575   1.375
 4355SOL     OW13963   4.785   0.131   0.415
 4355SOL    HW113964   4.814   0.036   0.420
 4355SOL    HW213965   4.764   0.155   0.320
 4356SOL     OW13966   3.759   4.244   0.201
 4356SOL    HW113967   3.779   4.163   0.256
 4356SOL    HW213968   3.662   4.267   0.209
 4357SOL     OW13969   5.924   0.840   0.192
 4357SOL    HW113970   5.932   0.932   0.154
 4357SOL    HW213971   6.004   0.820   0.248
 4358SOL     OW13972   6.139   0.701   0.907
 4358SOL    HW113973   6.154   0.785   0.855
 4358SOL    HW213974   6.226   0.653   0.920
 4359SOL     OW13975   5.623   3.421   4.037
 4359SOL    HW113976   5.722   3.437   4.033
 4359SOL    HW213977   5.590   3.397   3.946
 4360SOL     OW13978   2.261   3.351   0.861
 4360SOL    HW113979   2.360   3.347   0.848
 4360SOL    HW213980   2.225   3.258   0.864
 4361SOL     OW13981   5.900   1.949   2.409
 4361SOL    HW113982   5.895   2.048   2.394
 4361SOL    HW213983   5.866   1.928   2.500
 4362SOL     OW13984   5.304   4.093   2.821
 4362SOL    HW113985   5.318   4.187   2.789
 4362SOL    HW213986   5.220   4.088   2.875
 4363SOL     OW13987   5.161   0.540   6.235
 4363SOL    HW113988   5.252   0.532   6.193
 4363SOL    HW213989   5.153   0.475   6.310
 4364SOL     OW13990   3.527   3.899   4.621
 4364SOL    HW113991   3.604   3.958   4.646
 4364SOL    HW213992   3.509   3.908   4.523
 4365SOL     OW13993   4.178   1.739   0.931
 4365SOL    HW113994   4.277   1.756   0.923
 4365SOL    HW213995   4.137   1.807   0.992
 4366SOL     OW13996   5.362   4.800   0.413
 4366SOL    HW113997   5.294   4.873   0.422
 4366SOL    HW213998   5.316   4.714   0.391
 4367SOL     OW13999   7.000   7.008   0.723
 4367SOL    HW114000   6.943   0.065   0.731
 4367SOL    HW214001   7.004   6.979   0.628
 4368SOL     OW14002   4.371   4.535   2.006
 4368SOL    HW114003   4.315   4.543   1.924
 4368SOL    HW214004   4.415   4.445   2.008
 4369SOL     OW14005   2.988   5.493   1.509
 4369SOL    HW114006   2.914   5.559   1.497
 4369SOL    HW214007   3.014   5.489   1.606
 4370SOL     OW14008   5.438   4.139   2.204
 4370SOL    HW114009   5.431   4.151   2.105
 4370SOL    HW214010   5.533   4.155   2.232
 4371SOL     OW14011   0.761   2.070   2.260
 4371SOL    HW114012   0.788   1.977   2.233
 4371SOL    HW214013   0.670   2.067   2.302
 4372SOL     OW14014   5.154   0.112   3.342
 4372SOL    HW114015   5.195   0.156   3.262
 4372SOL    HW214016   5.066   0.155   3.363
 4373SOL     OW14017   6.931   1.869   6.450
 4373SOL    HW114018   6.935   1.773   6.423
 4373SOL    HW214019   6.977   1.925   6.382
 4374SOL     OW14020   3.372   1.415   1.371
 4374SOL    HW114021   3.467   1.383   1.371
 4374SOL    HW214022   3.369   1.510   1.338
 4375SOL     OW14023   3.519   5.762   4.142
 4375SOL    HW114024   3.612   5.749   4.178
 4375SOL    HW214025   3.522   5.762   4.042
 4376SOL     OW14026   0.152   2.148   4.627
 4376SOL    HW114027   0.120   2.060   4.591
 4376SOL    HW214028   0.227   2.182   4.571
 4377SOL     OW14029   6.749   5.279   6.194
 4377SOL    HW114030   6.655   5.247   6.186
 4377SOL    HW214031   6.811   5.201   6.197
 4378SOL     OW14032   3.379   1.618   3.911
 4378SOL    HW114033   3.381   1.528   3.954
 4378SOL    HW214034   3.469   1.641   3.876
 4379SOL     OW14035   3.582   2.043   6.191
 4379SOL    HW114036   3.557   2.037   6.094
 4379SOL    HW214037   3.507   2.011   6.248
 4380SOL     OW14038   0.548   2.225   3.292
 4380SOL    HW114039   0.477   2.194   3.355
 4380SOL    HW214040   0.633   2.239   3.342
 4381SOL     OW14041   1.402   5.801   6.996
 4381SOL    HW114042   1.434   5.719   6.949
 4381SOL    HW214043   1.392   5.782   0.070
 4382SOL     OW14044   0.903   5.305   4.520
 4382SOL    HW114045   0.858   5.354   4.445
 4382SOL    HW214046   0.900   5.207   4.502
 4383SOL     OW14047   6.843   3.944   0.734
 4383SOL    HW114048   6.907   3.981   0.802
 4383SOL    HW214049   6.879   3.857   0.699
 4384SOL     OW14050   5.036   6.926   3.753
 4384SOL    HW114051   5.114   6.868   3.774
 4384SOL    HW214052   4.996   6.897   3.665
 4385SOL     OW14053   4.536   1.713   5.563
 4385SOL    HW114054   4.575   1.622   5.573
 4385SOL    HW214055   4.566   1.771   5.638
 4386SOL     OW14056   1.762   3.330   4.314
 4386SOL    HW114057   1.823   3.390   4.367
 4386SOL    HW214058   1.810   3.300   4.232
 4387SOL     OW14059   5.401   1.800   0.774
 4387SOL    HW114060   5.427   1.772   0.867
 4387SOL    HW214061   5.353   1.887   0.778
 4388SOL     OW14062   4.949   3.638   0.144
 4388SOL    HW114063   4.973   3.551   0.186
 4388SOL    HW214064   4.852   3.638   0.121
 4389SOL     OW14065   1.628   1.890   6.976
 4389SOL    HW114066   1.590   1.971   6.932
 4389SOL    HW214067   1.727   1.893   6.972
 4390SOL     OW14068   6.840   1.751   1.049
 4390SOL    HW114069   6.909   1.690   1.010
 4390SOL    HW214070   6.871   1.846   1.039
 4391SOL     OW14071   0.734   5.697   0.880
 4391SOL    HW114072   0.822   5.740   0.903
 4391SOL    HW214073   0.701   5.734   0.793
 4392SOL     OW14074   0.849   3.020   5.917
 4392SOL    HW114075   0.856   2.954   5.991
 4392SOL    HW214076   0.787   3.094   5.944
 4393SOL     OW14077   5.970   0.249   1.943
 4393SOL    HW114078   6.041   0.255   2.013
 4393SOL    HW214079   5.938   0.155   1.935
 4394SOL     OW14080   0.510   0.482   2.440
 4394SOL    HW114081   0.581   0.514   2.378
 4394SOL    HW214082   0.498   0.383   2.431
 4395SOL     OW14083   1.624   4.485   2.154
 4395SOL    HW114084   1.668   4.541   2.084
 4395SOL    HW214085   1.644   4.522   2.245
 4396SOL     OW14086   3.308   0.894   2.780
 4396SOL    HW114087   3.390   0.952   2.778
 4396SOL    HW214088   3.227   0.952   2.780
 4397SOL     OW14089   3.611   1.329   4.884
 4397SOL    HW114090   3.533   1.334   4.946
 4397SOL    HW214091   3.649   1.420   4.871
 4398SOL     OW14092   2.280   3.577   5.479
 4398SOL    HW114093   2.203   3.620   5.527
 4398SOL    HW214094   2.245   3.512   5.413
 4399SOL     OW14095   2.563   6.703   1.708
 4399SOL    HW114096   2.603   6.770   1.646
 4399SOL    HW214097   2.489   6.746   1.759
 4400SOL     OW14098   1.988   6.106   4.938
 4400SOL    HW114099   1.918   6.163   4.897
 4400SOL    HW214100   1.974   6.011   4.911
 4401SOL     OW14101   2.899   0.157   6.286
 4401SOL    HW114102   2.890   0.067   6.243
 4401SOL    HW214103   2.842   0.160   6.369
 4402SOL     OW14104   2.092   1.065   3.017
 4402SOL    HW114105   2.142   0.978   3.029
 4402SOL    HW214106   2.153   1.141   3.040
 4403SOL     OW14107   0.251   5.428   2.209
 4403SOL    HW114108   0.181   5.492   2.177
 4403SOL    HW214109   0.328   5.480   2.247
 4404SOL     OW14110   0.674   6.734   6.062
 4404SOL    HW114111   0.713   6.773   6.145
 4404SOL    HW214112   0.726   6.763   5.983
 4405SOL     OW14113   1.592   5.176   2.349
 4405SOL    HW114114   1.663   5.143   2.411
 4405SOL    HW214115   1.508   5.192   2.401
 4406SOL     OW14116   6.342   4.282   1.989
 4406SOL    HW114117   6.331   4.375   2.023
 4406SOL    HW214118   6.259   4.229   2.007
 4407SOL     OW14119   5.907   6.664   0.940
 4407SOL    HW114120   5.939   6.715   1.021
 4407SOL    HW214121   5.864   6.728   0.877
 4408SOL     OW14122   4.084   0.955   0.856
 4408SOL    HW114123   4.131   0.897   0.789
 4408SOL    HW214124   4.150   0.990   0.922
 4409SOL     OW14125   2.770   0.618   4.028
 4409SOL    HW114126   2.693   0.680   4.036
 4409SOL    HW214127   2.755   0.537   4.084
 4410SOL     OW14128   0.679   0.198   0.968
 4410SOL    HW114129   0.751   0.205   1.036
 4410SOL    HW214130   0.598   0.247   0.999
 4411SOL     OW14131   4.528   4.562   5.271
 4411SOL    HW114132   4.482   4.505   5.339
 4411SOL    HW214133   4.542   4.509   5.187
 4412SOL     OW14134   4.556   6.201   1.972
 4412SOL    HW114135   4.559   6.265   1.895
 4412SOL    HW214136   4.504   6.241   2.047
 4413SOL     OW14137   4.489   5.577   3.778
 4413SOL    HW114138   4.397   5.560   3.742
 4413SOL    HW214139   4.518   5.499   3.833
 4414SOL     OW14140   5.431   3.673   1.397
 4414SOL    HW114141   5.415   3.575   1.384
 4414SOL    HW214142   5.351   3.715   1.440
 4415SOL     OW14143   1.602   3.882   0.949
 4415SOL    HW114144   1.616   3.871   0.851
 4415SOL    HW214145   1.629   3.974   0.976
 4416SOL     OW14146   4.970   2.922   4.431
 4416SOL    HW114147   4.891   2.927   4.369
 4416SOL    HW214148   5.054   2.933   4.379
 4417SOL     OW14149   7.013   4.274   1.468
 4417SOL    HW114150   6.938   4.230   1.419
 4417SOL    HW214151   7.001   4.373   1.465
 4418SOL     OW14152   6.195   0.806   5.777
 4418SOL    HW114153   6.216   0.708   5.772
 4418SOL    HW214154   6.259   0.850   5.839
 4419SOL     OW14155   6.533   6.144   6.649
 4419SOL    HW114156   6.562   6.239   6.662
 4419SOL    HW214157   6.521   6.099   6.738
 4420SOL     OW14158   4.127   2.147   0.955
 4420SOL    HW114159   4.073   2.225   0.988
 4420SOL    HW214160   4.203   2.179   0.899
 4421SOL     OW14161   1.937   2.747   0.198
 4421SOL    HW114162   1.969   2.820   0.259
 4421SOL    HW214163   1.839   2.757   0.183
 4422SOL     OW14164   0.109   3.073   6.104
 4422SOL    HW114165   0.151   3.011   6.038
 4422SOL    HW214166   0.172   3.149   6.123
 4423SOL     OW14167   5.834   4.388   4.491
 4423SOL    HW114168   5.820   4.443   4.573
 4423SOL    HW214169   5.764   4.411   4.423
 4424SOL     OW14170   4.439   5.990   2.572
 4424SOL    HW114171   4.524   5.938   2.579
 4424SOL    HW214172   4.422   6.013   2.477
 4425SOL     OW14173   0.764   5.820   1.403
 4425SOL    HW114174   0.704   5.740   1.400
 4425SOL    HW214175   0.711   5.902   1.384
 4426SOL     OW14176   0.297   0.600   4.493
 4426SOL    HW114177   0.267   0.678   4.548
 4426SOL    HW214178   0.236   0.589   4.415
 4427SOL     OW14179   2.454   5.941   2.348
 4427SOL    HW114180   2.425   6.019   2.403
 4427SOL    HW214181   2.429   5.856   2.395
 4428SOL     OW14182   6.589   5.380   3.278
 4428SOL    HW114183   6.621   5.471   3.306
 4428SOL    HW214184   6.650   5.344   3.207
 4429SOL     OW14185   2.728   6.361   3.233
 4429SOL    HW114186   2.735   6.286   3.299
 4429SOL    HW214187   2.803   6.354   3.168
 4430SOL     OW14188   6.021   3.659   5.231
 4430SOL    HW114189   6.074   3.678   5.313
 4430SOL    HW214190   6.000   3.561   5.227
 4431SOL     OW14191   4.295   6.663   4.809
 4431SOL    HW114192   4.343   6.582   4.776
 4431SOL    HW214193   4.210   6.635   4.854
 4432SOL     OW14194   1.158   3.225   6.112
 4432SOL    HW114195   1.107   3.164   6.172
 4432SOL    HW214196   1.138   3.201   6.017
 4433SOL     OW14197   0.944   0.651   4.431
 4433SOL    HW114198   0.934   0.559   4.469
 4433SOL    HW214199   0.913   0.651   4.335
 4434SOL     OW14200   6.957   0.850   1.958
 4434SOL    HW114201   6.944   0.915   1.883
 4434SOL    HW214202   6.911   0.764   1.936
 4435SOL     OW14203   2.271   4.262   0.479
 4435SOL    HW114204   2.360   4.299   0.505
 4435SOL    HW214205   2.206   4.337   0.467
 4436SOL     OW14206   4.521   2.369   1.747
 4436SOL    HW114207   4.516   2.275   1.713
 4436SOL    HW214208   4.455   2.426   1.698
 4437SOL     OW14209   6.417   4.625   0.035
 4437SOL    HW114210   6.466   4.575   6.988
 4437SOL    HW214211   6.345   4.567   0.073
 4438SOL     OW14212   4.260   1.564   4.682
 4438SOL    HW114213   4.258   1.528   4.589
 4438SOL    HW214214   4.278   1.490   4.747
 4439SOL     OW14215   2.156   5.795   3.084
 4439SOL    HW114216   2.173   5.698   3.097
 4439SOL    HW214217   2.190   5.824   2.995
 4440SOL     OW14218   1.478   5.140   5.143
 4440SOL    HW114219   1.569   5.100   5.157
 4440SOL    HW214220   1.416   5.108   5.215
 4441SOL     OW14221   6.644   1.715   1.200
 4441SOL    HW114222   6.724   1.724   1.141
 4441SOL    HW214223   6.604   1.805   1.215
 4442SOL     OW14224   2.292   4.852   1.437
 4442SOL    HW114225   2.212   4.867   1.495
 4442SOL    HW214226   2.370   4.825   1.493
 4443SOL     OW14227   0.550   6.056   6.364
 4443SOL    HW114228   0.620   6.122   6.336
 4443SOL    HW214229   0.555   5.975   6.305
 4444SOL     OW14230   5.656   5.362   0.270
 4444SOL    HW114231   5.662   5.284   0.333
 4444SOL    HW214232   5.596   5.431   0.309
 4445SOL     OW14233   2.262   4.180   0.138
 4445SOL    HW114234   2.171   4.165   0.177
 4445SOL    HW214235   2.272   4.126   0.054
 4446SOL     OW14236   4.554   1.635   1.974
 4446SOL    HW114237   4.568   1.716   2.029
 4446SOL    HW214238   4.482   1.578   2.013
 4447SOL     OW14239   4.054   5.508   5.072
 4447SOL    HW114240   4.049   5.605   5.098
 4447SOL    HW214241   3.972   5.484   5.020
 4448SOL     OW14242   3.380   6.474   2.750
 4448SOL    HW114243   3.376   6.559   2.803
 4448SOL    HW214244   3.467   6.428   2.767
 4449SOL     OW14245   4.134   1.630   5.652
 4449SOL    HW114246   4.057   1.596   5.706
 4449SOL    HW214247   4.099   1.674   5.569
 4450SOL     OW14248   2.147   6.511   0.499
 4450SOL    HW114249   2.112   6.545   0.412
 4450SOL    HW214250   2.158   6.588   0.562
 4451SOL     OW14251   4.563   5.495   3.125
 4451SOL    HW114252   4.469   5.463   3.139
 4451SOL    HW214253   4.563   5.594   3.117
 4452SOL     OW14254   4.814   5.106   3.711
 4452SOL    HW114255   4.883   5.165   3.753
 4452SOL    HW214256   4.791   5.032   3.774
 4453SOL     OW14257   0.657   4.781   0.807
 4453SOL    HW114258   0.714   4.853   0.847
 4453SOL    HW214259   0.601   4.819   0.734
 4454SOL     OW14260   0.786   2.185   0.794
 4454SOL    HW114261   0.800   2.163   0.890
 4454SOL    HW214262   0.739   2.272   0.785
 4455SOL     OW14263   1.599   0.444   4.341
 4455SOL    HW114264   1.572   0.441   4.245
 4455SOL    HW214265   1.563   0.527   4.383
 4456SOL     OW14266   1.689   6.238   4.564
 4456SOL    HW114267   1.704   6.299   4.486
 4456SOL    HW214268   1.604   6.188   4.551
 4457SOL     OW14269   1.497   1.311   4.458
 4457SOL    HW114270   1.515   1.219   4.492
 4457SOL    HW214271   1.496   1.310   4.358
 4458SOL     OW14272   1.364   3.135   6.356
 4458SOL    HW114273   1.387   3.086   6.272
 4458SOL    HW214274   1.272   3.174   6.348
 4459SOL     OW14275   0.541   3.885   3.495
 4459SOL    HW114276   0.617   3.937   3.533
 4459SOL    HW214277   0.525   3.914   3.401
 4460SOL     OW14278   0.323   2.731   5.024
 4460SOL    HW114279   0.352   2.800   5.090
 4460SOL    HW214280   0.268   2.774   4.952
 4461SOL     OW14281   1.814   0.475   0.768
 4461SOL    HW114282   1.811   0.567   0.807
 4461SOL    HW214283   1.810   0.407   0.841
 4462SOL     OW14284   6.394   3.960   2.080
 4462SOL    HW114285   6.332   3.987   2.153
 4462SOL    HW214286   6.488   3.979   2.107
 4463SOL     OW14287   5.690   1.687   0.185
 4463SOL    HW114288   5.716   1.776   0.149
 4463SOL    HW214289   5.598   1.663   0.154
 4464SOL     OW14290   0.629   3.584   1.225
 4464SOL    HW114291   0.727   3.562   1.227
 4464SOL    HW214292   0.615   3.676   1.259
 4465SOL     OW14293   4.297   5.603   2.129
 4465SOL    HW114294   4.331   5.510   2.133
 4465SOL    HW214295   4.197   5.603   2.126
 4466SOL     OW14296   0.725   3.116   2.511
 4466SOL    HW114297   0.742   3.034   2.566
 4466SOL    HW214298   0.649   3.167   2.551
 4467SOL     OW14299   5.359   4.789   1.727
 4467SOL    HW114300   5.335   4.756   1.636
 4467SOL    HW214301   5.457   4.777   1.743
 4468SOL     OW14302   1.510   2.742   1.057
 4468SOL    HW114303   1.519   2.791   1.144
 4468SOL    HW214304   1.543   2.799   0.983
 4469SOL     OW14305   2.224   6.235   1.530
 4469SOL    HW114306   2.278   6.186   1.462
 4469SOL    HW214307   2.227   6.333   1.511
 4470SOL     OW14308   0.672   0.123   2.655
 4470SOL    HW114309   0.720   0.164   2.732
 4470SOL    HW214310   0.573   0.127   2.671
 4471SOL     OW14311   0.876   0.628   6.733
 4471SOL    HW114312   0.905   0.578   6.814
 4471SOL    HW214313   0.841   0.564   6.665
 4472SOL     OW14314   1.110   2.785   0.949
 4472SOL    HW114315   1.021   2.756   0.984
 4472SOL    HW214316   1.177   2.711   0.961
 4473SOL     OW14317   0.228   2.948   4.874
 4473SOL    HW114318   0.161   3.018   4.899
 4473SOL    HW214319   0.319   2.990   4.869
 4474SOL     OW14320   2.455   6.123   0.608
 4474SOL    HW114321   2.550   6.095   0.621
 4474SOL    HW214322   2.446   6.220   0.632
 4475SOL     OW14323   0.719   3.675   7.013
 4475SOL    HW114324   0.648   3.723   6.962
 4475SOL    HW214325   0.711   3.577   6.999
 4476SOL     OW14326   5.302   0.972   3.500
 4476SOL    HW114327   5.393   0.934   3.513
 4476SOL    HW214328   5.256   0.979   3.589
 4477SOL     OW14329   6.959   1.247   4.322
 4477SOL    HW114330   7.018   1.316   4.365
 4477SOL    HW214331   7.008   1.203   4.247
 4478SOL     OW14332   1.768   0.955   2.336
 4478SOL    HW114333   1.832   0.888   2.297
 4478SOL    HW214334   1.714   0.912   2.408
 4479SOL     OW14335   2.228   2.953   6.298
 4479SOL    HW114336   2.303   2.990   6.242
 4479SOL    HW214337   2.266   2.898   6.372
 4480SOL     OW14338   0.112   6.989   3.405
 4480SOL    HW114339   0.151   0.057   3.419
 4480SOL    HW214340   0.018   6.997   3.373
 4481SOL     OW14341   1.727   4.007   6.165
 4481SOL    HW114342   1.710   3.914   6.197
 4481SOL    HW214343   1.695   4.016   6.071
 4482SOL     OW14344   2.564   0.304   1.178
 4482SOL    HW114345   2.644   0.338   1.129
 4482SOL    HW214346   2.584   0.300   1.276
 4483SOL     OW14347   1.108   3.803   0.424
 4483SOL    HW114348   1.036   3.773   0.362
 4483SOL    HW214349   1.098   3.901   0.443
 4484SOL     OW14350   3.189   0.779   6.930
 4484SOL    HW114351   3.279   0.742   6.956
 4484SOL    HW214352   3.123   0.759   7.002
 4485SOL     OW14353   0.315   3.588   5.132
 4485SOL    HW114354   0.389   3.569   5.068
 4485SOL    HW214355   0.347   3.652   5.202
 4486SOL     OW14356   4.823   4.238   3.486
 4486SOL    HW114357   4.782   4.197   3.568
 4486SOL    HW214358   4.764   4.311   3.453
 4487SOL     OW14359   0.357   3.063   6.594
 4487SOL    HW114360   0.374   3.083   6.691
 4487SOL    HW214361   0.342   2.965   6.583
 4488SOL     OW14362   6.583   4.380   3.624
 4488SOL    HW114363   6.570   4.410   3.529
 4488SOL    HW214364   6.638   4.448   3.672
 4489SOL     OW14365   3.673   6.031   6.724
 4489SOL    HW114366   3.723   5.951   6.692
 4489SOL    HW214367   3.737   6.098   6.762
 4490SOL     OW14368   5.842   1.748   2.236
 4490SOL    HW114369   5.879   1.820   2.296
 4490SOL    HW214370   5.742   1.754   2.235
 4491SOL     OW14371   0.717   4.032   3.015
 4491SOL    HW114372   0.689   4.115   2.966
 4491SOL    HW214373   0.762   4.058   3.100
 4492SOL     OW14374   5.602   1.121   2.696
 4492SOL    HW114375   5.633   1.042   2.748
 4492SOL    HW214376   5.583   1.197   2.759
 4493SOL     OW14377   5.352   1.617   5.894
 4493SOL    HW114378   5.393   1.525   5.900
 4493SOL    HW214379   5.424   1.686   5.905
 4494SOL     OW14380   1.593   0.832   2.526
 4494SOL    HW114381   1.537   0.750   2.517
 4494SOL    HW214382   1.549   0.896   2.590
 4495SOL     OW14383   4.787   6.411   0.658
 4495SOL    HW114384   4.767   6.320   0.692
 4495SOL    HW214385   4.705   6.449   0.613
 4496SOL     OW14386   2.385   6.176   6.351
 4496SOL    HW114387   2.413   6.173   6.254
 4496SOL    HW214388   2.297   6.222   6.358
 4497SOL     OW14389   3.947   0.212   5.734
 4497SOL    HW114390   3.851   0.191   5.751
 4497SOL    HW214391   3.983   0.149   5.666
 4498SOL     OW14392   1.284   4.755   4.319
 4498SOL    HW114393   1.211   4.712   4.265
 4498SOL    HW214394   1.255   4.848   4.344
 4499SOL     OW14395   6.033   1.436   2.370
 4499SOL    HW114396   6.128   1.466   2.359
 4499SOL    HW214397   6.021   1.394   2.460
 4500SOL     OW14398   3.464   6.814   0.019
 4500SOL    HW114399   3.430   6.824   0.112
 4500SOL    HW214400   3.400   6.759   6.990
 4501SOL     OW14401   6.483   6.817   2.626
 4501SOL    HW114402   6.396   6.867   2.631
 4501SOL    HW214403   6.556   6.875   2.662
 4502SOL     OW14404   1.423   4.065   6.391
 4502SOL    HW114405   1.502   4.037   6.445
 4502SOL    HW214406   1.447   4.143   6.333
 4503SOL     OW14407   4.055   1.397   2.356
 4503SOL    HW114408   3.971   1.428   2.311
 4503SOL    HW214409   4.126   1.466   2.345
 4504SOL     OW14410   1.259   2.119   3.950
 4504SOL    HW114411   1.268   2.070   3.863
 4504SOL    HW214412   1.350   2.135   3.989
 4505SOL     OW14413   6.434   3.058   3.151
 4505SOL    HW114414   6.356   3.089   3.097
 4505SOL    HW214415   6.402   3.006   3.230
 4506SOL     OW14416   3.947   4.157   0.040
 4506SOL    HW114417   3.929   4.205   6.979
 4506SOL    HW214418   3.876   4.180   0.107
 4507SOL     OW14419   5.777   2.461   2.872
 4507SOL    HW114420   5.801   2.542   2.926
 4507SOL    HW214421   5.756   2.385   2.934
 4508SOL     OW14422   6.267   5.166   0.511
 4508SOL    HW114423   6.302   5.107   0.438
 4508SOL    HW214424   6.208   5.236   0.471
 4509SOL     OW14425   5.013   2.030   2.146
 4509SOL    HW114426   5.021   2.088   2.227
 4509SOL    HW214427   5.013   1.934   2.173
 4510SOL     OW14428   5.002   1.826   4.284
 4510SOL    HW114429   5.054   1.747   4.319
 4510SOL    HW214430   4.914   1.830   4.330
 4511SOL     OW14431   0.094   4.721   6.893
 4511SOL    HW114432   0.137   4.752   6.978
 4511SOL    HW214433   0.059   4.800   6.842
 4512SOL     OW14434   2.998   3.276   5.628
 4512SOL    HW114435   2.971   3.190   5.584
 4512SOL    HW214436   2.994   3.265   5.727
 4513SOL     OW14437   0.228   0.289   0.937
 4513SOL    HW114438   0.188   0.374   0.904
 4513SOL    HW214439   0.217   0.218   0.868
 4514SOL     OW14440   4.612   4.569   6.400
 4514SOL    HW114441   4.703   4.552   6.363
 4514SOL    HW214442   4.588   4.665   6.388
 4515SOL     OW14443   4.258   0.029   6.296
 4515SOL    HW114444   4.294   6.974   6.246
 4515SOL    HW214445   4.328   0.065   6.357
 4516SOL     OW14446   3.781   2.394   5.356
 4516SOL    HW114447   3.733   2.482   5.358
 4516SOL    HW214448   3.718   2.321   5.382
 4517SOL     OW14449   3.521   0.366   4.536
 4517SOL    HW114450   3.500   0.297   4.467
 4517SOL    HW214451   3.535   0.321   4.625
 4518SOL     OW14452   0.276   0.290   0.540
 4518SOL    HW114453   0.177   0.281   0.552
 4518SOL    HW214454   0.302   0.386   0.545
 4519SOL     OW14455   5.069   6.953   6.519
 4519SOL    HW114456   5.030   6.863   6.500
 4519SOL    HW214457   5.043   7.017   6.446
 4520SOL     OW14458   4.597   5.049   5.388
 4520SOL    HW114459   4.687   5.065   5.347
 4520SOL    HW214460   4.572   5.128   5.445
 4521SOL     OW14461   4.873   2.430   4.680
 4521SOL    HW114462   4.825   2.506   4.724
 4521SOL    HW214463   4.835   2.415   4.589
 4522SOL     OW14464   5.916   3.601   3.222
 4522SOL    HW114465   5.903   3.555   3.310
 4522SOL    HW214466   5.998   3.565   3.177
 4523SOL     OW14467   7.002   3.537   6.648
 4523SOL    HW114468   6.972   3.557   6.742
 4523SOL    HW214469   6.979   3.614   6.589
 4524SOL     OW14470   1.799   3.714   2.001
 4524SOL    HW114471   1.704   3.698   1.976
 4524SOL    HW214472   1.804   3.758   2.090
 4525SOL     OW14473   3.792   2.018   5.874
 4525SOL    HW114474   3.874   2.069   5.902
 4525SOL    HW214475   3.777   1.942   5.937
 4526SOL     OW14476   1.950   0.323   5.380
 4526SOL    HW114477   1.939   0.415   5.340
 4526SOL    HW214478   2.033   0.322   5.436
 4527SOL     OW14479   0.513   1.951   2.412
 4527SOL    HW114480   0.469   1.938   2.501
 4527SOL    HW214481   0.572   1.873   2.392
 4528SOL     OW14482   5.255   1.448   4.548
 4528SOL    HW114483   5.214   1.366   4.588
 4528SOL    HW214484   5.186   1.521   4.546
 4529SOL     OW14485   1.917   1.882   4.088
 4529SOL    HW114486   2.000   1.932   4.066
 4529SOL    HW214487   1.923   1.846   4.181
 4530SOL     OW14488   4.017   4.338   6.280
 4530SOL    HW114489   4.100   4.283   6.276
 4530SOL    HW214490   4.036   4.424   6.327
 4531SOL     OW14491   2.181   0.059   5.323
 4531SOL    HW114492   2.159   7.005   5.381
 4531SOL    HW214493   2.133   0.052   5.236
 4532SOL     OW14494   5.777   1.419   2.325
 4532SOL    HW114495   5.872   1.450   2.331
 4532SOL    HW214496   5.742   1.435   2.233
 4533SOL     OW14497   2.785   6.521   1.231
 4533SOL    HW114498   2.855   6.466   1.186
 4533SOL    HW214499   2.802   6.523   1.330
 4534SOL     OW14500   5.751   1.349   4.128
 4534SOL    HW114501   5.764   1.436   4.175
 4534SOL    HW214502   5.699   1.364   4.044
 4535SOL     OW14503   1.741   0.888   6.867
 4535SOL    HW114504   1.753   0.925   6.775
 4535SOL    HW214505   1.778   0.952   6.934
 4536SOL     OW14506   3.880   1.065   5.598
 4536SOL    HW114507   3.782   1.070   5.579
 4536SOL    HW214508   3.932   1.071   5.512
 4537SOL     OW14509   2.915   3.400   3.037
 4537SOL    HW114510   2.956   3.407   3.128
 4537SOL    HW214511   2.909   3.492   2.997
 4538SOL     OW14512   0.854   2.563   0.423
 4538SOL    HW114513   0.890   2.496   0.359
 4538SOL    HW214514   0.794   2.627   0.375
 4539SOL     OW14515   1.152   5.051   4.400
 4539SOL    HW114516   1.065   5.091   4.374
 4539SOL    HW214517   1.226   5.093   4.348
 4540SOL     OW14518   1.745   2.053   0.731
 4540SOL    HW114519   1.828   2.101   0.702
 4540SOL    HW214520   1.703   2.008   0.652
 4541SOL     OW14521   3.767   3.141   6.917
 4541SOL    HW114522   3.844   3.077   6.915
 4541SOL    HW214523   3.800   3.232   6.939
 4542SOL     OW14524   0.198   1.496   0.603
 4542SOL    HW114525   0.137   1.529   0.531
 4542SOL    HW214526   0.288   1.539   0.593
 4543SOL     OW14527   4.592   1.580   1.262
 4543SOL    HW114528   4.601   1.652   1.332
 4543SOL    HW214529   4.495   1.560   1.249
 4544SOL     OW14530   4.770   6.155   0.777
 4544SOL    HW114531   4.709   6.088   0.820
 4544SOL    HW214532   4.840   6.106   0.725
 4545SOL     OW14533   2.733   2.798   5.612
 4545SOL    HW114534   2.773   2.749   5.690
 4545SOL    HW214535   2.779   2.886   5.601
 4546SOL     OW14536   4.551   6.947   6.230
 4546SOL    HW114537   4.507   7.009   6.164
 4546SOL    HW214538   4.499   6.862   6.235
 4547SOL     OW14539   0.316   0.560   0.456
 4547SOL    HW114540   0.374   0.639   0.436
 4547SOL    HW214541   0.353   0.479   0.411
 4548SOL     OW14542   3.370   1.152   2.005
 4548SOL    HW114543   3.285   1.187   2.044
 4548SOL    HW214544   3.420   1.099   2.074
 4549SOL     OW14545   6.057   3.968   3.839
 4549SOL    HW114546   6.115   4.005   3.912
 4549SOL    HW214547   6.109   3.900   3.787
 4550SOL     OW14548   2.210   5.673   6.374
 4550SOL    HW114549   2.158   5.652   6.457
 4550SOL    HW214550   2.258   5.760   6.386
 4551SOL     OW14551   3.362   2.914   6.267
 4551SOL    HW114552   3.322   2.889   6.179
 4551SOL    HW214553   3.434   2.849   6.291
 4552SOL     OW14554   4.927   0.961   6.701
 4552SOL    HW114555   4.954   0.926   6.790
 4552SOL    HW214556   5.007   0.965   6.640
 4553SOL     OW14557   0.256   6.599   0.226
 4553SOL    HW114558   0.177   6.594   0.166
 4553SOL    HW214559   0.339   6.578   0.174
 4554SOL     OW14560   5.777   6.533   3.581
 4554SOL    HW114561   5.760   6.506   3.675
 4554SOL    HW214562   5.692   6.565   3.539
 4555SOL     OW14563   0.689   0.298   2.051
 4555SOL    HW114564   0.688   0.346   1.963
 4555SOL    HW214565   0.673   0.364   2.125
 4556SOL     OW14566   5.141   4.635   4.295
 4556SOL    HW114567   5.172   4.729   4.281
 4556SOL    HW214568   5.161   4.606   4.388
 4557SOL     OW14569   6.931   5.151   4.623
 4557SOL    HW114570   6.966   5.206   4.548
 4557SOL    HW214571   6.937   5.202   4.708
 4558SOL     OW14572   0.879   4.520   4.558
 4558SOL    HW114573   0.965   4.471   4.543
 4558SOL    HW214574   0.835   4.486   4.641
 4559SOL     OW14575   0.086   2.551   4.437
 4559SOL    HW114576   0.149   2.505   4.500
 4559SOL    HW214577   0.105   2.520   4.343
 4560SOL     OW14578   6.508   4.402   3.324
 4560SOL    HW114579   6.505   4.405   3.224
 4560SOL    HW214580   6.417   4.378   3.359
 4561SOL     OW14581   4.655   2.712   4.294
 4561SOL    HW114582   4.677   2.716   4.391
 4561SOL    HW214583   4.728   2.664   4.245
 4562SOL     OW14584   4.525   1.199   0.791
 4562SOL    HW114585   4.455   1.214   0.721
 4562SOL    HW214586   4.498   1.123   0.850
 4563SOL     OW14587   1.151   4.310   1.327
 4563SOL    HW114588   1.125   4.239   1.261
 4563SOL    HW214589   1.163   4.269   1.417
 4564SOL     OW14590   2.114   4.347   2.410
 4564SOL    HW114591   2.053   4.425   2.397
 4564SOL    HW214592   2.178   4.342   2.334
 4565SOL     OW14593   2.222   0.548   5.617
 4565SOL    HW114594   2.220   0.473   5.551
 4565SOL    HW214595   2.217   0.512   5.710
 4566SOL     OW14596   0.153   4.703   3.125
 4566SOL    HW114597   0.104   4.783   3.091
 4566SOL    HW214598   0.115   4.620   3.083
 4567SOL     OW14599   0.308   0.307   7.020
 4567SOL    HW114600   0.309   0.406   0.011
 4567SOL    HW214601   0.387   0.265   0.041
 4568SOL     OW14602   0.786   4.489   3.437
 4568SOL    HW114603   0.707   4.479   3.497
 4568SOL    HW214604   0.868   4.456   3.483
 4569SOL     OW14605   1.367   2.680   3.406
 4569SOL    HW114606   1.352   2.767   3.453
 4569SOL    HW214607   1.388   2.697   3.310
 4570SOL     OW14608   5.465   5.887   1.114
 4570SOL    HW114609   5.374   5.848   1.124
 4570SOL    HW214610   5.507   5.855   1.030
 4571SOL     OW14611   1.808   3.691   5.765
 4571SOL    HW114612   1.723   3.724   5.806
 4571SOL    HW214613   1.797   3.595   5.739
 4572SOL     OW14614   4.535   3.203   1.678
 4572SOL    HW114615   4.569   3.184   1.586
 4572SOL    HW214616   4.586   3.147   1.744
 4573SOL     OW14617   2.291   4.576   0.969
 4573SOL    HW114618   2.320   4.631   1.047
 4573SOL    HW214619   2.191   4.579   0.962
 4574SOL     OW14620   5.016   0.044   1.997
 4574SOL    HW114621   5.065   0.113   2.049
 4574SOL    HW214622   4.923   0.076   1.977
 4575SOL     OW14623   0.087   1.132   5.303
 4575SOL    HW114624   0.030   1.081   5.367
 4575SOL    HW214625   0.158   1.072   5.267
 4576SOL     OW14626   3.371   3.765   0.014
 4576SOL    HW114627   3.457   3.738   6.995
 4576SOL    HW214628   3.390   3.816   0.098
 4577SOL     OW14629   0.656   1.676   1.631
 4577SOL    HW114630   0.729   1.718   1.685
 4577SOL    HW214631   0.687   1.588   1.595
 4578SOL     OW14632   1.667   1.101   3.074
 4578SOL    HW114633   1.575   1.140   3.083
 4578SOL    HW214634   1.721   1.156   3.010
 4579SOL     OW14635   4.492   0.808   3.415
 4579SOL    HW114636   4.502   0.870   3.493
 4579SOL    HW214637   4.396   0.806   3.387
 4580SOL     OW14638   0.723   0.828   1.709
 4580SOL    HW114639   0.822   0.819   1.696
 4580SOL    HW214640   0.679   0.849   1.621
 4581SOL     OW14641   2.907   0.218   0.988
 4581SOL    HW114642   2.867   0.305   1.018
 4581SOL    HW214643   2.844   0.173   0.925
 4582SOL     OW14644   6.427   0.663   3.562
 4582SOL    HW114645   6.506   0.723   3.577
 4582SOL    HW214646   6.459   0.569   3.550
 4583SOL     OW14647   1.714   6.650   0.191
 4583SOL    HW114648   1.756   6.596   0.120
 4583SOL    HW214649   1.779   6.718   0.226
 4584SOL     OW14650   0.455   1.460   3.846
 4584SOL    HW114651   0.376   1.493   3.896
 4584SOL    HW214652   0.431   1.447   3.750
 4585SOL     OW14653   1.214   3.211   3.072
 4585SOL    HW114654   1.202   3.218   3.171
 4585SOL    HW214655   1.200   3.116   3.044
 4586SOL     OW14656   6.577   5.096   5.615
 4586SOL    HW114657   6.604   5.140   5.701
 4586SOL    HW214658   6.527   5.161   5.559
 4587SOL     OW14659   4.459   3.640   6.222
 4587SOL    HW114660   4.419   3.559   6.265
 4587SOL    HW214661   4.437   3.640   6.124
 4588SOL     OW14662   2.840   4.379   6.600
 4588SOL    HW114663   2.856   4.293   6.550
 4588SOL    HW214664   2.786   4.359   6.682
 4589SOL     OW14665   5.412   5.923   2.173
 4589SOL    HW114666   5.417   6.023   2.171
 4589SOL    HW214667   5.409   5.888   2.080
 4590SOL     OW14668   2.421   5.462   1.727
 4590SOL    HW114669   2.325   5.486   1.721
 4590SOL    HW214670   2.436   5.373   1.683
 4591SOL     OW14671   2.184   0.941   4.806
 4591SOL    HW114672   2.106   0.895   4.765
 4591SOL    HW214673   2.153   1.026   4.849
 4592SOL     OW14674   2.979   2.162   3.850
 4592SOL    HW114675   2.970   2.194   3.755
 4592SOL    HW214676   3.075   2.138   3.867
 4593SOL     OW14677   1.538   5.739   4.554
 4593SOL    HW114678   1.499   5.825   4.589
 4593SOL    HW214679   1.523   5.666   4.620
 4594SOL     OW14680   1.725   6.417   4.076
 4594SOL    HW114681   1.732   6.323   4.043
 4594SOL    HW214682   1.696   6.417   4.172
 4595SOL     OW14683   5.861   1.966   6.343
 4595SOL    HW114684   5.939   2.022   6.313
 4595SOL    HW214685   5.862   1.960   6.443
 4596SOL     OW14686   0.993   1.771   2.015
 4596SOL    HW114687   1.022   1.676   2.024
 4596SOL    HW214688   1.048   1.816   1.944
 4597SOL     OW14689   2.291   5.892   0.537
 4597SOL    HW114690   2.206   5.878   0.588
 4597SOL    HW214691   2.344   5.965   0.581
 4598SOL     OW14692   0.523   2.822   0.031
 4598SOL    HW114693   0.453   2.821   6.984
 4598SOL    HW214694   0.481   2.799   0.119
 4599SOL     OW14695   3.223   6.286   2.909
 4599SOL    HW114696   3.265   6.362   2.861
 4599SOL    HW214697   3.155   6.241   2.850
 4600SOL     OW14698   0.558   6.284   6.596
 4600SOL    HW114699   0.581   6.191   6.624
 4600SOL    HW214700   0.531   6.337   6.676
 4601SOL     OW14701   1.497   1.070   5.382
 4601SOL    HW114702   1.479   0.974   5.360
 4601SOL    HW214703   1.573   1.103   5.327
 4602SOL     OW14704   4.050   1.135   6.628
 4602SOL    HW114705   4.089   1.226   6.643
 4602SOL    HW214706   3.951   1.143   6.615
 4603SOL     OW14707   4.024   0.026   0.812
 4603SOL    HW114708   3.975   0.013   0.898
 4603SOL    HW214709   3.982   0.100   0.760
 4604SOL     OW14710   0.447   6.559   3.504
 4604SOL    HW114711   0.542   6.533   3.485
 4604SOL    HW214712   0.437   6.658   3.496
 4605SOL     OW14713   4.437   1.225   1.571
 4605SOL    HW114714   4.516   1.236   1.510
 4605SOL    HW214715   4.462   1.167   1.648
 4606SOL     OW14716   6.927   0.090   4.748
 4606SOL    HW114717   7.018   0.105   4.787
 4606SOL    HW214718   6.861   0.146   4.797
 4607SOL     OW14719   3.198   1.660   1.104
 4607SOL    HW114720   3.232   1.669   1.011
 4607SOL    HW214721   3.102   1.689   1.107
 4608SOL     OW14722   0.238   2.461   5.121
 4608SOL    HW114723   0.253   2.559   5.106
 4608SOL    HW214724   0.162   2.449   5.185
 4609SOL     OW14725   5.820   5.218   6.193
 4609SOL    HW114726   5.732   5.212   6.239
 4609SOL    HW214727   5.870   5.132   6.205
 4610SOL     OW14728   5.021   5.039   6.515
 4610SOL    HW114729   5.085   5.096   6.464
 4610SOL    HW214730   5.022   5.064   6.612
 4611SOL     OW14731   6.984   0.992   6.682
 4611SOL    HW114732   7.023   1.083   6.665
 4611SOL    HW214733   0.033   0.924   6.688
 4612SOL     OW14734   2.872   1.365   3.371
 4612SOL    HW114735   2.911   1.446   3.329
 4612SOL    HW214736   2.856   1.382   3.469
 4613SOL     OW14737   1.396   5.270   2.760
 4613SOL    HW114738   1.340   5.350   2.737
 4613SOL    HW214739   1.492   5.298   2.769
 4614SOL     OW14740   0.457   4.467   2.650
 4614SOL    HW114741   0.492   4.471   2.556
 4614SOL    HW214742   0.366   4.425   2.650
 4615SOL     OW14743   1.022   4.408   6.884
 4615SOL    HW114744   0.932   4.429   6.922
 4615SOL    HW214745   1.029   4.310   6.866
 4616SOL     OW14746   1.291   4.046   6.789
 4616SOL    HW114747   1.345   4.115   6.741
 4616SOL    HW214748   1.317   3.955   6.758
 4617SOL     OW14749   0.126   4.159   3.785
 4617SOL    HW114750   0.035   4.200   3.796
 4617SOL    HW214751   0.117   4.069   3.743
 4618SOL     OW14752   2.278   4.327   5.540
 4618SOL    HW114753   2.272   4.296   5.634
 4618SOL    HW214754   2.315   4.254   5.483
 4619SOL     OW14755   4.368   5.687   6.582
 4619SOL    HW114756   4.407   5.779   6.589
 4619SOL    HW214757   4.391   5.635   6.664
 4620SOL     OW14758   1.335   4.438   1.198
 4620SOL    HW114759   1.286   4.485   1.124
 4620SOL    HW214760   1.269   4.396   1.260
 4621SOL     OW14761   3.019   0.156   3.069
 4621SOL    HW114762   2.920   0.143   3.072
 4621SOL    HW214763   3.063   0.071   3.038
 4622SOL     OW14764   5.318   0.069   0.415
 4622SOL    HW114765   5.349   0.107   0.328
 4622SOL    HW214766   5.397   0.052   0.474
 4623SOL     OW14767   3.047   5.007   3.023
 4623SOL    HW114768   3.026   4.920   2.980
 4623SOL    HW214769   3.045   4.996   3.123
 4624SOL     OW14770   5.163   2.030   1.192
 4624SOL    HW114771   5.077   2.060   1.152
 4624SOL    HW214772   5.159   2.040   1.292
 4625SOL     OW14773   1.637   6.951   1.670
 4625SOL    HW114774   1.597   6.864   1.699
 4625SOL    HW214775   1.716   6.971   1.729
 4626SOL     OW14776   4.131   3.166   1.942
 4626SOL    HW114777   4.207   3.117   1.898
 4626SOL    HW214778   4.145   3.264   1.932
 4627SOL     OW14779   5.943   6.543   5.086
 4627SOL    HW114780   5.994   6.616   5.132
 4627SOL    HW214781   5.997   6.459   5.086
 4628SOL     OW14782   6.789   4.626   2.702
 4628SOL    HW114783   6.733   4.707   2.682
 4628SOL    HW214784   6.867   4.624   2.640
 4629SOL     OW14785   1.483   5.171   0.632
 4629SOL    HW114786   1.541   5.090   0.622
 4629SOL    HW214787   1.387   5.145   0.622
 4630SOL     OW14788   1.938   3.837   1.364
 4630SOL    HW114789   1.927   3.868   1.270
 4630SOL    HW214790   1.982   3.909   1.418
 4631SOL     OW14791   6.261   1.515   2.743
 4631SOL    HW114792   6.322   1.489   2.817
 4631SOL    HW214793   6.231   1.610   2.756
 4632SOL     OW14794   2.985   4.797   3.719
 4632SOL    HW114795   3.035   4.804   3.806
 4632SOL    HW214796   3.048   4.815   3.644
 4633SOL     OW14797   5.666   3.008   3.973
 4633SOL    HW114798   5.755   2.966   3.993
 4633SOL    HW214799   5.677   3.077   3.902
 4634SOL     OW14800   3.500   3.178   4.575
 4634SOL    HW114801   3.430   3.202   4.642
 4634SOL    HW214802   3.590   3.205   4.611
 4635SOL     OW14803   4.657   6.668   2.361
 4635SOL    HW114804   4.614   6.635   2.445
 4635SOL    HW214805   4.654   6.596   2.292
 4636SOL     OW14806   1.482   5.721   6.450
 4636SOL    HW114807   1.443   5.797   6.502
 4636SOL    HW214808   1.450   5.634   6.489
 4637SOL     OW14809   2.215   2.239   3.310
 4637SOL    HW114810   2.278   2.309   3.343
 4637SOL    HW214811   2.134   2.284   3.272
 4638SOL     OW14812   3.754   4.471   0.888
 4638SOL    HW114813   3.839   4.514   0.856
 4638SOL    HW214814   3.752   4.376   0.859
 4639SOL     OW14815   4.131   2.149   2.264
 4639SOL    HW114816   4.095   2.241   2.245
 4639SOL    HW214817   4.185   2.118   2.186
 4640SOL     OW14818   6.314   2.939   1.039
 4640SOL    HW114819   6.394   2.960   0.983
 4640SOL    HW214820   6.266   3.024   1.060
 4641SOL     OW14821   1.110   5.954   4.956
 4641SOL    HW114822   1.209   5.957   4.952
 4641SOL    HW214823   1.074   6.046   4.940
 4642SOL     OW14824   6.344   1.340   5.771
 4642SOL    HW114825   6.383   1.299   5.688
 4642SOL    HW214826   6.251   1.306   5.784
 4643SOL     OW14827   0.511   1.776   0.282
 4643SOL    HW114828   0.573   1.845   0.320
 4643SOL    HW214829   0.469   1.811   0.199
 4644SOL     OW14830   1.290   1.010   0.886
 4644SOL    HW114831   1.209   1.016   0.828
 4644SOL    HW214832   1.268   1.047   0.977
 4645SOL     OW14833   6.085   2.373   5.243
 4645SOL    HW114834   6.114   2.450   5.185
 4645SOL    HW214835   5.986   2.361   5.235
 4646SOL     OW14836   1.652   3.986   2.476
 4646SOL    HW114837   1.573   4.038   2.444
 4646SOL    HW214838   1.719   4.049   2.518
 4647SOL     OW14839   1.989   6.555   2.704
 4647SOL    HW114840   1.927   6.493   2.750
 4647SOL    HW214841   1.938   6.632   2.665
 4648SOL     OW14842   2.786   1.048   4.555
 4648SOL    HW114843   2.871   1.059   4.608
 4648SOL    HW214844   2.797   0.973   4.490
 4649SOL     OW14845   5.126   1.966   0.845
 4649SOL    HW114846   5.148   2.046   0.789
 4649SOL    HW214847   5.074   1.900   0.791
 4650SOL     OW14848   4.132   5.250   0.872
 4650SOL    HW114849   4.052   5.276   0.819
 4650SOL    HW214850   4.159   5.325   0.932
 4651SOL     OW14851   1.020   3.820   6.751
 4651SOL    HW114852   1.047   3.725   6.733
 4651SOL    HW214853   1.054   3.848   6.842
 4652SOL     OW14854   6.827   0.324   5.150
 4652SOL    HW114855   6.856   0.245   5.203
 4652SOL    HW214856   6.823   0.300   5.053
 4653SOL     OW14857   7.006   6.079   0.315
 4653SOL    HW114858   0.076   6.050   0.330
 4653SOL    HW214859   6.990   6.094   0.218
 4654SOL     OW14860   0.562   0.945   5.382
 4654SOL    HW114861   0.526   1.016   5.442
 4654SOL    HW214862   0.577   0.861   5.435
 4655SOL     OW14863   5.067   4.221   2.949
 4655SOL    HW114864   4.985   4.278   2.943
 4655SOL    HW214865   5.149   4.279   2.945
 4656SOL     OW14866   5.549   0.860   1.631
 4656SOL    HW114867   5.543   0.925   1.707
 4656SOL    HW214868   5.477   0.881   1.565
 4657SOL     OW14869   3.919   1.379   2.593
 4657SOL    HW114870   3.979   1.383   2.513
 4657SOL    HW214871   3.939   1.456   2.654
 4658SOL     OW14872   1.254   1.804   6.934
 4658SOL    HW114873   1.211   1.893   6.949
 4658SOL    HW214874   1.302   1.775   7.016
 4659SOL     OW14875   2.465   4.590   0.376
 4659SOL    HW114876   2.456   4.506   0.322
 4659SOL    HW214877   2.374   4.621   0.406
 4660SOL     OW14878   7.007   4.701   4.406
 4660SOL    HW114879   6.968   4.618   4.367
 4660SOL    HW214880   6.942   4.777   4.394
 4661SOL     OW14881   1.102   1.426   5.847
 4661SOL    HW114882   1.133   1.454   5.938
 4661SOL    HW214883   1.140   1.337   5.824
 4662SOL     OW14884   2.762   0.821   5.802
 4662SOL    HW114885   2.733   0.778   5.887
 4662SOL    HW214886   2.838   0.884   5.821
 4663SOL     OW14887   0.818   0.610   0.976
 4663SOL    HW114888   0.845   0.616   1.073
 4663SOL    HW214889   0.900   0.606   0.919
 4664SOL     OW14890   5.907   6.303   5.611
 4664SOL    HW114891   5.826   6.255   5.577
 4664SOL    HW214892   5.963   6.240   5.665
 4665SOL     OW14893   7.002   0.881   2.455
 4665SOL    HW114894   0.035   0.799   2.450
 4665SOL    HW214895   6.929   0.874   2.386
 4666SOL     OW14896   1.561   2.724   5.771
 4666SOL    HW114897   1.466   2.754   5.781
 4666SOL    HW214898   1.600   2.705   5.861
 4667SOL     OW14899   5.919   2.986   1.427
 4667SOL    HW114900   5.864   2.903   1.437
 4667SOL    HW214901   6.015   2.961   1.411
 4668SOL     OW14902   4.717   2.040   5.443
 4668SOL    HW114903   4.775   1.962   5.466
 4668SOL    HW214904   4.624   2.009   5.427
 4669SOL     OW14905   5.415   6.965   5.962
 4669SOL    HW114906   5.482   6.895   5.986
 4669SOL    HW214907   5.324   6.937   5.993
 4670SOL     OW14908   0.222   3.492   6.583
 4670SOL    HW114909   0.283   3.519   6.658
 4670SOL    HW214910   0.129   3.480   6.619
 4671SOL     OW14911   6.672   2.567   2.000
 4671SOL    HW114912   6.718   2.653   1.977
 4671SOL    HW214913   6.683   2.503   1.924
 4672SOL     OW14914   3.222   3.485   7.007
 4672SOL    HW114915   3.269   3.568   6.976
 4672SOL    HW214916   3.264   3.452   0.068
 4673SOL     OW14917   5.554   0.962   0.759
 4673SOL    HW114918   5.615   0.942   0.835
 4673SOL    HW214919   5.570   0.897   0.685
 4674SOL     OW14920   1.212   2.847   0.679
 4674SOL    HW114921   1.236   2.751   0.662
 4674SOL    HW214922   1.196   2.860   0.777
 4675SOL     OW14923   1.731   6.322   6.837
 4675SOL    HW114924   1.765   6.373   6.758
 4675SOL    HW214925   1.638   6.289   6.818
 4676SOL     OW14926   0.748   5.697   4.512
 4676SOL    HW114927   0.787   5.741   4.593
 4676SOL    HW214928   0.666   5.647   4.538
 4677SOL     OW14929   4.103   6.947   6.892
 4677SOL    HW114930   4.035   6.880   6.923
 4677SOL    HW214931   4.190   6.931   6.938
 4678SOL     OW14932   2.175   4.437   6.965
 4678SOL    HW114933   2.110   4.362   6.977
 4678SOL    HW214934   2.188   4.455   6.867
 4679SOL     OW14935   2.213   6.751   5.453
 4679SOL    HW114936   2.155   6.755   5.534
 4679SOL    HW214937   2.300   6.797   5.472
 4680SOL     OW14938   0.623   5.167   6.796
 4680SOL    HW114939   0.559   5.167   6.718
 4680SOL    HW214940   0.610   5.083   6.849
 4681SOL     OW14941   6.511   6.023   4.735
 4681SOL    HW114942   6.546   5.932   4.714
 4681SOL    HW214943   6.422   6.016   4.781
 4682SOL     OW14944   2.526   0.370   0.707
 4682SOL    HW114945   2.492   0.464   0.699
 4682SOL    HW214946   2.605   0.358   0.646
 4683SOL     OW14947   0.594   4.671   3.213
 4683SOL    HW114948   0.613   4.756   3.262
 4683SOL    HW214949   0.577   4.598   3.280
 4684SOL     OW14950   1.927   1.295   5.121
 4684SOL    HW114951   2.006   1.273   5.178
 4684SOL    HW214952   1.854   1.228   5.138
 4685SOL     OW14953   5.390   4.757   4.583
 4685SOL    HW114954   5.363   4.794   4.494
 4685SOL    HW214955   5.308   4.733   4.635
 4686SOL     OW14956   5.057   5.725   0.122
 4686SOL    HW114957   5.037   5.668   0.202
 4686SOL    HW214958   4.992   5.703   0.049
 4687SOL     OW14959   4.761   6.775   4.397
 4687SOL    HW114960   4.691   6.709   4.371
 4687SOL    HW214961   4.779   6.836   4.319
 4688SOL     OW14962   6.865   1.579   0.608
 4688SOL    HW114963   6.929   1.639   0.657
 4688SOL    HW214964   6.795   1.546   0.672
 4689SOL     OW14965   1.904   5.335   4.361
 4689SOL    HW114966   1.884   5.238   4.350
 4689SOL    HW214967   1.888   5.363   4.455
 4690SOL     OW14968   2.063   1.989   1.008
 4690SOL    HW114969   2.092   1.902   0.968
 4690SOL    HW214970   1.963   1.989   1.019
 4691SOL     OW14971   3.413   4.268   0.422
 4691SOL    HW114972   3.458   4.329   0.357
 4691SOL    HW214973   3.332   4.313   0.460
 4692SOL     OW14974   0.950   5.675   3.461
 4692SOL    HW114975   0.850   5.682   3.463
 4692SOL    HW214976   0.987   5.749   3.406
 4693SOL     OW14977   0.936   0.839   2.243
 4693SOL    HW114978   0.865   0.868   2.307
 4693SOL    HW214979   1.007   0.789   2.293
 4694SOL     OW14980   1.316   1.257   5.297
 4694SOL    HW114981   1.254   1.240   5.221
 4694SOL    HW214982   1.369   1.174   5.317
 4695SOL     OW14983   3.227   3.176   2.551
 4695SOL    HW114984   3.193   3.268   2.534
 4695SOL    HW214985   3.186   3.141   2.636
 4696SOL     OW14986   6.457   3.369   0.663
 4696SOL    HW114987   6.409   3.406   0.742
 4696SOL    HW214988   6.500   3.443   0.612
 4697SOL     OW14989   0.855   5.641   6.683
 4697SOL    HW114990   0.786   5.713   6.686
 4697SOL    HW214991   0.813   5.553   6.702
 4698SOL     OW14992   6.066   3.428   2.382
 4698SOL    HW114993   6.164   3.432   2.398
 4698SOL    HW214994   6.024   3.361   2.443
 4699SOL     OW14995   6.829   6.162   3.397
 4699SOL    HW114996   6.776   6.246   3.410
 4699SOL    HW214997   6.916   6.184   3.354
 4700SOL     OW14998   5.232   6.506   6.894
 4700SOL    HW114999   5.235   6.603   6.919
 4700SOL    HW215000   5.281   6.452   6.962
 4701SOL     OW15001   1.604   0.416   6.837
 4701SOL    HW115002   1.584   0.328   6.793
 4701SOL    HW215003   1.536   0.433   6.909
 4702SOL     OW15004   2.459   3.267   0.390
 4702SOL    HW115005   2.495   3.248   0.298
 4702SOL    HW215006   2.423   3.360   0.393
 4703SOL     OW15007   1.019   0.085   2.284
 4703SOL    HW115008   1.081   0.107   2.209
 4703SOL    HW215009   0.936   0.043   2.247
 4704SOL     OW15010   4.912   6.713   6.699
 4704SOL    HW115011   4.964   6.792   6.732
 4704SOL    HW215012   4.818   6.718   6.733
 4705SOL     OW15013   4.134   3.569   4.484
 4705SOL    HW115014   4.118   3.665   4.507
 4705SOL    HW215015   4.118   3.555   4.387
 4706SOL     OW15016   5.425   4.414   6.785
 4706SOL    HW115017   5.461   4.360   6.860
 4706SOL    HW215018   5.367   4.357   6.727
 4707SOL     OW15019   2.772   5.476   1.132
 4707SOL    HW115020   2.801   5.572   1.132
 4707SOL    HW215021   2.688   5.466   1.079
 4708SOL     OW15022   1.576   3.394   2.397
 4708SOL    HW115023   1.565   3.482   2.442
 4708SOL    HW215024   1.664   3.392   2.349
 4709SOL     OW15025   2.836   4.468   0.637
 4709SOL    HW115026   2.883   4.421   0.561
 4709SOL    HW215027   2.763   4.525   0.601
 4710SOL     OW15028   4.854   3.015   1.138
 4710SOL    HW115029   4.923   3.031   1.068
 4710SOL    HW215030   4.900   2.985   1.222
 4711SOL     OW15031   2.760   0.135   3.357
 4711SOL    HW115032   2.680   0.121   3.415
 4711SOL    HW215033   2.781   0.233   3.352
 4712SOL     OW15034   1.622   3.788   6.733
 4712SOL    HW115035   1.523   3.799   6.744
 4712SOL    HW215036   1.663   3.763   6.821
 4713SOL     OW15037   1.318   5.391   0.575
 4713SOL    HW115038   1.232   5.377   0.623
 4713SOL    HW215039   1.383   5.320   0.602
 4714SOL     OW15040   3.678   2.255   1.445
 4714SOL    HW115041   3.588   2.224   1.414
 4714SOL    HW215042   3.749   2.215   1.388
 4715SOL     OW15043   4.956   3.774   4.933
 4715SOL    HW115044   4.979   3.865   4.969
 4715SOL    HW215045   4.890   3.730   4.994
 4716SOL     OW15046   2.698   5.534   6.662
 4716SOL    HW115047   2.701   5.572   6.569
 4716SOL    HW215048   2.635   5.587   6.718
 4717SOL     OW15049   2.359   5.124   4.573
 4717SOL    HW115050   2.396   5.193   4.511
 4717SOL    HW215051   2.270   5.155   4.608
 4718SOL     OW15052   5.129   0.641   0.036
 4718SOL    HW115053   5.146   0.597   0.124
 4718SOL    HW215054   5.035   0.622   0.006
 4719SOL     OW15055   4.257   3.133   1.715
 4719SOL    HW115056   4.201   3.160   1.637
 4719SOL    HW215057   4.351   3.163   1.700
 4720SOL     OW15058   3.315   1.484   3.551
 4720SOL    HW115059   3.255   1.463   3.629
 4720SOL    HW215060   3.403   1.517   3.584
 4721SOL     OW15061   1.651   1.431   1.233
 4721SOL    HW115062   1.719   1.420   1.305
 4721SOL    HW215063   1.619   1.341   1.203
 4722SOL     OW15064   3.386   0.085   2.331
 4722SOL    HW115065   3.481   0.070   2.305
 4722SOL    HW215066   3.380   0.162   2.394
 4723SOL     OW15067   2.545   6.843   5.208
 4723SOL    HW115068   2.510   6.920   5.155
 4723SOL    HW215069   2.643   6.833   5.193
 4724SOL     OW15070   4.667   4.958   0.600
 4724SOL    HW115071   4.612   4.990   0.523
 4724SOL    HW215072   4.609   4.947   0.681
 4725SOL     OW15073   6.202   5.473   2.670
 4725SOL    HW115074   6.246   5.384   2.686
 4725SOL    HW215075   6.107   5.469   2.701
 4726SOL     OW15076   0.286   6.642   4.695
 4726SOL    HW115077   0.338   6.726   4.682
 4726SOL    HW215078   0.280   6.622   4.793
 4727SOL     OW15079   6.237   6.572   1.203
 4727SOL    HW115080   6.239   6.546   1.106
 4727SOL    HW215081   6.285   6.503   1.257
 4728SOL     OW15082   6.456   0.846   0.031
 4728SOL    HW115083   6.412   0.794   6.982
 4728SOL    HW215084   6.393   0.918   0.063
 4729SOL     OW15085   3.051   0.679   1.138
 4729SOL    HW115086   2.977   0.630   1.183
 4729SOL    HW215087   3.076   0.631   1.053
 4730SOL     OW15088   2.314   0.674   6.019
 4730SOL    HW115089   2.270   0.744   5.964
 4730SOL    HW215090   2.306   0.585   5.973
 4731SOL     OW15091   4.687   1.834   6.596
 4731SOL    HW115092   4.602   1.815   6.645
 4731SOL    HW215093   4.742   1.750   6.592
 4732SOL     OW15094   0.716   0.395   0.065
 4732SOL    HW115095   0.753   0.303   0.071
 4732SOL    HW215096   0.785   0.456   0.027
 4733SOL     OW15097   6.770   3.588   3.603
 4733SOL    HW115098   6.841   3.654   3.577
 4733SOL    HW215099   6.812   3.508   3.645
 4734SOL     OW15100   5.615   4.484   5.764
 4734SOL    HW115101   5.572   4.431   5.691
 4734SOL    HW215102   5.546   4.508   5.833
 4735SOL     OW15103   0.301   4.401   3.746
 4735SOL    HW115104   0.253   4.313   3.740
 4735SOL    HW215105   0.255   4.468   3.688
 4736SOL     OW15106   1.594   0.185   1.825
 4736SOL    HW115107   1.593   0.247   1.746
 4736SOL    HW215108   1.675   0.126   1.820
 4737SOL     OW15109   3.547   5.209   1.753
 4737SOL    HW115110   3.460   5.213   1.704
 4737SOL    HW215111   3.569   5.113   1.775
 4738SOL     OW15112   0.465   6.567   2.506
 4738SOL    HW115113   0.384   6.625   2.506
 4738SOL    HW215114   0.458   6.498   2.434
 4739SOL     OW15115   3.948   6.900   1.749
 4739SOL    HW115116   4.024   6.955   1.785
 4739SOL    HW215117   3.891   6.956   1.690
 4740SOL     OW15118   0.670   2.062   4.087
 4740SOL    HW115119   0.618   2.010   4.019
 4740SOL    HW215120   0.634   2.155   4.091
 4741SOL     OW15121   4.061   3.784   2.311
 4741SOL    HW115122   4.067   3.685   2.330
 4741SOL    HW215123   4.143   3.813   2.263
 4742SOL     OW15124   4.705   0.837   1.675
 4742SOL    HW115125   4.780   0.898   1.700
 4742SOL    HW215126   4.731   0.782   1.595
 4743SOL     OW15127   1.615   5.798   0.940
 4743SOL    HW115128   1.522   5.789   0.904
 4743SOL    HW215129   1.652   5.707   0.958
 4744SOL     OW15130   1.859   5.710   1.374
 4744SOL    HW115131   1.830   5.758   1.457
 4744SOL    HW215132   1.851   5.771   1.296
 4745SOL     OW15133   1.712   3.244   0.393
 4745SOL    HW115134   1.644   3.315   0.374
 4745SOL    HW215135   1.761   3.266   0.477
 4746SOL     OW15136   4.863   5.358   4.016
 4746SOL    HW115137   4.902   5.435   4.068
 4746SOL    HW215138   4.823   5.292   4.079
 4747SOL     OW15139   3.498   0.379   0.008
 4747SOL    HW115140   3.410   0.404   6.991
 4747SOL    HW215141   3.569   0.383   6.962
 4748SOL     OW15142   1.882   0.136   2.800
 4748SOL    HW115143   1.952   0.196   2.838
 4748SOL    HW215144   1.916   0.042   2.799
 4749SOL     OW15145   2.364   1.427   1.261
 4749SOL    HW115146   2.375   1.408   1.164
 4749SOL    HW215147   2.402   1.351   1.314
 4750SOL     OW15148   4.724   3.275   6.225
 4750SOL    HW115149   4.630   3.254   6.199
 4750SOL    HW215150   4.786   3.248   6.152
 4751SOL     OW15151   4.796   1.084   2.281
 4751SOL    HW115152   4.859   1.161   2.269
 4751SOL    HW215153   4.753   1.090   2.371
 4752SOL     OW15154   5.862   1.260   6.858
 4752SOL    HW115155   5.836   1.291   6.766
 4752SOL    HW215156   5.859   1.338   6.921
 4753SOL     OW15157   2.614   6.302   5.235
 4753SOL    HW115158   2.618   6.394   5.275
 4753SOL    HW215159   2.550   6.302   5.158
 4754SOL     OW15160   5.130   4.191   6.760
 4754SOL    HW115161   5.061   4.262   6.773
 4754SOL    HW215162   5.176   4.204   6.672
 4755SOL     OW15163   0.939   1.362   1.232
 4755SOL    HW115164   0.977   1.378   1.141
 4755SOL    HW215165   1.014   1.348   1.297
 4756SOL     OW15166   6.952   3.626   5.773
 4756SOL    HW115167   6.934   3.532   5.743
 4756SOL    HW215168   6.890   3.689   5.725
 4757SOL     OW15169   1.919   3.045   0.308
 4757SOL    HW115170   1.837   3.102   0.307
 4757SOL    HW215171   1.921   2.991   0.392
 4758SOL     OW15172   2.532   5.079   2.765
 4758SOL    HW115173   2.483   5.025   2.696
 4758SOL    HW215174   2.627   5.048   2.770
 4759SOL     OW15175   0.523   6.313   2.388
 4759SOL    HW115176   0.446   6.255   2.362
 4759SOL    HW215177   0.608   6.271   2.359
 4760SOL     OW15178   1.635   6.462   1.787
 4760SOL    HW115179   1.726   6.496   1.809
 4760SOL    HW215180   1.640   6.403   1.706
 4761SOL     OW15181   5.095   6.552   1.777
 4761SOL    HW115182   5.094   6.478   1.710
 4761SOL    HW215183   5.002   6.567   1.812
 4762SOL     OW15184   1.278   0.559   3.302
 4762SOL    HW115185   1.261   0.525   3.395
 4762SOL    HW215186   1.357   0.621   3.303
 4763SOL     OW15187   5.629   5.206   2.004
 4763SOL    HW115188   5.670   5.177   1.918
 4763SOL    HW215189   5.546   5.258   1.986
 4764SOL     OW15190   4.862   2.668   6.612
 4764SOL    HW115191   4.789   2.700   6.672
 4764SOL    HW215192   4.921   2.604   6.662
 4765SOL     OW15193   4.259   1.579   6.028
 4765SOL    HW115194   4.334   1.585   5.962
 4765SOL    HW215195   4.251   1.665   6.078
 4766SOL     OW15196   0.738   0.751   4.592
 4766SOL    HW115197   0.689   0.805   4.523
 4766SOL    HW215198   0.800   0.687   4.547
 4767SOL     OW15199   1.943   4.652   3.732
 4767SOL    HW115200   1.846   4.678   3.739
 4767SOL    HW215201   1.999   4.726   3.770
 4768SOL     OW15202   4.728   2.122   6.347
 4768SOL    HW115203   4.727   2.112   6.447
 4768SOL    HW215204   4.695   2.213   6.322
 4769SOL     OW15205   2.373   3.020   0.981
 4769SOL    HW115206   2.370   2.944   0.917
 4769SOL    HW215207   2.299   3.085   0.960
 4770SOL     OW15208   6.922   1.707   3.330
 4770SOL    HW115209   6.955   1.732   3.240
 4770SOL    HW215210   6.869   1.783   3.369
 4771SOL     OW15211   2.536   0.085   4.153
 4771SOL    HW115212   2.449   0.132   4.143
 4771SOL    HW215213   2.521   7.017   4.189
 4772SOL     OW15214   2.702   4.680   3.071
 4772SOL    HW115215   2.662   4.630   2.994
 4772SOL    HW215216   2.699   4.778   3.052
 4773SOL     OW15217   2.645   5.434   4.750
 4773SOL    HW115218   2.721   5.414   4.812
 4773SOL    HW215219   2.659   5.385   4.664
 4774SOL     OW15220   1.037   4.463   0.769
 4774SOL    HW115221   1.074   4.385   0.818
 4774SOL    HW215222   0.948   4.487   0.806
 4775SOL     OW15223   5.921   5.310   4.428
 4775SOL    HW115224   5.823   5.330   4.426
 4775SOL    HW215225   5.961   5.347   4.512
 4776SOL     OW15226   6.567   1.634   5.112
 4776SOL    HW115227   6.609   1.582   5.186
 4776SOL    HW215228   6.519   1.572   5.050
 4777SOL     OW15229   1.538   6.714   3.304
 4777SOL    HW115230   1.482   6.730   3.223
 4777SOL    HW215231   1.545   6.615   3.321
 4778SOL     OW15232   1.861   6.940   0.004
 4778SOL    HW115233   1.805   6.971   0.082
 4778SOL    HW215234   1.810   6.872   6.976
 4779SOL     OW15235   4.816   1.160   4.604
 4779SOL    HW115236   4.840   1.132   4.512
 4779SOL    HW215237   4.773   1.083   4.652
 4780SOL     OW15238   4.807   2.935   4.730
 4780SOL    HW115239   4.787   3.018   4.677
 4780SOL    HW215240   4.841   2.961   4.820
 4781SOL     OW15241   1.721   5.271   1.913
 4781SOL    HW115242   1.786   5.307   1.980
 4781SOL    HW215243   1.657   5.209   1.958
 4782SOL     OW15244   1.467   6.010   2.963
 4782SOL    HW115245   1.445   5.975   2.873
 4782SOL    HW215246   1.467   6.110   2.961
 4783SOL     OW15247   0.496   3.384   6.785
 4783SOL    HW115248   0.448   3.451   6.841
 4783SOL    HW215249   0.454   3.294   6.798
 4784SOL     OW15250   5.545   2.803   6.968
 4784SOL    HW115251   5.510   2.798   6.874
 4784SOL    HW215252   5.631   2.751   6.974
 4785SOL     OW15253   0.442   6.987   3.984
 4785SOL    HW115254   0.408   6.992   3.890
 4785SOL    HW215255   0.490   6.901   3.997
 4786SOL     OW15256   0.771   5.356   0.627
 4786SOL    HW115257   0.678   5.364   0.663
 4786SOL    HW215258   0.775   5.395   0.535
 4787SOL     OW15259   4.826   0.893   5.242
 4787SOL    HW115260   4.757   0.865   5.175
 4787SOL    HW215261   4.787   0.888   5.334
 4788SOL     OW15262   6.833   5.672   1.055
 4788SOL    HW115263   6.931   5.675   1.036
 4788SOL    HW215264   6.811   5.587   1.103
 4789SOL     OW15265   6.139   0.606   2.771
 4789SOL    HW115266   6.156   0.705   2.774
 4789SOL    HW215267   6.087   0.579   2.851
 4790SOL     OW15268   6.545   2.075   4.918
 4790SOL    HW115269   6.499   2.163   4.909
 4790SOL    HW215270   6.536   2.024   4.833
 4791SOL     OW15271   0.462   0.699   6.577
 4791SOL    HW115272   0.526   0.747   6.636
 4791SOL    HW215273   0.511   0.664   6.497
 4792SOL     OW15274   0.581   3.870   1.735
 4792SOL    HW115275   0.510   3.800   1.739
 4792SOL    HW215276   0.610   3.883   1.640
 4793SOL     OW15277   0.812   3.674   5.262
 4793SOL    HW115278   0.736   3.718   5.309
 4793SOL    HW215279   0.896   3.727   5.274
 4794SOL     OW15280   5.355   1.541   6.230
 4794SOL    HW115281   5.298   1.579   6.157
 4794SOL    HW215282   5.367   1.610   6.302
 4795SOL     OW15283   0.196   0.833   6.943
 4795SOL    HW115284   0.208   0.740   6.908
 4795SOL    HW215285   0.099   0.849   6.964
 4796SOL     OW15286   5.619   1.151   5.847
 4796SOL    HW115287   5.570   1.236   5.863
 4796SOL    HW215288   5.568   1.075   5.888
 4797SOL     OW15289   2.526   5.312   5.710
 4797SOL    HW115290   2.599   5.270   5.763
 4797SOL    HW215291   2.510   5.259   5.627
 4798SOL     OW15292   3.294   6.375   0.232
 4798SOL    HW115293   3.290   6.276   0.246
 4798SOL    HW215294   3.295   6.395   0.134
 4799SOL     OW15295   3.557   3.296   0.518
 4799SOL    HW115296   3.654   3.323   0.515
 4799SOL    HW215297   3.529   3.262   0.429
 4800SOL     OW15298   1.119   4.842   0.408
 4800SOL    HW115299   1.023   4.869   0.412
 4800SOL    HW215300   1.146   4.800   0.494
 4801SOL     OW15301   4.685   2.619   3.135
 4801SOL    HW115302   4.633   2.536   3.155
 4801SOL    HW215303   4.714   2.617   3.039
 4802SOL     OW15304   0.001   0.773   4.822
 4802SOL    HW115305   0.071   0.779   4.751
 4802SOL    HW215306   0.019   0.843   4.892
 4803SOL     OW15307   4.919   3.676   5.764
 4803SOL    HW115308   4.829   3.646   5.733
 4803SOL    HW215309   4.982   3.599   5.765
 4804SOL     OW15310   4.951   2.511   0.335
 4804SOL    HW115311   4.928   2.442   0.404
 4804SOL    HW215312   4.877   2.578   0.328
 4805SOL     OW15313   5.650   1.168   6.560
 4805SOL    HW115314   5.574   1.112   6.595
 4805SOL    HW215315   5.713   1.110   6.509
 4806SOL     OW15316   0.775   2.597   3.272
 4806SOL    HW115317   0.774   2.656   3.352
 4806SOL    HW215318   0.834   2.638   3.201
 4807SOL     OW15319   0.432   4.272   6.744
 4807SOL    HW115320   0.400   4.178   6.759
 4807SOL    HW215321   0.390   4.308   6.661
 4808SOL     OW15322   3.564   6.104   2.522
 4808SOL    HW115323   3.627   6.089   2.598
 4808SOL    HW215324   3.470   6.108   2.557
 4809SOL     OW15325   2.950   3.715   0.666
 4809SOL    HW115326   2.900   3.655   0.729
 4809SOL    HW215327   2.990   3.660   0.592
 4810SOL     OW15328   1.783   5.626   4.759
 4810SOL    HW115329   1.815   5.705   4.811
 4810SOL    HW215330   1.740   5.658   4.674
 4811SOL     OW15331   3.206   3.630   4.438
 4811SOL    HW115332   3.212   3.567   4.361
 4811SOL    HW215333   3.170   3.717   4.407
 4812SOL     OW15334   2.116   6.505   2.484
 4812SOL    HW115335   2.063   6.492   2.401
 4812SOL    HW215336   2.055   6.519   2.562
 4813SOL     OW15337   0.820   2.681   4.507
 4813SOL    HW115338   0.882   2.638   4.574
 4813SOL    HW215339   0.861   2.674   4.416
 4814SOL     OW15340   6.349   2.151   0.874
 4814SOL    HW115341   6.327   2.236   0.826
 4814SOL    HW215342   6.340   2.165   0.972
 4815SOL     OW15343   6.387   4.259   2.302
 4815SOL    HW115344   6.426   4.351   2.305
 4815SOL    HW215345   6.423   4.210   2.222
 4816SOL     OW15346   2.669   0.649   2.634
 4816SOL    HW115347   2.664   0.580   2.561
 4816SOL    HW215348   2.692   0.737   2.594
 4817SOL     OW15349   3.694   2.551   0.336
 4817SOL    HW115350   3.719   2.463   0.375
 4817SOL    HW215351   3.626   2.538   0.263
 4818SOL     OW15352   4.782   6.473   4.718
 4818SOL    HW115353   4.863   6.476   4.660
 4818SOL    HW215354   4.714   6.539   4.684
 4819SOL     OW15355   3.323   1.039   7.013
 4819SOL    HW115356   3.247   0.976   7.004
 4819SOL    HW215357   3.366   1.053   6.924
 4820SOL     OW15358   6.243   4.528   2.057
 4820SOL    HW115359   6.254   4.627   2.059
 4820SOL    HW215360   6.203   4.500   1.970
 4821SOL     OW15361   6.670   5.959   1.603
 4821SOL    HW115362   6.762   5.975   1.636
 4821SOL    HW215363   6.641   6.035   1.545
 4822SOL     OW15364   0.653   3.930   1.469
 4822SOL    HW115365   0.581   3.898   1.408
 4822SOL    HW215366   0.706   4.002   1.423
 4823SOL     OW15367   0.263   1.701   3.223
 4823SOL    HW115368   0.228   1.721   3.132
 4823SOL    HW215369   0.308   1.783   3.260
 4824SOL     OW15370   5.430   1.824   2.521
 4824SOL    HW115371   5.523   1.839   2.557
 4824SOL    HW215372   5.417   1.727   2.502
 4825SOL     OW15373   1.149   3.311   4.170
 4825SOL    HW115374   1.236   3.277   4.206
 4825SOL    HW215375   1.149   3.411   4.172
 4826SOL     OW15376   6.803   6.964   0.330
 4826SOL    HW115377   6.888   6.982   0.381
 4826SOL    HW215378   6.814   6.881   0.276
 4827SOL     OW15379   4.880   1.798   6.958
 4827SOL    HW115380   4.902   1.894   6.945
 4827SOL    HW215381   4.950   1.741   6.915
 4828SOL     OW15382   5.428   3.154   6.547
 4828SOL    HW115383   5.508   3.158   6.487
 4828SOL    HW215384   5.368   3.080   6.517
 4829SOL     OW15385   3.279   0.404   5.238
 4829SOL    HW115386   3.188   0.395   5.280
 4829SOL    HW215387   3.325   0.316   5.239
 4830SOL     OW15388   5.053   5.094   4.744
 4830SOL    HW115389   5.090   5.133   4.660
 4830SOL    HW215390   5.064   5.160   4.819
 4831SOL     OW15391   6.321   2.110   6.871
 4831SOL    HW115392   6.293   2.131   6.777
 4831SOL    HW215393   6.408   2.062   6.870
 4832SOL     OW15394   1.657   2.855   6.325
 4832SOL    HW115395   1.704   2.844   6.413
 4832SOL    HW215396   1.558   2.850   6.339
 4833SOL     OW15397   6.400   2.149   3.334
 4833SOL    HW115398   6.417   2.072   3.395
 4833SOL    HW215399   6.358   2.224   3.386
 4834SOL     OW15400   5.869   0.152   3.176
 4834SOL    HW115401   5.951   0.123   3.226
 4834SOL    HW215402   5.815   0.214   3.234
 4835SOL     OW15403   1.872   1.547   6.355
 4835SOL    HW115404   1.828   1.636   6.338
 4835SOL    HW215405   1.824   1.501   6.430
 4836SOL     OW15406   5.775   3.079   2.672
 4836SOL    HW115407   5.814   3.019   2.602
 4836SOL    HW215408   5.691   3.039   2.707
 4837SOL     OW15409   0.441   5.109   1.157
 4837SOL    HW115410   0.381   5.066   1.090
 4837SOL    HW215411   0.387   5.148   1.231
 4838SOL     OW15412   2.333   6.151   2.494
 4838SOL    HW115413   2.339   6.243   2.455
 4838SOL    HW215414   2.314   6.158   2.592
 4839SOL     OW15415   0.908   0.408   6.285
 4839SOL    HW115416   0.840   0.346   6.247
 4839SOL    HW215417   0.971   0.436   6.213
 4840SOL     OW15418   6.490   6.019   6.031
 4840SOL    HW115419   6.479   5.944   6.096
 4840SOL    HW215420   6.557   6.084   6.066
 4841SOL     OW15421   2.052   5.841   0.677
 4841SOL    HW115422   1.986   5.917   0.678
 4841SOL    HW215423   2.035   5.781   0.755
 4842SOL     OW15424   3.100   6.767   1.066
 4842SOL    HW115425   3.085   6.839   0.997
 4842SOL    HW215426   3.064   6.798   1.154
 4843SOL     OW15427   1.468   3.372   6.624
 4843SOL    HW115428   1.538   3.311   6.588
 4843SOL    HW215429   1.389   3.318   6.653
 4844SOL     OW15430   1.235   1.583   5.131
 4844SOL    HW115431   1.300   1.659   5.125
 4844SOL    HW215432   1.159   1.599   5.068
 4845SOL     OW15433   5.569   6.077   3.968
 4845SOL    HW115434   5.596   6.163   3.924
 4845SOL    HW215435   5.630   6.004   3.938
 4846SOL     OW15436   0.180   5.481   6.339
 4846SOL    HW115437   0.086   5.455   6.358
 4846SOL    HW215438   0.188   5.581   6.342
 4847SOL     OW15439   4.797   2.716   4.533
 4847SOL    HW115440   4.870   2.769   4.490
 4847SOL    HW215441   4.772   2.758   4.620
 4848SOL     OW15442   2.781   3.145   1.677
 4848SOL    HW115443   2.713   3.218   1.690
 4848SOL    HW215444   2.756   3.091   1.596
 4849SOL     OW15445   2.104   6.509   5.989
 4849SOL    HW115446   2.178   6.475   5.932
 4849SOL    HW215447   2.016   6.494   5.944
 4850SOL     OW15448   3.902   6.619   3.150
 4850SOL    HW115449   3.882   6.529   3.113
 4850SOL    HW215450   3.982   6.614   3.210
 4851SOL     OW15451   5.100   1.441   5.902
 4851SOL    HW115452   5.133   1.526   5.944
 4851SOL    HW215453   5.138   1.433   5.810
 4852SOL     OW15454   2.026   1.509   1.933
 4852SOL    HW115455   2.110   1.454   1.933
 4852SOL    HW215456   2.010   1.545   2.024
 4853SOL     OW15457   3.667   1.661   2.300
 4853SOL    HW115458   3.711   1.574   2.277
 4853SOL    HW215459   3.679   1.726   2.225
 4854SOL     OW15460   3.467   0.244   6.238
 4854SOL    HW115461   3.395   0.313   6.239
 4854SOL    HW215462   3.535   0.265   6.308
 4855SOL     OW15463   6.792   2.528   2.442
 4855SOL    HW115464   6.773   2.530   2.540
 4855SOL    HW215465   6.780   2.619   2.404
 4856SOL     OW15466   0.383   4.288   2.004
 4856SOL    HW115467   0.410   4.215   1.940
 4856SOL    HW215468   0.294   4.266   2.043
 4857SOL     OW15469   0.261   0.873   5.603
 4857SOL    HW115470   0.252   0.869   5.703
 4857SOL    HW215471   0.356   0.853   5.577
 4858SOL     OW15472   1.689   0.380   3.642
 4858SOL    HW115473   1.780   0.341   3.650
 4858SOL    HW215474   1.693   0.478   3.664
 4859SOL     OW15475   3.669   6.179   6.090
 4859SOL    HW115476   3.741   6.248   6.100
 4859SOL    HW215477   3.683   6.105   6.156
 4860SOL     OW15478   3.283   4.572   0.759
 4860SOL    HW115479   3.195   4.614   0.783
 4860SOL    HW215480   3.331   4.631   0.694
 4861SOL     OW15481   4.477   4.175   6.398
 4861SOL    HW115482   4.524   4.229   6.328
 4861SOL    HW215483   4.409   4.232   6.443
 4862SOL     OW15484   0.906   7.008   0.689
 4862SOL    HW115485   0.849   7.023   0.608
 4862SOL    HW215486   0.848   6.985   0.767
 4863SOL     OW15487   5.190   3.748   6.268
 4863SOL    HW115488   5.171   3.840   6.234
 4863SOL    HW215489   5.255   3.702   6.206
 4864SOL     OW15490   3.506   1.189   4.342
 4864SOL    HW115491   3.576   1.132   4.299
 4864SOL    HW215492   3.526   1.197   4.440
 4865SOL     OW15493   1.467   6.585   5.061
 4865SOL    HW115494   1.440   6.611   4.969
 4865SOL    HW215495   1.557   6.542   5.058
 4866SOL     OW15496   6.908   4.543   5.667
 4866SOL    HW115497   7.003   4.563   5.644
 4866SOL    HW215498   6.899   4.446   5.692
 4867SOL     OW15499   4.598   0.895   2.918
 4867SOL    HW115500   4.533   0.965   2.887
 4867SOL    HW215501   4.691   0.925   2.898
 4868SOL     OW15502   6.616   4.898   0.374
 4868SOL    HW115503   6.539   4.881   0.436
 4868SOL    HW215504   6.629   4.997   0.364
 4869SOL     OW15505   0.720   1.589   1.027
 4869SOL    HW115506   0.664   1.511   1.054
 4869SOL    HW215507   0.735   1.648   1.106
 4870SOL     OW15508   0.546   7.023   1.281
 4870SOL    HW115509   0.538   6.974   1.194
 4870SOL    HW215510   0.627   0.058   1.278
 4871SOL     OW15511   0.697   1.819   2.954
 4871SOL    HW115512   0.722   1.915   2.940
 4871SOL    HW215513   0.643   1.787   2.875
 4872SOL     OW15514   5.789   0.349   3.369
 4872SOL    HW115515   5.832   0.439   3.373
 4872SOL    HW215516   5.690   0.358   3.359
 4873SOL     OW15517   6.909   5.411   4.157
 4873SOL    HW115518   6.904   5.447   4.251
 4873SOL    HW215519   6.882   5.315   4.158
 4874SOL     OW15520   5.085   3.646   2.022
 4874SOL    HW115521   5.008   3.700   1.988
 4874SOL    HW215522   5.052   3.581   2.090
 4875SOL     OW15523   6.420   5.666   5.010
 4875SOL    HW115524   6.487   5.738   4.996
 4875SOL    HW215525   6.466   5.582   5.038
 4876SOL     OW15526   6.818   1.161   2.274
 4876SOL    HW115527   6.860   1.077   2.309
 4876SOL    HW215528   6.832   1.235   2.340
 4877SOL     OW15529   0.258   1.427   6.971
 4877SOL    HW115530   0.304   1.367   6.906
 4877SOL    HW215531   0.162   1.435   6.947
 4878SOL     OW15532   6.370   3.714   3.289
 4878SOL    HW115533   6.426   3.707   3.371
 4878SOL    HW215534   6.310   3.794   3.296
 4879SOL     OW15535   5.224   0.489   3.161
 4879SOL    HW115536   5.194   0.394   3.162
 4879SOL    HW215537   5.188   0.536   3.241
 4880SOL     OW15538   6.893   2.922   6.132
 4880SOL    HW115539   6.851   2.950   6.047
 4880SOL    HW215540   6.981   2.968   6.143
 4881SOL     OW15541   0.722   3.506   1.671
 4881SOL    HW115542   0.754   3.576   1.608
 4881SOL    HW215543   0.776   3.423   1.659
 4882SOL     OW15544   5.287   1.682   4.237
 4882SOL    HW115545   5.290   1.758   4.302
 4882SOL    HW215546   5.372   1.630   4.244
 4883SOL     OW15547   5.893   4.236   0.094
 4883SOL    HW115548   5.821   4.229   0.163
 4883SOL    HW215549   5.960   4.163   0.109
 4884SOL     OW15550   2.150   1.343   2.160
 4884SOL    HW115551   2.141   1.248   2.189
 4884SOL    HW215552   2.074   1.397   2.196
 4885SOL     OW15553   0.981   5.061   0.042
 4885SOL    HW115554   0.899   5.117   0.033
 4885SOL    HW215555   0.982   4.991   6.995
 4886SOL     OW15556   2.824   0.611   2.169
 4886SOL    HW115557   2.891   0.638   2.099
 4886SOL    HW215558   2.745   0.569   2.125
 4887SOL     OW15559   4.517   5.812   0.602
 4887SOL    HW115560   4.499   5.792   0.506
 4887SOL    HW215561   4.531   5.910   0.613
 4888SOL     OW15562   4.670   0.198   3.121
 4888SOL    HW115563   4.747   0.147   3.160
 4888SOL    HW215564   4.585   0.147   3.134
 4889SOL     OW15565   5.929   3.458   4.013
 4889SOL    HW115566   5.979   3.543   3.993
 4889SOL    HW215567   5.957   3.423   4.102
 4890SOL     OW15568   6.691   1.647   4.665
 4890SOL    HW115569   6.604   1.657   4.714
 4890SOL    HW215570   6.754   1.719   4.694
 4891SOL     OW15571   2.494   5.833   0.333
 4891SOL    HW115572   2.458   5.752   0.287
 4891SOL    HW215573   2.446   5.846   0.419
 4892SOL     OW15574   5.450   5.195   2.441
 4892SOL    HW115575   5.522   5.170   2.377
 4892SOL    HW215576   5.478   5.276   2.493
 4893SOL     OW15577   1.148   3.119   1.259
 4893SOL    HW115578   1.192   3.206   1.278
 4893SOL    HW215579   1.184   3.080   1.175
 4894SOL     OW15580   5.029   6.021   0.764
 4894SOL    HW115581   5.013   5.931   0.725
 4894SOL    HW215582   5.080   6.012   0.849
 4895SOL     OW15583   6.663   4.336   5.195
 4895SOL    HW115584   6.690   4.361   5.288
 4895SOL    HW215585   6.745   4.324   5.139
 4896SOL     OW15586   2.637   5.085   5.094
 4896SOL    HW115587   2.664   4.991   5.071
 4896SOL    HW215588   2.583   5.123   5.019
 4897SOL     OW15589   2.156   1.574   5.231
 4897SOL    HW115590   2.141   1.568   5.330
 4897SOL    HW215591   2.227   1.509   5.205
 4898SOL     OW15592   4.799   2.062   4.056
 4898SOL    HW115593   4.728   2.128   4.032
 4898SOL    HW215594   4.788   2.034   4.151
 4899SOL     OW15595   6.497   6.434   2.093
 4899SOL    HW115596   6.561   6.395   2.026
 4899SOL    HW215597   6.408   6.390   2.082
 4900SOL     OW15598   3.417   5.949   6.151
 4900SOL    HW115599   3.414   6.041   6.114
 4900SOL    HW215600   3.486   5.944   6.223
 4901SOL     OW15601   2.035   1.095   6.945
 4901SOL    HW115602   1.952   1.090   7.000
 4901SOL    HW215603   2.108   1.137   6.999
 4902SOL     OW15604   2.901   0.021   5.395
 4902SOL    HW115605   2.959   6.993   5.332
 4902SOL    HW215606   2.942   0.110   5.412
 4903SOL     OW15607   4.887   3.873   2.642
 4903SOL    HW115608   4.862   3.888   2.737
 4903SOL    HW215609   4.986   3.873   2.632
 4904SOL     OW15610   1.600   0.715   1.822
 4904SOL    HW115611   1.571   0.664   1.903
 4904SOL    HW215612   1.541   0.693   1.745
 4905SOL     OW15613   2.726   0.890   2.506
 4905SOL    HW115614   2.631   0.912   2.482
 4905SOL    HW215615   2.788   0.934   2.442
 4906SOL     OW15616   5.308   3.474   4.970
 4906SOL    HW115617   5.213   3.446   4.957
 4906SOL    HW215618   5.365   3.435   4.898
 4907SOL     OW15619   3.309   2.222   0.243
 4907SOL    HW115620   3.390   2.260   0.199
 4907SOL    HW215621   3.314   2.122   0.243
 4908SOL     OW15622   3.575   6.715   6.188
 4908SOL    HW115623   3.621   6.753   6.108
 4908SOL    HW215624   3.531   6.628   6.163
 4909SOL     OW15625   4.915   5.389   4.382
 4909SOL    HW115626   5.006   5.404   4.342
 4909SOL    HW215627   4.859   5.471   4.370
 4910SOL     OW15628   3.837   1.732   0.062
 4910SOL    HW115629   3.800   1.651   0.017
 4910SOL    HW215630   3.920   1.708   0.111
 4911SOL     OW15631   6.737   4.610   2.982
 4911SOL    HW115632   6.729   4.602   2.882
 4911SOL    HW215633   6.798   4.539   3.016
 4912SOL     OW15634   6.001   2.503   4.244
 4912SOL    HW115635   5.912   2.471   4.211
 4912SOL    HW215636   6.074   2.448   4.204
 4913SOL     OW15637   0.492   4.246   5.178
 4913SOL    HW115638   0.492   4.341   5.209
 4913SOL    HW215639   0.407   4.227   5.130
 4914SOL     OW15640   3.923   6.576   3.878
 4914SOL    HW115641   3.896   6.561   3.783
 4914SOL    HW215642   4.020   6.553   3.889
 4915SOL     OW15643   3.666   5.943   5.439
 4915SOL    HW115644   3.617   5.969   5.522
 4915SOL    HW215645   3.601   5.925   5.366
 4916SOL     OW15646   5.493   2.545   3.884
 4916SOL    HW115647   5.499   2.636   3.926
 4916SOL    HW215648   5.455   2.553   3.792
 4917SOL     OW15649   4.295   6.383   6.364
 4917SOL    HW115650   4.270   6.417   6.274
 4917SOL    HW215651   4.215   6.386   6.425
 4918SOL     OW15652   5.701   5.862   3.892
 4918SOL    HW115653   5.646   5.782   3.868
 4918SOL    HW215654   5.775   5.873   3.826
 4919SOL     OW15655   3.794   3.923   1.978
 4919SOL    HW115656   3.803   3.978   2.060
 4919SOL    HW215657   3.817   3.828   1.999
 4920SOL     OW15658   5.979   0.803   5.998
 4920SOL    HW115659   5.979   0.781   5.901
 4920SOL    HW215660   5.938   0.893   6.012
 4921SOL     OW15661   0.127   0.004   1.977
 4921SOL    HW115662   0.134   0.080   2.041
 4921SOL    HW215663   0.052   0.021   1.913
 4922SOL     OW15664   4.147   1.331   5.849
 4922SOL    HW115665   4.106   1.372   5.930
 4922SOL    HW215666   4.246   1.319   5.864
 4923SOL     OW15667   3.765   1.310   1.894
 4923SOL    HW115668   3.672   1.335   1.921
 4923SOL    HW215669   3.793   1.366   1.816
 4924SOL     OW15670   2.734   1.399   5.230
 4924SOL    HW115671   2.693   1.480   5.273
 4924SOL    HW215672   2.798   1.428   5.159
 4925SOL     OW15673   4.519   5.989   3.841
 4925SOL    HW115674   4.588   6.031   3.900
 4925SOL    HW215675   4.564   5.930   3.774
 4926SOL     OW15676   5.332   2.589   1.674
 4926SOL    HW115677   5.246   2.592   1.622
 4926SOL    HW215678   5.338   2.669   1.733
 4927SOL     OW15679   2.492   1.562   0.417
 4927SOL    HW115680   2.524   1.494   0.351
 4927SOL    HW215681   2.392   1.557   0.425
 4928SOL     OW15682   6.920   1.107   0.959
 4928SOL    HW115683   6.876   1.138   1.044
 4928SOL    HW215684   6.894   1.167   0.884
 4929SOL     OW15685   6.935   0.130   5.294
 4929SOL    HW115686   7.018   0.093   5.252
 4929SOL    HW215687   6.913   0.078   5.377
 4930SOL     OW15688   4.144   5.768   2.889
 4930SOL    HW115689   4.143   5.679   2.844
 4930SOL    HW215690   4.232   5.813   2.872
 4931SOL     OW15691   5.872   0.207   1.146
 4931SOL    HW115692   5.946   0.274   1.150
 4931SOL    HW215693   5.905   0.123   1.103
 4932SOL     OW15694   3.242   3.644   3.071
 4932SOL    HW115695   3.165   3.695   3.111
 4932SOL    HW215696   3.207   3.585   2.997
 4933SOL     OW15697   1.572   0.066   5.150
 4933SOL    HW115698   1.502   0.071   5.079
 4933SOL    HW215699   1.633   7.013   5.131
 4934SOL     OW15700   3.227   6.696   2.934
 4934SOL    HW115701   3.142   6.658   2.898
 4934SOL    HW215702   3.210   6.736   3.024
 4935SOL     OW15703   6.555   0.612   4.780
 4935SOL    HW115704   6.653   0.625   4.765
 4935SOL    HW215705   6.510   0.701   4.791
 4936SOL     OW15706   4.372   2.938   0.933
 4936SOL    HW115707   4.304   2.900   0.869
 4936SOL    HW215708   4.440   2.868   0.954
 4937SOL     OW15709   4.206   2.837   5.324
 4937SOL    HW115710   4.194   2.761   5.260
 4937SOL    HW215711   4.302   2.863   5.327
 4938SOL     OW15712   3.317   4.581   7.010
 4938SOL    HW115713   3.327   4.673   6.973
 4938SOL    HW215714   3.228   4.544   6.984
 4939SOL     OW15715   4.445   3.919   6.155
 4939SOL    HW115716   4.473   3.985   6.225
 4939SOL    HW215717   4.487   3.830   6.175
 4940SOL     OW15718   2.046   6.000   3.887
 4940SOL    HW115719   1.960   5.981   3.934
 4940SOL    HW215720   2.031   6.065   3.813
 4941SOL     OW15721   5.814   0.766   1.386
 4941SOL    HW115722   5.764   0.822   1.452
 4941SOL    HW215723   5.759   0.756   1.302
 4942SOL     OW15724   5.233   1.940   6.110
 4942SOL    HW115725   5.162   2.000   6.147
 4942SOL    HW215726   5.223   1.935   6.010
 4943SOL     OW15727   5.551   2.641   1.213
 4943SOL    HW115728   5.603   2.577   1.157
 4943SOL    HW215729   5.528   2.599   1.300
 4944SOL     OW15730   2.192   3.796   2.054
 4944SOL    HW115731   2.180   3.697   2.041
 4944SOL    HW215732   2.250   3.811   2.135
 4945SOL     OW15733   0.081   5.983   4.407
 4945SOL    HW115734   0.120   6.050   4.470
 4945SOL    HW215735   0.154   5.926   4.370
 4946SOL     OW15736   6.924   4.286   2.221
 4946SOL    HW115737   6.964   4.194   2.222
 4946SOL    HW215738   6.856   4.292   2.148
 4947SOL     OW15739   6.065   0.673   0.542
 4947SOL    HW115740   6.116   0.587   0.543
 4947SOL    HW215741   6.099   0.731   0.468
 4948SOL     OW15742   2.571   1.632   2.680
 4948SOL    HW115743   2.531   1.543   2.659
 4948SOL    HW215744   2.511   1.681   2.744
 4949SOL     OW15745   5.317   2.059   5.078
 4949SOL    HW115746   5.416   2.074   5.081
 4949SOL    HW215747   5.271   2.125   5.138
 4950SOL     OW15748   2.926   5.688   4.709
 4950SOL    HW115749   2.964   5.595   4.709
 4950SOL    HW215750   2.850   5.692   4.775
 4951SOL     OW15751   4.152   1.973   4.207
 4951SOL    HW115752   4.220   1.948   4.276
 4951SOL    HW215753   4.098   1.892   4.183
 4952SOL     OW15754   6.647   4.540   4.202
 4952SOL    HW115755   6.645   4.638   4.221
 4952SOL    HW215756   6.609   4.523   4.111
 4953SOL     OW15757   1.035   4.508   2.066
 4953SOL    HW115758   1.113   4.562   2.096
 4953SOL    HW215759   1.066   4.415   2.044
 4954SOL     OW15760   6.355   6.547   6.623
 4954SOL    HW115761   6.257   6.553   6.637
 4954SOL    HW215762   6.374   6.506   6.534
 4955SOL     OW15763   1.815   0.293   1.673
 4955SOL    HW115764   1.855   0.346   1.748
 4955SOL    HW215765   1.882   0.227   1.640
 4956SOL     OW15766   6.052   6.335   3.559
 4956SOL    HW115767   6.012   6.418   3.520
 4956SOL    HW215768   6.059   6.266   3.488
 4957SOL     OW15769   1.469   5.927   3.898
 4957SOL    HW115770   1.427   5.877   3.973
 4957SOL    HW215771   1.399   5.979   3.849
 4958SOL     OW15772   0.083   6.674   6.686
 4958SOL    HW115773   0.050   6.769   6.684
 4958SOL    HW215774   0.134   6.655   6.602
 4959SOL     OW15775   0.899   1.953   0.063
 4959SOL    HW115776   0.826   2.019   0.045
 4959SOL    HW215777   0.899   1.883   7.016
 4960SOL     OW15778   3.625   0.137   5.624
 4960SOL    HW115779   3.589   0.212   5.568
 4960SOL    HW215780   3.570   0.054   5.607
 4961SOL     OW15781   5.233   0.654   5.110
 4961SOL    HW115782   5.181   0.720   5.165
 4961SOL    HW215783   5.184   0.567   5.108
 4962SOL     OW15784   6.475   2.331   2.462
 4962SOL    HW115785   6.499   2.428   2.453
 4962SOL    HW215786   6.377   2.322   2.475
 4963SOL     OW15787   6.996   4.533   1.017
 4963SOL    HW115788   0.068   4.562   1.020
 4963SOL    HW215789   6.973   4.501   0.925
 4964SOL     OW15790   3.179   6.804   3.190
 4964SOL    HW115791   3.098   6.848   3.230
 4964SOL    HW215792   3.254   6.870   3.185
 4965SOL     OW15793   6.879   5.780   4.620
 4965SOL    HW115794   6.787   5.806   4.647
 4965SOL    HW215795   6.932   5.863   4.598
 4966SOL     OW15796   4.763   5.686   5.038
 4966SOL    HW115797   4.826   5.625   5.087
 4966SOL    HW215798   4.727   5.639   4.957
 4967SOL     OW15799   6.024   1.775   6.874
 4967SOL    HW115800   5.958   1.721   6.823
 4967SOL    HW215801   5.982   1.861   6.903
 4968SOL     OW15802   5.275   4.292   6.569
 4968SOL    HW115803   5.277   4.392   6.561
 4968SOL    HW215804   5.246   4.252   6.482
 4969SOL     OW15805   1.866   1.445   1.471
 4969SOL    HW115806   1.961   1.413   1.466
 4969SOL    HW215807   1.806   1.369   1.495
 4970SOL     OW15808   1.638   2.708   6.015
 4970SOL    HW115809   1.657   2.674   6.107
 4970SOL    HW215810   1.703   2.780   5.992
 4971SOL     OW15811   6.500   5.383   3.795
 4971SOL    HW115812   6.562   5.323   3.746
 4971SOL    HW215813   6.469   5.339   3.879
 4972SOL     OW15814   1.420   2.104   4.783
 4972SOL    HW115815   1.387   2.106   4.689
 4972SOL    HW215816   1.520   2.100   4.783
 4973SOL     OW15817   4.829   5.601   2.687
 4973SOL    HW115818   4.875   5.606   2.598
 4973SOL    HW215819   4.894   5.624   2.759
 4974SOL     OW15820   3.919   6.679   6.532
 4974SOL    HW115821   3.829   6.703   6.570
 4974SOL    HW215822   3.925   6.711   6.438
 4975SOL     OW15823   3.916   6.253   0.418
 4975SOL    HW115824   3.896   6.156   0.429
 4975SOL    HW215825   4.012   6.264   0.390
 4976SOL     OW15826   2.228   0.599   4.281
 4976SOL    HW115827   2.195   0.693   4.271
 4976SOL    HW215828   2.316   0.589   4.235
 4977SOL     OW15829   3.373   3.229   0.696
 4977SOL    HW115830   3.447   3.250   0.632
 4977SOL    HW215831   3.368   3.130   0.710
 4978SOL     OW15832   6.522   4.176   6.209
 4978SOL    HW115833   6.505   4.084   6.243
 4978SOL    HW215834   6.449   4.237   6.241
 4979SOL     OW15835   2.379   2.262   3.763
 4979SOL    HW115836   2.420   2.299   3.680
 4979SOL    HW215837   2.446   2.206   3.811
 4980SOL     OW15838   2.169   4.547   3.316
 4980SOL    HW115839   2.231   4.626   3.312
 4980SOL    HW215840   2.222   4.462   3.311
 4981SOL     OW15841   5.203   5.852   5.214
 4981SOL    HW115842   5.247   5.833   5.126
 4981SOL    HW215843   5.274   5.870   5.282
 4982SOL     OW15844   2.374   1.647   6.773
 4982SOL    HW115845   2.290   1.594   6.780
 4982SOL    HW215846   2.397   1.660   6.677
 4983SOL     OW15847   6.714   2.582   4.531
 4983SOL    HW115848   6.628   2.597   4.481
 4983SOL    HW215849   6.780   2.653   4.505
 4984SOL     OW15850   4.932   4.399   3.163
 4984SOL    HW115851   4.867   4.326   3.182
 4984SOL    HW215852   4.954   4.447   3.248
 4985SOL     OW15853   5.613   3.818   2.201
 4985SOL    HW115854   5.515   3.820   2.182
 4985SOL    HW215855   5.627   3.823   2.300
 4986SOL     OW15856   4.603   5.003   2.918
 4986SOL    HW115857   4.558   5.004   2.829
 4986SOL    HW215858   4.700   5.023   2.907
 4987SOL     OW15859   0.801   3.298   0.449
 4987SOL    HW115860   0.723   3.278   0.390
 4987SOL    HW215861   0.818   3.220   0.510
 4988SOL     OW15862   2.010   2.394   5.596
 4988SOL    HW115863   2.052   2.401   5.687
 4988SOL    HW215864   1.978   2.485   5.568
 4989SOL     OW15865   0.282   1.281   1.071
 4989SOL    HW115866   0.202   1.340   1.060
 4989SOL    HW215867   0.358   1.335   1.107
 4990SOL     OW15868   1.443   1.867   6.656
 4990SOL    HW115869   1.443   1.882   6.755
 4990SOL    HW215870   1.535   1.838   6.627
 4991SOL     OW15871   3.222   2.021   5.767
 4991SOL    HW115872   3.304   1.969   5.789
 4991SOL    HW215873   3.142   1.974   5.802
 4992SOL     OW15874   4.059   6.536   4.860
 4992SOL    HW115875   3.965   6.563   4.883
 4992SOL    HW215876   4.058   6.469   4.786
 4993SOL     OW15877   1.724   6.429   4.339
 4993SOL    HW115878   1.817   6.463   4.337
 4993SOL    HW215879   1.663   6.499   4.377
 4994SOL     OW15880   0.062   6.463   3.103
 4994SOL    HW115881   0.096   6.374   3.073
 4994SOL    HW215882   0.137   6.529   3.102
 4995SOL     OW15883   5.772   2.937   5.502
 4995SOL    HW115884   5.807   2.869   5.567
 4995SOL    HW215885   5.747   3.020   5.552
 4996SOL     OW15886   1.150   1.514   3.656
 4996SOL    HW115887   1.161   1.461   3.572
 4996SOL    HW215888   1.069   1.572   3.649
 4997SOL     OW15889   0.119   2.466   4.166
 4997SOL    HW115890   0.210   2.468   4.124
 4997SOL    HW215891   0.050   2.488   4.096
 4998SOL     OW15892   0.802   5.814   5.626
 4998SOL    HW115893   0.833   5.904   5.594
 4998SOL    HW215894   0.724   5.784   5.570
 4999SOL     OW15895   6.145   4.843   0.924
 4999SOL    HW115896   6.161   4.926   0.872
 4999SOL    HW215897   6.047   4.828   0.934
 5000SOL     OW15898   6.273   5.015   4.041
 5000SOL    HW115899   6.344   4.946   4.052
 5000SOL    HW215900   6.183   4.974   4.059
 5001SOL     OW15901   4.792   3.532   5.432
 5001SOL    HW115902   4.786   3.536   5.532
 5001SOL    HW215903   4.721   3.471   5.397
 5002SOL     OW15904   1.378   2.270   1.718
 5002SOL    HW115905   1.288   2.244   1.685
 5002SOL    HW215906   1.443   2.270   1.642
 5003SOL     OW15907   6.782   5.184   4.148
 5003SOL    HW115908   6.750   5.162   4.056
 5003SOL    HW215909   6.712   5.236   4.197
 5004SOL     OW15910   1.918   4.420   6.090
 5004SOL    HW115911   1.985   4.491   6.112
 5004SOL    HW215912   1.826   4.456   6.102
 5005SOL     OW15913   4.845   2.384   0.563
 5005SOL    HW115914   4.859   2.307   0.626
 5005SOL    HW215915   4.770   2.441   0.596
 5006SOL     OW15916   5.258   4.608   2.181
 5006SOL    HW115917   5.261   4.688   2.241
 5006SOL    HW215918   5.212   4.533   2.229
 5007SOL     OW15919   4.380   0.234   5.186
 5007SOL    HW115920   4.442   0.167   5.228
 5007SOL    HW215921   4.338   0.290   5.257
 5008SOL     OW15922   6.294   1.727   4.009
 5008SOL    HW115923   6.269   1.632   3.993
 5008SOL    HW215924   6.328   1.766   3.923
 5009SOL     OW15925   2.424   6.456   2.052
 5009SOL    HW115926   2.459   6.546   2.079
 5009SOL    HW215927   2.431   6.393   2.129
 5010SOL     OW15928   3.347   3.662   5.979
 5010SOL    HW115929   3.280   3.616   6.037
 5010SOL    HW215930   3.312   3.751   5.950
 5011SOL     OW15931   1.312   1.711   3.598
 5011SOL    HW115932   1.387   1.649   3.620
 5011SOL    HW215933   1.227   1.659   3.589
 5012SOL     OW15934   6.035   2.904   0.136
 5012SOL    HW115935   5.982   2.886   0.219
 5012SOL    HW215936   6.044   2.819   0.084
 5013SOL     OW15937   4.901   1.846   5.550
 5013SOL    HW115938   4.971   1.892   5.495
 5013SOL    HW215939   4.941   1.765   5.593
 5014SOL     OW15940   0.071   5.572   6.680
 5014SOL    HW115941   0.086   5.474   6.689
 5014SOL    HW215942   0.004   5.589   6.607
 5015SOL     OW15943   5.002   2.163   3.895
 5015SOL    HW115944   5.099   2.138   3.903
 5015SOL    HW215945   4.946   2.098   3.946
 5016SOL     OW15946   2.953   6.204   1.933
 5016SOL    HW115947   2.858   6.222   1.908
 5016SOL    HW215948   2.967   6.106   1.943
 5017SOL     OW15949   1.491   1.790   1.721
 5017SOL    HW115950   1.573   1.815   1.772
 5017SOL    HW215951   1.410   1.812   1.776
 5018SOL     OW15952   6.545   4.963   3.845
 5018SOL    HW115953   6.600   5.046   3.855
 5018SOL    HW215954   6.461   4.985   3.795
 5019SOL     OW15955   2.813   5.579   5.245
 5019SOL    HW115956   2.831   5.523   5.325
 5019SOL    HW215957   2.726   5.552   5.204
 5020SOL     OW15958   4.303   5.010   6.937
 5020SOL    HW115959   4.381   5.070   6.958
 5020SOL    HW215960   4.228   5.064   6.899
 5021SOL     OW15961   1.816   4.482   5.476
 5021SOL    HW115962   1.837   4.494   5.573
 5021SOL    HW215963   1.864   4.402   5.441
 5022SOL     OW15964   1.987   4.106   0.193
 5022SOL    HW115965   1.994   4.094   0.292
 5022SOL    HW215966   1.992   4.016   0.149
 5023SOL     OW15967   0.285   3.306   4.907
 5023SOL    HW115968   0.370   3.331   4.860
 5023SOL    HW215969   0.270   3.208   4.898
 5024SOL     OW15970   4.713   3.834   5.513
 5024SOL    HW115971   4.628   3.852   5.561
 5024SOL    HW215972   4.787   3.887   5.554
 5025SOL     OW15973   5.885   0.795   4.264
 5025SOL    HW115974   5.834   0.880   4.279
 5025SOL    HW215975   5.928   0.767   4.350
 5026SOL     OW15976   0.702   5.531   2.815
 5026SOL    HW115977   0.792   5.491   2.835
 5026SOL    HW215978   0.659   5.561   2.901
 5027SOL     OW15979   1.371   5.629   3.287
 5027SOL    HW115980   1.419   5.566   3.227
 5027SOL    HW215981   1.365   5.719   3.244
 5028SOL     OW15982   0.929   6.626   3.313
 5028SOL    HW115983   0.897   6.583   3.228
 5028SOL    HW215984   0.976   6.557   3.369
 5029SOL     OW15985   6.267   0.802   3.745
 5029SOL    HW115986   6.284   0.715   3.792
 5029SOL    HW215987   6.345   0.823   3.686
 5030SOL     OW15988   1.261   6.666   0.236
 5030SOL    HW115989   1.230   6.572   0.250
 5030SOL    HW215990   1.252   6.689   0.139
 5031SOL     OW15991   5.430   0.514   6.576
 5031SOL    HW115992   5.379   0.587   6.622
 5031SOL    HW215993   5.422   0.525   6.477
 5032SOL     OW15994   1.335   5.204   2.478
 5032SOL    HW115995   1.355   5.254   2.562
 5032SOL    HW215996   1.243   5.227   2.446
 5033SOL     OW15997   0.511   4.890   4.569
 5033SOL    HW115998   0.484   4.796   4.592
 5033SOL    HW215999   0.572   4.889   4.491
 5034SOL     OW16000   0.341   3.279   6.439
 5034SOL    HW116001   0.338   3.188   6.480
 5034SOL    HW216002   0.330   3.348   6.511
 5035SOL     OW16003   6.815   3.913   1.490
 5035SOL    HW116004   6.791   3.820   1.462
 5035SOL    HW216005   6.912   3.917   1.513
 5036SOL     OW16006   0.780   1.480   2.321
 5036SOL    HW116007   0.865   1.484   2.373
 5036SOL    HW216008   0.732   1.568   2.329
 5037SOL     OW16009   5.223   3.498   1.825
 5037SOL    HW116010   5.187   3.527   1.736
 5037SOL    HW216011   5.181   3.552   1.897
 5038SOL     OW16012   3.365   5.650   5.436
 5038SOL    HW116013   3.293   5.592   5.398
 5038SOL    HW216014   3.389   5.721   5.370
 5039SOL     OW16015   1.710   2.501   3.278
 5039SOL    HW116016   1.809   2.516   3.274
 5039SOL    HW216017   1.683   2.486   3.373
 5040SOL     OW16018   2.938   3.596   5.907
 5040SOL    HW116019   2.851   3.558   5.877
 5040SOL    HW216020   3.004   3.595   5.832
 5041SOL     OW16021   7.004   5.538   0.339
 5041SOL    HW116022   6.924   5.477   0.339
 5041SOL    HW216023   0.017   5.544   0.432
 5042SOL     OW16024   6.279   1.585   6.181
 5042SOL    HW116025   6.297   1.650   6.255
 5042SOL    HW216026   6.189   1.543   6.195
 5043SOL     OW16027   4.956   6.168   4.140
 5043SOL    HW116028   5.042   6.118   4.146
 5043SOL    HW216029   4.929   6.199   4.232
 5044SOL     OW16030   5.992   4.402   2.079
 5044SOL    HW116031   6.015   4.398   2.176
 5044SOL    HW216032   6.022   4.318   2.034
 5045SOL     OW16033   5.677   2.554   5.666
 5045SOL    HW116034   5.638   2.642   5.637
 5045SOL    HW216035   5.701   2.559   5.763
 5046SOL     OW16036   3.838   3.499   6.026
 5046SOL    HW116037   3.814   3.477   5.931
 5046SOL    HW216038   3.898   3.579   6.027
 5047SOL     OW16039   0.102   1.340   2.322
 5047SOL    HW116040   0.084   1.266   2.387
 5047SOL    HW216041   0.192   1.380   2.341
 5048SOL     OW16042   5.891   3.330   1.053
 5048SOL    HW116043   5.850   3.268   1.120
 5048SOL    HW216044   5.823   3.352   0.983
 5049SOL     OW16045   0.994   1.302   1.505
 5049SOL    HW116046   1.062   1.345   1.565
 5049SOL    HW216047   0.955   1.223   1.552
 5050SOL     OW16048   2.252   4.813   0.477
 5050SOL    HW116049   2.257   4.782   0.572
 5050SOL    HW216050   2.283   4.908   0.471
 5051SOL     OW16051   2.484   3.939   6.217
 5051SOL    HW116052   2.445   3.861   6.266
 5051SOL    HW216053   2.584   3.928   6.212
 5052SOL     OW16054   6.184   2.775   0.872
 5052SOL    HW116055   6.260   2.730   0.825
 5052SOL    HW216056   6.219   2.841   0.937
 5053SOL     OW16057   1.545   4.016   1.403
 5053SOL    HW116058   1.450   4.004   1.431
 5053SOL    HW216059   1.574   3.936   1.349
 5054SOL     OW16060   4.015   6.221   5.581
 5054SOL    HW116061   3.988   6.130   5.551
 5054SOL    HW216062   4.087   6.257   5.521
 5055SOL     OW16063   0.660   0.659   3.770
 5055SOL    HW116064   0.716   0.689   3.692
 5055SOL    HW216065   0.717   0.655   3.852
 5056SOL     OW16066   3.487   2.543   5.990
 5056SOL    HW116067   3.395   2.525   5.954
 5056SOL    HW216068   3.524   2.458   6.028
 5057SOL     OW16069   0.462   3.936   2.673
 5057SOL    HW116070   0.460   4.027   2.713
 5057SOL    HW216071   0.451   3.942   2.574
 5058SOL     OW16072   3.688   1.964   0.087
 5058SOL    HW116073   3.725   1.875   0.058
 5058SOL    HW216074   3.739   1.996   0.167
 5059SOL     OW16075   5.342   2.069   2.743
 5059SOL    HW116076   5.380   1.982   2.711
 5059SOL    HW216077   5.371   2.143   2.683
 5060SOL     OW16078   6.390   2.829   5.716
 5060SOL    HW116079   6.384   2.925   5.744
 5060SOL    HW216080   6.402   2.824   5.617
 5061SOL     OW16081   3.935   2.827   5.989
 5061SOL    HW116082   3.903   2.921   5.999
 5061SOL    HW216083   3.858   2.768   5.963
 5062SOL     OW16084   5.692   1.370   3.382
 5062SOL    HW116085   5.644   1.391   3.467
 5062SOL    HW216086   5.684   1.447   3.318
 5063SOL     OW16087   0.626   1.829   1.377
 5063SOL    HW116088   0.697   1.761   1.359
 5063SOL    HW216089   0.561   1.793   1.443
 5064SOL     OW16090   6.066   4.778   1.257
 5064SOL    HW116091   5.974   4.767   1.221
 5064SOL    HW216092   6.098   4.871   1.241
 5065SOL     OW16093   2.156   1.994   2.748
 5065SOL    HW116094   2.227   2.040   2.800
 5065SOL    HW216095   2.160   2.023   2.652
 5066SOL     OW16096   1.692   5.334   3.087
 5066SOL    HW116097   1.715   5.309   2.993
 5066SOL    HW216098   1.728   5.266   3.149
 5067SOL     OW16099   5.216   2.446   0.839
 5067SOL    HW116100   5.285   2.517   0.856
 5067SOL    HW216101   5.125   2.483   0.860
 5068SOL     OW16102   1.092   6.601   1.110
 5068SOL    HW116103   1.160   6.629   1.042
 5068SOL    HW216104   1.045   6.682   1.146
 5069SOL     OW16105   4.234   4.507   5.885
 5069SOL    HW116106   4.254   4.476   5.978
 5069SOL    HW216107   4.145   4.553   5.883
 5070SOL     OW16108   6.764   3.833   6.202
 5070SOL    HW116109   6.829   3.868   6.136
 5070SOL    HW216110   6.791   3.741   6.230
 5071SOL     OW16111   2.588   6.512   3.011
 5071SOL    HW116112   2.640   6.459   3.078
 5071SOL    HW216113   2.606   6.476   2.920
 5072SOL     OW16114   0.879   1.812   2.241
 5072SOL    HW116115   0.950   1.807   2.311
 5072SOL    HW216116   0.920   1.796   2.151
 5073SOL     OW16117   1.795   1.406   3.724
 5073SOL    HW116118   1.827   1.443   3.637
 5073SOL    HW216119   1.824   1.311   3.733
 5074SOL     OW16120   3.640   2.060   1.023
 5074SOL    HW116121   3.682   2.031   0.937
 5074SOL    HW216122   3.542   2.074   1.008
 5075SOL     OW16123   6.408   2.472   0.374
 5075SOL    HW116124   6.383   2.551   0.430
 5075SOL    HW216125   6.496   2.436   0.406
 5076SOL     OW16126   6.851   1.067   5.937
 5076SOL    HW116127   6.769   1.114   5.970
 5076SOL    HW216128   6.908   1.131   5.886
 5077SOL     OW16129   0.388   4.683   4.102
 5077SOL    HW116130   0.361   4.659   4.008
 5077SOL    HW216131   0.485   4.663   4.115
 5078SOL     OW16132   6.301   2.386   3.166
 5078SOL    HW116133   6.325   2.295   3.131
 5078SOL    HW216134   6.376   2.450   3.150
 5079SOL     OW16135   1.940   4.127   4.882
 5079SOL    HW116136   1.938   4.223   4.853
 5079SOL    HW216137   1.847   4.091   4.881
 5080SOL     OW16138   6.574   5.458   0.051
 5080SOL    HW116139   6.519   5.459   6.992
 5080SOL    HW216140   6.560   5.543   0.101
 5081SOL     OW16141   2.532   4.740   5.447
 5081SOL    HW116142   2.441   4.700   5.460
 5081SOL    HW216143   2.583   4.686   5.380
 5082SOL     OW16144   5.812   0.160   2.318
 5082SOL    HW116145   5.738   0.228   2.317
 5082SOL    HW216146   5.849   0.153   2.410
 5083SOL     OW16147   0.991   6.882   3.205
 5083SOL    HW116148   0.948   6.884   3.115
 5083SOL    HW216149   0.956   6.804   3.257
 5084SOL     OW16150   3.444   5.250   5.923
 5084SOL    HW116151   3.457   5.277   5.828
 5084SOL    HW216152   3.453   5.150   5.930
 5085SOL     OW16153   0.422   4.093   5.712
 5085SOL    HW116154   0.494   4.154   5.682
 5085SOL    HW216155   0.442   4.060   5.805
 5086SOL     OW16156   0.965   4.420   2.301
 5086SOL    HW116157   1.033   4.353   2.331
 5086SOL    HW216158   0.974   4.436   2.203
 5087SOL     OW16159   6.998   5.601   1.635
 5087SOL    HW116160   6.953   5.590   1.546
 5087SOL    HW216161   6.941   5.559   1.706
 5088SOL     OW16162   4.490   4.927   1.906
 5088SOL    HW116163   4.457   5.021   1.907
 5088SOL    HW216164   4.560   4.915   1.976
 5089SOL     OW16165   5.222   6.740   5.609
 5089SOL    HW116166   5.174   6.676   5.549
 5089SOL    HW216167   5.302   6.776   5.562
 5090SOL     OW16168   2.460   6.611   4.332
 5090SOL    HW116169   2.521   6.594   4.254
 5090SOL    HW216170   2.513   6.644   4.410
 5091SOL     OW16171   6.193   6.230   6.142
 5091SOL    HW116172   6.274   6.244   6.199
 5091SOL    HW216173   6.221   6.230   6.046
 5092SOL     OW16174   3.932   3.052   4.159
 5092SOL    HW116175   3.984   3.124   4.205
 5092SOL    HW216176   3.895   2.989   4.227
 5093SOL     OW16177   3.440   2.092   4.007
 5093SOL    HW116178   3.520   2.149   4.023
 5093SOL    HW216179   3.463   1.995   4.022
 5094SOL     OW16180   2.037   6.094   5.198
 5094SOL    HW116181   1.957   6.074   5.254
 5094SOL    HW216182   2.011   6.098   5.101
 5095SOL     OW16183   6.863   1.445   3.278
 5095SOL    HW116184   6.841   1.542   3.289
 5095SOL    HW216185   6.963   1.434   3.274
 5096SOL     OW16186   6.211   2.812   6.277
 5096SOL    HW116187   6.140   2.748   6.307
 5096SOL    HW216188   6.297   2.793   6.324
 5097SOL     OW16189   1.032   1.535   5.301
 5097SOL    HW116190   1.122   1.535   5.255
 5097SOL    HW216191   0.994   1.627   5.297
 5098SOL     OW16192   2.979   1.883   0.970
 5098SOL    HW116193   2.990   1.981   0.984
 5098SOL    HW216194   3.062   1.846   0.927
 5099SOL     OW16195   1.970   5.452   2.865
 5099SOL    HW116196   1.899   5.517   2.893
 5099SOL    HW216197   1.931   5.388   2.798
 5100SOL     OW16198   5.727   3.684   1.779
 5100SOL    HW116199   5.631   3.656   1.785
 5100SOL    HW216200   5.777   3.644   1.856
 5101SOL     OW16201   3.528   1.379   5.201
 5101SOL    HW116202   3.473   1.383   5.284
 5101SOL    HW216203   3.484   1.320   5.134
 5102SOL     OW16204   5.853   4.401   5.170
 5102SOL    HW116205   5.936   4.375   5.219
 5102SOL    HW216206   5.828   4.330   5.104
 5103SOL     OW16207   0.933   0.730   5.750
 5103SOL    HW116208   0.882   0.688   5.675
 5103SOL    HW216209   0.900   0.693   5.837
 5104SOL     OW16210   3.794   3.859   3.403
 5104SOL    HW116211   3.887   3.830   3.379
 5104SOL    HW216212   3.728   3.805   3.351
 5105SOL     OW16213   4.041   3.144   6.967
 5105SOL    HW116214   4.052   3.192   0.030
 5105SOL    HW216215   4.111   3.073   6.958
 5106SOL     OW16216   3.570   1.275   1.546
 5106SOL    HW116217   3.530   1.216   1.616
 5106SOL    HW216218   3.634   1.222   1.491
 5107SOL     OW16219   5.881   5.141   6.914
 5107SOL    HW116220   5.873   5.219   6.852
 5107SOL    HW216221   5.923   5.172   7.000
 5108SOL     OW16222   3.962   4.382   1.486
 5108SOL    HW116223   3.994   4.445   1.416
 5108SOL    HW216224   3.927   4.299   1.444
 5109SOL     OW16225   1.717   2.532   2.338
 5109SOL    HW116226   1.631   2.540   2.287
 5109SOL    HW216227   1.737   2.435   2.354
 5110SOL     OW16228   3.954   6.105   5.024
 5110SOL    HW116229   4.004   6.154   5.095
 5110SOL    HW216230   4.007   6.024   4.997
 5111SOL     OW16231   2.033   5.663   5.664
 5111SOL    HW116232   2.076   5.573   5.670
 5111SOL    HW216233   1.977   5.668   5.581
 5112SOL     OW16234   0.932   4.731   2.556
 5112SOL    HW116235   1.030   4.733   2.538
 5112SOL    HW216236   0.916   4.696   2.648
 5113SOL     OW16237   2.270   4.055   0.744
 5113SOL    HW116238   2.245   4.117   0.670
 5113SOL    HW216239   2.222   3.968   0.732
 5114SOL     OW16240   4.568   4.758   1.666
 5114SOL    HW116241   4.588   4.663   1.644
 5114SOL    HW216242   4.589   4.775   1.763
 5115SOL     OW16243   1.311   4.818   0.662
 5115SOL    HW116244   1.409   4.836   0.653
 5115SOL    HW216245   1.290   4.729   0.621
 5116SOL     OW16246   0.565   6.304   5.437
 5116SOL    HW116247   0.614   6.330   5.520
 5116SOL    HW216248   0.489   6.367   5.422
 5117SOL     OW16249   7.013   3.350   3.766
 5117SOL    HW116250   0.076   3.391   3.739
 5117SOL    HW216251   6.969   3.310   3.686
 5118SOL     OW16252   4.099   5.150   6.869
 5118SOL    HW116253   4.029   5.162   6.939
 5118SOL    HW216254   4.061   5.100   6.791
 5119SOL     OW16255   5.698   1.558   0.936
 5119SOL    HW116256   5.752   1.617   0.876
 5119SOL    HW216257   5.760   1.508   0.997
 5120SOL     OW16258   5.791   6.734   5.913
 5120SOL    HW116259   5.798   6.723   5.814
 5120SOL    HW216260   5.877   6.706   5.956
 5121SOL     OW16261   1.134   3.200   0.157
 5121SOL    HW116262   1.069   3.144   0.105
 5121SOL    HW216263   1.085   3.272   0.205
 5122SOL     OW16264   4.541   4.784   3.452
 5122SOL    HW116265   4.582   4.723   3.384
 5122SOL    HW216266   4.479   4.731   3.510
 5123SOL     OW16267   4.980   2.425   1.608
 5123SOL    HW116268   5.049   2.372   1.657
 5123SOL    HW216269   4.926   2.363   1.551
 5124SOL     OW16270   0.665   5.976   4.402
 5124SOL    HW116271   0.629   5.883   4.411
 5124SOL    HW216272   0.596   6.034   4.359
 5125SOL     OW16273   6.049   2.373   3.717
 5125SOL    HW116274   5.990   2.350   3.640
 5125SOL    HW216275   6.014   2.330   3.800
 5126SOL     OW16276   2.455   0.949   2.055
 5126SOL    HW116277   2.433   1.046   2.045
 5126SOL    HW216278   2.371   0.897   2.073
 5127SOL     OW16279   2.114   6.909   6.890
 5127SOL    HW116280   2.026   6.937   6.929
 5127SOL    HW216281   2.172   6.869   6.961
 5128SOL     OW16282   4.398   6.654   1.189
 5128SOL    HW116283   4.355   6.737   1.222
 5128SOL    HW216284   4.450   6.611   1.263
 5129SOL     OW16285   6.241   6.006   0.219
 5129SOL    HW116286   6.336   6.010   0.248
 5129SOL    HW216287   6.200   6.097   0.224
 5130SOL     OW16288   6.212   4.713   2.738
 5130SOL    HW116289   6.138   4.770   2.775
 5130SOL    HW216290   6.181   4.618   2.734
 5131SOL     OW16291   2.568   2.482   2.576
 5131SOL    HW116292   2.571   2.576   2.610
 5131SOL    HW216293   2.620   2.423   2.638
 5132SOL     OW16294   2.329   5.848   5.388
 5132SOL    HW116295   2.397   5.917   5.413
 5132SOL    HW216296   2.352   5.761   5.432
 5133SOL     OW16297   3.586   6.265   5.142
 5133SOL    HW116298   3.575   6.345   5.083
 5133SOL    HW216299   3.499   6.242   5.184
 5134SOL     OW16300   6.694   3.796   6.617
 5134SOL    HW116301   6.671   3.704   6.584
 5134SOL    HW216302   6.792   3.801   6.637
 5135SOL     OW16303   6.927   1.733   4.177
 5135SOL    HW116304   6.870   1.658   4.210
 5135SOL    HW216305   6.903   1.817   4.226
 5136SOL     OW16306   3.100   1.961   6.514
 5136SOL    HW116307   3.016   1.967   6.459
 5136SOL    HW216308   3.104   2.039   6.576
 5137SOL     OW16309   3.976   3.622   0.009
 5137SOL    HW116310   3.938   3.714   0.000
 5137SOL    HW216311   4.075   3.625   7.021
 5138SOL     OW16312   2.517   3.666   5.793
 5138SOL    HW116313   2.424   3.642   5.818
 5138SOL    HW216314   2.516   3.723   5.711
 5139SOL     OW16315   0.718   6.704   3.480
 5139SOL    HW116316   0.735   6.791   3.526
 5139SOL    HW216317   0.793   6.684   3.417
 5140SOL     OW16318   3.071   3.068   1.483
 5140SOL    HW116319   3.021   2.983   1.499
 5140SOL    HW216320   3.163   3.062   1.522
 5141SOL     OW16321   1.192   4.268   5.938
 5141SOL    HW116322   1.154   4.361   5.936
 5141SOL    HW216323   1.145   4.214   6.008
 5142SOL     OW16324   5.917   3.285   2.176
 5142SOL    HW116325   5.970   3.288   2.260
 5142SOL    HW216326   5.827   3.245   2.194
 5143SOL     OW16327   6.715   4.964   5.407
 5143SOL    HW116328   6.718   4.864   5.411
 5143SOL    HW216329   6.644   4.998   5.468
 5144SOL     OW16330   2.103   2.019   5.017
 5144SOL    HW116331   2.183   2.042   5.072
 5144SOL    HW216332   2.047   1.952   5.066
 5145SOL     OW16333   3.451   5.721   5.819
 5145SOL    HW116334   3.500   5.774   5.888
 5145SOL    HW216335   3.357   5.753   5.814
 5146SOL     OW16336   3.059   4.767   0.763
 5146SOL    HW116337   3.016   4.808   0.682
 5146SOL    HW216338   2.990   4.717   0.816
 5147SOL     OW16339   6.834   5.253   6.549
 5147SOL    HW116340   6.735   5.242   6.549
 5147SOL    HW216341   6.861   5.310   6.471
 5148SOL     OW16342   0.263   0.796   0.868
 5148SOL    HW116343   0.298   0.889   0.861
 5148SOL    HW216344   0.277   0.762   0.961
 5149SOL     OW16345   6.681   0.243   5.852
 5149SOL    HW116346   6.695   0.164   5.793
 5149SOL    HW216347   6.738   0.319   5.820
 5150SOL     OW16348   2.361   5.401   5.376
 5150SOL    HW116349   2.314   5.416   5.289
 5150SOL    HW216350   2.371   5.488   5.424
 5151SOL     OW16351   3.961   0.644   5.408
 5151SOL    HW116352   3.891   0.697   5.456
 5151SOL    HW216353   4.010   0.587   5.474
 5152SOL     OW16354   0.354   4.969   6.835
 5152SOL    HW116355   0.415   4.890   6.843
 5152SOL    HW216356   0.372   5.033   6.910
 5153SOL     OW16357   1.627   2.303   1.287
 5153SOL    HW116358   1.635   2.377   1.220
 5153SOL    HW216359   1.532   2.293   1.315
 5154SOL     OW16360   1.817   4.888   4.809
 5154SOL    HW116361   1.823   4.804   4.864
 5154SOL    HW216362   1.721   4.913   4.797
 5155SOL     OW16363   4.182   0.270   2.426
 5155SOL    HW116364   4.258   0.334   2.421
 5155SOL    HW216365   4.214   0.182   2.463
 5156SOL     OW16366   5.429   3.095   5.837
 5156SOL    HW116367   5.405   3.190   5.855
 5156SOL    HW216368   5.362   3.055   5.775
 5157SOL     OW16369   6.581   1.786   4.174
 5157SOL    HW116370   6.531   1.799   4.260
 5157SOL    HW216371   6.520   1.748   4.105
 5158SOL     OW16372   3.562   0.558   1.002
 5158SOL    HW116373   3.523   0.535   0.913
 5158SOL    HW216374   3.541   0.653   1.023
 5159SOL     OW16375   2.172   3.295   4.743
 5159SOL    HW116376   2.080   3.269   4.774
 5159SOL    HW216377   2.239   3.233   4.783
 5160SOL     OW16378   2.718   2.392   3.867
 5160SOL    HW116379   2.707   2.298   3.899
 5160SOL    HW216380   2.758   2.447   3.940
 5161SOL     OW16381   2.116   3.446   6.537
 5161SOL    HW116382   2.051   3.496   6.595
 5161SOL    HW216383   2.074   3.361   6.505
 5162SOL     OW16384   6.607   5.775   4.655
 5162SOL    HW116385   6.576   5.751   4.563
 5162SOL    HW216386   6.565   5.714   4.721
 5163SOL     OW16387   5.400   4.027   1.100
 5163SOL    HW116388   5.372   4.111   1.054
 5163SOL    HW216389   5.362   4.026   1.193
 5164SOL     OW16390   6.489   6.331   4.601
 5164SOL    HW116391   6.428   6.404   4.569
 5164SOL    HW216392   6.524   6.354   4.691
 5165SOL     OW16393   5.543   3.548   5.139
 5165SOL    HW116394   5.574   3.626   5.084
 5165SOL    HW216395   5.452   3.520   5.109
 5166SOL     OW16396   1.585   6.925   2.694
 5166SOL    HW116397   1.614   6.923   2.598
 5166SOL    HW216398   1.529   7.007   2.710
 5167SOL     OW16399   2.068   0.174   5.876
 5167SOL    HW116400   1.978   0.212   5.855
 5167SOL    HW216401   2.083   0.176   5.975
 5168SOL     OW16402   3.600   2.032   2.555
 5168SOL    HW116403   3.507   2.048   2.522
 5168SOL    HW216404   3.638   1.950   2.512
 5169SOL     OW16405   3.958   4.682   6.568
 5169SOL    HW116406   3.878   4.734   6.540
 5169SOL    HW216407   3.930   4.595   6.608
 5170SOL     OW16408   3.977   5.272   3.973
 5170SOL    HW116409   3.990   5.265   4.072
 5170SOL    HW216410   3.909   5.206   3.943
 5171SOL     OW16411   2.609   4.814   5.043
 5171SOL    HW116412   2.556   4.826   4.959
 5171SOL    HW216413   2.674   4.738   5.031
 5172SOL     OW16414   1.695   4.334   6.540
 5172SOL    HW116415   1.772   4.395   6.525
 5172SOL    HW216416   1.671   4.333   6.637
 5173SOL     OW16417   6.928   2.501   4.981
 5173SOL    HW116418   6.978   2.473   5.063
 5173SOL    HW216419   6.984   2.481   4.900
 5174SOL     OW16420   2.276   5.012   6.372
 5174SOL    HW116421   2.287   5.023   6.274
 5174SOL    HW216422   2.311   4.922   6.400
 5175SOL     OW16423   0.151   5.760   6.292
 5175SOL    HW116424   0.059   5.756   6.254
 5175SOL    HW216425   0.148   5.794   6.386
 5176SOL     OW16426   5.715   4.034   6.356
 5176SOL    HW116427   5.752   4.113   6.404
 5176SOL    HW216428   5.622   4.016   6.387
 5177SOL     OW16429   5.719   5.613   6.079
 5177SOL    HW116430   5.728   5.516   6.056
 5177SOL    HW216431   5.783   5.635   6.153
 5178SOL     OW16432   3.026   4.068   0.406
 5178SOL    HW116433   2.999   4.034   0.496
 5178SOL    HW216434   3.002   4.001   0.336
 5179SOL     OW16435   3.225   6.356   5.123
 5179SOL    HW116436   3.221   6.315   5.032
 5179SOL    HW216437   3.160   6.310   5.183
 5180SOL     OW16438   4.418   1.598   0.102
 5180SOL    HW116439   4.480   1.662   0.057
 5180SOL    HW216440   4.466   1.551   0.176
 5181SOL     OW16441   3.267   5.931   2.378
 5181SOL    HW116442   3.200   5.861   2.355
 5181SOL    HW216443   3.274   5.997   2.303
 5182SOL     OW16444   4.718   4.191   1.293
 5182SOL    HW116445   4.720   4.220   1.198
 5182SOL    HW216446   4.686   4.096   1.298
 5183SOL     OW16447   3.836   0.642   3.906
 5183SOL    HW116448   3.872   0.683   3.990
 5183SOL    HW216449   3.860   0.699   3.828
 5184SOL     OW16450   0.939   2.770   3.149
 5184SOL    HW116451   1.036   2.746   3.136
 5184SOL    HW216452   0.916   2.846   3.088
 5185SOL     OW16453   4.036   0.064   1.339
 5185SOL    HW116454   3.978   7.011   1.365
 5185SOL    HW216455   4.072   0.050   1.247
 5186SOL     OW16456   5.031   4.344   0.007
 5186SOL    HW116457   4.943   4.300   0.025
 5186SOL    HW216458   5.104   4.276   0.014
 5187SOL     OW16459   4.812   2.944   4.195
 5187SOL    HW116460   4.843   2.901   4.111
 5187SOL    HW216461   4.737   2.891   4.235
 5188SOL     OW16462   0.425   0.852   3.798
 5188SOL    HW116463   0.387   0.839   3.707
 5188SOL    HW216464   0.507   0.797   3.809
 5189SOL     OW16465   4.905   6.042   5.938
 5189SOL    HW116466   4.885   5.945   5.956
 5189SOL    HW216467   4.847   6.074   5.864
 5190SOL     OW16468   2.278   2.706   2.026
 5190SOL    HW116469   2.348   2.727   2.095
 5190SOL    HW216470   2.279   2.777   1.955
 5191SOL     OW16471   4.781   0.476   2.436
 5191SOL    HW116472   4.772   0.482   2.337
 5191SOL    HW216473   4.849   0.406   2.459
 5192SOL     OW16474   6.251   4.053   1.232
 5192SOL    HW116475   6.270   4.062   1.330
 5192SOL    HW216476   6.153   4.063   1.216
 5193SOL     OW16477   3.698   4.950   2.208
 5193SOL    HW116478   3.652   5.028   2.251
 5193SOL    HW216479   3.645   4.920   2.129
 5194SOL     OW16480   5.400   0.521   0.388
 5194SOL    HW116481   5.452   0.528   0.303
 5194SOL    HW216482   5.310   0.482   0.368
 5195SOL     OW16483   0.319   6.620   4.961
 5195SOL    HW116484   0.278   6.548   5.018
 5195SOL    HW216485   0.290   6.710   4.994
 5196SOL     OW16486   6.886   3.866   3.743
 5196SOL    HW116487   6.974   3.895   3.704
 5196SOL    HW216488   6.897   3.777   3.787
 5197SOL     OW16489   3.978   5.646   5.413
 5197SOL    HW116490   3.921   5.581   5.464
 5197SOL    HW216491   3.923   5.693   5.345
 5198SOL     OW16492   4.432   1.798   5.327
 5198SOL    HW116493   4.485   1.763   5.404
 5198SOL    HW216494   4.340   1.758   5.329
 5199SOL     OW16495   0.151   5.720   1.348
 5199SOL    HW116496   0.064   5.741   1.392
 5199SOL    HW216497   0.147   5.628   1.309
 5200SOL     OW16498   6.833   0.352   4.593
 5200SOL    HW116499   6.795   0.276   4.541
 5200SOL    HW216500   6.872   0.419   4.529
 5201SOL     OW16501   6.463   4.508   5.563
 5201SOL    HW116502   6.414   4.422   5.573
 5201SOL    HW216503   6.542   4.510   5.625
 5202SOL     OW16504   3.935   2.478   5.874
 5202SOL    HW116505   3.999   2.499   5.799
 5202SOL    HW216506   3.845   2.516   5.853
 5203SOL     OW16507   1.130   0.734   6.374
 5203SOL    HW116508   1.099   0.689   6.290
 5203SOL    HW216509   1.051   0.776   6.420
 5204SOL     OW16510   1.939   0.824   1.880
 5204SOL    HW116511   1.971   0.729   1.880
 5204SOL    HW216512   1.846   0.827   1.843
 5205SOL     OW16513   6.923   0.052   1.799
 5205SOL    HW116514   6.956   0.131   1.748
 5205SOL    HW216515   6.833   0.073   1.837
 5206SOL     OW16516   0.865   5.025   4.500
 5206SOL    HW116517   0.791   5.001   4.437
 5206SOL    HW216518   0.899   4.942   4.544
 5207SOL     OW16519   4.868   0.443   4.905
 5207SOL    HW116520   4.820   0.527   4.929
 5207SOL    HW216521   4.913   0.455   4.816
 5208SOL     OW16522   6.755   1.925   0.143
 5208SOL    HW116523   6.815   1.866   0.198
 5208SOL    HW216524   6.662   1.888   0.145
 5209SOL     OW16525   5.271   6.140   2.446
 5209SOL    HW116526   5.284   6.084   2.364
 5209SOL    HW216527   5.282   6.084   2.527
 5210SOL     OW16528   5.862   4.331   1.144
 5210SOL    HW116529   5.850   4.311   1.046
 5210SOL    HW216530   5.951   4.374   1.158
 5211SOL     OW16531   5.394   2.953   5.320
 5211SOL    HW116532   5.445   3.023   5.369
 5211SOL    HW216533   5.400   2.970   5.222
 5212SOL     OW16534   6.787   4.110   6.873
 5212SOL    HW116535   6.750   4.152   6.957
 5212SOL    HW216536   6.716   4.055   6.829
 5213SOL     OW16537   3.431   3.003   3.327
 5213SOL    HW116538   3.403   3.008   3.423
 5213SOL    HW216539   3.529   2.983   3.322
 5214SOL     OW16540   5.564   3.138   6.127
 5214SOL    HW116541   5.485   3.189   6.092
 5214SOL    HW216542   5.533   3.065   6.187
 5215SOL     OW16543   0.081   5.442   5.061
 5215SOL    HW116544   0.177   5.442   5.033
 5215SOL    HW216545   0.070   5.385   5.142
 5216SOL     OW16546   6.263   3.955   0.959
 5216SOL    HW116547   6.199   3.997   0.894
 5216SOL    HW216548   6.254   3.998   1.048
 5217SOL     OW16549   3.924   6.528   2.759
 5217SOL    HW116550   3.894   6.513   2.665
 5217SOL    HW216551   3.947   6.625   2.772
 5218SOL     OW16552   5.592   0.103   0.582
 5218SOL    HW116553   5.644   0.123   0.499
 5218SOL    HW216554   5.558   0.189   0.621
 5219SOL     OW16555   3.952   1.627   4.817
 5219SOL    HW116556   4.038   1.659   4.856
 5219SOL    HW216557   3.964   1.613   4.718
 5220SOL     OW16558   1.871   4.778   4.537
 5220SOL    HW116559   1.847   4.804   4.631
 5220SOL    HW216560   1.825   4.693   4.513
 5221SOL     OW16561   5.218   5.781   1.177
 5221SOL    HW116562   5.170   5.806   1.262
 5221SOL    HW216563   5.218   5.682   1.167
 5222SOL     OW16564   6.640   3.718   2.344
 5222SOL    HW116565   6.589   3.661   2.279
 5222SOL    HW216566   6.641   3.812   2.312
 5223SOL     OW16567   0.252   2.738   1.204
 5223SOL    HW116568   0.176   2.776   1.151
 5223SOL    HW216569   0.299   2.669   1.150
 5224SOL     OW16570   1.827   1.142   4.445
 5224SOL    HW116571   1.905   1.192   4.406
 5224SOL    HW216572   1.776   1.203   4.506
 5225SOL     OW16573   6.859   2.249   5.871
 5225SOL    HW116574   6.849   2.200   5.785
 5225SOL    HW216575   6.780   2.232   5.929
 5226SOL     OW16576   7.012   6.427   4.277
 5226SOL    HW116577   6.971   6.337   4.265
 5226SOL    HW216578   0.086   6.422   4.259
 5227SOL     OW16579   1.439   3.106   5.909
 5227SOL    HW116580   1.526   3.153   5.891
 5227SOL    HW216581   1.363   3.163   5.879
 5228SOL     OW16582   1.247   2.287   4.931
 5228SOL    HW116583   1.255   2.379   4.892
 5228SOL    HW216584   1.302   2.223   4.877
 5229SOL     OW16585   3.642   1.736   6.535
 5229SOL    HW116586   3.583   1.697   6.464
 5229SOL    HW216587   3.633   1.835   6.535
 5230SOL     OW16588   6.739   0.271   2.129
 5230SOL    HW116589   6.810   0.341   2.126
 5230SOL    HW216590   6.723   0.236   2.037
 5231SOL     OW16591   6.239   3.460   2.090
 5231SOL    HW116592   6.168   3.424   2.150
 5231SOL    HW216593   6.262   3.391   2.021
 5232SOL     OW16594   1.738   1.890   5.709
 5232SOL    HW116595   1.814   1.933   5.660
 5232SOL    HW216596   1.755   1.792   5.718
 5233SOL     OW16597   3.045   6.806   3.577
 5233SOL    HW116598   2.985   6.727   3.586
 5233SOL    HW216599   3.140   6.776   3.567
 5234SOL     OW16600   2.618   2.339   6.513
 5234SOL    HW116601   2.626   2.322   6.611
 5234SOL    HW216602   2.584   2.257   6.467
 5235SOL     OW16603   2.431   2.695   1.651
 5235SOL    HW116604   2.393   2.604   1.632
 5235SOL    HW216605   2.435   2.748   1.566
 5236SOL     OW16606   3.019   4.910   2.395
 5236SOL    HW116607   2.979   5.000   2.378
 5236SOL    HW216608   3.022   4.893   2.494
 5237SOL     OW16609   1.744   1.899   2.122
 5237SOL    HW116610   1.818   1.889   2.189
 5237SOL    HW216611   1.663   1.850   2.155
 5238SOL     OW16612   6.416   0.775   2.987
 5238SOL    HW116613   6.479   0.700   2.966
 5238SOL    HW216614   6.359   0.750   3.066
 5239SOL     OW16615   3.003   4.329   0.362
 5239SOL    HW116616   2.999   4.231   0.382
 5239SOL    HW216617   2.976   4.345   0.268
 5240SOL     OW16618   1.921   4.260   5.849
 5240SOL    HW116619   1.931   4.294   5.943
 5240SOL    HW216620   1.965   4.170   5.842
 5241SOL     OW16621   1.738   6.278   3.592
 5241SOL    HW116622   1.813   6.341   3.612
 5241SOL    HW216623   1.770   6.184   3.598
 5242SOL     OW16624   4.329   6.015   5.302
 5242SOL    HW116625   4.388   6.038   5.225
 5242SOL    HW216626   4.352   6.073   5.380
 5243SOL     OW16627   2.262   5.893   3.751
 5243SOL    HW116628   2.196   5.925   3.817
 5243SOL    HW216629   2.218   5.883   3.661
 5244SOL     OW16630   5.095   1.245   6.133
 5244SOL    HW116631   5.013   1.218   6.185
 5244SOL    HW216632   5.082   1.336   6.095
 5245SOL     OW16633   3.065   3.900   2.206
 5245SOL    HW116634   3.050   3.805   2.180
 5245SOL    HW216635   3.022   3.918   2.295
 5246SOL     OW16636   6.720   3.233   6.065
 5246SOL    HW116637   6.729   3.175   5.984
 5246SOL    HW216638   6.746   3.327   6.043
 5247SOL     OW16639   4.600   1.295   6.074
 5247SOL    HW116640   4.659   1.374   6.056
 5247SOL    HW216641   4.529   1.290   6.003
 5248SOL     OW16642   4.789   0.723   3.389
 5248SOL    HW116643   4.833   0.778   3.318
 5248SOL    HW216644   4.713   0.775   3.429
 5249SOL     OW16645   0.007   5.336   1.762
 5249SOL    HW116646   6.944   5.289   1.751
 5249SOL    HW216647   0.080   5.284   1.718
 5250SOL     OW16648   2.051   5.210   0.704
 5250SOL    HW116649   2.015   5.303   0.693
 5250SOL    HW216650   2.142   5.215   0.747
 5251SOL     OW16651   0.803   4.753   0.024
 5251SOL    HW116652   0.751   4.668   0.018
 5251SOL    HW216653   0.880   4.740   0.086
 5252SOL     OW16654   3.730   5.312   3.030
 5252SOL    HW116655   3.827   5.320   3.008
 5252SOL    HW216656   3.719   5.246   3.105
 5253SOL     OW16657   7.022   6.092   4.869
 5253SOL    HW116658   0.084   6.133   4.839
 5253SOL    HW216659   6.946   6.151   4.843
 5254SOL     OW16660   4.562   6.280   2.522
 5254SOL    HW116661   4.488   6.242   2.578
 5254SOL    HW216662   4.639   6.306   2.581
 5255SOL     OW16663   0.099   1.285   6.122
 5255SOL    HW116664   0.046   1.206   6.153
 5255SOL    HW216665   0.038   1.363   6.108
 5256SOL     OW16666   4.151   2.190   2.662
 5256SOL    HW116667   4.128   2.262   2.727
 5256SOL    HW216668   4.147   2.101   2.708
 5257SOL     OW16669   5.464   1.168   6.937
 5257SOL    HW116670   5.426   1.131   6.853
 5257SOL    HW216671   5.541   1.111   6.967
 5258SOL     OW16672   5.652   1.429   5.102
 5258SOL    HW116673   5.658   1.524   5.071
 5258SOL    HW216674   5.736   1.380   5.078
 5259SOL     OW16675   4.995   5.627   4.063
 5259SOL    HW116676   4.916   5.683   4.035
 5259SOL    HW216677   5.064   5.629   3.991
 5260SOL     OW16678   1.824   5.876   1.582
 5260SOL    HW116679   1.877   5.889   1.665
 5260SOL    HW216680   1.727   5.877   1.604
 5261SOL     OW16681   6.215   4.828   7.017
 5261SOL    HW116682   6.300   4.782   0.017
 5261SOL    HW216683   6.141   4.796   0.052
 5262SOL     OW16684   2.062   2.087   1.878
 5262SOL    HW116685   2.111   2.113   1.961
 5262SOL    HW216686   2.042   1.989   1.882
 5263SOL     OW16687   1.138   6.048   3.390
 5263SOL    HW116688   1.131   6.047   3.490
 5263SOL    HW216689   1.201   6.121   3.363
 5264SOL     OW16690   6.737   2.369   2.223
 5264SOL    HW116691   6.690   2.436   2.164
 5264SOL    HW216692   6.747   2.407   2.315
 5265SOL     OW16693   0.048   5.982   5.945
 5265SOL    HW116694   0.095   6.049   5.888
 5265SOL    HW216695   0.111   5.948   6.015
 5266SOL     OW16696   1.708   7.010   6.155
 5266SOL    HW116697   1.771   6.968   6.090
 5266SOL    HW216698   1.689   0.080   6.129
 5267SOL     OW16699   6.037   1.364   4.650
 5267SOL    HW116700   6.111   1.307   4.687
 5267SOL    HW216701   6.043   1.364   4.550
 5268SOL     OW16702   5.614   0.004   5.737
 5268SOL    HW116703   5.545   7.008   5.807
 5268SOL    HW216704   5.635   0.102   5.738
 5269SOL     OW16705   1.303   0.585   4.130
 5269SOL    HW116706   1.289   0.487   4.136
 5269SOL    HW216707   1.273   0.628   4.216
 5270SOL     OW16708   0.690   1.392   6.623
 5270SOL    HW116709   0.687   1.389   6.523
 5270SOL    HW216710   0.775   1.435   6.653
 5271SOL     OW16711   1.242   5.703   5.812
 5271SOL    HW116712   1.286   5.630   5.865
 5271SOL    HW216713   1.295   5.787   5.821
 5272SOL     OW16714   4.203   0.444   6.180
 5272SOL    HW116715   4.128   0.379   6.165
 5272SOL    HW216716   4.255   0.417   6.261
 5273SOL     OW16717   2.280   1.490   3.484
 5273SOL    HW116718   2.191   1.528   3.458
 5273SOL    HW216719   2.279   1.464   3.580
 5274SOL     OW16720   5.543   4.393   1.524
 5274SOL    HW116721   5.564   4.414   1.620
 5274SOL    HW216722   5.622   4.414   1.467
 5275SOL     OW16723   5.533   1.146   6.242
 5275SOL    HW116724   5.627   1.171   6.266
 5275SOL    HW216725   5.469   1.197   6.300
 5276SOL     OW16726   3.578   6.533   1.473
 5276SOL    HW116727   3.601   6.619   1.428
 5276SOL    HW216728   3.529   6.552   1.559
 5277SOL     OW16729   1.956   3.650   1.747
 5277SOL    HW116730   1.921   3.678   1.836
 5277SOL    HW216731   1.887   3.668   1.677
 5278SOL     OW16732   3.617   3.630   2.093
 5278SOL    HW116733   3.599   3.565   2.166
 5278SOL    HW216734   3.532   3.675   2.066
 5279SOL     OW16735   1.811   6.356   2.767
 5279SOL    HW116736   1.726   6.408   2.758
 5279SOL    HW216737   1.813   6.311   2.857
 5280SOL     OW16738   3.972   0.483   4.241
 5280SOL    HW116739   3.889   0.523   4.279
 5280SOL    HW216740   3.957   0.385   4.225
 5281SOL     OW16741   6.585   2.618   3.674
 5281SOL    HW116742   6.658   2.561   3.712
 5281SOL    HW216743   6.523   2.646   3.748
 5282SOL     OW16744   4.714   2.650   1.274
 5282SOL    HW116745   4.799   2.625   1.229
 5282SOL    HW216746   4.733   2.674   1.370
 5283SOL     OW16747   4.920   4.583   5.539
 5283SOL    HW116748   4.880   4.495   5.565
 5283SOL    HW216749   4.899   4.603   5.443
 5284SOL     OW16750   5.233   2.869   4.099
 5284SOL    HW116751   5.150   2.860   4.045
 5284SOL    HW216752   5.227   2.950   4.157
 5285SOL     OW16753   4.213   6.440   2.640
 5285SOL    HW116754   4.260   6.356   2.665
 5285SOL    HW216755   4.119   6.418   2.611
 5286SOL     OW16756   2.365   5.180   2.015
 5286SOL    HW116757   2.355   5.222   2.105
 5286SOL    HW216758   2.286   5.203   1.958
 5287SOL     OW16759   1.275   0.978   2.347
 5287SOL    HW116760   1.213   1.020   2.414
 5287SOL    HW216761   1.332   0.910   2.392
 5288SOL     OW16762   4.096   0.378   0.963
 5288SOL    HW116763   4.096   0.336   1.054
 5288SOL    HW216764   4.002   0.399   0.937
 5289SOL     OW16765   1.712   6.681   1.362
 5289SOL    HW116766   1.622   6.640   1.376
 5289SOL    HW216767   1.776   6.644   1.430
 5290SOL     OW16768   5.496   5.806   6.865
 5290SOL    HW116769   5.574   5.756   6.903
 5290SOL    HW216770   5.421   5.806   6.930
 5291SOL     OW16771   1.006   5.434   0.055
 5291SOL    HW116772   1.009   5.523   0.101
 5291SOL    HW216773   1.055   5.366   0.110
 5292SOL     OW16774   5.456   1.731   1.041
 5292SOL    HW116775   5.522   1.658   1.059
 5292SOL    HW216776   5.365   1.702   1.070
 5293SOL     OW16777   1.935   1.332   4.088
 5293SOL    HW116778   1.880   1.415   4.081
 5293SOL    HW216779   1.967   1.321   4.182
 5294SOL     OW16780   3.456   2.493   6.321
 5294SOL    HW116781   3.500   2.410   6.286
 5294SOL    HW216782   3.368   2.506   6.275
 5295SOL     OW16783   6.725   1.901   3.072
 5295SOL    HW116784   6.666   1.942   3.003
 5295SOL    HW216785   6.730   1.802   3.057
 5296SOL     OW16786   0.105   2.847   6.917
 5296SOL    HW116787   0.014   2.810   6.899
 5296SOL    HW216788   0.154   2.786   6.980
 5297SOL     OW16789   0.970   2.409   1.790
 5297SOL    HW116790   1.060   2.453   1.788
 5297SOL    HW216791   0.924   2.424   1.703
 5298SOL     OW16792   1.299   4.476   1.899
 5298SOL    HW116793   1.352   4.401   1.939
 5298SOL    HW216794   1.303   4.471   1.799
 5299SOL     OW16795   3.875   0.049   0.495
 5299SOL    HW116796   3.899   0.145   0.481
 5299SOL    HW216797   3.955   0.000   0.530
 5300SOL     OW16798   6.780   5.056   3.645
 5300SOL    HW116799   6.721   5.036   3.567
 5300SOL    HW216800   6.865   5.004   3.637
 5301SOL     OW16801   5.989   0.537   6.698
 5301SOL    HW116802   5.965   0.601   6.771
 5301SOL    HW216803   6.060   0.577   6.640
 5302SOL     OW16804   6.856   4.274   3.854
 5302SOL    HW116805   6.807   4.357   3.827
 5302SOL    HW216806   6.792   4.197   3.858
 5303SOL     OW16807   1.758   4.462   3.275
 5303SOL    HW116808   1.759   4.371   3.233
 5303SOL    HW216809   1.791   4.529   3.208
 5304SOL     OW16810   4.472   2.279   5.921
 5304SOL    HW116811   4.459   2.279   5.822
 5304SOL    HW216812   4.386   2.255   5.966
 5305SOL     OW16813   3.431   1.952   5.141
 5305SOL    HW116814   3.388   1.865   5.164
 5305SOL    HW216815   3.485   1.942   5.057
 5306SOL     OW16816   2.617   6.959   3.703
 5306SOL    HW116817   2.712   6.992   3.705
 5306SOL    HW216818   2.615   6.861   3.723
 5307SOL     OW16819   5.550   6.497   6.732
 5307SOL    HW116820   5.589   6.579   6.690
 5307SOL    HW216821   5.469   6.470   6.680
 5308SOL     OW16822   0.068   1.452   1.866
 5308SOL    HW116823   7.023   1.450   1.793
 5308SOL    HW216824   0.023   1.438   1.954
 5309SOL     OW16825   4.013   3.131   4.712
 5309SOL    HW116826   3.953   3.058   4.678
 5309SOL    HW216827   4.104   3.121   4.672
 5310SOL     OW16828   5.069   2.647   6.991
 5310SOL    HW116829   5.050   2.745   7.002
 5310SOL    HW216830   5.156   2.625   0.011
 5311SOL     OW16831   6.558   6.386   0.087
 5311SOL    HW116832   6.549   6.321   0.163
 5311SOL    HW216833   6.612   6.344   0.014
 5312SOL     OW16834   0.251   3.679   1.431
 5312SOL    HW116835   0.253   3.764   1.380
 5312SOL    HW216836   0.317   3.683   1.506
 5313SOL     OW16837   0.345   6.743   6.949
 5313SOL    HW116838   0.265   6.688   6.922
 5313SOL    HW216839   0.328   6.839   6.928
 5314SOL     OW16840   3.863   5.187   1.127
 5314SOL    HW116841   3.832   5.210   1.219
 5314SOL    HW216842   3.880   5.271   1.076
 5315SOL     OW16843   5.569   1.447   2.116
 5315SOL    HW116844   5.539   1.512   2.047
 5315SOL    HW216845   5.591   1.360   2.073
 5316SOL     OW16846   5.164   5.411   4.298
 5316SOL    HW116847   5.228   5.463   4.354
 5316SOL    HW216848   5.213   5.367   4.223
 5317SOL     OW16849   6.355   5.058   1.797
 5317SOL    HW116850   6.296   4.993   1.749
 5317SOL    HW216851   6.310   5.148   1.800
 5318SOL     OW16852   6.965   2.563   3.941
 5318SOL    HW116853   6.878   2.546   3.894
 5318SOL    HW216854   0.004   2.610   3.879
 5319SOL     OW16855   3.055   6.159   2.722
 5319SOL    HW116856   2.962   6.178   2.692
 5319SOL    HW216857   3.066   6.060   2.735
 5320SOL     OW16858   6.793   2.373   0.053
 5320SOL    HW116859   6.863   2.443   0.071
 5320SOL    HW216860   6.704   2.406   0.083
 5321SOL     OW16861   2.900   4.540   6.890
 5321SOL    HW116862   2.813   4.523   6.846
 5321SOL    HW216863   2.892   4.621   6.949
 5322SOL     OW16864   2.737   6.722   0.119
 5322SOL    HW116865   2.805   6.761   0.179
 5322SOL    HW216866   2.678   6.660   0.171
 5323SOL     OW16867   6.066   3.109   0.510
 5323SOL    HW116868   5.994   3.154   0.457
 5323SOL    HW216869   6.084   3.161   0.593
 5324SOL     OW16870   4.094   3.503   1.567
 5324SOL    HW116871   4.135   3.458   1.646
 5324SOL    HW216872   4.120   3.599   1.565
 5325SOL     OW16873   3.252   6.036   5.451
 5325SOL    HW116874   3.237   6.133   5.429
 5325SOL    HW216875   3.329   6.028   5.515
 5326SOL     OW16876   6.438   0.991   3.326
 5326SOL    HW116877   6.401   0.993   3.233
 5326SOL    HW216878   6.381   1.047   3.386
 5327SOL     OW16879   6.227   0.044   4.095
 5327SOL    HW116880   6.300   0.007   4.153
 5327SOL    HW216881   6.214   0.141   4.117
 5328SOL     OW16882   3.050   5.257   6.663
 5328SOL    HW116883   3.059   5.270   6.564
 5328SOL    HW216884   3.025   5.343   6.707
 5329SOL     OW16885   0.423   6.470   6.791
 5329SOL    HW116886   0.363   6.433   6.861
 5329SOL    HW216887   0.508   6.503   6.833
 5330SOL     OW16888   4.528   4.920   0.846
 5330SOL    HW116889   4.438   4.965   0.848
 5330SOL    HW216890   4.517   4.824   0.869
 5331SOL     OW16891   5.708   1.015   6.867
 5331SOL    HW116892   5.777   1.087   6.857
 5331SOL    HW216893   5.727   0.941   6.803
 5332SOL     OW16894   6.401   2.539   6.856
 5332SOL    HW116895   6.392   2.607   6.928
 5332SOL    HW216896   6.433   2.453   6.895
 5333SOL     OW16897   0.897   6.856   3.975
 5333SOL    HW116898   0.802   6.825   3.975
 5333SOL    HW216899   0.924   6.880   3.882
 5334SOL     OW16900   3.110   5.964   1.298
 5334SOL    HW116901   3.107   5.867   1.276
 5334SOL    HW216902   3.196   6.004   1.266
 5335SOL     OW16903   0.046   4.812   1.456
 5335SOL    HW116904   0.003   4.863   1.382
 5335SOL    HW216905   0.034   4.862   1.542
 5336SOL     OW16906   1.532   3.311   5.509
 5336SOL    HW116907   1.440   3.350   5.508
 5336SOL    HW216908   1.567   3.310   5.603
 5337SOL     OW16909   6.549   1.739   0.860
 5337SOL    HW116910   6.611   1.737   0.939
 5337SOL    HW216911   6.454   1.735   0.892
 5338SOL     OW16912   0.522   3.907   1.217
 5338SOL    HW116913   0.515   3.852   1.134
 5338SOL    HW216914   0.533   4.003   1.193
 5339SOL     OW16915   4.964   3.321   3.044
 5339SOL    HW116916   5.052   3.284   3.074
 5339SOL    HW216917   4.915   3.253   2.989
 5340SOL     OW16918   5.033   3.381   0.746
 5340SOL    HW116919   4.993   3.406   0.834
 5340SOL    HW216920   4.995   3.438   0.674
 5341SOL     OW16921   5.011   4.937   3.559
 5341SOL    HW116922   4.968   5.013   3.609
 5341SOL    HW216923   4.942   4.892   3.502
 5342SOL     OW16924   6.195   5.759   4.901
 5342SOL    HW116925   6.206   5.855   4.876
 5342SOL    HW216926   6.281   5.724   4.938
 5343SOL     OW16927   3.551   3.323   6.902
 5343SOL    HW116928   3.452   3.316   6.890
 5343SOL    HW216929   3.592   3.231   6.897
 5344SOL     OW16930   6.581   1.569   0.150
 5344SOL    HW116931   6.552   1.481   0.111
 5344SOL    HW216932   6.622   1.554   0.239
 5345SOL     OW16933   3.493   1.615   0.289
 5345SOL    HW116934   3.573   1.559   0.314
 5345SOL    HW216935   3.483   1.615   0.189
 5346SOL     OW16936   1.875   6.126   3.310
 5346SOL    HW116937   1.819   6.080   3.240
 5346SOL    HW216938   1.843   6.099   3.401
 5347SOL     OW16939   6.087   1.259   5.212
 5347SOL    HW116940   6.167   1.298   5.167
 5347SOL    HW216941   6.117   1.192   5.280
 5348SOL     OW16942   4.814   2.725   5.321
 5348SOL    HW116943   4.776   2.738   5.229
 5348SOL    HW216944   4.826   2.814   5.365
 5349SOL     OW16945   0.908   4.274   0.499
 5349SOL    HW116946   0.968   4.195   0.514
 5349SOL    HW216947   0.962   4.352   0.468
 5350SOL     OW16948   1.226   6.761   6.607
 5350SOL    HW116949   1.188   6.828   6.544
 5350SOL    HW216950   1.151   6.707   6.646
 5351SOL     OW16951   0.506   5.515   3.859
 5351SOL    HW116952   0.507   5.526   3.959
 5351SOL    HW216953   0.599   5.526   3.824
 5352SOL     OW16954   0.384   2.553   5.610
 5352SOL    HW116955   0.376   2.456   5.630
 5352SOL    HW216956   0.474   2.586   5.638
 5353SOL     OW16957   2.874   6.712   3.348
 5353SOL    HW116958   2.922   6.625   3.343
 5353SOL    HW216959   2.798   6.705   3.413
 5354SOL     OW16960   3.298   5.798   2.039
 5354SOL    HW116961   3.221   5.769   2.096
 5354SOL    HW216962   3.272   5.794   1.943
 5355SOL     OW16963   5.589   4.914   5.198
 5355SOL    HW116964   5.597   4.973   5.278
 5355SOL    HW216965   5.661   4.936   5.132
 5356SOL     OW16966   0.766   6.615   1.726
 5356SOL    HW116967   0.817   6.533   1.701
 5356SOL    HW216968   0.717   6.599   1.812
 5357SOL     OW16969   6.529   3.380   2.602
 5357SOL    HW116970   6.545   3.359   2.698
 5357SOL    HW216971   6.617   3.386   2.554
 5358SOL     OW16972   6.054   0.907   6.531
 5358SOL    HW116973   6.113   0.831   6.555
 5358SOL    HW216974   6.060   0.977   6.603
 5359SOL     OW16975   2.883   2.146   6.925
 5359SOL    HW116976   2.811   2.213   6.942
 5359SOL    HW216977   2.932   2.127   7.010
 5360SOL     OW16978   5.680   5.006   2.869
 5360SOL    HW116979   5.629   4.988   2.785
 5360SOL    HW216980   5.649   4.944   2.942
 5361SOL     OW16981   1.613   3.629   2.679
 5361SOL    HW116982   1.528   3.656   2.633
 5361SOL    HW216983   1.691   3.671   2.632
 5362SOL     OW16984   5.836   1.802   3.702
 5362SOL    HW116985   5.847   1.876   3.768
 5362SOL    HW216986   5.864   1.833   3.612
 5363SOL     OW16987   6.100   5.198   4.878
 5363SOL    HW116988   6.166   5.266   4.908
 5363SOL    HW216989   6.061   5.152   4.958
 5364SOL     OW16990   4.356   2.487   1.564
 5364SOL    HW116991   4.298   2.552   1.612
 5364SOL    HW216992   4.382   2.524   1.475
 5365SOL     OW16993   3.677   3.289   6.056
 5365SOL    HW116994   3.757   3.341   6.082
 5365SOL    HW216995   3.700   3.191   6.052
 5366SOL     OW16996   0.561   4.860   3.711
 5366SOL    HW116997   0.507   4.925   3.766
 5366SOL    HW216998   0.500   4.814   3.646
 5367SOL     OW16999   6.303   6.150   1.305
 5367SOL    HW117000   6.247   6.068   1.298
 5367SOL    HW217001   6.272   6.205   1.383
 5368SOL     OW17002   6.736   6.036   5.210
 5368SOL    HW117003   6.757   6.127   5.176
 5368SOL    HW217004   6.648   6.037   5.257
 5369SOL     OW17005   3.929   6.802   2.922
 5369SOL    HW117006   3.988   6.876   2.953
 5369SOL    HW217007   3.917   6.735   2.995
 5370SOL     OW17008   2.581   2.568   0.372
 5370SOL    HW117009   2.560   2.637   0.303
 5370SOL    HW217010   2.544   2.597   0.460
 5371SOL     OW17011   6.232   5.325   3.533
 5371SOL    HW117012   6.200   5.420   3.535
 5371SOL    HW217013   6.231   5.287   3.625
 5372SOL     OW17014   0.912   0.125   4.035
 5372SOL    HW117015   0.890   0.077   4.120
 5372SOL    HW217016   0.856   0.088   3.961
 5373SOL     OW17017   4.007   6.836   0.338
 5373SOL    HW117018   4.012   6.905   0.266
 5373SOL    HW217019   4.001   6.880   0.427
 5374SOL     OW17020   1.102   3.926   1.127
 5374SOL    HW117021   1.034   3.889   1.190
 5374SOL    HW217022   1.188   3.875   1.137
 5375SOL     OW17023   2.913   4.846   5.177
 5375SOL    HW117024   2.952   4.791   5.252
 5375SOL    HW217025   2.871   4.785   5.110
 5376SOL     OW17026   0.453   0.171   2.119
 5376SOL    HW117027   0.421   0.151   2.027
 5376SOL    HW217028   0.546   0.209   2.114
 5377SOL     OW17029   0.839   2.601   1.915
 5377SOL    HW117030   0.885   2.521   1.877
 5377SOL    HW217031   0.905   2.675   1.927
 5378SOL     OW17032   5.632   6.684   3.401
 5378SOL    HW117033   5.605   6.686   3.305
 5378SOL    HW217034   5.678   6.770   3.425
 5379SOL     OW17035   2.786   2.330   4.608
 5379SOL    HW117036   2.809   2.352   4.513
 5379SOL    HW217037   2.866   2.290   4.653
 5380SOL     OW17038   4.864   6.502   1.886
 5380SOL    HW117039   4.808   6.522   1.966
 5380SOL    HW217040   4.806   6.462   1.814
 5381SOL     OW17041   3.346   2.121   2.445
 5381SOL    HW117042   3.361   2.034   2.399
 5381SOL    HW217043   3.277   2.174   2.397
 5382SOL     OW17044   4.922   0.861   2.703
 5382SOL    HW117045   4.992   0.902   2.644
 5382SOL    HW217046   4.909   0.765   2.679
 5383SOL     OW17047   2.573   3.843   5.406
 5383SOL    HW117048   2.531   3.874   5.321
 5383SOL    HW217049   2.647   3.905   5.431
 5384SOL     OW17050   5.093   6.394   5.842
 5384SOL    HW117051   5.070   6.339   5.762
 5384SOL    HW217052   5.115   6.334   5.919
 5385SOL     OW17053   3.931   4.098   0.573
 5385SOL    HW117054   3.966   4.009   0.544
 5385SOL    HW217055   3.832   4.092   0.585
 5386SOL     OW17056   4.493   4.576   3.215
 5386SOL    HW117057   4.509   4.539   3.123
 5386SOL    HW217058   4.516   4.508   3.284
 5387SOL     OW17059   0.845   2.227   4.471
 5387SOL    HW117060   0.919   2.219   4.537
 5387SOL    HW217061   0.757   2.209   4.515
 5388SOL     OW17062   6.226   6.551   3.809
 5388SOL    HW117063   6.186   6.559   3.718
 5388SOL    HW217064   6.159   6.577   3.878
 5389SOL     OW17065   5.736   1.533   4.666
 5389SOL    HW117066   5.788   1.610   4.628
 5389SOL    HW217067   5.795   1.478   4.724
 5390SOL     OW17068   5.852   3.304   3.154
 5390SOL    HW117069   5.867   3.403   3.164
 5390SOL    HW217070   5.925   3.254   3.200
 5391SOL     OW17071   4.497   2.935   0.460
 5391SOL    HW117072   4.500   3.033   0.477
 5391SOL    HW217073   4.436   2.916   0.383
 5392SOL     OW17074   5.093   0.789   4.196
 5392SOL    HW117075   5.165   0.845   4.237
 5392SOL    HW217076   5.013   0.845   4.178
 5393SOL     OW17077   4.429   2.435   3.019
 5393SOL    HW117078   4.402   2.457   3.113
 5393SOL    HW217079   4.359   2.375   2.978
 5394SOL     OW17080   0.051   2.744   2.752
 5394SOL    HW117081   0.012   2.750   2.660
 5394SOL    HW217082   7.002   2.731   2.818
 5395SOL     OW17083   0.003   0.572   1.600
 5395SOL    HW117084   0.029   0.653   1.547
 5395SOL    HW217085   6.932   0.579   1.628
 5396SOL     OW17086   4.170   2.626   0.005
 5396SOL    HW117087   4.110   2.600   6.954
 5396SOL    HW217088   4.115   2.644   0.087
 5397SOL     OW17089   0.765   6.921   2.537
 5397SOL    HW117090   0.755   7.010   2.582
 5397SOL    HW217091   0.700   6.914   2.461
 5398SOL     OW17092   6.007   2.640   3.247
 5398SOL    HW117093   6.007   2.627   3.346
 5398SOL    HW217094   6.002   2.551   3.201
 5399SOL     OW17095   2.591   3.121   6.855
 5399SOL    HW117096   2.581   3.220   6.848
 5399SOL    HW217097   2.685   3.095   6.835
 5400SOL     OW17098   5.501   2.899   0.718
 5400SOL    HW117099   5.489   2.825   0.784
 5400SOL    HW217100   5.415   2.951   0.712
 5401SOL     OW17101   5.114   4.112   1.167
 5401SOL    HW117102   5.051   4.037   1.188
 5401SOL    HW217103   5.102   4.139   1.071
 5402SOL     OW17104   1.709   6.216   2.051
 5402SOL    HW117105   1.619   6.259   2.061
 5402SOL    HW217106   1.702   6.138   1.990
 5403SOL     OW17107   5.957   2.179   5.456
 5403SOL    HW117108   5.862   2.210   5.464
 5403SOL    HW217109   6.018   2.259   5.457
 5404SOL     OW17110   4.683   6.544   0.425
 5404SOL    HW117111   4.778   6.520   0.404
 5404SOL    HW217112   4.624   6.467   0.400
 5405SOL     OW17113   6.489   4.898   6.249
 5405SOL    HW117114   6.568   4.869   6.302
 5405SOL    HW217115   6.507   4.988   6.208
 5406SOL     OW17116   2.103   1.143   5.250
 5406SOL    HW117117   2.136   1.063   5.201
 5406SOL    HW217118   2.153   1.154   5.335
 5407SOL     OW17119   2.072   1.554   2.898
 5407SOL    HW117120   2.045   1.482   2.962
 5407SOL    HW217121   2.131   1.516   2.827
 5408SOL     OW17122   1.819   1.946   4.377
 5408SOL    HW117123   1.887   1.875   4.363
 5408SOL    HW217124   1.844   2.001   4.457
 5409SOL     OW17125   0.072   4.394   3.350
 5409SOL    HW117126   0.010   4.331   3.304
 5409SOL    HW217127   0.053   4.396   3.448
 5410SOL     OW17128   5.841   1.908   0.366
 5410SOL    HW117129   5.857   1.969   0.444
 5410SOL    HW217130   5.873   1.816   0.389
 5411SOL     OW17131   3.304   5.708   1.669
 5411SOL    HW117132   3.319   5.611   1.684
 5411SOL    HW217133   3.383   5.760   1.704
 5412SOL     OW17134   1.723   1.780   6.286
 5412SOL    HW117135   1.629   1.788   6.255
 5412SOL    HW217136   1.784   1.823   6.220
 5413SOL     OW17137   6.888   5.878   5.769
 5413SOL    HW117138   6.945   5.918   5.841
 5413SOL    HW217139   6.938   5.804   5.724
 5414SOL     OW17140   5.770   6.000   6.413
 5414SOL    HW117141   5.761   6.099   6.400
 5414SOL    HW217142   5.712   5.971   6.489
 5415SOL     OW17143   2.001   1.581   0.018
 5415SOL    HW117144   1.903   1.566   0.008
 5415SOL    HW217145   2.020   1.617   0.110
 5416SOL     OW17146   3.810   5.594   6.463
 5416SOL    HW117147   3.856   5.644   6.390
 5416SOL    HW217148   3.773   5.508   6.426
 5417SOL     OW17149   5.433   0.138   2.078
 5417SOL    HW117150   5.441   0.043   2.110
 5417SOL    HW217151   5.428   0.139   1.978
 5418SOL     OW17152   0.657   3.292   5.209
 5418SOL    HW117153   0.589   3.365   5.200
 5418SOL    HW217154   0.613   3.203   5.196
 5419SOL     OW17155   3.606   2.334   6.151
 5419SOL    HW117156   3.597   2.241   6.186
 5419SOL    HW217157   3.703   2.356   6.140
 5420SOL     OW17158   2.198   1.755   0.958
 5420SOL    HW117159   2.196   1.713   0.868
 5420SOL    HW217160   2.271   1.713   1.013
 5421SOL     OW17161   4.480   5.311   1.717
 5421SOL    HW117162   4.459   5.272   1.627
 5421SOL    HW217163   4.537   5.392   1.706
 5422SOL     OW17164   2.269   6.853   2.747
 5422SOL    HW117165   2.320   6.826   2.829
 5422SOL    HW217166   2.294   6.946   2.720
 5423SOL     OW17167   4.568   6.954   2.363
 5423SOL    HW117168   4.609   6.966   2.453
 5423SOL    HW217169   4.592   6.863   2.328
 5424SOL     OW17170   3.537   3.264   5.082
 5424SOL    HW117171   3.523   3.209   5.000
 5424SOL    HW217172   3.488   3.223   5.159
 5425SOL     OW17173   0.993   5.180   5.256
 5425SOL    HW117174   1.065   5.246   5.281
 5425SOL    HW217175   1.002   5.098   5.312
 5426SOL     OW17176   1.079   4.472   0.350
 5426SOL    HW117177   1.101   4.385   0.307
 5426SOL    HW217178   1.063   4.541   0.279
 5427SOL     OW17179   4.896   1.910   0.437
 5427SOL    HW117180   4.928   1.978   0.371
 5427SOL    HW217181   4.796   1.914   0.442
 5428SOL     OW17182   4.409   5.791   2.908
 5428SOL    HW117183   4.445   5.777   3.000
 5428SOL    HW217184   4.424   5.709   2.852
 5429SOL     OW17185   2.689   6.638   3.533
 5429SOL    HW117186   2.640   6.701   3.592
 5429SOL    HW217187   2.626   6.570   3.497
 5430SOL     OW17188   1.042   4.416   5.357
 5430SOL    HW117189   1.001   4.481   5.420
 5430SOL    HW217190   1.131   4.386   5.393
 5431SOL     OW17191   5.277   4.447   1.348
 5431SOL    HW117192   5.194   4.395   1.364
 5431SOL    HW217193   5.354   4.403   1.393
 5432SOL     OW17194   0.760   5.183   5.914
 5432SOL    HW117195   0.751   5.202   5.816
 5432SOL    HW217196   0.851   5.210   5.944
 5433SOL     OW17197   2.742   0.310   1.411
 5433SOL    HW117198   2.839   0.323   1.390
 5433SOL    HW217199   2.732   0.286   1.508
 5434SOL     OW17200   5.225   5.715   4.267
 5434SOL    HW117201   5.172   5.672   4.194
 5434SOL    HW217202   5.230   5.653   4.346
 5435SOL     OW17203   6.747   3.578   6.811
 5435SOL    HW117204   6.817   3.527   6.861
 5435SOL    HW217205   6.762   3.676   6.824
 5436SOL     OW17206   1.235   4.604   1.008
 5436SOL    HW117207   1.327   4.644   1.007
 5436SOL    HW217208   1.166   4.676   1.006
 5437SOL     OW17209   3.829   6.461   6.261
 5437SOL    HW117210   3.858   6.555   6.247
 5437SOL    HW217211   3.843   6.409   6.176
 5438SOL     OW17212   5.299   6.423   2.807
 5438SOL    HW117213   5.302   6.348   2.872
 5438SOL    HW217214   5.360   6.404   2.730
 5439SOL     OW17215   1.558   3.762   1.248
 5439SOL    HW117216   1.651   3.743   1.219
 5439SOL    HW217217   1.495   3.702   1.199
 5440SOL     OW17218   6.155   6.732   4.075
 5440SOL    HW117219   6.157   6.831   4.093
 5440SOL    HW217220   6.061   6.703   4.062
 5441SOL     OW17221   5.487   1.019   4.966
 5441SOL    HW117222   5.458   1.114   4.963
 5441SOL    HW217223   5.480   0.984   5.059
 5442SOL     OW17224   2.859   0.456   6.645
 5442SOL    HW117225   2.819   0.547   6.643
 5442SOL    HW217226   2.919   0.447   6.724
 5443SOL     OW17227   5.743   0.947   3.554
 5443SOL    HW117228   5.741   0.849   3.538
 5443SOL    HW217229   5.821   0.970   3.612
 5444SOL     OW17230   1.107   1.231   6.175
 5444SOL    HW117231   1.182   1.205   6.114
 5444SOL    HW217232   1.084   1.154   6.234
 5445SOL     OW17233   5.726   6.817   4.899
 5445SOL    HW117234   5.808   6.872   4.916
 5445SOL    HW217235   5.645   6.875   4.908
 5446SOL     OW17236   2.356   4.926   6.093
 5446SOL    HW117237   2.418   4.847   6.086
 5446SOL    HW217238   2.264   4.899   6.064
 5447SOL     OW17239   6.368   2.082   1.400
 5447SOL    HW117240   6.430   2.079   1.478
 5447SOL    HW217241   6.277   2.048   1.427
 5448SOL     OW17242   6.103   4.718   1.520
 5448SOL    HW117243   6.095   4.733   1.421
 5448SOL    HW217244   6.184   4.765   1.554
 5449SOL     OW17245   2.222   0.352   2.369
 5449SOL    HW117246   2.192   0.367   2.463
 5449SOL    HW217247   2.280   0.270   2.366
 5450SOL     OW17248   4.721   5.761   2.037
 5450SOL    HW117249   4.645   5.820   2.012
 5450SOL    HW217250   4.799   5.817   2.066
 5451SOL     OW17251   0.697   5.933   4.085
 5451SOL    HW117252   0.621   5.997   4.098
 5451SOL    HW217253   0.783   5.985   4.079
 5452SOL     OW17254   2.174   3.897   2.960
 5452SOL    HW117255   2.104   3.957   2.922
 5452SOL    HW217256   2.170   3.901   3.060
 5453SOL     OW17257   5.817   4.606   4.171
 5453SOL    HW117258   5.757   4.607   4.251
 5453SOL    HW217259   5.844   4.699   4.148
 5454SOL     OW17260   5.928   3.617   2.226
 5454SOL    HW117261   5.981   3.539   2.259
 5454SOL    HW217262   5.882   3.593   2.141
 5455SOL     OW17263   2.470   2.132   3.335
 5455SOL    HW117264   2.374   2.160   3.325
 5455SOL    HW217265   2.482   2.085   3.423
 5456SOL     OW17266   5.096   2.865   0.551
 5456SOL    HW117267   5.068   2.893   0.459
 5456SOL    HW217268   5.106   2.766   0.554
 5457SOL     OW17269   6.685   1.484   0.401
 5457SOL    HW117270   6.668   1.390   0.428
 5457SOL    HW217271   6.711   1.538   0.481
 5458SOL     OW17272   6.363   5.066   5.879
 5458SOL    HW117273   6.325   4.984   5.836
 5458SOL    HW217274   6.458   5.077   5.852
 5459SOL     OW17275   2.526   3.595   5.482
 5459SOL    HW117276   2.428   3.585   5.495
 5459SOL    HW217277   2.549   3.692   5.478
 5460SOL     OW17278   0.181   0.824   1.614
 5460SOL    HW117279   0.184   0.791   1.708
 5460SOL    HW217280   0.235   0.908   1.607
 5461SOL     OW17281   5.800   1.387   6.624
 5461SOL    HW117282   5.849   1.411   6.540
 5461SOL    HW217283   5.731   1.318   6.604
 5462SOL     OW17284   5.061   5.606   6.464
 5462SOL    HW117285   5.137   5.541   6.457
 5462SOL    HW217286   4.990   5.581   6.398
 5463SOL     OW17287   2.078   5.518   6.838
 5463SOL    HW117288   2.161   5.466   6.816
 5463SOL    HW217289   2.104   5.609   6.870
 5464SOL     OW17290   1.919   5.805   4.201
 5464SOL    HW117291   1.870   5.733   4.249
 5464SOL    HW217292   1.900   5.893   4.244
 5465SOL     OW17293   0.900   0.875   4.912
 5465SOL    HW117294   0.976   0.901   4.853
 5465SOL    HW217295   0.814   0.910   4.874
 5466SOL     OW17296   5.149   2.571   5.068
 5466SOL    HW117297   5.164   2.638   5.141
 5466SOL    HW217298   5.105   2.490   5.107
 5467SOL     OW17299   5.746   3.749   4.074
 5467SOL    HW117300   5.727   3.829   4.018
 5467SOL    HW217301   5.839   3.754   4.110
 5468SOL     OW17302   0.632   3.032   1.502
 5468SOL    HW117303   0.565   2.977   1.451
 5468SOL    HW217304   0.587   3.111   1.542
 5469SOL     OW17305   4.330   1.651   3.632
 5469SOL    HW117306   4.410   1.613   3.586
 5469SOL    HW217307   4.326   1.750   3.616
 5470SOL     OW17308   2.777   4.748   3.995
 5470SOL    HW117309   2.779   4.842   3.959
 5470SOL    HW217310   2.859   4.699   3.964
 5471SOL     OW17311   5.466   0.476   3.551
 5471SOL    HW117312   5.462   0.379   3.577
 5471SOL    HW217313   5.388   0.524   3.591
 5472SOL     OW17314   2.614   3.995   6.826
 5472SOL    HW117315   2.531   3.943   6.844
 5472SOL    HW217316   2.648   3.973   6.735
 5473SOL     OW17317   2.798   4.725   2.273
 5473SOL    HW117318   2.875   4.768   2.320
 5473SOL    HW217319   2.831   4.675   2.193
 5474SOL     OW17320   0.965   4.826   1.733
 5474SOL    HW117321   0.997   4.914   1.696
 5474SOL    HW217322   0.883   4.841   1.788
 5475SOL     OW17323   0.511   0.621   5.293
 5475SOL    HW117324   0.494   0.524   5.313
 5475SOL    HW217325   0.549   0.629   5.200
 5476SOL     OW17326   2.234   0.963   5.067
 5476SOL    HW117327   2.204   0.919   4.982
 5476SOL    HW217328   2.301   0.904   5.112
 5477SOL     OW17329   2.168   3.903   3.318
 5477SOL    HW117330   2.150   3.809   3.290
 5477SOL    HW217331   2.164   3.910   3.417
 5478SOL     OW17332   6.484   3.428   5.691
 5478SOL    HW117333   6.453   3.503   5.749
 5478SOL    HW217334   6.427   3.424   5.609
 5479SOL     OW17335   4.967   3.381   3.909
 5479SOL    HW117336   4.912   3.324   3.970
 5479SOL    HW217337   5.034   3.324   3.862
 5480SOL     OW17338   1.364   3.193   5.161
 5480SOL    HW117339   1.458   3.213   5.134
 5480SOL    HW217340   1.364   3.152   5.252
 5481SOL     OW17341   4.529   1.218   0.413
 5481SOL    HW117342   4.591   1.169   0.475
 5481SOL    HW217343   4.442   1.168   0.407
 5482SOL     OW17344   5.200   4.313   2.574
 5482SOL    HW117345   5.168   4.326   2.480
 5482SOL    HW217346   5.123   4.288   2.633
 5483SOL     OW17347   5.904   1.982   0.664
 5483SOL    HW117348   5.900   2.069   0.614
 5483SOL    HW217349   5.983   1.983   0.726
 5484SOL     OW17350   6.388   0.492   5.370
 5484SOL    HW117351   6.323   0.422   5.339
 5484SOL    HW217352   6.477   0.450   5.387
 5485SOL     OW17353   2.917   0.905   4.155
 5485SOL    HW117354   2.871   0.993   4.147
 5485SOL    HW217355   2.924   0.863   4.064
 5486SOL     OW17356   0.675   0.086   3.865
 5486SOL    HW117357   0.638   0.179   3.870
 5486SOL    HW217358   0.608   0.021   3.899
 5487SOL     OW17359   4.965   5.251   0.841
 5487SOL    HW117360   4.878   5.284   0.878
 5487SOL    HW217361   5.037   5.263   0.908
 5488SOL     OW17362   4.990   0.916   6.116
 5488SOL    HW117363   5.083   0.932   6.148
 5488SOL    HW217364   4.926   0.968   6.173
 5489SOL     OW17365   6.890   3.756   2.491
 5489SOL    HW117366   6.945   3.837   2.472
 5489SOL    HW217367   6.809   3.756   2.432
 5490SOL     OW17368   3.111   1.586   6.433
 5490SOL    HW117369   3.165   1.651   6.486
 5490SOL    HW217370   3.014   1.604   6.447
 5491SOL     OW17371   0.034   5.769   2.741
 5491SOL    HW117372   0.068   5.863   2.741
 5491SOL    HW217373   6.984   5.760   2.674
 5492SOL     OW17374   1.072   1.024   4.732
 5492SOL    HW117375   1.028   1.022   4.642
 5492SOL    HW217376   1.149   1.088   4.730
 5493SOL     OW17377   3.676   1.946   0.780
 5493SOL    HW117378   3.618   1.882   0.830
 5493SOL    HW217379   3.772   1.934   0.808
 5494SOL     OW17380   4.938   3.274   2.466
 5494SOL    HW117381   5.037   3.275   2.482
 5494SOL    HW217382   4.920   3.246   2.372
 5495SOL     OW17383   3.561   2.858   3.598
 5495SOL    HW117384   3.605   2.792   3.659
 5495SOL    HW217385   3.481   2.896   3.642
 5496SOL     OW17386   5.022   5.816   1.706
 5496SOL    HW117387   5.045   5.740   1.646
 5496SOL    HW217388   5.015   5.785   1.800
 5497SOL     OW17389   5.351   0.339   0.140
 5497SOL    HW117390   5.386   0.248   0.115
 5497SOL    HW217391   5.418   0.409   0.116
 5498SOL     OW17392   4.351   1.790   4.299
 5498SOL    HW117393   4.370   1.692   4.303
 5498SOL    HW217394   4.402   1.838   4.370
 5499SOL     OW17395   0.236   0.715   5.230
 5499SOL    HW117396   0.296   0.646   5.271
 5499SOL    HW217397   0.240   0.706   5.130
 5500SOL     OW17398   2.260   6.506   0.858
 5500SOL    HW117399   2.161   6.492   0.858
 5500SOL    HW217400   2.303   6.441   0.796
 5501SOL     OW17401   2.969   0.489   2.366
 5501SOL    HW117402   2.979   0.392   2.346
 5501SOL    HW217403   2.920   0.534   2.291
 5502SOL     OW17404   4.504   3.433   0.607
 5502SOL    HW117405   4.537   3.370   0.678
 5502SOL    HW217406   4.544   3.524   0.622
 5503SOL     OW17407   0.075   0.195   3.766
 5503SOL    HW117408   0.032   0.284   3.751
 5503SOL    HW217409   0.066   0.169   3.862
 5504SOL     OW17410   2.976   2.237   4.777
 5504SOL    HW117411   3.040   2.241   4.854
 5504SOL    HW217412   2.919   2.155   4.785
 5505SOL     OW17413   3.264   4.972   0.864
 5505SOL    HW117414   3.247   4.887   0.814
 5505SOL    HW217415   3.239   5.050   0.806
 5506SOL     OW17416   0.536   6.977   5.910
 5506SOL    HW117417   0.595   6.898   5.893
 5506SOL    HW217418   0.517   6.984   6.008
 5507SOL     OW17419   3.059   5.055   5.314
 5507SOL    HW117420   2.982   5.112   5.342
 5507SOL    HW217421   3.026   4.977   5.261
 5508SOL     OW17422   1.474   0.802   5.320
 5508SOL    HW117423   1.480   0.775   5.416
 5508SOL    HW217424   1.384   0.777   5.284
 5509SOL     OW17425   6.507   0.160   6.542
 5509SOL    HW117426   6.429   0.117   6.586
 5509SOL    HW217427   6.541   0.235   6.599
 5510SOL     OW17428   6.544   0.297   6.263
 5510SOL    HW117429   6.523   0.264   6.355
 5510SOL    HW217430   6.481   0.371   6.239
 5511SOL     OW17431   0.368   2.859   1.589
 5511SOL    HW117432   0.376   2.766   1.625
 5511SOL    HW217433   0.387   2.925   1.661
 5512SOL     OW17434   6.160   0.425   0.512
 5512SOL    HW117435   6.174   0.437   0.414
 5512SOL    HW217436   6.108   0.341   0.529
 5513SOL     OW17437   2.617   5.956   4.784
 5513SOL    HW117438   2.675   5.883   4.822
 5513SOL    HW217439   2.675   6.033   4.757
 5514SOL     OW17440   6.176   5.833   3.621
 5514SOL    HW117441   6.238   5.859   3.547
 5514SOL    HW217442   6.225   5.837   3.709
 5515SOL     OW17443   0.043   4.181   3.110
 5515SOL    HW117444   0.086   4.143   3.029
 5515SOL    HW217445   0.065   4.124   3.189
 5516SOL     OW17446   0.926   2.412   0.232
 5516SOL    HW117447   0.841   2.421   0.180
 5516SOL    HW217448   0.982   2.339   0.192
 5517SOL     OW17449   2.916   1.190   2.549
 5517SOL    HW117450   2.971   1.107   2.551
 5517SOL    HW217451   2.933   1.243   2.632
 5518SOL     OW17452   5.543   4.180   5.383
 5518SOL    HW117453   5.595   4.218   5.307
 5518SOL    HW217454   5.533   4.081   5.370
 5519SOL     OW17455   5.474   4.339   2.452
 5519SOL    HW117456   5.562   4.317   2.411
 5519SOL    HW217457   5.425   4.255   2.473
 5520SOL     OW17458   1.578   2.485   1.113
 5520SOL    HW117459   1.537   2.408   1.065
 5520SOL    HW217460   1.541   2.571   1.076
 5521SOL     OW17461   5.597   5.129   6.775
 5521SOL    HW117462   5.549   5.178   6.847
 5521SOL    HW217463   5.672   5.076   6.814
 5522SOL     OW17464   1.902   2.423   2.088
 5522SOL    HW117465   1.858   2.436   2.178
 5522SOL    HW217466   1.881   2.332   2.054
 5523SOL     OW17467   3.045   6.769   1.573
 5523SOL    HW117468   2.964   6.797   1.624
 5523SOL    HW217469   3.104   6.848   1.559
 5524SOL     OW17470   6.171   6.636   5.759
 5524SOL    HW117471   6.123   6.568   5.815
 5524SOL    HW217472   6.235   6.589   5.697
 5525SOL     OW17473   6.444   5.737   3.222
 5525SOL    HW117474   6.538   5.717   3.249
 5525SOL    HW217475   6.418   5.677   3.146
 5526SOL     OW17476   5.167   2.914   4.668
 5526SOL    HW117477   5.123   2.877   4.750
 5526SOL    HW217478   5.099   2.925   4.595
 5527SOL     OW17479   1.876   3.395   0.044
 5527SOL    HW117480   1.927   3.312   0.066
 5527SOL    HW217481   1.789   3.371   0.002
 5528SOL     OW17482   6.647   2.983   2.598
 5528SOL    HW117483   6.582   3.044   2.553
 5528SOL    HW217484   6.598   2.903   2.634
 5529SOL     OW17485   0.884   0.759   3.597
 5529SOL    HW117486   0.963   0.698   3.604
 5529SOL    HW217487   0.911   0.852   3.623
 5530SOL     OW17488   6.574   2.887   7.019
 5530SOL    HW117489   6.573   2.936   0.081
 5530SOL    HW217490   6.563   2.951   6.943
 5531SOL     OW17491   1.919   3.102   0.049
 5531SOL    HW117492   1.880   3.019   0.009
 5531SOL    HW217493   1.926   3.092   0.148
 5532SOL     OW17494   2.429   2.531   1.142
 5532SOL    HW117495   2.455   2.437   1.165
 5532SOL    HW217496   2.509   2.580   1.107
 5533SOL     OW17497   3.838   0.471   0.914
 5533SOL    HW117498   3.749   0.511   0.937
 5533SOL    HW217499   3.826   0.401   0.844
 5534SOL     OW17500   0.392   3.842   5.295
 5534SOL    HW117501   0.338   3.846   5.379
 5534SOL    HW217502   0.482   3.804   5.315
 5535SOL     OW17503   5.390   3.632   3.463
 5535SOL    HW117504   5.341   3.656   3.380
 5535SOL    HW217505   5.367   3.697   3.536
 5536SOL     OW17506   2.538   0.718   4.182
 5536SOL    HW117507   2.495   0.628   4.186
 5536SOL    HW217508   2.500   0.769   4.105
 5537SOL     OW17509   4.003   0.822   4.715
 5537SOL    HW117510   4.035   0.752   4.651
 5537SOL    HW217511   3.972   0.778   4.800
 5538SOL     OW17512   5.722   2.281   2.341
 5538SOL    HW117513   5.631   2.244   2.326
 5538SOL    HW217514   5.769   2.292   2.253
 5539SOL     OW17515   2.269   0.303   6.570
 5539SOL    HW117516   2.185   0.290   6.624
 5539SOL    HW217517   2.253   0.272   6.476
 5540SOL     OW17518   5.640   6.751   5.555
 5540SOL    HW117519   5.564   6.815   5.542
 5540SOL    HW217520   5.707   6.790   5.617
 5541SOL     OW17521   4.730   2.616   0.026
 5541SOL    HW117522   4.801   2.656   0.084
 5541SOL    HW217523   4.665   2.565   0.083
 5542SOL     OW17524   4.972   4.433   6.775
 5542SOL    HW117525   5.005   4.446   6.869
 5542SOL    HW217526   4.971   4.520   6.727
 5543SOL     OW17527   1.167   0.285   6.493
 5543SOL    HW117528   1.259   0.299   6.457
 5543SOL    HW217529   1.106   0.355   6.457
 5544SOL     OW17530   3.888   5.027   0.705
 5544SOL    HW117531   3.879   5.001   0.801
 5544SOL    HW217532   3.908   5.125   0.699
 5545SOL     OW17533   5.565   1.332   2.866
 5545SOL    HW117534   5.563   1.417   2.815
 5545SOL    HW217535   5.471   1.304   2.888
 5546SOL     OW17536   0.243   5.468   4.593
 5546SOL    HW117537   0.318   5.493   4.532
 5546SOL    HW217538   0.257   5.375   4.628
 5547SOL     OW17539   5.182   1.440   5.188
 5547SOL    HW117540   5.223   1.460   5.099
 5547SOL    HW217541   5.182   1.522   5.245
 5548SOL     OW17542   0.238   3.965   5.090
 5548SOL    HW117543   0.304   3.939   5.160
 5548SOL    HW217544   0.245   3.902   5.012
 5549SOL     OW17545   3.439   2.923   0.450
 5549SOL    HW117546   3.477   2.990   0.387
 5549SOL    HW217547   3.511   2.889   0.511
 5550SOL     OW17548   2.463   4.163   1.483
 5550SOL    HW117549   2.442   4.124   1.393
 5550SOL    HW217550   2.499   4.255   1.472
 5551SOL     OW17551   1.581   4.718   2.872
 5551SOL    HW117552   1.589   4.622   2.847
 5551SOL    HW217553   1.491   4.735   2.911
 5552SOL     OW17554   1.094   0.281   0.056
 5552SOL    HW117555   1.191   0.299   0.075
 5552SOL    HW217556   1.054   0.231   0.133
 5553SOL     OW17557   5.153   0.491   6.813
 5553SOL    HW117558   5.187   0.531   6.898
 5553SOL    HW217559   5.207   0.410   6.790
 5554SOL     OW17560   6.690   2.577   1.425
 5554SOL    HW117561   6.736   2.512   1.365
 5554SOL    HW217562   6.594   2.583   1.399
 5555SOL     OW17563   1.132   5.236   2.061
 5555SOL    HW117564   1.168   5.315   2.010
 5555SOL    HW217565   1.156   5.152   2.013
 5556SOL     OW17566   0.364   1.045   4.870
 5556SOL    HW117567   0.358   1.062   4.772
 5556SOL    HW217568   0.445   1.090   4.907
 5557SOL     OW17569   3.758   6.099   2.720
 5557SOL    HW117570   3.786   6.011   2.758
 5557SOL    HW217571   3.828   6.130   2.655
 5558SOL     OW17572   4.685   4.016   6.479
 5558SOL    HW117573   4.599   4.064   6.461
 5558SOL    HW217574   4.678   3.966   6.565
 5559SOL     OW17575   3.643   0.680   2.502
 5559SOL    HW117576   3.691   0.684   2.414
 5559SOL    HW217577   3.701   0.635   2.570
 5560SOL     OW17578   0.039   5.413   3.733
 5560SOL    HW117579   6.975   5.440   3.772
 5560SOL    HW217580   0.113   5.441   3.794
 5561SOL     OW17581   3.681   0.214   3.592
 5561SOL    HW117582   3.751   0.143   3.600
 5561SOL    HW217583   3.694   0.282   3.665
 5562SOL     OW17584   3.789   3.414   0.442
 5562SOL    HW117585   3.785   3.391   0.345
 5562SOL    HW217586   3.877   3.384   0.480
 5563SOL     OW17587   2.554   4.834   2.208
 5563SOL    HW117588   2.625   4.795   2.266
 5563SOL    HW217589   2.565   4.798   2.115
 5564SOL     OW17590   4.788   0.105   6.236
 5564SOL    HW117591   4.838   0.113   6.322
 5564SOL    HW217592   4.704   0.053   6.251
 5565SOL     OW17593   4.006   1.580   5.910
 5565SOL    HW117594   4.095   1.580   5.956
 5565SOL    HW217595   3.967   1.488   5.914
 5566SOL     OW17596   1.149   5.150   5.741
 5566SOL    HW117597   1.211   5.224   5.715
 5566SOL    HW217598   1.073   5.147   5.676
 5567SOL     OW17599   0.184   4.791   0.136
 5567SOL    HW117600   0.240   4.747   0.207
 5567SOL    HW217601   0.103   4.832   0.179
 5568SOL     OW17602   4.880   4.894   1.520
 5568SOL    HW117603   4.919   4.967   1.576
 5568SOL    HW217604   4.787   4.875   1.552
 5569SOL     OW17605   2.376   2.660   2.934
 5569SOL    HW117606   2.438   2.584   2.918
 5569SOL    HW217607   2.407   2.713   3.014
 5570SOL     OW17608   6.731   3.641   1.367
 5570SOL    HW117609   6.696   3.640   1.460
 5570SOL    HW217610   6.693   3.563   1.317
 5571SOL     OW17611   6.500   4.417   0.828
 5571SOL    HW117612   6.506   4.457   0.920
 5571SOL    HW217613   6.439   4.338   0.830
 5572SOL     OW17614   1.620   4.214   4.938
 5572SOL    HW117615   1.652   4.128   4.898
 5572SOL    HW217616   1.548   4.195   5.005
 5573SOL     OW17617   3.205   5.331   4.181
 5573SOL    HW117618   3.241   5.398   4.116
 5573SOL    HW217619   3.105   5.334   4.179
 5574SOL     OW17620   0.971   1.818   5.206
 5574SOL    HW117621   1.023   1.810   5.121
 5574SOL    HW217622   0.955   1.914   5.227
 5575SOL     OW17623   0.312   0.145   1.652
 5575SOL    HW117624   0.214   0.142   1.634
 5575SOL    HW217625   0.356   0.065   1.611
 5576SOL     OW17626   1.680   4.954   3.472
 5576SOL    HW117627   1.661   4.856   3.461
 5576SOL    HW217628   1.593   5.003   3.482
 5577SOL     OW17629   1.975   3.089   6.244
 5577SOL    HW117630   2.037   3.017   6.274
 5577SOL    HW217631   1.892   3.048   6.206
 5578SOL     OW17632   3.514   4.133   3.847
 5578SOL    HW117633   3.612   4.120   3.835
 5578SOL    HW217634   3.470   4.141   3.757
 5579SOL     OW17635   6.436   2.899   1.734
 5579SOL    HW117636   6.355   2.919   1.790
 5579SOL    HW217637   6.453   2.801   1.734
 5580SOL     OW17638   5.651   2.028   5.576
 5580SOL    HW117639   5.614   2.027   5.484
 5580SOL    HW217640   5.674   2.122   5.601
 5581SOL     OW17641   0.910   2.132   6.447
 5581SOL    HW117642   0.884   2.226   6.426
 5581SOL    HW217643   0.990   2.107   6.391
 5582SOL     OW17644   2.806   2.633   5.928
 5582SOL    HW117645   2.742   2.710   5.925
 5582SOL    HW217646   2.900   2.667   5.936
 5583SOL     OW17647   5.556   7.022   0.878
 5583SOL    HW117648   5.566   0.091   0.842
 5583SOL    HW217649   5.556   0.001   0.978
 5584SOL     OW17650   1.810   3.063   4.436
 5584SOL    HW117651   1.811   3.162   4.421
 5584SOL    HW217652   1.864   3.018   4.365
 5585SOL     OW17653   5.605   5.015   1.611
 5585SOL    HW117654   5.591   4.929   1.659
 5585SOL    HW217655   5.527   5.075   1.627
 5586SOL     OW17656   0.738   5.051   0.533
 5586SOL    HW117657   0.775   5.144   0.537
 5586SOL    HW217658   0.806   4.990   0.491
 5587SOL     OW17659   6.394   0.939   5.923
 5587SOL    HW117660   6.389   1.036   5.949
 5587SOL    HW217661   6.487   0.918   5.894
 5588SOL     OW17662   3.580   6.699   0.945
 5588SOL    HW117663   3.493   6.697   0.995
 5588SOL    HW217664   3.583   6.622   0.881
 5589SOL     OW17665   6.506   4.691   6.046
 5589SOL    HW117666   6.605   4.678   6.056
 5589SOL    HW217667   6.477   4.769   6.101
 5590SOL     OW17668   6.098   5.634   3.062
 5590SOL    HW117669   6.051   5.547   3.077
 5590SOL    HW217670   6.192   5.616   3.032
 5591SOL     OW17671   5.333   1.390   1.888
 5591SOL    HW117672   5.316   1.303   1.934
 5591SOL    HW217673   5.424   1.387   1.845
 5592SOL     OW17674   0.426   4.455   3.054
 5592SOL    HW117675   0.502   4.499   3.007
 5592SOL    HW217676   0.379   4.523   3.111
 5593SOL     OW17677   0.760   3.876   0.475
 5593SOL    HW117678   0.810   3.902   0.558
 5593SOL    HW217679   0.752   3.777   0.470
 5594SOL     OW17680   6.123   1.691   5.885
 5594SOL    HW117681   6.121   1.787   5.915
 5594SOL    HW217682   6.216   1.655   5.896
 5595SOL     OW17683   0.525   2.445   0.514
 5595SOL    HW117684   0.556   2.540   0.524
 5595SOL    HW217685   0.428   2.440   0.536
 5596SOL     OW17686   3.247   5.873   3.288
 5596SOL    HW117687   3.301   5.796   3.321
 5596SOL    HW217688   3.181   5.900   3.359
 5597SOL     OW17689   4.841   3.255   1.845
 5597SOL    HW117690   4.825   3.182   1.911
 5597SOL    HW217691   4.830   3.219   1.752
 5598SOL     OW17692   5.067   1.050   5.161
 5598SOL    HW117693   4.975   1.041   5.199
 5598SOL    HW217694   5.110   0.960   5.157
 5599SOL     OW17695   0.737   1.337   3.209
 5599SOL    HW117696   0.768   1.243   3.218
 5599SOL    HW217697   0.733   1.380   3.299
 5600SOL     OW17698   2.012   2.433   5.317
 5600SOL    HW117699   2.053   2.421   5.407
 5600SOL    HW217700   2.005   2.530   5.295
 5601SOL     OW17701   2.631   1.084   6.439
 5601SOL    HW117702   2.609   1.016   6.509
 5601SOL    HW217703   2.696   1.150   6.477
 5602SOL     OW17704   1.742   0.774   0.293
 5602SOL    HW117705   1.791   0.737   0.373
 5602SOL    HW217706   1.792   0.751   0.210
 5603SOL     OW17707   6.152   4.428   5.642
 5603SOL    HW117708   6.153   4.463   5.736
 5603SOL    HW217709   6.112   4.496   5.581
 5604SOL     OW17710   6.051   1.479   6.205
 5604SOL    HW117711   6.046   1.379   6.195
 5604SOL    HW217712   5.967   1.513   6.246
 5605SOL     OW17713   0.799   1.885   6.821
 5605SOL    HW117714   0.705   1.917   6.819
 5605SOL    HW217715   0.807   1.801   6.767
 5606SOL     OW17716   5.857   6.613   3.037
 5606SOL    HW117717   5.815   6.700   3.014
 5606SOL    HW217718   5.850   6.550   2.960
 5607SOL     OW17719   5.550   0.456   1.230
 5607SOL    HW117720   5.568   0.528   1.163
 5607SOL    HW217721   5.632   0.400   1.242
 5608SOL     OW17722   4.075   6.090   5.306
 5608SOL    HW117723   4.170   6.062   5.311
 5608SOL    HW217724   4.015   6.012   5.323
 5609SOL     OW17725   1.076   5.658   5.598
 5609SOL    HW117726   1.150   5.685   5.660
 5609SOL    HW217727   0.999   5.721   5.610
 5610SOL     OW17728   4.087   0.667   6.075
 5610SOL    HW117729   4.144   0.589   6.100
 5610SOL    HW217730   4.143   0.737   6.030
 5611SOL     OW17731   2.220   4.027   3.992
 5611SOL    HW117732   2.292   4.097   3.984
 5611SOL    HW217733   2.132   4.071   4.010
 5612SOL     OW17734   2.996   6.761   4.571
 5612SOL    HW117735   2.909   6.811   4.568
 5612SOL    HW217736   2.978   6.664   4.587
 5613SOL     OW17737   3.594   5.531   1.483
 5613SOL    HW117738   3.502   5.498   1.502
 5613SOL    HW217739   3.643   5.545   1.568
 5614SOL     OW17740   5.171   2.047   4.257
 5614SOL    HW117741   5.130   2.092   4.337
 5614SOL    HW217742   5.128   1.957   4.244
 5615SOL     OW17743   1.765   1.222   1.582
 5615SOL    HW117744   1.769   1.131   1.541
 5615SOL    HW217745   1.846   1.237   1.639
 5616SOL     OW17746   1.909   6.999   4.991
 5616SOL    HW117747   1.885   0.007   5.083
 5616SOL    HW217748   2.008   6.992   4.983
 5617SOL     OW17749   0.847   0.587   5.301
 5617SOL    HW117750   0.935   0.604   5.346
 5617SOL    HW217751   0.814   0.671   5.259
 5618SOL     OW17752   6.422   4.987   3.134
 5618SOL    HW117753   6.380   4.975   3.224
 5618SOL    HW217754   6.422   4.900   3.085
 5619SOL     OW17755   2.106   4.123   5.099
 5619SOL    HW117756   2.191   4.074   5.081
 5619SOL    HW217757   2.049   4.122   5.016
 5620SOL     OW17758   4.153   1.381   0.208
 5620SOL    HW117759   4.075   1.377   0.270
 5620SOL    HW217760   4.222   1.444   0.245
 5621SOL     OW17761   2.559   1.477   6.948
 5621SOL    HW117762   2.515   1.538   6.883
 5621SOL    HW217763   2.515   1.387   6.943
 5622SOL     OW17764   5.398   0.858   5.161
 5622SOL    HW117765   5.360   0.766   5.150
 5622SOL    HW217766   5.436   0.868   5.253
 5623SOL     OW17767   0.682   6.162   0.102
 5623SOL    HW117768   0.702   6.211   0.186
 5623SOL    HW217769   0.584   6.143   0.097
 5624SOL     OW17770   0.348   3.907   2.028
 5624SOL    HW117771   0.399   3.964   1.963
 5624SOL    HW217772   0.276   3.857   1.979
 5625SOL     OW17773   6.294   2.137   5.538
 5625SOL    HW117774   6.230   2.107   5.468
 5625SOL    HW217775   6.360   2.065   5.556
 5626SOL     OW17776   5.185   6.377   4.092
 5626SOL    HW117777   5.150   6.438   4.020
 5626SOL    HW217778   5.108   6.332   4.137
 5627SOL     OW17779   1.015   6.836   0.933
 5627SOL    HW117780   1.080   6.891   0.880
 5627SOL    HW217781   0.986   6.888   1.013
 5628SOL     OW17782   1.433   1.343   4.196
 5628SOL    HW117783   1.346   1.308   4.162
 5628SOL    HW217784   1.492   1.366   4.119
 5629SOL     OW17785   3.702   2.899   3.347
 5629SOL    HW117786   3.657   2.892   3.436
 5629SOL    HW217787   3.782   2.958   3.355
 5630SOL     OW17788   6.455   4.243   1.189
 5630SOL    HW117789   6.392   4.165   1.192
 5630SOL    HW217790   6.471   4.277   1.282
 5631SOL     OW17791   5.621   1.496   6.208
 5631SOL    HW117792   5.523   1.482   6.222
 5631SOL    HW217793   5.639   1.593   6.191
 5632SOL     OW17794   2.816   2.386   0.075
 5632SOL    HW117795   2.839   2.336   0.159
 5632SOL    HW217796   2.901   2.415   0.030
 5633SOL     OW17797   0.052   3.069   5.332
 5633SOL    HW117798   0.103   3.009   5.394
 5633SOL    HW217799   6.978   3.048   5.338
 5634SOL     OW17800   5.071   5.963   4.479
 5634SOL    HW117801   5.149   5.982   4.419
 5634SOL    HW217802   4.989   5.946   4.424
 5635SOL     OW17803   3.624   1.654   5.926
 5635SOL    HW117804   3.553   1.724   5.916
 5635SOL    HW217805   3.712   1.698   5.942
 5636SOL     OW17806   3.867   6.189   4.796
 5636SOL    HW117807   3.899   6.183   4.891
 5636SOL    HW217808   3.773   6.157   4.790
 5637SOL     OW17809   6.179   0.324   3.147
 5637SOL    HW117810   6.246   0.266   3.099
 5637SOL    HW217811   6.219   0.358   3.232
 5638SOL     OW17812   6.383   3.454   0.188
 5638SOL    HW117813   6.304   3.513   0.174
 5638SOL    HW217814   6.430   3.481   0.272
 5639SOL     OW17815   4.400   0.169   6.919
 5639SOL    HW117816   4.325   0.104   6.932
 5639SOL    HW217817   4.371   0.260   6.948
 5640SOL     OW17818   1.531   0.141   3.217
 5640SOL    HW117819   1.544   0.078   3.294
 5640SOL    HW217820   1.595   0.119   3.144
 5641SOL     OW17821   6.412   5.722   4.416
 5641SOL    HW117822   6.318   5.742   4.441
 5641SOL    HW217823   6.414   5.648   4.348
 5642SOL     OW17824   1.933   2.083   0.078
 5642SOL    HW117825   1.864   2.155   0.078
 5642SOL    HW217826   1.918   2.022   0.000
 5643SOL     OW17827   5.242   1.804   6.642
 5643SOL    HW117828   5.142   1.804   6.636
 5643SOL    HW217829   5.279   1.869   6.576
 5644SOL     OW17830   2.402   1.124   6.278
 5644SOL    HW117831   2.419   1.222   6.272
 5644SOL    HW217832   2.460   1.085   6.350
 5645SOL     OW17833   5.537   3.773   4.612
 5645SOL    HW117834   5.572   3.717   4.536
 5645SOL    HW217835   5.505   3.861   4.576
 5646SOL     OW17836   1.043   3.977   2.801
 5646SOL    HW117837   1.128   4.023   2.827
 5646SOL    HW217838   1.052   3.941   2.708
 5647SOL     OW17839   5.588   6.367   2.942
 5647SOL    HW117840   5.593   6.337   2.847
 5647SOL    HW217841   5.627   6.296   3.001
 5648SOL     OW17842   4.855   5.860   3.721
 5648SOL    HW117843   4.926   5.798   3.688
 5648SOL    HW217844   4.898   5.945   3.754
 5649SOL     OW17845   0.868   6.841   4.480
 5649SOL    HW117846   0.931   6.874   4.550
 5649SOL    HW217847   0.782   6.815   4.523
 5650SOL     OW17848   6.973   4.140   6.012
 5650SOL    HW117849   0.004   4.070   6.058
 5650SOL    HW217850   6.876   4.122   6.030
 5651SOL     OW17851   2.602   1.144   0.337
 5651SOL    HW117852   2.565   1.172   0.248
 5651SOL    HW217853   2.651   1.221   0.378
 5652SOL     OW17854   0.368   5.866   3.061
 5652SOL    HW117855   0.441   5.906   3.006
 5652SOL    HW217856   0.351   5.772   3.031
 5653SOL     OW17857   0.037   0.207   2.633
 5653SOL    HW117858   6.994   0.282   2.631
 5653SOL    HW217859   0.129   0.246   2.640
 5654SOL     OW17860   3.091   5.821   5.385
 5654SOL    HW117861   3.149   5.902   5.389
 5654SOL    HW217862   3.107   5.764   5.466
 5655SOL     OW17863   5.254   2.750   5.256
 5655SOL    HW117864   5.317   2.817   5.296
 5655SOL    HW217865   5.193   2.714   5.327
 5656SOL     OW17866   0.221   3.790   0.540
 5656SOL    HW117867   0.220   3.727   0.618
 5656SOL    HW217868   0.228   3.738   0.455
 5657SOL     OW17869   5.195   5.686   4.581
 5657SOL    HW117870   5.206   5.666   4.678
 5657SOL    HW217871   5.191   5.785   4.567
 5658SOL     OW17872   2.291   3.262   6.200
 5658SOL    HW117873   2.348   3.217   6.269
 5658SOL    HW217874   2.220   3.199   6.169
 5659SOL     OW17875   2.533   4.109   0.207
 5659SOL    HW117876   2.464   4.176   0.180
 5659SOL    HW217877   2.602   4.154   0.264
 5660SOL     OW17878   3.922   6.799   5.022
 5660SOL    HW117879   3.861   6.740   4.970
 5660SOL    HW217880   3.910   6.894   4.992
 5661SOL     OW17881   0.998   5.847   5.927
 5661SOL    HW117882   1.071   5.813   5.869
 5661SOL    HW217883   0.921   5.784   5.924
 5662SOL     OW17884   3.326   6.622   0.688
 5662SOL    HW117885   3.246   6.563   0.679
 5662SOL    HW217886   3.297   6.718   0.683
 5663SOL     OW17887   1.946   3.285   6.011
 5663SOL    HW117888   1.992   3.219   6.071
 5663SOL    HW217889   1.976   3.271   5.917
 5664SOL     OW17890   4.699   4.978   4.380
 5664SOL    HW117891   4.722   4.883   4.399
 5664SOL    HW217892   4.666   5.022   4.463
 5665SOL     OW17893   1.927   1.447   0.869
 5665SOL    HW117894   2.008   1.400   0.905
 5665SOL    HW217895   1.881   1.495   0.944
 5666SOL     OW17896   5.737   2.582   5.268
 5666SOL    HW117897   5.649   2.572   5.313
 5666SOL    HW217898   5.727   2.642   5.188
 5667SOL     OW17899   2.657   4.736   4.246
 5667SOL    HW117900   2.708   4.733   4.160
 5667SOL    HW217901   2.616   4.646   4.264
 5668SOL     OW17902   4.665   4.267   3.974
 5668SOL    HW117903   4.594   4.320   4.020
 5668SOL    HW217904   4.704   4.201   4.038
 5669SOL     OW17905   5.477   4.501   5.996
 5669SOL    HW117906   5.520   4.520   6.085
 5669SOL    HW217907   5.396   4.558   5.986
 5670SOL     OW17908   1.471   2.640   3.977
 5670SOL    HW117909   1.434   2.710   3.915
 5670SOL    HW217910   1.462   2.550   3.935
 5671SOL     OW17911   6.792   5.242   3.143
 5671SOL    HW117912   6.727   5.193   3.086
 5671SOL    HW217913   6.857   5.292   3.086
 5672SOL     OW17914   5.272   3.196   4.845
 5672SOL    HW117915   5.174   3.208   4.828
 5672SOL    HW217916   5.323   3.271   4.802
 5673SOL     OW17917   0.669   2.276   0.371
 5673SOL    HW117918   0.617   2.332   0.435
 5673SOL    HW217919   0.679   2.325   0.284
 5674SOL     OW17920   2.425   4.949   5.255
 5674SOL    HW117921   2.451   4.896   5.174
 5674SOL    HW217922   2.450   4.898   5.337
 5675SOL     OW17923   2.945   2.454   0.531
 5675SOL    HW117924   2.892   2.423   0.610
 5675SOL    HW217925   3.020   2.390   0.514
 5676SOL     OW17926   3.532   1.372   2.011
 5676SOL    HW117927   3.476   1.290   2.007
 5676SOL    HW217928   3.480   1.451   1.977
 5677SOL     OW17929   0.431   1.622   6.299
 5677SOL    HW117930   0.390   1.682   6.231
 5677SOL    HW217931   0.375   1.541   6.310
 5678SOL     OW17932   3.674   2.079   2.253
 5678SOL    HW117933   3.648   2.148   2.320
 5678SOL    HW217934   3.664   2.116   2.161
 5679SOL     OW17935   0.072   4.138   5.399
 5679SOL    HW117936   0.034   4.074   5.333
 5679SOL    HW217937   0.147   4.094   5.450
 5680SOL     OW17938   0.571   5.753   4.973
 5680SOL    HW117939   0.510   5.749   4.894
 5680SOL    HW217940   0.666   5.749   4.942
 5681SOL     OW17941   1.271   3.476   3.506
 5681SOL    HW117942   1.293   3.484   3.408
 5681SOL    HW217943   1.176   3.449   3.517
 5682SOL     OW17944   2.018   4.821   1.172
 5682SOL    HW117945   2.110   4.803   1.209
 5682SOL    HW217946   1.952   4.765   1.222
 5683SOL     OW17947   6.844   0.391   6.245
 5683SOL    HW117948   6.746   0.380   6.262
 5683SOL    HW217949   6.873   0.481   6.276
 5684SOL     OW17950   2.285   2.994   4.780
 5684SOL    HW117951   2.306   3.004   4.878
 5684SOL    HW217952   2.328   2.911   4.745
 5685SOL     OW17953   2.388   1.561   2.291
 5685SOL    HW117954   2.402   1.620   2.371
 5685SOL    HW217955   2.363   1.469   2.321
 5686SOL     OW17956   5.458   5.640   6.202
 5686SOL    HW117957   5.544   5.624   6.153
 5686SOL    HW217958   5.381   5.612   6.145
 5687SOL     OW17959   2.216   6.746   6.052
 5687SOL    HW117960   2.184   6.780   6.141
 5687SOL    HW217961   2.175   6.656   6.035
 5688SOL     OW17962   1.839   2.075   3.262
 5688SOL    HW117963   1.842   2.006   3.190
 5688SOL    HW217964   1.877   2.037   3.346
 5689SOL     OW17965   0.402   2.525   1.474
 5689SOL    HW117966   0.479   2.463   1.458
 5689SOL    HW217967   0.337   2.482   1.536
 5690SOL     OW17968   3.180   5.393   0.284
 5690SOL    HW117969   3.214   5.339   0.207
 5690SOL    HW217970   3.242   5.384   0.361
 5691SOL     OW17971   4.627   2.660   3.887
 5691SOL    HW117972   4.567   2.583   3.866
 5691SOL    HW217973   4.642   2.665   3.985
 5692SOL     OW17974   6.101   4.638   1.790
 5692SOL    HW117975   6.046   4.703   1.842
 5692SOL    HW217976   6.098   4.662   1.693
 5693SOL     OW17977   3.802   0.235   2.187
 5693SOL    HW117978   3.786   0.320   2.137
 5693SOL    HW217979   3.869   0.179   2.138
 5694SOL     OW17980   0.318   0.373   1.486
 5694SOL    HW117981   0.380   0.340   1.415
 5694SOL    HW217982   0.320   0.310   1.564
 5695SOL     OW17983   2.399   1.289   2.330
 5695SOL    HW117984   2.499   1.295   2.340
 5695SOL    HW217985   2.376   1.270   2.234
 5696SOL     OW17986   0.545   0.177   4.178
 5696SOL    HW117987   0.499   0.111   4.119
 5696SOL    HW217988   0.634   0.143   4.205
 5697SOL     OW17989   6.498   2.119   0.242
 5697SOL    HW117990   6.464   2.184   0.174
 5697SOL    HW217991   6.480   2.026   0.210
 5698SOL     OW17992   3.490   2.107   4.442
 5698SOL    HW117993   3.430   2.173   4.487
 5698SOL    HW217994   3.558   2.074   4.508
 5699SOL     OW17995   2.153   3.153   2.676
 5699SOL    HW117996   2.170   3.168   2.579
 5699SOL    HW217997   2.150   3.055   2.695
 5700SOL     OW17998   6.232   0.326   2.770
 5700SOL    HW117999   6.226   0.273   2.686
 5700SOL    HW218000   6.245   0.423   2.748
 5701SOL     OW18001   0.940   0.808   0.699
 5701SOL    HW118002   0.966   0.805   0.603
 5701SOL    HW218003   0.968   0.895   0.739
 5702SOL     OW18004   1.648   6.822   4.809
 5702SOL    HW118005   1.567   6.764   4.797
 5702SOL    HW218006   1.714   6.804   4.736
 5703SOL     OW18007   0.575   2.813   5.983
 5703SOL    HW118008   0.630   2.817   5.900
 5703SOL    HW218009   0.492   2.867   5.970
 5704SOL     OW18010   3.823   5.234   4.476
 5704SOL    HW118011   3.888   5.168   4.513
 5704SOL    HW218012   3.865   5.324   4.472
 5705SOL     OW18013   5.621   0.449   5.236
 5705SOL    HW118014   5.684   0.390   5.185
 5705SOL    HW218015   5.601   0.531   5.181
 5706SOL     OW18016   5.077   2.041   1.480
 5706SOL    HW118017   5.001   1.977   1.491
 5706SOL    HW218018   5.066   2.117   1.545
 5707SOL     OW18019   6.292   5.480   0.954
 5707SOL    HW118020   6.231   5.431   1.016
 5707SOL    HW218021   6.283   5.442   0.862
 5708SOL     OW18022   5.243   6.145   1.731
 5708SOL    HW118023   5.327   6.092   1.738
 5708SOL    HW218024   5.201   6.152   1.821
 5709SOL     OW18025   7.023   2.789   2.488
 5709SOL    HW118026   6.947   2.816   2.429
 5709SOL    HW218027   0.084   2.827   2.453
 5710SOL     OW18028   4.529   1.596   0.607
 5710SOL    HW118029   4.621   1.557   0.608
 5710SOL    HW218030   4.476   1.557   0.682
 5711SOL     OW18031   4.510   1.829   2.223
 5711SOL    HW118032   4.420   1.836   2.266
 5711SOL    HW218033   4.519   1.899   2.153
 5712SOL     OW18034   6.158   6.005   6.993
 5712SOL    HW118035   6.201   6.086   6.951
 5712SOL    HW218036   6.205   5.983   0.054
 5713SOL     OW18037   1.420   1.232   0.736
 5713SOL    HW118038   1.348   1.170   0.767
 5713SOL    HW218039   1.402   1.261   0.642
 5714SOL     OW18040   6.149   0.068   0.789
 5714SOL    HW118041   6.093   0.105   0.715
 5714SOL    HW218042   6.185   7.002   0.763
 5715SOL     OW18043   6.989   6.478   1.211
 5715SOL    HW118044   6.953   6.540   1.280
 5715SOL    HW218045   0.006   6.531   1.136
 5716SOL     OW18046   0.541   4.771   5.394
 5716SOL    HW118047   0.619   4.764   5.332
 5716SOL    HW218048   0.458   4.790   5.341
 5717SOL     OW18049   0.667   5.510   3.486
 5717SOL    HW118050   0.683   5.492   3.583
 5717SOL    HW218051   0.655   5.423   3.437
 5718SOL     OW18052   0.769   4.068   6.842
 5718SOL    HW118053   0.868   4.064   6.829
 5718SOL    HW218054   0.723   4.076   6.754
 5719SOL     OW18055   2.747   3.547   0.100
 5719SOL    HW118056   2.737   3.618   0.169
 5719SOL    HW218057   2.823   3.487   0.123
 5720SOL     OW18058   3.321   5.147   6.436
 5720SOL    HW118059   3.412   5.172   6.468
 5720SOL    HW218060   3.289   5.215   6.370
 5721SOL     OW18061   1.195   2.895   0.010
 5721SOL    HW118062   1.124   2.954   6.996
 5721SOL    HW218063   1.163   2.855   0.095
 5722SOL     OW18064   1.877   0.514   6.178
 5722SOL    HW118065   1.976   0.518   6.167
 5722SOL    HW218066   1.836   0.599   6.146
 5723SOL     OW18067   4.202   3.053   0.428
 5723SOL    HW118068   4.253   3.114   0.367
 5723SOL    HW218069   4.249   3.046   0.516
 5724SOL     OW18070   5.804   2.206   5.733
 5724SOL    HW118071   5.755   2.249   5.808
 5724SOL    HW218072   5.831   2.113   5.760
 5725SOL     OW18073   0.097   4.483   5.062
 5725SOL    HW118074   0.018   4.457   5.007
 5725SOL    HW218075   0.159   4.405   5.070
 5726SOL     OW18076   4.959   4.145   2.070
 5726SOL    HW118077   5.036   4.127   2.132
 5726SOL    HW218078   4.990   4.204   1.995
 5727SOL     OW18079   1.135   2.963   5.149
 5727SOL    HW118080   1.174   2.935   5.061
 5727SOL    HW218081   1.046   3.007   5.134
 5728SOL     OW18082   3.026   6.908   5.179
 5728SOL    HW118083   3.011   6.945   5.087
 5728SOL    HW218084   3.023   6.809   5.176
 5729SOL     OW18085   2.413   2.127   4.744
 5729SOL    HW118086   2.468   2.097   4.821
 5729SOL    HW218087   2.470   2.133   4.662
 5730SOL     OW18088   6.282   4.457   4.937
 5730SOL    HW118089   6.224   4.396   4.991
 5730SOL    HW218090   6.359   4.489   4.994
 5731SOL     OW18091   0.709   6.374   2.627
 5731SOL    HW118092   0.722   6.473   2.633
 5731SOL    HW218093   0.644   6.352   2.554
 5732SOL     OW18094   6.023   0.440   3.655
 5732SOL    HW118095   5.993   0.431   3.750
 5732SOL    HW218096   6.029   0.538   3.632
 5733SOL     OW18097   2.785   0.981   5.064
 5733SOL    HW118098   2.748   0.938   4.982
 5733SOL    HW218099   2.740   1.070   5.079
 5734SOL     OW18100   1.735   6.563   3.636
 5734SOL    HW118101   1.700   6.572   3.730
 5734SOL    HW218102   1.701   6.478   3.596
 5735SOL     OW18103   2.935   0.627   1.554
 5735SOL    HW118104   2.898   0.593   1.640
 5735SOL    HW218105   2.948   0.726   1.560
 5736SOL     OW18106   1.805   5.116   0.606
 5736SOL    HW118107   1.802   5.044   0.537
 5736SOL    HW218108   1.900   5.144   0.621
 5737SOL     OW18109   5.764   3.972   0.184
 5737SOL    HW118110   5.844   3.981   0.124
 5737SOL    HW218111   5.787   3.914   0.262
 5738SOL     OW18112   0.451   5.085   4.780
 5738SOL    HW118113   0.450   5.006   4.718
 5738SOL    HW218114   0.535   5.137   4.765
 5739SOL     OW18115   0.810   3.039   0.607
 5739SOL    HW118116   0.716   3.061   0.631
 5739SOL    HW218117   0.825   2.940   0.616
 5740SOL     OW18118   4.210   4.753   7.011
 5740SOL    HW118119   4.238   4.844   6.980
 5740SOL    HW218120   4.140   4.717   6.949
 5741SOL     OW18121   0.100   3.084   1.752
 5741SOL    HW118122   0.001   3.090   1.738
 5741SOL    HW218123   0.121   2.999   1.801
 5742SOL     OW18124   0.246   5.535   3.885
 5742SOL    HW118125   0.253   5.550   3.984
 5742SOL    HW218126   0.336   5.508   3.849
 5743SOL     OW18127   1.502   6.258   5.634
 5743SOL    HW118128   1.410   6.272   5.672
 5743SOL    HW218129   1.496   6.193   5.559
 5744SOL     OW18130   6.315   0.241   1.577
 5744SOL    HW118131   6.245   0.303   1.613
 5744SOL    HW218132   6.310   0.240   1.477
 5745SOL     OW18133   0.785   3.512   3.348
 5745SOL    HW118134   0.778   3.548   3.441
 5745SOL    HW218135   0.762   3.415   3.347
 5746SOL     OW18136   6.296   4.212   6.670
 5746SOL    HW118137   6.366   4.174   6.610
 5746SOL    HW218138   6.209   4.165   6.654
 5747SOL     OW18139   0.830   5.978   3.539
 5747SOL    HW118140   0.914   5.936   3.572
 5747SOL    HW218141   0.751   5.937   3.585
 5748SOL     OW18142   1.796   0.059   3.846
 5748SOL    HW118143   1.892   0.087   3.839
 5748SOL    HW218144   1.738   0.139   3.843
 5749SOL     OW18145   0.979   1.155   2.913
 5749SOL    HW118146   1.013   1.061   2.922
 5749SOL    HW218147   0.885   1.154   2.879
 5750SOL     OW18148   6.070   6.412   2.377
 5750SOL    HW118149   6.113   6.469   2.447
 5750SOL    HW218150   6.136   6.343   2.345
 5751SOL     OW18151   0.864   2.770   5.742
 5751SOL    HW118152   0.904   2.858   5.769
 5751SOL    HW218153   0.936   2.700   5.742
 5752SOL     OW18154   1.663   1.546   6.662
 5752SOL    HW118155   1.625   1.467   6.613
 5752SOL    HW218156   1.607   1.564   6.743
 5753SOL     OW18157   4.628   1.790   0.433
 5753SOL    HW118158   4.559   1.836   0.377
 5753SOL    HW218159   4.583   1.720   0.489
 5754SOL     OW18160   5.884   5.984   0.426
 5754SOL    HW118161   5.948   6.061   0.423
 5754SOL    HW218162   5.929   5.902   0.391
 5755SOL     OW18163   3.117   3.697   1.464
 5755SOL    HW118164   3.046   3.767   1.473
 5755SOL    HW218165   3.204   3.733   1.499
 5756SOL     OW18166   6.879   6.389   3.983
 5756SOL    HW118167   6.881   6.289   3.974
 5756SOL    HW218168   6.786   6.419   4.003
 5757SOL     OW18169   6.566   6.552   2.351
 5757SOL    HW118170   6.485   6.611   2.350
 5757SOL    HW218171   6.543   6.464   2.309
 5758SOL     OW18172   2.832   1.628   5.857
 5758SOL    HW118173   2.803   1.621   5.762
 5758SOL    HW218174   2.909   1.566   5.873
 5759SOL     OW18175   0.696   1.417   6.055
 5759SOL    HW118176   0.674   1.452   5.964
 5759SOL    HW218177   0.697   1.317   6.054
 5760SOL     OW18178   6.626   5.838   1.107
 5760SOL    HW118179   6.711   5.790   1.088
 5760SOL    HW218180   6.647   5.932   1.136
 5761SOL     OW18181   4.451   0.521   4.520
 5761SOL    HW118182   4.404   0.586   4.579
 5761SOL    HW218183   4.385   0.459   4.478
 5762SOL     OW18184   5.830   6.252   1.343
 5762SOL    HW118185   5.885   6.326   1.304
 5762SOL    HW218186   5.746   6.290   1.382
 5763SOL     OW18187   2.769   0.634   0.863
 5763SOL    HW118188   2.822   0.638   0.779
 5763SOL    HW218189   2.695   0.701   0.860
 5764SOL     OW18190   3.984   3.284   6.108
 5764SOL    HW118191   3.992   3.289   6.207
 5764SOL    HW218192   3.948   3.371   6.072
 5765SOL     OW18193   6.477   5.515   6.832
 5765SOL    HW118194   6.508   5.467   6.750
 5765SOL    HW218195   6.472   5.613   6.813
 5766SOL     OW18196   2.772   1.476   3.597
 5766SOL    HW118197   2.692   1.417   3.588
 5766SOL    HW218198   2.788   1.497   3.693
 5767SOL     OW18199   5.218   6.703   0.163
 5767SOL    HW118200   5.221   6.738   0.069
 5767SOL    HW218201   5.307   6.715   0.206
 5768SOL     OW18202   6.638   6.865   1.960
 5768SOL    HW118203   6.555   6.911   1.930
 5768SOL    HW218204   6.677   6.812   1.885
 5769SOL     OW18205   1.237   4.335   3.039
 5769SOL    HW118206   1.274   4.419   3.081
 5769SOL    HW218207   1.160   4.302   3.094
 5770SOL     OW18208   5.551   1.711   1.948
 5770SOL    HW118209   5.587   1.786   1.892
 5770SOL    HW218210   5.589   1.717   2.040
 5771SOL     OW18211   1.169   0.932   1.490
 5771SOL    HW118212   1.249   0.895   1.536
 5771SOL    HW218213   1.194   1.013   1.439
 5772SOL     OW18214   6.429   5.293   5.490
 5772SOL    HW118215   6.501   5.343   5.538
 5772SOL    HW218216   6.343   5.300   5.542
 5773SOL     OW18217   5.498   5.393   4.709
 5773SOL    HW118218   5.458   5.303   4.725
 5773SOL    HW218219   5.575   5.407   4.771
 5774SOL     OW18220   2.304   5.400   2.304
 5774SOL    HW118221   2.210   5.424   2.279
 5774SOL    HW218222   2.357   5.484   2.318
 5775SOL     OW18223   0.933   0.708   0.402
 5775SOL    HW118224   0.886   0.624   0.375
 5775SOL    HW218225   0.875   0.787   0.382
 5776SOL     OW18226   4.943   1.053   5.604
 5776SOL    HW118227   4.979   1.076   5.695
 5776SOL    HW218228   5.018   1.042   5.540
 5777SOL     OW18229   6.083   6.616   4.851
 5777SOL    HW118230   6.053   6.691   4.792
 5777SOL    HW218231   6.008   6.590   4.912
 5778SOL     OW18232   2.889   0.019   3.707
 5778SOL    HW118233   2.876   0.037   3.804
 5778SOL    HW218234   2.934   6.955   3.695
 5779SOL     OW18235   4.185   0.065   1.555
 5779SOL    HW118236   4.251   0.140   1.559
 5779SOL    HW218237   4.123   0.080   1.478
 5780SOL     OW18238   6.297   3.974   0.590
 5780SOL    HW118239   6.318   3.877   0.579
 5780SOL    HW218240   6.316   4.022   0.504
 5781SOL     OW18241   3.642   4.273   5.248
 5781SOL    HW118242   3.606   4.284   5.341
 5781SOL    HW218243   3.742   4.278   5.250
 5782SOL     OW18244   4.225   1.648   2.916
 5782SOL    HW118245   4.184   1.663   3.006
 5782SOL    HW218246   4.158   1.606   2.855
 5783SOL     OW18247   2.984   5.871   2.762
 5783SOL    HW118248   3.059   5.848   2.700
 5783SOL    HW218249   2.918   5.795   2.765
 5784SOL     OW18250   1.746   6.220   0.684
 5784SOL    HW118251   1.679   6.242   0.613
 5784SOL    HW218252   1.838   6.227   0.646
 5785SOL     OW18253   2.434   2.732   6.281
 5785SOL    HW118254   2.428   2.800   6.208
 5785SOL    HW218255   2.366   2.752   6.351
 5786SOL     OW18256   1.123   2.081   6.294
 5786SOL    HW118257   1.077   1.995   6.273
 5786SOL    HW218258   1.219   2.064   6.314
 5787SOL     OW18259   1.010   2.574   4.658
 5787SOL    HW118260   1.084   2.594   4.722
 5787SOL    HW218261   0.966   2.488   4.684
 5788SOL     OW18262   0.509   1.907   1.775
 5788SOL    HW118263   0.555   1.829   1.733
 5788SOL    HW218264   0.536   1.914   1.871
 5789SOL     OW18265   2.614   7.016   0.045
 5789SOL    HW118266   2.704   0.025   0.015
 5789SOL    HW218267   2.612   6.916   0.038
 5790SOL     OW18268   6.876   6.595   2.904
 5790SOL    HW118269   6.887   6.536   2.824
 5790SOL    HW218270   6.957   6.653   2.915
 5791SOL     OW18271   4.246   0.717   1.448
 5791SOL    HW118272   4.294   0.713   1.535
 5791SOL    HW218273   4.247   0.627   1.405
 5792SOL     OW18274   4.699   2.675   2.654
 5792SOL    HW118275   4.722   2.711   2.744
 5792SOL    HW218276   4.697   2.749   2.588
 5793SOL     OW18277   4.187   1.731   0.674
 5793SOL    HW118278   4.224   1.824   0.674
 5793SOL    HW218279   4.176   1.700   0.769
 5794SOL     OW18280   3.133   6.171   0.018
 5794SOL    HW118281   3.204   6.129   0.075
 5794SOL    HW218282   3.090   6.100   6.986
 5795SOL     OW18283   1.103   0.627   0.894
 5795SOL    HW118284   1.100   0.692   0.818
 5795SOL    HW218285   1.125   0.535   0.859
 5796SOL     OW18286   4.551   0.422   5.933
 5796SOL    HW118287   4.602   0.347   5.891
 5796SOL    HW218288   4.511   0.391   6.019
 5797SOL     OW18289   6.548   1.755   0.521
 5797SOL    HW118290   6.469   1.694   0.532
 5797SOL    HW218291   6.536   1.834   0.582
 5798SOL     OW18292   2.042   2.541   4.547
 5798SOL    HW118293   1.975   2.559   4.475
 5798SOL    HW218294   2.121   2.602   4.535
 5799SOL     OW18295   2.904   0.310   3.598
 5799SOL    HW118296   2.918   0.271   3.508
 5799SOL    HW218297   2.900   0.237   3.666
 5800SOL     OW18298   1.376   6.130   1.677
 5800SOL    HW118299   1.377   6.224   1.711
 5800SOL    HW218300   1.374   6.132   1.577
 5801SOL     OW18301   1.176   2.100   2.942
 5801SOL    HW118302   1.275   2.104   2.954
 5801SOL    HW218303   1.140   2.193   2.932
 5802SOL     OW18304   0.092   6.908   3.014
 5802SOL    HW118305   0.030   6.867   3.081
 5802SOL    HW218306   0.183   6.916   3.053
 5803SOL     OW18307   0.568   0.010   4.498
 5803SOL    HW118308   0.605   6.946   4.526
 5803SOL    HW218309   0.470   0.012   4.519
 5804SOL     OW18310   6.106   1.950   3.921
 5804SOL    HW118311   6.017   1.979   3.887
 5804SOL    HW218312   6.143   1.879   3.860
 5805SOL     OW18313   1.112   2.895   1.438
 5805SOL    HW118314   1.184   2.827   1.452
 5805SOL    HW218315   1.142   2.962   1.370
 5806SOL     OW18316   6.637   4.144   1.576
 5806SOL    HW118317   6.625   4.130   1.675
 5806SOL    HW218318   6.701   4.077   1.540
 5807SOL     OW18319   1.174   1.125   2.098
 5807SOL    HW118320   1.197   1.090   2.189
 5807SOL    HW218321   1.095   1.186   2.105
 5808SOL     OW18322   6.500   6.846   5.827
 5808SOL    HW118323   6.494   6.844   5.927
 5808SOL    HW218324   6.452   6.927   5.793
 5809SOL     OW18325   0.292   3.641   4.671
 5809SOL    HW118326   0.286   3.737   4.643
 5809SOL    HW218327   0.273   3.633   4.769
 5810SOL     OW18328   1.247   6.530   5.555
 5810SOL    HW118329   1.199   6.532   5.643
 5810SOL    HW218330   1.221   6.610   5.501
 5811SOL     OW18331   3.274   4.994   0.224
 5811SOL    HW118332   3.299   5.023   0.316
 5811SOL    HW218333   3.279   5.072   0.162
 5812SOL     OW18334   6.848   3.183   6.304
 5812SOL    HW118335   6.929   3.236   6.278
 5812SOL    HW218336   6.790   3.169   6.224
 5813SOL     OW18337   6.258   4.993   1.134
 5813SOL    HW118338   6.221   5.085   1.148
 5813SOL    HW218339   6.207   4.947   1.061
 5814SOL     OW18340   4.855   1.711   2.706
 5814SOL    HW118341   4.813   1.633   2.659
 5814SOL    HW218342   4.800   1.793   2.691
 5815SOL     OW18343   6.349   3.458   4.974
 5815SOL    HW118344   6.290   3.412   5.040
 5815SOL    HW218345   6.418   3.394   4.941
 5816SOL     OW18346   6.728   4.687   0.858
 5816SOL    HW118347   6.790   4.655   0.786
 5816SOL    HW218348   6.712   4.613   0.923
 5817SOL     OW18349   6.555   2.592   4.076
 5817SOL    HW118350   6.521   2.617   3.985
 5817SOL    HW218351   6.490   2.621   4.146
 5818SOL     OW18352   2.629   6.810   4.069
 5818SOL    HW118353   2.630   6.714   4.044
 5818SOL    HW218354   2.546   6.830   4.122
 5819SOL     OW18355   4.397   4.531   1.261
 5819SOL    HW118356   4.307   4.518   1.303
 5819SOL    HW218357   4.430   4.623   1.279
 5820SOL     OW18358   0.724   6.657   2.571
 5820SOL    HW118359   0.735   6.755   2.560
 5820SOL    HW218360   0.629   6.632   2.553
 5821SOL     OW18361   6.169   6.503   2.604
 5821SOL    HW118362   6.250   6.493   2.662
 5821SOL    HW218363   6.130   6.595   2.617
 5822SOL     OW18364   0.974   4.241   2.874
 5822SOL    HW118365   1.027   4.271   2.954
 5822SOL    HW218366   0.996   4.145   2.854
 5823SOL     OW18367   2.495   6.390   5.001
 5823SOL    HW118368   2.471   6.487   5.003
 5823SOL    HW218369   2.584   6.378   4.958
 5824SOL     OW18370   2.432   5.357   2.654
 5824SOL    HW118371   2.416   5.275   2.599
 5824SOL    HW218372   2.345   5.396   2.683
 5825SOL     OW18373   3.832   2.023   4.681
 5825SOL    HW118374   3.738   2.027   4.714
 5825SOL    HW218375   3.888   2.089   4.731
 5826SOL     OW18376   1.253   6.434   5.078
 5826SOL    HW118377   1.341   6.479   5.087
 5826SOL    HW218378   1.185   6.480   5.135
 5827SOL     OW18379   2.140   3.876   3.579
 5827SOL    HW118380   2.076   3.913   3.646
 5827SOL    HW218381   2.174   3.787   3.609
 5828SOL     OW18382   4.715   6.916   4.901
 5828SOL    HW118383   4.669   6.993   4.856
 5828SOL    HW218384   4.649   6.865   4.956
 5829SOL     OW18385   2.399   1.495   3.231
 5829SOL    HW118386   2.356   1.578   3.195
 5829SOL    HW218387   2.375   1.483   3.327
 5830SOL     OW18388   4.530   5.021   4.628
 5830SOL    HW118389   4.519   5.105   4.575
 5830SOL    HW218390   4.440   4.981   4.647
 5831SOL     OW18391   2.247   1.663   4.837
 5831SOL    HW118392   2.161   1.612   4.845
 5831SOL    HW218393   2.280   1.658   4.743
 5832SOL     OW18394   2.097   4.802   3.895
 5832SOL    HW118395   2.158   4.736   3.938
 5832SOL    HW218396   2.128   4.895   3.917
 5833SOL     OW18397   2.587   4.744   1.390
 5833SOL    HW118398   2.620   4.727   1.297
 5833SOL    HW218399   2.623   4.675   1.452
 5834SOL     OW18400   5.854   1.946   5.821
 5834SOL    HW118401   5.824   1.876   5.755
 5834SOL    HW218402   5.935   1.913   5.869
 5835SOL     OW18403   4.214   1.224   3.845
 5835SOL    HW118404   4.196   1.130   3.818
 5835SOL    HW218405   4.177   1.286   3.776
 5836SOL     OW18406   5.013   4.932   1.097
 5836SOL    HW118407   5.097   4.950   1.046
 5836SOL    HW218408   4.935   4.933   1.033
 5837SOL     OW18409   2.397   5.031   0.417
 5837SOL    HW118410   2.317   5.091   0.415
 5837SOL    HW218411   2.479   5.085   0.395
 5838SOL     OW18412   3.057   3.599   0.439
 5838SOL    HW118413   3.040   3.555   0.351
 5838SOL    HW218414   3.156   3.600   0.457
 5839SOL     OW18415   2.681   1.343   1.411
 5839SOL    HW118416   2.778   1.347   1.433
 5839SOL    HW218417   2.639   1.432   1.429
 5840SOL     OW18418   6.732   3.598   3.000
 5840SOL    HW118419   6.637   3.625   3.014
 5840SOL    HW218420   6.785   3.617   3.083
 5841SOL     OW18421   5.197   2.208   0.697
 5841SOL    HW118422   5.183   2.307   0.702
 5841SOL    HW218423   5.175   2.176   0.605
 5842SOL     OW18424   3.923   2.023   2.385
 5842SOL    HW118425   3.841   2.050   2.335
 5842SOL    HW218426   4.003   2.061   2.338
 5843SOL     OW18427   2.850   2.699   0.654
 5843SOL    HW118428   2.854   2.647   0.570
 5843SOL    HW218429   2.943   2.722   0.684
 5844SOL     OW18430   0.223   5.351   5.328
 5844SOL    HW118431   0.272   5.265   5.314
 5844SOL    HW218432   0.286   5.420   5.364
 5845SOL     OW18433   1.792   6.021   2.854
 5845SOL    HW118434   1.792   6.083   2.933
 5845SOL    HW218435   1.881   5.975   2.848
 5846SOL     OW18436   1.125   4.870   5.104
 5846SOL    HW118437   1.068   4.871   5.186
 5846SOL    HW218438   1.216   4.837   5.127
 5847SOL     OW18439   1.938   4.152   6.237
 5847SOL    HW118440   1.854   4.098   6.234
 5847SOL    HW218441   1.925   4.237   6.186
 5848SOL     OW18442   2.965   6.463   1.818
 5848SOL    HW118443   2.982   6.383   1.875
 5848SOL    HW218444   2.895   6.520   1.860
 5849SOL     OW18445   3.322   5.677   6.895
 5849SOL    HW118446   3.358   5.721   6.813
 5849SOL    HW218447   3.340   5.578   6.890
 5850SOL     OW18448   5.387   2.115   1.946
 5850SOL    HW118449   5.435   2.032   1.972
 5850SOL    HW218450   5.413   2.190   2.007
 5851SOL     OW18451   1.168   3.246   5.579
 5851SOL    HW118452   1.191   3.337   5.544
 5851SOL    HW218453   1.177   3.178   5.506
 5852SOL     OW18454   4.615   4.687   2.616
 5852SOL    HW118455   4.605   4.776   2.662
 5852SOL    HW218456   4.530   4.636   2.624
 5853SOL     OW18457   4.028   4.960   0.300
 5853SOL    HW118458   3.970   4.910   0.365
 5853SOL    HW218459   4.117   4.915   0.294
 5854SOL     OW18460   2.678   4.545   5.291
 5854SOL    HW118461   2.610   4.533   5.219
 5854SOL    HW218462   2.765   4.573   5.250
 5855SOL     OW18463   1.634   1.833   4.812
 5855SOL    HW118464   1.687   1.913   4.786
 5855SOL    HW218465   1.658   1.806   4.905
 5856SOL     OW18466   0.317   0.682   2.476
 5856SOL    HW118467   0.386   0.612   2.458
 5856SOL    HW218468   0.355   0.752   2.536
 5857SOL     OW18469   6.045   5.490   6.772
 5857SOL    HW118470   6.087   5.488   6.863
 5857SOL    HW218471   5.948   5.470   6.780
 5858SOL     OW18472   3.085   1.731   2.303
 5858SOL    HW118473   3.068   1.674   2.222
 5858SOL    HW218474   3.145   1.682   2.366
 5859SOL     OW18475   5.689   5.188   1.377
 5859SOL    HW118476   5.691   5.106   1.435
 5859SOL    HW218477   5.680   5.269   1.434
 5860SOL     OW18478   1.532   3.530   2.095
 5860SOL    HW118479   1.584   3.518   2.179
 5860SOL    HW218480   1.578   3.481   2.020
 5861SOL     OW18481   5.496   6.976   4.925
 5861SOL    HW118482   5.470   0.046   4.945
 5861SOL    HW218483   5.414   6.921   4.909
 5862SOL     OW18484   0.001   4.544   2.235
 5862SOL    HW118485   6.971   4.460   2.241
 5862SOL    HW218486   7.016   4.582   2.143
 5863SOL     OW18487   4.146   0.041   5.883
 5863SOL    HW118488   4.169   6.978   5.927
 5863SOL    HW218489   4.059   0.074   5.917
 5864SOL     OW18490   3.879   3.100   3.367
 5864SOL    HW118491   3.818   3.172   3.334
 5864SOL    HW218492   3.954   3.087   3.302
 5865SOL     OW18493   5.915   6.424   1.761
 5865SOL    HW118494   5.842   6.482   1.725
 5865SOL    HW218495   5.878   6.364   1.831
 5866SOL     OW18496   3.172   3.618   3.766
 5866SOL    HW118497   3.200   3.709   3.796
 5866SOL    HW218498   3.077   3.620   3.735
 5867SOL     OW18499   4.795   1.620   0.830
 5867SOL    HW118500   4.782   1.524   0.857
 5867SOL    HW218501   4.820   1.624   0.733
 5868SOL     OW18502   1.023   1.032   0.818
 5868SOL    HW118503   0.972   1.104   0.771
 5868SOL    HW218504   0.970   1.000   0.897
 5869SOL     OW18505   2.048   5.077   3.242
 5869SOL    HW118506   2.087   5.148   3.182
 5869SOL    HW218507   2.067   4.987   3.202
 5870SOL     OW18508   4.501   6.592   4.333
 5870SOL    HW118509   4.545   6.505   4.356
 5870SOL    HW218510   4.454   6.583   4.245
 5871SOL     OW18511   3.984   3.487   3.480
 5871SOL    HW118512   3.980   3.488   3.580
 5871SOL    HW218513   3.942   3.403   3.445
 5872SOL     OW18514   3.128   5.696   1.216
 5872SOL    HW118515   3.185   5.624   1.257
 5872SOL    HW218516   3.183   5.747   1.149
 5873SOL     OW18517   4.239   6.532   2.042
 5873SOL    HW118518   4.259   6.629   2.027
 5873SOL    HW218519   4.156   6.507   1.992
 5874SOL     OW18520   6.866   4.163   4.705
 5874SOL    HW118521   6.869   4.262   4.695
 5874SOL    HW218522   6.959   4.128   4.714
 5875SOL     OW18523   3.822   2.507   1.042
 5875SOL    HW118524   3.756   2.580   1.058
 5875SOL    HW218525   3.900   2.543   0.990
 5876SOL     OW18526   3.352   2.968   2.418
 5876SOL    HW118527   3.306   2.952   2.330
 5876SOL    HW218528   3.303   3.039   2.469
 5877SOL     OW18529   5.113   3.903   1.770
 5877SOL    HW118530   5.097   3.987   1.719
 5877SOL    HW218531   5.042   3.892   1.840
 5878SOL     OW18532   0.890   3.775   1.981
 5878SOL    HW118533   0.847   3.841   2.042
 5878SOL    HW218534   0.826   3.701   1.960
 5879SOL     OW18535   2.040   4.424   4.841
 5879SOL    HW118536   2.098   4.490   4.889
 5879SOL    HW218537   1.944   4.445   4.858
 5880SOL     OW18538   2.709   5.278   6.542
 5880SOL    HW118539   2.727   5.252   6.637
 5880SOL    HW218540   2.723   5.377   6.532
 5881SOL     OW18541   1.724   6.118   4.026
 5881SOL    HW118542   1.742   6.049   3.956
 5881SOL    HW218543   1.626   6.119   4.048
 5882SOL     OW18544   4.595   0.466   3.093
 5882SOL    HW118545   4.636   0.537   3.035
 5882SOL    HW218546   4.635   0.377   3.070
 5883SOL     OW18547   1.259   3.188   4.914
 5883SOL    HW118548   1.323   3.253   4.872
 5883SOL    HW218549   1.268   3.192   5.014
 5884SOL     OW18550   0.321   0.859   3.120
 5884SOL    HW118551   0.315   0.892   3.215
 5884SOL    HW218552   0.272   0.922   3.060
 5885SOL     OW18553   5.379   6.673   0.420
 5885SOL    HW118554   5.290   6.644   0.453
 5885SOL    HW218555   5.423   6.729   0.491
 5886SOL     OW18556   6.154   1.376   6.537
 5886SOL    HW118557   6.133   1.474   6.532
 5886SOL    HW218558   6.155   1.348   6.633
 5887SOL     OW18559   3.700   6.547   2.584
 5887SOL    HW118560   3.669   6.492   2.507
 5887SOL    HW218561   3.646   6.631   2.590
 5888SOL     OW18562   6.847   6.516   2.263
 5888SOL    HW118563   6.840   6.583   2.189
 5888SOL    HW218564   6.761   6.514   2.313
 5889SOL     OW18565   2.813   0.177   7.012
 5889SOL    HW118566   2.879   0.222   6.951
 5889SOL    HW218567   2.737   0.240   0.007
 5890SOL     OW18568   3.857   5.566   5.823
 5890SOL    HW118569   3.913   5.496   5.867
 5890SOL    HW218570   3.776   5.585   5.880
 5891SOL     OW18571   1.361   3.428   6.104
 5891SOL    HW118572   1.455   3.414   6.133
 5891SOL    HW218573   1.312   3.341   6.107
 5892SOL     OW18574   2.234   5.734   2.419
 5892SOL    HW118575   2.146   5.762   2.381
 5892SOL    HW218576   2.239   5.760   2.515
 5893SOL     OW18577   1.325   2.655   2.561
 5893SOL    HW118578   1.251   2.705   2.605
 5893SOL    HW218579   1.413   2.699   2.582
 5894SOL     OW18580   1.454   3.616   3.942
 5894SOL    HW118581   1.548   3.637   3.967
 5894SOL    HW218582   1.433   3.656   3.853
 5895SOL     OW18583   5.545   4.354   2.925
 5895SOL    HW118584   5.447   4.335   2.926
 5895SOL    HW218585   5.596   4.275   2.960
 5896SOL     OW18586   5.027   2.463   5.771
 5896SOL    HW118587   5.103   2.427   5.717
 5896SOL    HW218588   5.049   2.457   5.869
 5897SOL     OW18589   4.057   4.523   1.064
 5897SOL    HW118590   4.033   4.559   0.975
 5897SOL    HW218591   4.156   4.527   1.076
 5898SOL     OW18592   2.352   6.511   3.171
 5898SOL    HW118593   2.286   6.585   3.163
 5898SOL    HW218594   2.424   6.523   3.102
 5899SOL     OW18595   5.310   0.659   3.702
 5899SOL    HW118596   5.300   0.646   3.801
 5899SOL    HW218597   5.360   0.743   3.684
 5900SOL     OW18598   3.642   4.954   1.828
 5900SOL    HW118599   3.618   4.876   1.886
 5900SOL    HW218600   3.723   4.998   1.865
 5901SOL     OW18601   3.060   5.819   4.036
 5901SOL    HW118602   3.074   5.813   3.938
 5901SOL    HW218603   3.086   5.910   4.068
 5902SOL     OW18604   6.104   2.520   0.568
 5902SOL    HW118605   6.048   2.487   0.492
 5902SOL    HW218606   6.177   2.578   0.532
 5903SOL     OW18607   0.252   2.207   5.967
 5903SOL    HW118608   0.259   2.205   6.067
 5903SOL    HW218609   0.278   2.297   5.933
 5904SOL     OW18610   1.791   3.073   2.093
 5904SOL    HW118611   1.833   3.089   2.004
 5904SOL    HW218612   1.717   3.007   2.083
 5905SOL     OW18613   0.176   3.942   2.394
 5905SOL    HW118614   0.189   3.848   2.363
 5905SOL    HW218615   0.262   3.977   2.432
 5906SOL     OW18616   6.813   1.040   3.173
 5906SOL    HW118617   6.800   0.952   3.218
 5906SOL    HW218618   6.830   1.111   3.241
 5907SOL     OW18619   2.396   1.112   3.123
 5907SOL    HW118620   2.398   1.017   3.092
 5907SOL    HW218621   2.482   1.135   3.168
 5908SOL     OW18622   0.469   2.787   5.308
 5908SOL    HW118623   0.470   2.688   5.323
 5908SOL    HW218624   0.509   2.833   5.388
 5909SOL     OW18625   6.319   4.672   6.728
 5909SOL    HW118626   6.339   4.699   6.633
 5909SOL    HW218627   6.279   4.749   6.777
 5910SOL     OW18628   1.366   1.201   3.405
 5910SOL    HW118629   1.401   1.184   3.313
 5910SOL    HW218630   1.314   1.286   3.406
 5911SOL     OW18631   6.727   6.164   6.953
 5911SOL    HW118632   6.712   6.233   6.881
 5911SOL    HW218633   6.675   6.082   6.931
 5912SOL     OW18634   0.643   0.764   3.251
 5912SOL    HW118635   0.725   0.720   3.287
 5912SOL    HW218636   0.652   0.775   3.152
 5913SOL     OW18637   6.482   2.751   1.206
 5913SOL    HW118638   6.576   2.780   1.225
 5913SOL    HW218639   6.431   2.828   1.168
 5914SOL     OW18640   1.090   0.124   0.866
 5914SOL    HW118641   1.036   0.098   0.786
 5914SOL    HW218642   1.170   0.064   0.872
 5915SOL     OW18643   3.985   0.277   5.249
 5915SOL    HW118644   3.981   0.209   5.176
 5915SOL    HW218645   3.893   0.311   5.268
 5916SOL     OW18646   1.407   0.446   2.318
 5916SOL    HW118647   1.411   0.396   2.404
 5916SOL    HW218648   1.315   0.437   2.279
 5917SOL     OW18649   3.039   3.047   0.588
 5917SOL    HW118650   3.111   2.979   0.590
 5917SOL    HW218651   2.954   3.008   0.624
 5918SOL     OW18652   3.363   6.852   4.156
 5918SOL    HW118653   3.384   6.950   4.151
 5918SOL    HW218654   3.353   6.824   4.252
 5919SOL     OW18655   2.997   3.855   4.674
 5919SOL    HW118656   3.090   3.846   4.708
 5919SOL    HW218657   2.998   3.890   4.580
 5920SOL     OW18658   0.949   0.980   5.649
 5920SOL    HW118659   0.942   0.990   5.550
 5920SOL    HW218660   0.937   0.884   5.674
 5921SOL     OW18661   2.626   5.208   0.333
 5921SOL    HW118662   2.617   5.243   0.239
 5921SOL    HW218663   2.697   5.138   0.335
 5922SOL     OW18664   5.045   2.384   2.381
 5922SOL    HW118665   5.015   2.288   2.381
 5922SOL    HW218666   5.010   2.430   2.463
 5923SOL     OW18667   5.924   0.862   2.856
 5923SOL    HW118668   5.934   0.833   2.951
 5923SOL    HW218669   5.829   0.889   2.839
 5924SOL     OW18670   6.608   6.501   3.696
 5924SOL    HW118671   6.630   6.456   3.609
 5924SOL    HW218672   6.561   6.438   3.756
 5925SOL     OW18673   5.038   1.018   0.727
 5925SOL    HW118674   5.130   1.055   0.742
 5925SOL    HW218675   4.971   1.092   0.733
 5926SOL     OW18676   5.402   3.300   3.079
 5926SOL    HW118677   5.485   3.243   3.084
 5926SOL    HW218678   5.362   3.293   2.988
 5927SOL     OW18679   0.660   6.338   1.584
 5927SOL    HW118680   0.685   6.393   1.505
 5927SOL    HW218681   0.739   6.285   1.614
 5928SOL     OW18682   3.198   0.380   7.008
 5928SOL    HW118683   3.220   0.283   7.019
 5928SOL    HW218684   3.128   0.406   0.050
 5929SOL     OW18685   1.141   0.608   1.430
 5929SOL    HW118686   1.200   0.664   1.489
 5929SOL    HW218687   1.178   0.608   1.337
 5930SOL     OW18688   0.914   4.064   1.484
 5930SOL    HW118689   0.889   4.137   1.420
 5930SOL    HW218690   0.871   4.082   1.573
 5931SOL     OW18691   4.329   5.864   3.661
 5931SOL    HW118692   4.412   5.876   3.608
 5931SOL    HW218693   4.339   5.907   3.751
 5932SOL     OW18694   3.951   6.104   0.165
 5932SOL    HW118695   3.924   6.063   0.252
 5932SOL    HW218696   3.992   6.035   0.107
 5933SOL     OW18697   6.834   5.744   4.278
 5933SOL    HW118698   6.871   5.671   4.335
 5933SOL    HW218699   6.903   5.774   4.213
 5934SOL     OW18700   3.320   4.201   7.008
 5934SOL    HW118701   3.234   4.223   6.963
 5934SOL    HW218702   3.303   4.170   0.077
 5935SOL     OW18703   1.502   0.339   5.542
 5935SOL    HW118704   1.542   0.293   5.463
 5935SOL    HW218705   1.412   0.300   5.562
 5936SOL     OW18706   3.615   2.877   2.177
 5936SOL    HW118707   3.566   2.964   2.180
 5936SOL    HW218708   3.581   2.822   2.100
 5937SOL     OW18709   0.561   3.262   0.277
 5937SOL    HW118710   0.485   3.224   0.330
 5937SOL    HW218711   0.580   3.201   0.199
 5938SOL     OW18712   0.796   3.492   4.555
 5938SOL    HW118713   0.837   3.494   4.646
 5938SOL    HW218714   0.738   3.573   4.543
 5939SOL     OW18715   4.417   1.301   5.898
 5939SOL    HW118716   4.422   1.399   5.875
 5939SOL    HW218717   4.458   1.248   5.824
 5940SOL     OW18718   5.149   5.124   1.507
 5940SOL    HW118719   5.130   5.034   1.469
 5940SOL    HW218720   5.063   5.169   1.531
 5941SOL     OW18721   0.749   1.931   3.303
 5941SOL    HW118722   0.820   1.861   3.306
 5941SOL    HW218723   0.779   2.012   3.354
 5942SOL     OW18724   5.042   2.544   6.423
 5942SOL    HW118725   4.963   2.606   6.430
 5942SOL    HW218726   5.122   2.587   6.464
 5943SOL     OW18727   1.775   5.080   1.595
 5943SOL    HW118728   1.844   5.151   1.612
 5943SOL    HW218729   1.690   5.123   1.564
 5944SOL     OW18730   6.235   4.012   6.008
 5944SOL    HW118731   6.211   4.091   5.951
 5944SOL    HW218732   6.320   4.033   6.057
 5945SOL     OW18733   6.653   6.600   4.274
 5945SOL    HW118734   6.699   6.665   4.212
 5945SOL    HW218735   6.628   6.648   4.359
 5946SOL     OW18736   2.446   2.964   0.083
 5946SOL    HW118737   2.498   2.948   7.023
 5946SOL    HW218738   2.349   2.972   0.062
 5947SOL     OW18739   3.554   3.297   4.324
 5947SOL    HW118740   3.522   3.258   4.410
 5947SOL    HW218741   3.622   3.368   4.343
 5948SOL     OW18742   4.801   3.944   1.528
 5948SOL    HW118743   4.885   3.988   1.558
 5948SOL    HW218744   4.723   3.985   1.574
 5949SOL     OW18745   1.024   4.174   3.539
 5949SOL    HW118746   1.103   4.177   3.478
 5949SOL    HW218747   1.049   4.130   3.625
 5950SOL     OW18748   2.754   6.401   4.694
 5950SOL    HW118749   2.711   6.327   4.641
 5950SOL    HW218750   2.773   6.368   4.786
 5951SOL     OW18751   0.062   3.062   6.430
 5951SOL    HW118752   0.054   3.115   6.345
 5951SOL    HW218753   0.158   3.046   6.451
 5952SOL     OW18754   3.713   4.052   1.755
 5952SOL    HW118755   3.733   3.999   1.837
 5952SOL    HW218756   3.633   4.109   1.771
 5953SOL     OW18757   6.946   2.839   6.374
 5953SOL    HW118758   6.946   2.872   6.280
 5953SOL    HW218759   6.981   2.911   6.434
 5954SOL     OW18760   1.850   5.141   3.624
 5954SOL    HW118761   1.920   5.198   3.580
 5954SOL    HW218762   1.833   5.061   3.567
 5955SOL     OW18763   3.779   2.831   0.411
 5955SOL    HW118764   3.775   2.768   0.488
 5955SOL    HW218765   3.732   2.791   0.332
 5956SOL     OW18766   4.517   2.591   5.684
 5956SOL    HW118767   4.459   2.589   5.765
 5956SOL    HW218768   4.608   2.555   5.706
 5957SOL     OW18769   6.393   2.202   3.865
 5957SOL    HW118770   6.368   2.121   3.918
 5957SOL    HW218771   6.485   2.232   3.890
 5958SOL     OW18772   2.389   5.975   2.817
 5958SOL    HW118773   2.488   5.968   2.805
 5958SOL    HW218774   2.370   6.039   2.892
 5959SOL     OW18775   5.409   3.799   3.040
 5959SOL    HW118776   5.497   3.753   3.032
 5959SOL    HW218777   5.416   3.871   3.108
 5960SOL     OW18778   5.673   0.156   6.452
 5960SOL    HW118779   5.583   0.169   6.411
 5960SOL    HW218780   5.716   0.244   6.468
 5961SOL     OW18781   3.190   1.863   4.290
 5961SOL    HW118782   3.269   1.922   4.307
 5961SOL    HW218783   3.197   1.823   4.199
 5962SOL     OW18784   4.620   4.311   0.395
 5962SOL    HW118785   4.626   4.408   0.373
 5962SOL    HW218786   4.541   4.294   0.453
 5963SOL     OW18787   1.796   4.264   0.124
 5963SOL    HW118788   1.823   4.310   0.040
 5963SOL    HW218789   1.879   4.232   0.172
 5964SOL     OW18790   1.860   0.294   3.105
 5964SOL    HW118791   1.952   0.262   3.085
 5964SOL    HW218792   1.848   0.302   3.204
 5965SOL     OW18793   2.372   0.312   0.991
 5965SOL    HW118794   2.441   0.315   1.063
 5965SOL    HW218795   2.408   0.260   0.913
 5966SOL     OW18796   2.680   1.788   5.174
 5966SOL    HW118797   2.602   1.762   5.119
 5966SOL    HW218798   2.726   1.866   5.132
 5967SOL     OW18799   4.737   2.289   5.104
 5967SOL    HW118800   4.736   2.324   5.198
 5967SOL    HW218801   4.824   2.243   5.086
 5968SOL     OW18802   6.329   2.115   3.061
 5968SOL    HW118803   6.379   2.093   3.144
 5968SOL    HW218804   6.245   2.061   3.057
 5969SOL     OW18805   5.275   0.082   1.394
 5969SOL    HW118806   5.229   7.021   1.368
 5969SOL    HW218807   5.302   0.132   1.311
 5970SOL     OW18808   6.558   2.455   0.128
 5970SOL    HW118809   6.515   2.378   0.081
 5970SOL    HW218810   6.512   2.471   0.215
 5971SOL     OW18811   6.690   5.320   3.577
 5971SOL    HW118812   6.640   5.321   3.490
 5971SOL    HW218813   6.740   5.234   3.586
 5972SOL     OW18814   5.930   5.150   1.005
 5972SOL    HW118815   5.954   5.159   1.101
 5972SOL    HW218816   5.832   5.128   0.997
 5973SOL     OW18817   3.318   1.129   2.286
 5973SOL    HW118818   3.269   1.215   2.304
 5973SOL    HW218819   3.380   1.109   2.362
 5974SOL     OW18820   5.817   1.058   4.375
 5974SOL    HW118821   5.841   1.026   4.467
 5974SOL    HW218822   5.771   1.146   4.382
 5975SOL     OW18823   4.340   5.213   1.437
 5975SOL    HW118824   4.437   5.236   1.437
 5975SOL    HW218825   4.326   5.123   1.478
 5976SOL     OW18826   1.383   3.748   5.462
 5976SOL    HW118827   1.406   3.783   5.371
 5976SOL    HW218828   1.412   3.814   5.531
 5977SOL     OW18829   0.059   5.455   1.208
 5977SOL    HW118830   7.022   5.377   1.199
 5977SOL    HW218831   0.152   5.427   1.185
 5978SOL     OW18832   2.951   3.835   6.027
 5978SOL    HW118833   2.916   3.754   5.978
 5978SOL    HW218834   3.051   3.837   6.018
 5979SOL     OW18835   5.958   7.005   1.014
 5979SOL    HW118836   6.046   0.026   0.999
 5979SOL    HW218837   5.967   6.936   1.086
 5980SOL     OW18838   3.042   2.795   0.813
 5980SOL    HW118839   3.108   2.822   0.742
 5980SOL    HW218840   3.055   2.853   0.894
 5981SOL     OW18841   3.285   2.796   1.039
 5981SOL    HW118842   3.192   2.832   1.049
 5981SOL    HW218843   3.281   2.696   1.028
 5982SOL     OW18844   5.432   2.355   1.025
 5982SOL    HW118845   5.364   2.351   0.951
 5982SOL    HW218846   5.472   2.265   1.038
 5983SOL     OW18847   6.740   1.469   3.601
 5983SOL    HW118848   6.689   1.509   3.525
 5983SOL    HW218849   6.724   1.370   3.604
 5984SOL     OW18850   6.407   6.156   2.840
 5984SOL    HW118851   6.322   6.191   2.880
 5984SOL    HW218852   6.485   6.197   2.887
 5985SOL     OW18853   6.718   4.183   2.816
 5985SOL    HW118854   6.735   4.085   2.810
 5985SOL    HW218855   6.731   4.214   2.910
 5986SOL     OW18856   3.799   3.319   3.178
 5986SOL    HW118857   3.814   3.244   3.114
 5986SOL    HW218858   3.854   3.398   3.151
 5987SOL     OW18859   6.923   6.139   4.249
 5987SOL    HW118860   6.967   6.068   4.304
 5987SOL    HW218861   6.915   6.107   4.155
 5988SOL     OW18862   1.105   2.734   0.214
 5988SOL    HW118863   1.129   2.800   0.284
 5988SOL    HW218864   1.005   2.726   0.209
 5989SOL     OW18865   1.947   6.396   5.569
 5989SOL    HW118866   1.856   6.384   5.529
 5989SOL    HW218867   1.940   6.388   5.669
 5990SOL     OW18868   2.356   3.936   1.625
 5990SOL    HW118869   2.302   3.972   1.700
 5990SOL    HW218870   2.402   4.011   1.577
 5991SOL     OW18871   5.526   1.214   0.697
 5991SOL    HW118872   5.539   1.119   0.725
 5991SOL    HW218873   5.502   1.269   0.777
 5992SOL     OW18874   2.331   4.872   3.334
 5992SOL    HW118875   2.297   4.894   3.243
 5992SOL    HW218876   2.262   4.899   3.402
 5993SOL     OW18877   5.461   2.235   0.319
 5993SOL    HW118878   5.414   2.320   0.343
 5993SOL    HW218879   5.529   2.214   0.389
 5994SOL     OW18880   6.947   4.330   0.500
 5994SOL    HW118881   6.858   4.302   0.537
 5994SOL    HW218882   6.939   4.348   0.402
 5995SOL     OW18883   5.529   3.087   1.134
 5995SOL    HW118884   5.590   3.089   1.055
 5995SOL    HW218885   5.484   3.175   1.144
 5996SOL     OW18886   2.820   0.511   1.802
 5996SOL    HW118887   2.877   0.572   1.856
 5996SOL    HW218888   2.726   0.545   1.800
 5997SOL     OW18889   6.245   0.297   4.207
 5997SOL    HW118890   6.294   0.353   4.140
 5997SOL    HW218891   6.261   0.334   4.299
 5998SOL     OW18892   5.895   6.389   6.116
 5998SOL    HW118893   5.938   6.329   6.183
 5998SOL    HW218894   5.811   6.347   6.081
 5999SOL     OW18895   5.425   3.347   1.154
 5999SOL    HW118896   5.492   3.418   1.133
 5999SOL    HW218897   5.395   3.357   1.248
 6000SOL     OW18898   1.143   4.832   1.457
 6000SOL    HW118899   1.137   4.734   1.477
 6000SOL    HW218900   1.162   4.845   1.360
 6001SOL     OW18901   6.885   5.926   5.407
 6001SOL    HW118902   6.846   5.950   5.318
 6001SOL    HW218903   6.859   5.995   5.475
 6002SOL     OW18904   5.580   4.677   4.742
 6002SOL    HW118905   5.519   4.720   4.674
 6002SOL    HW218906   5.543   4.692   4.833
 6003SOL     OW18907   2.643   2.064   5.452
 6003SOL    HW118908   2.634   2.161   5.473
 6003SOL    HW218909   2.736   2.045   5.421
 6004SOL     OW18910   5.460   3.260   5.484
 6004SOL    HW118911   5.518   3.323   5.432
 6004SOL    HW218912   5.364   3.278   5.462
 6005SOL     OW18913   3.978   4.377   0.596
 6005SOL    HW118914   3.955   4.280   0.603
 6005SOL    HW218915   4.012   4.396   0.504
 6006SOL     OW18916   3.220   6.218   6.517
 6006SOL    HW118917   3.201   6.271   6.600
 6006SOL    HW218918   3.162   6.137   6.514
 6007SOL     OW18919   2.767   6.348   4.966
 6007SOL    HW118920   2.761   6.441   5.002
 6007SOL    HW218921   2.828   6.293   5.023
 6008SOL     OW18922   2.247   4.122   6.675
 6008SOL    HW118923   2.324   4.175   6.638
 6008SOL    HW218924   2.228   4.045   6.614
 6009SOL     OW18925   3.068   5.567   2.961
 6009SOL    HW118926   3.146   5.552   3.021
 6009SOL    HW218927   3.090   5.534   2.869
 6010SOL     OW18928   0.327   4.876   5.249
 6010SOL    HW118929   0.312   4.922   5.162
 6010SOL    HW218930   0.246   4.824   5.275
 6011SOL     OW18931   5.350   1.655   3.287
 6011SOL    HW118932   5.303   1.607   3.362
 6011SOL    HW218933   5.369   1.589   3.214
 6012SOL     OW18934   6.536   1.150   6.277
 6012SOL    HW118935   6.452   1.197   6.303
 6012SOL    HW218936   6.566   1.184   6.188
 6013SOL     OW18937   5.317   1.394   2.559
 6013SOL    HW118938   5.262   1.414   2.640
 6013SOL    HW218939   5.409   1.432   2.571
 6014SOL     OW18940   3.643   3.540   3.903
 6014SOL    HW118941   3.680   3.593   3.979
 6014SOL    HW218942   3.610   3.602   3.832
 6015SOL     OW18943   5.954   7.017   4.079
 6015SOL    HW118944   6.046   0.012   4.114
 6015SOL    HW218945   5.898   0.076   4.086
 6016SOL     OW18946   4.292   2.276   4.890
 6016SOL    HW118947   4.258   2.355   4.941
 6016SOL    HW218948   4.352   2.221   4.949
 6017SOL     OW18949   1.462   2.091   5.139
 6017SOL    HW118950   1.362   2.091   5.145
 6017SOL    HW218951   1.495   2.184   5.123
 6018SOL     OW18952   2.779   1.512   3.873
 6018SOL    HW118953   2.753   1.418   3.894
 6018SOL    HW218954   2.857   1.539   3.930
 6019SOL     OW18955   6.753   4.565   6.181
 6019SOL    HW118956   6.754   4.479   6.233
 6019SOL    HW218957   6.816   4.557   6.103
 6020SOL     OW18958   0.312   5.566   5.493
 6020SOL    HW118959   0.297   5.627   5.571
 6020SOL    HW218960   0.357   5.617   5.420
 6021SOL     OW18961   5.550   0.476   3.302
 6021SOL    HW118962   5.521   0.546   3.237
 6021SOL    HW218963   5.512   0.496   3.392
 6022SOL     OW18964   6.396   2.947   1.461
 6022SOL    HW118965   6.471   2.952   1.396
 6022SOL    HW218966   6.432   2.936   1.554
 6023SOL     OW18967   4.672   6.663   2.642
 6023SOL    HW118968   4.650   6.760   2.637
 6023SOL    HW218969   4.626   6.622   2.721
 6024SOL     OW18970   0.657   5.874   0.119
 6024SOL    HW118971   0.746   5.897   0.080
 6024SOL    HW218972   0.584   5.911   0.061
 6025SOL     OW18973   3.184   0.779   5.547
 6025SOL    HW118974   3.198   0.685   5.579
 6025SOL    HW218975   3.149   0.835   5.623
 6026SOL     OW18976   5.890   5.617   3.668
 6026SOL    HW118977   5.892   5.595   3.570
 6026SOL    HW218978   5.900   5.715   3.681
 6027SOL     OW18979   5.895   4.759   6.014
 6027SOL    HW118980   5.811   4.811   6.034
 6027SOL    HW218981   5.871   4.674   5.967
 6028SOL     OW18982   6.149   5.899   6.114
 6028SOL    HW118983   6.183   5.993   6.113
 6028SOL    HW218984   6.143   5.867   6.209
 6029SOL     OW18985   3.018   2.183   2.829
 6029SOL    HW118986   3.104   2.153   2.789
 6029SOL    HW218987   2.972   2.246   2.767
 6030SOL     OW18988   5.908   3.287   4.509
 6030SOL    HW118989   5.888   3.223   4.584
 6030SOL    HW218990   5.929   3.236   4.426
 6031SOL     OW18991   0.063   6.762   4.244
 6031SOL    HW118992   0.061   6.858   4.215
 6031SOL    HW218993   0.022   6.705   4.174
 6032SOL     OW18994   3.490   6.852   3.484
 6032SOL    HW118995   3.444   6.827   3.399
 6032SOL    HW218996   3.568   6.910   3.465
 6033SOL     OW18997   1.021   1.750   2.454
 6033SOL    HW118998   1.051   1.804   2.532
 6033SOL    HW218999   1.062   1.659   2.458
 6034SOL     OW19000   0.602   0.470   0.584
 6034SOL    HW119001   0.658   0.450   0.665
 6034SOL    HW219002   0.602   0.391   0.523
 6035SOL     OW19003   2.409   0.650   2.877
 6035SOL    HW119004   2.350   0.606   2.809
 6035SOL    HW219005   2.490   0.593   2.891
 6036SOL     OW19006   6.694   3.193   0.678
 6036SOL    HW119007   6.734   3.284   0.688
 6036SOL    HW219008   6.595   3.200   0.690
 6037SOL     OW19009   4.709   0.623   5.961
 6037SOL    HW119010   4.640   0.555   5.936
 6037SOL    HW219011   4.773   0.583   6.026
 6038SOL     OW19012   1.577   1.297   6.558
 6038SOL    HW119013   1.589   1.201   6.583
 6038SOL    HW219014   1.505   1.305   6.489
 6039SOL     OW19015   3.819   2.949   3.872
 6039SOL    HW119016   3.732   2.930   3.919
 6039SOL    HW219017   3.887   2.881   3.899
 6040SOL     OW19018   0.681   1.953   0.388
 6040SOL    HW119019   0.712   1.926   0.479
 6040SOL    HW219020   0.719   2.043   0.366
 6041SOL     OW19021   0.670   3.189   4.726
 6041SOL    HW119022   0.696   3.096   4.752
 6041SOL    HW219023   0.688   3.203   4.629
 6042SOL     OW19024   2.508   5.955   3.860
 6042SOL    HW119025   2.421   5.925   3.821
 6042SOL    HW219026   2.521   6.053   3.843
 6043SOL     OW19027   2.076   6.099   2.429
 6043SOL    HW119028   2.173   6.097   2.451
 6043SOL    HW219029   2.023   6.098   2.513
 6044SOL     OW19030   6.900   3.151   0.505
 6044SOL    HW119031   6.809   3.146   0.547
 6044SOL    HW219032   6.968   3.166   0.577
 6045SOL     OW19033   4.986   1.421   4.122
 6045SOL    HW119034   5.061   1.399   4.059
 6045SOL    HW219035   4.920   1.347   4.123
 6046SOL     OW19036   3.687   3.533   2.746
 6046SOL    HW119037   3.755   3.460   2.737
 6046SOL    HW219038   3.604   3.495   2.788
 6047SOL     OW19039   0.304   1.245   0.133
 6047SOL    HW119040   0.223   1.195   0.162
 6047SOL    HW219041   0.278   1.325   0.080
 6048SOL     OW19042   5.800   5.735   3.204
 6048SOL    HW119043   5.872   5.753   3.137
 6048SOL    HW219044   5.711   5.748   3.162
 6049SOL     OW19045   5.082   5.211   5.854
 6049SOL    HW119046   5.042   5.121   5.842
 6049SOL    HW219047   5.065   5.244   5.947
 6050SOL     OW19048   2.578   5.207   3.048
 6050SOL    HW119049   2.485   5.241   3.062
 6050SOL    HW219050   2.615   5.245   2.964
 6051SOL     OW19051   0.602   1.201   2.156
 6051SOL    HW119052   0.529   1.234   2.097
 6051SOL    HW219053   0.663   1.141   2.104
 6052SOL     OW19054   5.666   5.670   0.020
 6052SOL    HW119055   5.688   5.580   0.057
 6052SOL    HW219056   5.631   5.728   0.094
 6053SOL     OW19057   3.895   2.369   6.377
 6053SOL    HW119058   3.939   2.294   6.328
 6053SOL    HW219059   3.878   2.343   6.472
 6054SOL     OW19060   4.117   3.483   0.322
 6054SOL    HW119061   4.073   3.555   0.269
 6054SOL    HW219062   4.093   3.494   0.419
 6055SOL     OW19063   3.038   4.472   1.402
 6055SOL    HW119064   3.013   4.567   1.416
 6055SOL    HW219065   3.131   4.467   1.363
 6056SOL     OW19066   5.252   5.799   3.424
 6056SOL    HW119067   5.248   5.889   3.381
 6056SOL    HW219068   5.291   5.733   3.360
 6057SOL     OW19069   5.667   1.415   3.687
 6057SOL    HW119070   5.674   1.330   3.740
 6057SOL    HW219071   5.694   1.492   3.744
 6058SOL     OW19072   0.093   2.583   5.585
 6058SOL    HW119073   0.189   2.558   5.576
 6058SOL    HW219074   0.044   2.512   5.634
 6059SOL     OW19075   3.932   2.297   0.013
 6059SOL    HW119076   3.924   2.205   7.000
 6059SOL    HW219077   3.967   2.293   0.106
 6060SOL     OW19078   1.575   2.266   0.635
 6060SOL    HW119079   1.616   2.322   0.563
 6060SOL    HW219080   1.639   2.196   0.664
 6061SOL     OW19081   3.056   4.133   6.886
 6061SOL    HW119082   3.108   4.071   6.945
 6061SOL    HW219083   2.969   4.089   6.861
 6062SOL     OW19084   2.200   2.153   6.006
 6062SOL    HW119085   2.217   2.076   5.944
 6062SOL    HW219086   2.212   2.123   6.101
 6063SOL     OW19087   5.147   4.210   5.973
 6063SOL    HW119088   5.104   4.123   5.998
 6063SOL    HW219089   5.239   4.214   6.011
 6064SOL     OW19090   5.518   6.228   0.742
 6064SOL    HW119091   5.545   6.189   0.654
 6064SOL    HW219092   5.454   6.166   0.788
 6065SOL     OW19093   2.046   6.062   1.665
 6065SOL    HW119094   2.024   6.103   1.754
 6065SOL    HW219095   2.101   6.127   1.612
 6066SOL     OW19096   5.665   5.598   2.142
 6066SOL    HW119097   5.737   5.539   2.106
 6066SOL    HW219098   5.689   5.626   2.235
 6067SOL     OW19099   0.019   5.620   5.715
 6067SOL    HW119100   0.064   5.618   5.804
 6067SOL    HW219101   0.036   5.534   5.667
 6068SOL     OW19102   4.717   2.022   4.304
 6068SOL    HW119103   4.755   1.961   4.374
 6068SOL    HW219104   4.629   2.056   4.334
 6069SOL     OW19105   0.347   4.892   5.743
 6069SOL    HW119106   0.349   4.978   5.692
 6069SOL    HW219107   0.408   4.898   5.822
 6070SOL     OW19108   2.634   1.172   0.762
 6070SOL    HW119109   2.610   1.265   0.735
 6070SOL    HW219110   2.700   1.176   0.837
 6071SOL     OW19111   5.422   0.695   6.293
 6071SOL    HW119112   5.494   0.629   6.314
 6071SOL    HW219113   5.449   0.785   6.327
 6072SOL     OW19114   6.826   3.019   0.265
 6072SOL    HW119115   6.844   3.066   0.351
 6072SOL    HW219116   6.856   2.924   0.271
 6073SOL     OW19117   4.755   3.955   1.029
 6073SOL    HW119118   4.787   3.911   0.945
 6073SOL    HW219119   4.813   3.925   1.106
 6074SOL     OW19120   0.964   6.170   3.055
 6074SOL    HW119121   1.025   6.103   3.011
 6074SOL    HW219122   0.924   6.130   3.137
 6075SOL     OW19123   6.303   0.031   6.671
 6075SOL    HW119124   6.204   0.040   6.681
 6075SOL    HW219125   6.324   6.966   6.630
 6076SOL     OW19126   0.447   6.474   3.984
 6076SOL    HW119127   0.368   6.490   3.924
 6076SOL    HW219128   0.531   6.491   3.933
 6077SOL     OW19129   5.016   5.953   2.761
 6077SOL    HW119130   4.977   5.989   2.846
 6077SOL    HW219131   5.019   5.853   2.765
 6078SOL     OW19132   5.230   4.437   0.189
 6078SOL    HW119133   5.268   4.528   0.175
 6078SOL    HW219134   5.146   4.427   0.135
 6079SOL     OW19135   3.133   1.948   0.479
 6079SOL    HW119136   3.040   1.958   0.515
 6079SOL    HW219137   3.194   1.919   0.553
 6080SOL     OW19138   0.334   3.214   5.319
 6080SOL    HW119139   0.253   3.237   5.264
 6080SOL    HW219140   0.343   3.114   5.325
 6081SOL     OW19141   1.970   4.081   4.168
 6081SOL    HW119142   1.999   4.165   4.214
 6081SOL    HW219143   1.953   4.101   4.071
 6082SOL     OW19144   5.232   1.397   1.206
 6082SOL    HW119145   5.191   1.488   1.214
 6082SOL    HW219146   5.161   1.328   1.221
 6083SOL     OW19147   5.439   6.627   6.416
 6083SOL    HW119148   5.526   6.659   6.454
 6083SOL    HW219149   5.394   6.703   6.369
 6084SOL     OW19150   6.201   5.122   3.045
 6084SOL    HW119151   6.181   5.125   2.947
 6084SOL    HW219152   6.296   5.095   3.058
 6085SOL     OW19153   0.634   6.806   0.645
 6085SOL    HW119154   0.576   6.864   0.703
 6085SOL    HW219155   0.623   6.710   0.673
 6086SOL     OW19156   3.527   3.498   0.116
 6086SOL    HW119157   3.541   3.457   0.026
 6086SOL    HW219158   3.442   3.464   0.156
 6087SOL     OW19159   4.410   0.288   0.769
 6087SOL    HW119160   4.394   0.215   0.702
 6087SOL    HW219161   4.409   0.249   0.861
 6088SOL     OW19162   4.157   5.883   1.939
 6088SOL    HW119163   4.247   5.923   1.926
 6088SOL    HW219164   4.114   5.921   2.021
 6089SOL     OW19165   6.778   4.320   3.389
 6089SOL    HW119166   6.695   4.294   3.341
 6089SOL    HW219167   6.797   4.254   3.462
 6090SOL     OW19168   3.828   5.701   5.196
 6090SOL    HW119169   3.749   5.762   5.194
 6090SOL    HW219170   3.797   5.606   5.198
 6091SOL     OW19171   0.643   2.200   2.663
 6091SOL    HW119172   0.561   2.142   2.672
 6091SOL    HW219173   0.718   2.158   2.715
 6092SOL     OW19174   2.709   6.872   1.305
 6092SOL    HW119175   2.643   6.797   1.304
 6092SOL    HW219176   2.670   6.950   1.256
 6093SOL     OW19177   2.967   2.801   1.458
 6093SOL    HW119178   2.951   2.755   1.371
 6093SOL    HW219179   2.981   2.734   1.530
 6094SOL     OW19180   1.254   0.179   5.522
 6094SOL    HW119181   1.260   0.210   5.427
 6094SOL    HW219182   1.239   0.257   5.582
 6095SOL     OW19183   5.259   4.915   2.108
 6095SOL    HW119184   5.264   4.996   2.167
 6095SOL    HW219185   5.238   4.944   2.014
 6096SOL     OW19186   4.955   5.919   2.459
 6096SOL    HW119187   5.043   5.917   2.412
 6096SOL    HW219188   4.965   5.961   2.549
 6097SOL     OW19189   2.837   5.259   2.563
 6097SOL    HW119190   2.759   5.261   2.501
 6097SOL    HW219191   2.852   5.351   2.600
 6098SOL     OW19192   5.882   0.447   5.404
 6098SOL    HW119193   5.905   0.540   5.376
 6098SOL    HW219194   5.823   0.450   5.484
 6099SOL     OW19195   3.540   6.887   5.360
 6099SOL    HW119196   3.443   6.897   5.340
 6099SOL    HW219197   3.579   6.815   5.301
 6100SOL     OW19198   0.190   5.960   5.090
 6100SOL    HW119199   0.104   5.911   5.080
 6100SOL    HW219200   0.202   6.022   5.012
 6101SOL     OW19201   0.281   2.631   1.776
 6101SOL    HW119202   0.377   2.614   1.796
 6101SOL    HW219203   0.241   2.552   1.730
 6102SOL     OW19204   3.133   6.974   2.893
 6102SOL    HW119205   3.123   0.028   2.832
 6102SOL    HW219206   3.214   6.922   2.868
 6103SOL     OW19207   5.364   1.157   2.283
 6103SOL    HW119208   5.450   1.197   2.315
 6103SOL    HW219209   5.289   1.221   2.301
 6104SOL     OW19210   6.673   0.776   4.521
 6104SOL    HW119211   6.729   0.738   4.594
 6104SOL    HW219212   6.659   0.873   4.537
 6105SOL     OW19213   3.945   4.657   5.565
 6105SOL    HW119214   3.991   4.657   5.653
 6105SOL    HW219215   4.002   4.610   5.497
 6106SOL     OW19216   6.202   4.096   4.896
 6106SOL    HW119217   6.205   4.083   4.797
 6106SOL    HW219218   6.291   4.128   4.928
 6107SOL     OW19219   5.806   4.917   5.036
 6107SOL    HW119220   5.896   4.960   5.032
 6107SOL    HW219221   5.816   4.819   5.048
 6108SOL     OW19222   2.928   1.160   6.167
 6108SOL    HW119223   2.944   1.141   6.264
 6108SOL    HW219224   2.852   1.225   6.158
 6109SOL     OW19225   0.146   6.377   3.966
 6109SOL    HW119226   0.048   6.378   3.988
 6109SOL    HW219227   0.161   6.429   3.881
 6110SOL     OW19228   1.054   1.389   3.892
 6110SOL    HW119229   1.090   1.409   3.801
 6110SOL    HW219230   0.960   1.356   3.884
 6111SOL     OW19231   2.147   2.952   0.679
 6111SOL    HW119232   2.240   2.917   0.669
 6111SOL    HW219233   2.124   3.008   0.599
 6112SOL     OW19234   4.732   6.515   3.853
 6112SOL    HW119235   4.653   6.511   3.791
 6112SOL    HW219236   4.759   6.611   3.865
 6113SOL     OW19237   2.935   5.506   0.641
 6113SOL    HW119238   2.915   5.600   0.613
 6113SOL    HW219239   2.966   5.454   0.561
 6114SOL     OW19240   4.355   3.245   1.373
 6114SOL    HW119241   4.371   3.343   1.365
 6114SOL    HW219242   4.371   3.201   1.284
 6115SOL     OW19243   6.855   0.620   5.058
 6115SOL    HW119244   6.843   0.522   5.070
 6115SOL    HW219245   6.768   0.667   5.074
 6116SOL     OW19246   6.458   3.191   0.132
 6116SOL    HW119247   6.435   3.288   0.142
 6116SOL    HW219248   6.382   3.142   0.090
 6117SOL     OW19249   2.411   2.384   1.572
 6117SOL    HW119250   2.401   2.307   1.635
 6117SOL    HW219251   2.461   2.354   1.491
 6118SOL     OW19252   5.318   0.657   1.744
 6118SOL    HW119253   5.399   0.697   1.785
 6118SOL    HW219254   5.340   0.567   1.706
 6119SOL     OW19255   0.367   1.183   6.488
 6119SOL    HW119256   0.348   1.134   6.573
 6119SOL    HW219257   0.433   1.131   6.434
 6120SOL     OW19258   3.173   0.527   3.866
 6120SOL    HW119259   3.244   0.527   3.796
 6120SOL    HW219260   3.084   0.514   3.823
 6121SOL     OW19261   2.332   1.921   5.158
 6121SOL    HW119262   2.238   1.895   5.134
 6121SOL    HW219263   2.349   1.895   5.253
 6122SOL     OW19264   4.954   4.802   4.849
 6122SOL    HW119265   4.897   4.876   4.813
 6122SOL    HW219266   5.049   4.818   4.822
 6123SOL     OW19267   6.442   1.093   4.843
 6123SOL    HW119268   6.532   1.080   4.801
 6123SOL    HW219269   6.402   1.004   4.865
 6124SOL     OW19270   2.248   5.969   4.090
 6124SOL    HW119271   2.163   5.990   4.043
 6124SOL    HW219272   2.303   5.906   4.035
 6125SOL     OW19273   3.470   1.399   5.491
 6125SOL    HW119274   3.567   1.404   5.468
 6125SOL    HW219275   3.458   1.421   5.588
 6126SOL     OW19276   6.183   3.044   6.762
 6126SOL    HW119277   6.099   3.098   6.751
 6126SOL    HW219278   6.203   2.996   6.677
 6127SOL     OW19279   5.570   1.559   2.737
 6127SOL    HW119280   5.546   1.547   2.641
 6127SOL    HW219281   5.525   1.641   2.773
 6128SOL     OW19282   5.789   5.699   6.367
 6128SOL    HW119283   5.811   5.785   6.322
 6128SOL    HW219284   5.872   5.645   6.377
 6129SOL     OW19285   2.629   5.488   3.085
 6129SOL    HW119286   2.586   5.442   3.008
 6129SOL    HW219287   2.607   5.438   3.170
 6130SOL     OW19288   5.883   3.068   7.005
 6130SOL    HW119289   5.945   3.026   0.046
 6130SOL    HW219290   5.931   3.140   6.955
 6131SOL     OW19291   6.527   2.362   2.781
 6131SOL    HW119292   6.437   2.364   2.823
 6131SOL    HW219293   6.593   2.321   2.844
 6132SOL     OW19294   4.712   6.398   6.162
 6132SOL    HW119295   4.729   6.316   6.216
 6132SOL    HW219296   4.664   6.372   6.077
 6133SOL     OW19297   0.767   2.364   3.096
 6133SOL    HW119298   0.754   2.436   3.164
 6133SOL    HW219299   0.723   2.390   3.010
 6134SOL     OW19300   0.180   6.198   5.242
 6134SOL    HW119301   0.136   6.219   5.330
 6134SOL    HW219302   0.157   6.105   5.214
 6135SOL     OW19303   6.453   6.704   0.501
 6135SOL    HW119304   6.548   6.718   0.526
 6135SOL    HW219305   6.447   6.642   0.423
 6136SOL     OW19306   1.234   1.879   3.399
 6136SOL    HW119307   1.282   1.822   3.466
 6136SOL    HW219308   1.298   1.909   3.329
 6137SOL     OW19309   6.518   5.112   1.068
 6137SOL    HW119310   6.424   5.103   1.035
 6137SOL    HW219311   6.545   5.028   1.116
 6138SOL     OW19312   5.417   0.545   2.186
 6138SOL    HW119313   5.358   0.509   2.114
 6138SOL    HW219314   5.361   0.592   2.255
 6139SOL     OW19315   1.702   2.117   4.771
 6139SOL    HW119316   1.775   2.104   4.703
 6139SOL    HW219317   1.739   2.105   4.863
 6140SOL     OW19318   2.102   0.171   3.113
 6140SOL    HW119319   2.196   0.147   3.088
 6140SOL    HW219320   2.099   0.203   3.208
 6141SOL     OW19321   1.196   0.983   0.174
 6141SOL    HW119322   1.285   1.021   0.149
 6141SOL    HW219323   1.124   1.043   0.141
 6142SOL     OW19324   6.752   0.139   1.537
 6142SOL    HW119325   6.787   0.098   1.621
 6142SOL    HW219326   6.756   0.239   1.544
 6143SOL     OW19327   0.717   3.304   5.586
 6143SOL    HW119328   0.728   3.210   5.618
 6143SOL    HW219329   0.804   3.337   5.550
 6144SOL     OW19330   3.377   5.399   2.585
 6144SOL    HW119331   3.307   5.454   2.631
 6144SOL    HW219332   3.432   5.352   2.654
 6145SOL     OW19333   4.887   3.205   3.673
 6145SOL    HW119334   4.923   3.283   3.622
 6145SOL    HW219335   4.793   3.225   3.702
 6146SOL     OW19336   5.908   0.245   5.690
 6146SOL    HW119337   5.962   0.312   5.740
 6146SOL    HW219338   5.818   0.283   5.669
 6147SOL     OW19339   1.253   2.178   5.630
 6147SOL    HW119340   1.235   2.254   5.692
 6147SOL    HW219341   1.310   2.110   5.675
 6148SOL     OW19342   3.937   5.135   0.091
 6148SOL    HW119343   3.965   5.090   0.176
 6148SOL    HW219344   3.941   5.234   0.103
 6149SOL     OW19345   3.759   1.956   1.649
 6149SOL    HW119346   3.733   2.000   1.563
 6149SOL    HW219347   3.843   1.904   1.636
 6150SOL     OW19348   0.187   4.639   4.855
 6150SOL    HW119349   0.198   4.577   4.933
 6150SOL    HW219350   0.197   4.734   4.886
 6151SOL     OW19351   3.905   4.899   3.023
 6151SOL    HW119352   3.808   4.878   3.036
 6151SOL    HW219353   3.921   4.922   2.927
 6152SOL     OW19354   1.132   3.620   2.780
 6152SOL    HW119355   1.142   3.648   2.684
 6152SOL    HW219356   1.047   3.657   2.816
 6153SOL     OW19357   5.053   6.168   1.180
 6153SOL    HW119358   4.959   6.149   1.208
 6153SOL    HW219359   5.052   6.223   1.096
 6154SOL     OW19360   4.782   4.170   2.327
 6154SOL    HW119361   4.784   4.192   2.230
 6154SOL    HW219362   4.813   4.076   2.341
 6155SOL     OW19363   1.865   1.086   3.957
 6155SOL    HW119364   1.900   1.176   3.985
 6155SOL    HW219365   1.918   1.054   3.878
 6156SOL     OW19366   5.163   4.379   2.297
 6156SOL    HW119367   5.247   4.395   2.348
 6156SOL    HW219368   5.167   4.289   2.253
 6157SOL     OW19369   0.567   2.958   0.952
 6157SOL    HW119370   0.598   3.020   1.025
 6157SOL    HW219371   0.565   2.865   0.986
 6158SOL     OW19372   3.141   1.749   5.425
 6158SOL    HW119373   3.148   1.848   5.438
 6158SOL    HW219374   3.046   1.724   5.409
 6159SOL     OW19375   5.717   2.608   6.987
 6159SOL    HW119376   5.807   2.650   6.997
 6159SOL    HW219377   5.721   2.537   6.917
 6160SOL     OW19378   0.421   6.959   1.494
 6160SOL    HW119379   0.457   6.870   1.524
 6160SOL    HW219380   0.476   6.992   1.417
 6161SOL     OW19381   4.968   3.945   6.673
 6161SOL    HW119382   5.001   3.859   6.712
 6161SOL    HW219383   5.022   4.021   6.709
 6162SOL     OW19384   6.406   5.653   1.529
 6162SOL    HW119385   6.419   5.627   1.433
 6162SOL    HW219386   6.349   5.735   1.533
 6163SOL     OW19387   6.157   6.072   3.096
 6163SOL    HW119388   6.099   6.149   3.125
 6163SOL    HW219389   6.245   6.078   3.144
 6164SOL     OW19390   3.281   3.806   4.104
 6164SOL    HW119391   3.287   3.713   4.139
 6164SOL    HW219392   3.373   3.846   4.102
 6165SOL     OW19393   3.673   0.981   6.988
 6165SOL    HW119394   3.618   1.029   6.920
 6165SOL    HW219395   3.663   1.026   0.053
 6166SOL     OW19396   2.883   1.899   6.204
 6166SOL    HW119397   2.873   1.805   6.171
 6166SOL    HW219398   2.828   1.911   6.287
 6167SOL     OW19399   1.518   3.269   3.075
 6167SOL    HW119400   1.433   3.317   3.093
 6167SOL    HW219401   1.557   3.301   2.988
 6168SOL     OW19402   0.237   3.813   4.323
 6168SOL    HW119403   0.142   3.808   4.294
 6168SOL    HW219404   0.250   3.893   4.382
 6169SOL     OW19405   2.605   0.596   6.898
 6169SOL    HW119406   2.535   0.652   6.943
 6169SOL    HW219407   2.580   0.500   6.904
 6170SOL     OW19408   2.845   4.604   0.909
 6170SOL    HW119409   2.789   4.559   0.979
 6170SOL    HW219410   2.843   4.549   0.825
 6171SOL     OW19411   2.368   4.226   1.968
 6171SOL    HW119412   2.455   4.198   1.927
 6171SOL    HW219413   2.384   4.302   2.031
 6172SOL     OW19414   2.920   5.444   1.989
 6172SOL    HW119415   3.017   5.435   2.010
 6172SOL    HW219416   2.895   5.382   1.915
 6173SOL     OW19417   1.191   5.598   2.224
 6173SOL    HW119418   1.253   5.556   2.158
 6173SOL    HW219419   1.196   5.697   2.217
 6174SOL     OW19420   5.343   4.264   1.607
 6174SOL    HW119421   5.280   4.336   1.637
 6174SOL    HW219422   5.430   4.304   1.578
 6175SOL     OW19423   5.450   0.363   4.314
 6175SOL    HW119424   5.459   0.363   4.413
 6175SOL    HW219425   5.359   0.397   4.289
 6176SOL     OW19426   5.054   3.161   6.609
 6176SOL    HW119427   4.961   3.152   6.572
 6176SOL    HW219428   5.082   3.257   6.607
 6177SOL     OW19429   6.930   3.024   2.628
 6177SOL    HW119430   6.836   2.993   2.644
 6177SOL    HW219431   6.992   2.945   2.630
 6178SOL     OW19432   5.862   3.588   1.552
 6178SOL    HW119433   5.797   3.603   1.626
 6178SOL    HW219434   5.846   3.499   1.511
 6179SOL     OW19435   0.535   1.659   4.952
 6179SOL    HW119436   0.523   1.712   4.869
 6179SOL    HW219437   0.528   1.719   5.032
 6180SOL     OW19438   3.333   0.276   5.872
 6180SOL    HW119439   3.362   0.362   5.915
 6180SOL    HW219440   3.409   0.211   5.873
 6181SOL     OW19441   4.440   5.935   6.626
 6181SOL    HW119442   4.393   6.020   6.603
 6181SOL    HW219443   4.443   5.924   6.726
 6182SOL     OW19444   4.852   0.036   5.713
 6182SOL    HW119445   4.819   0.022   5.619
 6182SOL    HW219446   4.935   7.007   5.727
 6183SOL     OW19447   3.692   0.961   2.596
 6183SOL    HW119448   3.680   0.863   2.580
 6183SOL    HW219449   3.713   1.006   2.510
 6184SOL     OW19450   5.796   6.920   6.351
 6184SOL    HW119451   5.824   6.975   6.272
 6184SOL    HW219452   5.766   6.980   6.425
 6185SOL     OW19453   1.453   2.973   6.138
 6185SOL    HW119454   1.444   3.008   6.044
 6185SOL    HW219455   1.546   2.941   6.152
 6186SOL     OW19456   5.221   0.358   4.519
 6186SOL    HW119457   5.229   0.270   4.473
 6186SOL    HW219458   5.157   0.416   4.468
 6187SOL     OW19459   3.119   4.852   4.897
 6187SOL    HW119460   3.077   4.772   4.941
 6187SOL    HW219461   3.093   4.856   4.801
 6188SOL     OW19462   2.690   6.880   1.576
 6188SOL    HW119463   2.748   6.957   1.603
 6188SOL    HW219464   2.707   6.858   1.480
 6189SOL     OW19465   4.891   4.704   2.971
 6189SOL    HW119466   4.960   4.762   3.015
 6189SOL    HW219467   4.800   4.742   2.990
 6190SOL     OW19468   5.039   2.748   5.726
 6190SOL    HW119469   5.036   2.651   5.747
 6190SOL    HW219470   4.946   2.786   5.733
 6191SOL     OW19471   6.610   2.224   6.713
 6191SOL    HW119472   6.594   2.175   6.799
 6191SOL    HW219473   6.617   2.322   6.732
 6192SOL     OW19474   3.148   2.244   0.461
 6192SOL    HW119475   3.203   2.276   0.384
 6192SOL    HW219476   3.152   2.144   0.465
 6193SOL     OW19477   6.303   6.856   1.250
 6193SOL    HW119478   6.299   6.757   1.262
 6193SOL    HW219479   6.319   6.900   1.339
 6194SOL     OW19480   2.089   0.446   0.631
 6194SOL    HW119481   2.126   0.493   0.711
 6194SOL    HW219482   1.991   0.428   0.646
 6195SOL     OW19483   2.628   6.679   5.679
 6195SOL    HW119484   2.554   6.727   5.633
 6195SOL    HW219485   2.662   6.735   5.755
 6196SOL     OW19486   0.391   1.307   5.819
 6196SOL    HW119487   0.491   1.307   5.814
 6196SOL    HW219488   0.359   1.398   5.845
 6197SOL     OW19489   2.371   2.809   0.787
 6197SOL    HW119490   2.304   2.745   0.747
 6197SOL    HW219491   2.460   2.765   0.791
 6198SOL     OW19492   3.694   5.230   2.589
 6198SOL    HW119493   3.657   5.276   2.669
 6198SOL    HW219494   3.696   5.131   2.605
 6199SOL     OW19495   0.688   0.804   6.273
 6199SOL    HW119496   0.733   0.755   6.198
 6199SOL    HW219497   0.724   0.772   6.360
 6200SOL     OW19498   3.946   0.890   5.770
 6200SOL    HW119499   3.867   0.831   5.788
 6200SOL    HW219500   3.921   0.959   5.702
 6201SOL     OW19501   1.997   4.437   3.934
 6201SOL    HW119502   2.008   4.493   4.017
 6201SOL    HW219503   1.966   4.495   3.859
 6202SOL     OW19504   2.783   2.540   1.277
 6202SOL    HW119505   2.720   2.593   1.220
 6202SOL    HW219506   2.877   2.559   1.249
 6203SOL     OW19507   5.566   2.105   5.093
 6203SOL    HW119508   5.562   2.204   5.076
 6203SOL    HW219509   5.662   2.076   5.094
 6204SOL     OW19510   1.693   6.590   6.160
 6204SOL    HW119511   1.663   6.495   6.165
 6204SOL    HW219512   1.672   6.627   6.070
 6205SOL     OW19513   5.350   6.370   0.123
 6205SOL    HW119514   5.375   6.273   0.122
 6205SOL    HW219515   5.433   6.425   0.139
 6206SOL     OW19516   5.561   0.011   3.324
 6206SOL    HW119517   5.548   0.060   3.239
 6206SOL    HW219518   5.506   6.951   3.323
 6207SOL     OW19519   2.026   4.079   4.500
 6207SOL    HW119520   2.113   4.117   4.532
 6207SOL    HW219521   1.959   4.153   4.490
 6208SOL     OW19522   5.722   5.679   5.575
 6208SOL    HW119523   5.756   5.711   5.663
 6208SOL    HW219524   5.747   5.583   5.562
 6209SOL     OW19525   2.997   5.033   1.337
 6209SOL    HW119526   2.984   5.086   1.253
 6209SOL    HW219527   2.908   5.015   1.379
 6210SOL     OW19528   6.679   4.817   3.147
 6210SOL    HW119529   6.664   4.899   3.093
 6210SOL    HW219530   6.709   4.742   3.087
 6211SOL     OW19531   2.493   0.351   5.097
 6211SOL    HW119532   2.502   0.270   5.156
 6211SOL    HW219533   2.408   0.398   5.118
 6212SOL     OW19534   6.575   0.210   3.589
 6212SOL    HW119535   6.600   0.233   3.683
 6212SOL    HW219536   6.521   0.126   3.589
 6213SOL     OW19537   6.668   0.288   6.977
 6213SOL    HW119538   6.742   0.235   7.019
 6213SOL    HW219539   6.665   0.379   7.019
 6214SOL     OW19540   5.727   4.703   2.156
 6214SOL    HW119541   5.702   4.657   2.071
 6214SOL    HW219542   5.677   4.789   2.163
 6215SOL     OW19543   2.410   5.419   1.349
 6215SOL    HW119544   2.492   5.393   1.400
 6215SOL    HW219545   2.437   5.467   1.265
 6216SOL     OW19546   6.609   1.890   2.318
 6216SOL    HW119547   6.668   1.964   2.350
 6216SOL    HW219548   6.535   1.876   2.384
 6217SOL     OW19549   5.270   1.842   1.592
 6217SOL    HW119550   5.183   1.802   1.621
 6217SOL    HW219551   5.254   1.930   1.548
 6218SOL     OW19552   4.010   4.906   4.244
 6218SOL    HW119553   4.047   4.913   4.336
 6218SOL    HW219554   4.068   4.846   4.189
 6219SOL     OW19555   0.187   1.383   4.193
 6219SOL    HW119556   0.177   1.467   4.247
 6219SOL    HW219557   0.215   1.407   4.100
 6220SOL     OW19558   1.707   3.873   5.142
 6220SOL    HW119559   1.742   3.800   5.083
 6220SOL    HW219560   1.776   3.899   5.209
 6221SOL     OW19561   4.325   4.729   4.468
 6221SOL    HW119562   4.259   4.796   4.434
 6221SOL    HW219563   4.330   4.735   4.568
 6222SOL     OW19564   0.053   1.625   1.235
 6222SOL    HW119565   0.130   1.682   1.265
 6222SOL    HW219566   6.998   1.643   1.294
 6223SOL     OW19567   4.945   4.016   4.640
 6223SOL    HW119568   4.874   4.064   4.691
 6223SOL    HW219569   4.948   3.920   4.669
 6224SOL     OW19570   2.411   0.276   4.541
 6224SOL    HW119571   2.339   0.211   4.565
 6224SOL    HW219572   2.380   0.369   4.562
 6225SOL     OW19573   4.148   1.926   6.972
 6225SOL    HW119574   4.060   1.904   6.931
 6225SOL    HW219575   4.136   1.996   0.019
 6226SOL     OW19576   6.665   6.839   4.439
 6226SOL    HW119577   6.761   6.818   4.453
 6226SOL    HW219578   6.623   6.863   4.527
 6227SOL     OW19579   2.946   4.625   0.126
 6227SOL    HW119580   3.002   4.699   0.163
 6227SOL    HW219581   2.853   4.633   0.162
 6228SOL     OW19582   6.830   1.843   2.682
 6228SOL    HW119583   6.807   1.828   2.586
 6228SOL    HW219584   6.763   1.905   2.723
 6229SOL     OW19585   1.412   2.667   1.943
 6229SOL    HW119586   1.431   2.638   2.037
 6229SOL    HW219587   1.487   2.638   1.884
 6230SOL     OW19588   2.079   2.251   3.829
 6230SOL    HW119589   2.023   2.307   3.890
 6230SOL    HW219590   2.162   2.301   3.806
 6231SOL     OW19591   6.699   5.387   1.428
 6231SOL    HW119592   6.668   5.346   1.514
 6231SOL    HW219593   6.623   5.388   1.363
 6232SOL     OW19594   0.979   1.460   0.197
 6232SOL    HW119595   0.949   1.373   0.234
 6232SOL    HW219596   0.923   1.483   0.117
 6233SOL     OW19597   4.461   1.129   6.415
 6233SOL    HW119598   4.449   1.224   6.444
 6233SOL    HW219599   4.381   1.076   6.444
 6234SOL     OW19600   1.886   2.500   3.757
 6234SOL    HW119601   1.877   2.538   3.665
 6234SOL    HW219602   1.833   2.555   3.821
 6235SOL     OW19603   1.843   5.864   2.544
 6235SOL    HW119604   1.884   5.841   2.632
 6235SOL    HW219605   1.788   5.948   2.554
 6236SOL     OW19606   6.604   4.137   0.328
 6236SOL    HW119607   6.513   4.121   0.290
 6236SOL    HW219608   6.644   4.219   0.287
 6237SOL     OW19609   3.913   6.253   6.581
 6237SOL    HW119610   3.816   6.255   6.558
 6237SOL    HW219611   3.954   6.168   6.547
 6238SOL     OW19612   4.829   3.793   0.814
 6238SOL    HW119613   4.882   3.798   0.729
 6238SOL    HW219614   4.839   3.702   0.854
 6239SOL     OW19615   2.497   0.089   3.483
 6239SOL    HW119616   2.408   0.077   3.440
 6239SOL    HW219617   2.502   0.035   3.567
 6240SOL     OW19618   1.433   3.483   0.088
 6240SOL    HW119619   1.345   3.529   0.095
 6240SOL    HW219620   1.474   3.474   0.179
 6241SOL     OW19621   4.798   0.193   1.708
 6241SOL    HW119622   4.850   0.119   1.664
 6241SOL    HW219623   4.721   0.219   1.649
 6242SOL     OW19624   4.167   2.182   3.507
 6242SOL    HW119625   4.092   2.228   3.554
 6242SOL    HW219626   4.179   2.090   3.546
 6243SOL     OW19627   5.755   5.439   3.167
 6243SOL    HW119628   5.817   5.366   3.197
 6243SOL    HW219629   5.791   5.528   3.195
 6244SOL     OW19630   1.992   2.000   2.221
 6244SOL    HW119631   2.025   1.948   2.142
 6244SOL    HW219632   2.059   2.069   2.246
 6245SOL     OW19633   2.108   3.364   0.619
 6245SOL    HW119634   2.172   3.392   0.691
 6245SOL    HW219635   2.158   3.315   0.547
 6246SOL     OW19636   4.449   0.555   0.132
 6246SOL    HW119637   4.477   0.548   0.228
 6246SOL    HW219638   4.388   0.479   0.110
 6247SOL     OW19639   6.810   6.099   3.038
 6247SOL    HW119640   6.905   6.092   3.069
 6247SOL    HW219641   6.756   6.025   3.078
 6248SOL     OW19642   1.369   5.806   0.834
 6248SOL    HW119643   1.399   5.808   0.739
 6248SOL    HW219644   1.347   5.899   0.864
 6249SOL     OW19645   6.087   3.995   6.656
 6249SOL    HW119646   6.031   4.058   6.601
 6249SOL    HW219647   6.033   3.960   6.732
 6250SOL     OW19648   6.254   4.665   5.866
 6250SOL    HW119649   6.337   4.697   5.820
 6250SOL    HW219650   6.197   4.743   5.889
 6251SOL     OW19651   4.778   1.944   1.205
 6251SOL    HW119652   4.776   2.041   1.230
 6251SOL    HW219653   4.685   1.909   1.204
 6252SOL     OW19654   2.240   6.188   5.344
 6252SOL    HW119655   2.323   6.132   5.333
 6252SOL    HW219656   2.166   6.147   5.290
 6253SOL     OW19657   2.608   4.059   1.721
 6253SOL    HW119658   2.558   4.095   1.642
 6253SOL    HW219659   2.572   3.969   1.744
 6254SOL     OW19660   5.066   0.110   0.473
 6254SOL    HW119661   5.013   0.027   0.491
 6254SOL    HW219662   5.154   0.085   0.433
 6255SOL     OW19663   0.035   2.503   3.272
 6255SOL    HW119664   6.989   2.569   3.298
 6255SOL    HW219665   0.110   2.550   3.226
 6256SOL     OW19666   4.061   5.569   3.976
 6256SOL    HW119667   4.158   5.548   3.961
 6256SOL    HW219668   4.011   5.485   3.994
 6257SOL     OW19669   4.377   3.159   0.241
 6257SOL    HW119670   4.438   3.155   0.320
 6257SOL    HW219671   4.353   3.255   0.223
 6258SOL     OW19672   4.562   2.420   2.743
 6258SOL    HW119673   4.622   2.498   2.722
 6258SOL    HW219674   4.551   2.412   2.843
 6259SOL     OW19675   3.035   2.273   1.407
 6259SOL    HW119676   3.008   2.294   1.501
 6259SOL    HW219677   2.954   2.267   1.349
 6260SOL     OW19678   3.561   4.000   1.012
 6260SOL    HW119679   3.595   4.084   0.970
 6260SOL    HW219680   3.524   3.940   0.942
 6261SOL     OW19681   4.567   0.046   6.736
 6261SOL    HW119682   4.536   0.105   6.810
 6261SOL    HW219683   4.490   7.018   6.701
 6262SOL     OW19684   0.630   6.039   5.143
 6262SOL    HW119685   0.614   5.946   5.111
 6262SOL    HW219686   0.543   6.088   5.148
 6263SOL     OW19687   6.348   1.082   1.167
 6263SOL    HW119688   6.445   1.091   1.187
 6263SOL    HW219689   6.298   1.064   1.252
 6264SOL     OW19690   2.082   1.651   0.277
 6264SOL    HW119691   1.995   1.671   0.323
 6264SOL    HW219692   2.147   1.724   0.295
 6265SOL     OW19693   5.178   3.856   1.005
 6265SOL    HW119694   5.245   3.927   1.028
 6265SOL    HW219695   5.180   3.840   0.906
 6266SOL     OW19696   2.408   0.152   2.337
 6266SOL    HW119697   2.385   0.056   2.319
 6266SOL    HW219698   2.501   0.171   2.303
 6267SOL     OW19699   2.590   0.339   0.024
 6267SOL    HW119700   2.566   0.381   0.112
 6267SOL    HW219701   2.506   0.310   7.001
 6268SOL     OW19702   2.383   5.564   3.277
 6268SOL    HW119703   2.479   5.557   3.301
 6268SOL    HW219704   2.327   5.566   3.360
 6269SOL     OW19705   6.071   4.390   0.421
 6269SOL    HW119706   6.148   4.341   0.381
 6269SOL    HW219707   6.025   4.443   0.351
 6270SOL     OW19708   0.628   0.810   4.039
 6270SOL    HW119709   0.622   0.747   4.116
 6270SOL    HW219710   0.706   0.871   4.051
 6271SOL     OW19711   6.149   1.652   1.131
 6271SOL    HW119712   6.095   1.657   1.046
 6271SOL    HW219713   6.238   1.696   1.116
 6272SOL     OW19714   1.930   1.999   3.497
 6272SOL    HW119715   2.016   1.953   3.479
 6272SOL    HW219716   1.930   2.034   3.591
 6273SOL     OW19717   4.529   0.651   2.320
 6273SOL    HW119718   4.451   0.701   2.359
 6273SOL    HW219719   4.514   0.636   2.223
 6274SOL     OW19720   2.955   6.696   6.606
 6274SOL    HW119721   2.899   6.724   6.684
 6274SOL    HW219722   2.978   6.776   6.550
 6275SOL     OW19723   2.929   0.585   4.353
 6275SOL    HW119724   2.842   0.626   4.379
 6275SOL    HW219725   2.999   0.656   4.345
 6276SOL     OW19726   1.120   5.388   3.812
 6276SOL    HW119727   1.072   5.472   3.786
 6276SOL    HW219728   1.098   5.366   3.908
 6277SOL     OW19729   5.976   3.543   4.541
 6277SOL    HW119730   5.932   3.459   4.574
 6277SOL    HW219731   5.995   3.604   4.618
 6278SOL     OW19732   4.408   0.482   4.023
 6278SOL    HW119733   4.373   0.389   4.007
 6278SOL    HW219734   4.419   0.529   3.935
 6279SOL     OW19735   4.573   1.459   6.785
 6279SOL    HW119736   4.598   1.534   6.725
 6279SOL    HW219737   4.477   1.467   6.811
 6280SOL     OW19738   1.006   5.183   6.039
 6280SOL    HW119739   1.072   5.183   5.964
 6280SOL    HW219740   0.992   5.089   6.071
 6281SOL     OW19741   3.095   6.594   4.902
 6281SOL    HW119742   3.136   6.677   4.864
 6281SOL    HW219743   3.073   6.530   4.828
 6282SOL     OW19744   0.980   0.315   3.626
 6282SOL    HW119745   1.022   0.362   3.549
 6282SOL    HW219746   1.037   0.239   3.655
 6283SOL     OW19747   0.904   3.465   4.804
 6283SOL    HW119748   0.876   3.491   4.897
 6283SOL    HW219749   0.953   3.378   4.807
 6284SOL     OW19750   2.657   4.779   6.314
 6284SOL    HW119751   2.708   4.697   6.341
 6284SOL    HW219752   2.586   4.754   6.248
 6285SOL     OW19753   1.909   4.573   2.876
 6285SOL    HW119754   1.976   4.631   2.830
 6285SOL    HW219755   1.897   4.603   2.971
 6286SOL     OW19756   6.381   6.643   4.514
 6286SOL    HW119757   6.343   6.735   4.512
 6286SOL    HW219758   6.459   6.640   4.577
 6287SOL     OW19759   3.652   4.959   2.642
 6287SOL    HW119760   3.584   4.956   2.715
 6287SOL    HW219761   3.622   4.901   2.566
 6288SOL     OW19762   5.636   3.518   1.190
 6288SOL    HW119763   5.615   3.612   1.162
 6288SOL    HW219764   5.721   3.489   1.147
 6289SOL     OW19765   1.252   6.698   2.321
 6289SOL    HW119766   1.283   6.713   2.228
 6289SOL    HW219767   1.161   6.739   2.333
 6290SOL     OW19768   5.999   3.949   3.515
 6290SOL    HW119769   6.000   3.851   3.536
 6290SOL    HW219770   5.974   4.000   3.597
 6291SOL     OW19771   4.037   3.694   3.317
 6291SOL    HW119772   4.111   3.657   3.261
 6291SOL    HW219773   3.997   3.621   3.373
 6292SOL     OW19774   0.155   1.160   1.925
 6292SOL    HW119775   0.071   1.214   1.936
 6292SOL    HW219776   0.161   1.093   1.998
 6293SOL     OW19777   5.464   4.930   0.163
 6293SOL    HW119778   5.452   4.892   0.255
 6293SOL    HW219779   5.561   4.945   0.145
 6294SOL     OW19780   3.821   5.839   2.202
 6294SOL    HW119781   3.759   5.913   2.228
 6294SOL    HW219782   3.805   5.759   2.261
 6295SOL     OW19783   6.840   6.346   5.961
 6295SOL    HW119784   6.756   6.397   5.944
 6295SOL    HW219785   6.840   6.313   6.055
 6296SOL     OW19786   6.768   0.696   2.724
 6296SOL    HW119787   6.718   0.757   2.664
 6296SOL    HW219788   6.706   0.658   2.793
 6297SOL     OW19789   5.422   0.950   5.904
 6297SOL    HW119790   5.391   1.038   5.939
 6297SOL    HW219791   5.376   0.931   5.817
 6298SOL     OW19792   6.982   2.162   3.924
 6298SOL    HW119793   6.962   2.225   3.999
 6298SOL    HW219794   6.959   2.206   3.837
 6299SOL     OW19795   6.358   3.064   0.715
 6299SOL    HW119796   6.381   3.106   0.628
 6299SOL    HW219797   6.344   2.966   0.703
 6300SOL     OW19798   5.212   1.504   3.494
 6300SOL    HW119799   5.119   1.538   3.506
 6300SOL    HW219800   5.263   1.517   3.579
 6301SOL     OW19801   3.202   0.615   0.852
 6301SOL    HW119802   3.259   0.688   0.890
 6301SOL    HW219803   3.261   0.542   0.817
 6302SOL     OW19804   6.479   0.465   2.491
 6302SOL    HW119805   6.521   0.549   2.457
 6302SOL    HW219806   6.380   0.469   2.478
 6303SOL     OW19807   1.742   5.864   5.124
 6303SOL    HW119808   1.689   5.948   5.133
 6303SOL    HW219809   1.771   5.832   5.214
 6304SOL     OW19810   4.243   0.782   4.901
 6304SOL    HW119811   4.253   0.879   4.878
 6304SOL    HW219812   4.159   0.768   4.953
 6305SOL     OW19813   5.094   1.199   2.521
 6305SOL    HW119814   5.020   1.265   2.533
 6305SOL    HW219815   5.181   1.242   2.541
 6306SOL     OW19816   6.270   2.664   4.217
 6306SOL    HW119817   6.281   2.733   4.146
 6306SOL    HW219818   6.185   2.613   4.202
 6307SOL     OW19819   1.976   4.816   0.415
 6307SOL    HW119820   2.073   4.831   0.433
 6307SOL    HW219821   1.957   4.718   0.421
 6308SOL     OW19822   3.899   2.624   6.267
 6308SOL    HW119823   3.908   2.538   6.318
 6308SOL    HW219824   3.951   2.618   6.182
 6309SOL     OW19825   5.839   2.075   5.091
 6309SOL    HW119826   5.835   2.161   5.142
 6309SOL    HW219827   5.898   2.087   5.011
 6310SOL     OW19828   0.178   5.291   4.127
 6310SOL    HW119829   0.089   5.284   4.082
 6310SOL    HW219830   0.228   5.206   4.116
 6311SOL     OW19831   6.015   6.902   4.336
 6311SOL    HW119832   5.989   6.824   4.279
 6311SOL    HW219833   5.954   6.907   4.415
 6312SOL     OW19834   5.152   4.549   5.651
 6312SOL    HW119835   5.065   4.565   5.604
 6312SOL    HW219836   5.227   4.556   5.586
 6313SOL     OW19837   2.431   5.241   4.078
 6313SOL    HW119838   2.422   5.150   4.118
 6313SOL    HW219839   2.340   5.278   4.058
 6314SOL     OW19840   1.358   0.507   3.559
 6314SOL    HW119841   1.438   0.534   3.505
 6314SOL    HW219842   1.372   0.415   3.596
 6315SOL     OW19843   2.421   3.873   7.016
 6315SOL    HW119844   2.458   3.891   0.083
 6315SOL    HW219845   2.340   3.931   7.001
 6316SOL     OW19846   4.311   1.429   5.593
 6316SOL    HW119847   4.399   1.455   5.554
 6316SOL    HW219848   4.271   1.507   5.640
 6317SOL     OW19849   6.063   5.395   4.647
 6317SOL    HW119850   6.144   5.451   4.630
 6317SOL    HW219851   6.089   5.314   4.699
 6318SOL     OW19852   1.903   2.086   4.577
 6318SOL    HW119853   1.915   2.183   4.559
 6318SOL    HW219854   1.972   2.056   4.644
 6319SOL     OW19855   0.526   1.740   2.747
 6319SOL    HW119856   0.444   1.708   2.699
 6319SOL    HW219857   0.600   1.752   2.681
 6320SOL     OW19858   0.469   1.914   3.289
 6320SOL    HW119859   0.430   1.994   3.334
 6320SOL    HW219860   0.568   1.924   3.281
 6321SOL     OW19861   2.756   3.955   6.206
 6321SOL    HW119862   2.781   4.049   6.229
 6321SOL    HW219863   2.820   3.920   6.137
 6322SOL     OW19864   2.314   0.916   0.194
 6322SOL    HW119865   2.302   1.004   0.148
 6322SOL    HW219866   2.231   0.892   0.245
 6323SOL     OW19867   4.143   1.859   1.394
 6323SOL    HW119868   4.184   1.792   1.455
 6323SOL    HW219869   4.197   1.943   1.394
 6324SOL     OW19870   3.523   1.978   6.559
 6324SOL    HW119871   3.440   1.993   6.506
 6324SOL    HW219872   3.563   2.065   6.586
 6325SOL     OW19873   1.476   3.025   2.610
 6325SOL    HW119874   1.478   3.055   2.515
 6325SOL    HW219875   1.447   3.101   2.668
 6326SOL     OW19876   4.440   6.150   1.265
 6326SOL    HW119877   4.384   6.133   1.346
 6326SOL    HW219878   4.524   6.198   1.292
 6327SOL     OW19879   3.992   5.781   5.697
 6327SOL    HW119880   4.012   5.744   5.606
 6327SOL    HW219881   3.921   5.726   5.741
 6328SOL     OW19882   2.777   4.645   6.605
 6328SOL    HW119883   2.841   4.706   6.558
 6328SOL    HW219884   2.799   4.550   6.581
 6329SOL     OW19885   0.590   1.444   2.671
 6329SOL    HW119886   0.628   1.519   2.616
 6329SOL    HW219887   0.591   1.470   2.768
 6330SOL     OW19888   3.907   0.307   0.392
 6330SOL    HW119889   3.884   0.403   0.412
 6330SOL    HW219890   3.927   0.298   0.294
 6331SOL     OW19891   5.283   2.886   2.196
 6331SOL    HW119892   5.253   2.801   2.153
 6331SOL    HW219893   5.358   2.926   2.143
 6332SOL     OW19894   5.118   6.524   2.625
 6332SOL    HW119895   5.151   6.584   2.552
 6332SOL    HW219896   5.192   6.512   2.692
 6333SOL     OW19897   1.719   4.999   2.929
 6333SOL    HW119898   1.696   4.909   2.892
 6333SOL    HW219899   1.635   5.051   2.943
 6334SOL     OW19900   2.609   1.823   2.485
 6334SOL    HW119901   2.516   1.821   2.447
 6334SOL    HW219902   2.613   1.766   2.567
 6335SOL     OW19903   0.133   1.674   0.402
 6335SOL    HW119904   0.221   1.679   0.355
 6335SOL    HW219905   0.059   1.700   0.339
 6336SOL     OW19906   1.202   3.584   5.238
 6336SOL    HW119907   1.161   3.669   5.271
 6336SOL    HW219908   1.130   3.524   5.204
 6337SOL     OW19909   6.787   4.900   4.690
 6337SOL    HW119910   6.829   4.991   4.690
 6337SOL    HW219911   6.855   4.832   4.717
 6338SOL     OW19912   3.808   1.172   4.471
 6338SOL    HW119913   3.801   1.224   4.556
 6338SOL    HW219914   3.840   1.233   4.398
 6339SOL     OW19915   0.087   2.845   4.642
 6339SOL    HW119916   0.172   2.843   4.589
 6339SOL    HW219917   0.108   2.867   4.737
 6340SOL     OW19918   2.491   5.699   4.342
 6340SOL    HW119919   2.590   5.694   4.346
 6340SOL    HW219920   2.451   5.617   4.384
 6341SOL     OW19921   6.423   5.387   2.270
 6341SOL    HW119922   6.413   5.306   2.329
 6341SOL    HW219923   6.435   5.468   2.327
 6342SOL     OW19924   1.220   3.524   0.357
 6342SOL    HW119925   1.223   3.574   0.444
 6342SOL    HW219926   1.137   3.468   0.355
 6343SOL     OW19927   4.690   1.090   0.603
 6343SOL    HW119928   4.733   1.012   0.649
 6343SOL    HW219929   4.626   1.134   0.665
 6344SOL     OW19930   6.623   4.554   4.849
 6344SOL    HW119931   6.583   4.633   4.803
 6344SOL    HW219932   6.574   4.536   4.934
 6345SOL     OW19933   2.512   2.329   2.059
 6345SOL    HW119934   2.584   2.270   2.024
 6345SOL    HW219935   2.487   2.396   1.989
 6346SOL     OW19936   0.542   5.497   4.131
 6346SOL    HW119937   0.573   5.403   4.146
 6346SOL    HW219938   0.609   5.560   4.171
 6347SOL     OW19939   3.166   0.220   0.826
 6347SOL    HW119940   3.257   0.194   0.858
 6347SOL    HW219941   3.099   0.198   0.896
 6348SOL     OW19942   0.315   2.543   4.642
 6348SOL    HW119943   0.265   2.494   4.714
 6348SOL    HW219944   0.376   2.479   4.596
 6349SOL     OW19945   1.347   0.905   0.565
 6349SOL    HW119946   1.378   0.862   0.481
 6349SOL    HW219947   1.301   0.991   0.545
 6350SOL     OW19948   0.023   5.481   3.211
 6350SOL    HW119949   6.980   5.495   3.138
 6350SOL    HW219950   7.000   5.469   3.298
 6351SOL     OW19951   0.012   1.768   3.057
 6351SOL    HW119952   0.079   1.837   3.029
 6351SOL    HW219953   6.963   1.761   2.989
 6352SOL     OW19954   0.274   4.994   2.396
 6352SOL    HW119955   0.265   4.911   2.342
 6352SOL    HW219956   0.202   4.996   2.466
 6353SOL     OW19957   0.507   6.085   1.764
 6353SOL    HW119958   0.508   6.077   1.665
 6353SOL    HW219959   0.446   6.160   1.791
 6354SOL     OW19960   0.261   6.896   4.421
 6354SOL    HW119961   0.288   6.983   4.379
 6354SOL    HW219962   0.197   6.849   4.361
 6355SOL     OW19963   1.047   2.792   1.958
 6355SOL    HW119964   1.113   2.822   2.026
 6355SOL    HW219965   1.070   2.831   1.869
 6356SOL     OW19966   3.659   3.624   1.074
 6356SOL    HW119967   3.626   3.548   1.130
 6356SOL    HW219968   3.731   3.673   1.123
 6357SOL     OW19969   5.383   2.006   1.059
 6357SOL    HW119970   5.293   2.003   1.103
 6357SOL    HW219971   5.429   1.918   1.070
 6358SOL     OW19972   1.110   3.077   4.481
 6358SOL    HW119973   1.032   3.032   4.524
 6358SOL    HW219974   1.116   3.049   4.386
 6359SOL     OW19975   7.019   1.396   6.975
 6359SOL    HW119976   7.015   1.395   0.051
 6359SOL    HW219977   6.963   1.472   6.941
 6360SOL     OW19978   2.652   5.365   3.955
 6360SOL    HW119979   2.696   5.415   4.029
 6360SOL    HW219980   2.604   5.285   3.992
 6361SOL     OW19981   3.205   6.884   5.567
 6361SOL    HW119982   3.108   6.880   5.589
 6361SOL    HW219983   3.257   6.908   5.649
 6362SOL     OW19984   6.178   5.145   6.237
 6362SOL    HW119985   6.196   5.109   6.329
 6362SOL    HW219986   6.101   5.096   6.196
 6363SOL     OW19987   0.708   5.687   4.229
 6363SOL    HW119988   0.704   5.769   4.172
 6363SOL    HW219989   0.729   5.713   4.323
 6364SOL     OW19990   2.284   2.814   6.514
 6364SOL    HW119991   2.206   2.869   6.545
 6364SOL    HW219992   2.357   2.819   6.583
 6365SOL     OW19993   4.583   5.409   2.646
 6365SOL    HW119994   4.565   5.373   2.554
 6365SOL    HW219995   4.662   5.470   2.644
 6366SOL     OW19996   0.398   4.525   5.210
 6366SOL    HW119997   0.445   4.558   5.129
 6366SOL    HW219998   0.408   4.591   5.285
 6367SOL     OW19999   6.034   6.245   2.786
 6367SOL    HW120000   6.048   6.156   2.744
 6367SOL    HW220001   6.121   6.295   2.788
 6368SOL     OW20002   3.591   0.844   3.472
 6368SOL    HW120003   3.512   0.789   3.501
 6368SOL    HW220004   3.642   0.793   3.402
 6369SOL     OW20005   2.409   5.136   5.474
 6369SOL    HW120006   2.422   5.085   5.389
 6369SOL    HW220007   2.389   5.232   5.452
 6370SOL     OW20008   5.282   2.796   1.827
 6370SOL    HW120009   5.192   2.804   1.870
 6370SOL    HW220010   5.329   2.885   1.831
 6371SOL     OW20011   4.618   1.596   3.823
 6371SOL    HW120012   4.593   1.691   3.842
 6371SOL    HW220013   4.571   1.536   3.887
 6372SOL     OW20014   2.895   0.019   2.642
 6372SOL    HW120015   2.798   7.018   2.639
 6372SOL    HW220016   2.949   6.962   2.667
 6373SOL     OW20017   3.554   4.862   0.216
 6373SOL    HW120018   3.463   4.884   0.251
 6373SOL    HW220019   3.591   4.941   0.167
 6374SOL     OW20020   3.084   3.015   2.774
 6374SOL    HW120021   3.058   3.030   2.869
 6374SOL    HW220022   3.003   2.988   2.721
 6375SOL     OW20023   1.723   5.624   1.950
 6375SOL    HW120024   1.748   5.561   1.876
 6375SOL    HW220025   1.803   5.639   2.008
 6376SOL     OW20026   1.079   1.988   4.919
 6376SOL    HW120027   1.086   2.027   5.011
 6376SOL    HW220028   1.167   1.948   4.892
 6377SOL     OW20029   1.151   2.107   3.538
 6377SOL    HW120030   1.241   2.133   3.573
 6377SOL    HW220031   1.155   2.014   3.503
 6378SOL     OW20032   4.699   5.492   3.453
 6378SOL    HW120033   4.620   5.513   3.396
 6378SOL    HW220034   4.676   5.415   3.514
 6379SOL     OW20035   2.224   4.633   1.771
 6379SOL    HW120036   2.133   4.649   1.733
 6379SOL    HW220037   2.289   4.696   1.729
 6380SOL     OW20038   1.360   1.092   5.838
 6380SOL    HW120039   1.448   1.098   5.790
 6380SOL    HW220040   1.286   1.117   5.775
 6381SOL     OW20041   3.086   3.483   1.976
 6381SOL    HW120042   3.098   3.578   2.005
 6381SOL    HW220043   3.065   3.479   1.879
 6382SOL     OW20044   1.136   4.877   4.622
 6382SOL    HW120045   1.113   4.916   4.712
 6382SOL    HW220046   1.153   4.952   4.557
 6383SOL     OW20047   3.628   1.609   3.794
 6383SOL    HW120048   3.630   1.570   3.702
 6383SOL    HW220049   3.684   1.554   3.855
 6384SOL     OW20050   6.972   4.608   2.508
 6384SOL    HW120051   0.018   4.679   2.497
 6384SOL    HW220052   6.921   4.597   2.423
 6385SOL     OW20053   0.877   5.639   5.252
 6385SOL    HW120054   0.809   5.653   5.323
 6385SOL    HW220055   0.943   5.715   5.254
 6386SOL     OW20056   2.612   5.543   1.918
 6386SOL    HW120057   2.534   5.522   1.860
 6386SOL    HW220058   2.587   5.533   2.014
 6387SOL     OW20059   5.982   0.693   5.401
 6387SOL    HW120060   5.977   0.793   5.393
 6387SOL    HW220061   6.047   0.668   5.472
 6388SOL     OW20062   1.964   5.081   2.888
 6388SOL    HW120063   2.021   5.005   2.859
 6388SOL    HW220064   1.872   5.048   2.908
 6389SOL     OW20065   1.115   4.540   1.456
 6389SOL    HW120066   1.210   4.536   1.489
 6389SOL    HW220067   1.095   4.457   1.405
 6390SOL     OW20068   0.710   2.867   4.173
 6390SOL    HW120069   0.697   2.935   4.245
 6390SOL    HW220070   0.792   2.812   4.193
 6391SOL     OW20071   3.829   0.767   6.725
 6391SOL    HW120072   3.825   0.865   6.743
 6391SOL    HW220073   3.736   0.729   6.721
 6392SOL     OW20074   1.448   6.090   4.490
 6392SOL    HW120075   1.410   6.023   4.554
 6392SOL    HW220076   1.414   6.072   4.398
 6393SOL     OW20077   5.383   1.589   0.173
 6393SOL    HW120078   5.300   1.633   0.139
 6393SOL    HW220079   5.360   1.534   0.254
 6394SOL     OW20080   3.251   4.846   1.827
 6394SOL    HW120081   3.318   4.825   1.755
 6394SOL    HW220082   3.299   4.880   1.908
 6395SOL     OW20083   5.984   2.386   0.339
 6395SOL    HW120084   5.907   2.409   0.280
 6395SOL    HW220085   6.036   2.311   0.299
 6396SOL     OW20086   6.656   3.677   5.909
 6396SOL    HW120087   6.652   3.748   5.979
 6396SOL    HW220088   6.674   3.588   5.952
 6397SOL     OW20089   6.102   0.967   0.762
 6397SOL    HW120090   6.021   1.016   0.729
 6397SOL    HW220091   6.112   0.982   0.860
 6398SOL     OW20092   3.783   0.915   1.370
 6398SOL    HW120093   3.763   0.943   1.276
 6398SOL    HW220094   3.828   0.990   1.419
 6399SOL     OW20095   2.018   6.671   6.688
 6399SOL    HW120096   2.066   6.679   6.775
 6399SOL    HW220097   2.079   6.633   6.619
 6400SOL     OW20098   2.617   5.036   4.629
 6400SOL    HW120099   2.637   4.949   4.673
 6400SOL    HW220100   2.527   5.069   4.659
 6401SOL     OW20101   0.719   4.910   5.078
 6401SOL    HW120102   0.697   5.005   5.096
 6401SOL    HW220103   0.762   4.902   4.988
 6402SOL     OW20104   2.081   2.645   3.297
 6402SOL    HW120105   2.146   2.596   3.355
 6402SOL    HW220106   2.089   2.612   3.203
 6403SOL     OW20107   1.085   6.965   1.204
 6403SOL    HW120108   1.033   6.961   1.289
 6403SOL    HW220109   1.149   0.018   1.208
 6404SOL     OW20110   4.844   1.004   2.903
 6404SOL    HW120111   4.879   1.097   2.909
 6404SOL    HW220112   4.887   0.956   2.826
 6405SOL     OW20113   3.459   0.507   1.937
 6405SOL    HW120114   3.474   0.497   1.839
 6405SOL    HW220115   3.460   0.604   1.961
 6406SOL     OW20116   2.896   1.874   3.819
 6406SOL    HW120117   2.918   1.971   3.828
 6406SOL    HW220118   2.978   1.824   3.792
 6407SOL     OW20119   4.687   5.867   6.461
 6407SOL    HW120120   4.690   5.829   6.369
 6407SOL    HW220121   4.593   5.894   6.483
 6408SOL     OW20122   5.633   2.269   0.549
 6408SOL    HW120123   5.730   2.244   0.540
 6408SOL    HW220124   5.593   2.221   0.627
 6409SOL     OW20125   0.731   4.896   1.873
 6409SOL    HW120126   0.644   4.946   1.873
 6409SOL    HW220127   0.758   4.874   1.966
 6410SOL     OW20128   0.820   1.078   2.018
 6410SOL    HW120129   0.816   0.985   2.054
 6410SOL    HW220130   0.788   1.080   1.924
 6411SOL     OW20131   0.855   1.160   3.899
 6411SOL    HW120132   0.786   1.232   3.890
 6411SOL    HW220133   0.824   1.094   3.968
 6412SOL     OW20134   5.854   2.654   4.515
 6412SOL    HW120135   5.861   2.749   4.485
 6412SOL    HW220136   5.944   2.620   4.539
 6413SOL     OW20137   0.261   4.818   0.752
 6413SOL    HW120138   0.263   4.856   0.659
 6413SOL    HW220139   0.223   4.885   0.815
 6414SOL     OW20140   6.445   0.375   2.926
 6414SOL    HW120141   6.452   0.299   2.991
 6414SOL    HW220142   6.361   0.366   2.873
 6415SOL     OW20143   1.826   1.697   2.414
 6415SOL    HW120144   1.765   1.626   2.377
 6415SOL    HW220145   1.851   1.672   2.508
 6416SOL     OW20146   2.660   6.638   6.262
 6416SOL    HW120147   2.726   6.568   6.288
 6416SOL    HW220148   2.567   6.603   6.277
 6417SOL     OW20149   0.909   6.111   4.153
 6417SOL    HW120150   0.840   6.167   4.107
 6417SOL    HW220151   0.967   6.169   4.210
 6418SOL     OW20152   6.682   5.642   2.227
 6418SOL    HW120153   6.637   5.706   2.288
 6418SOL    HW220154   6.720   5.692   2.148
 6419SOL     OW20155   2.373   3.748   0.289
 6419SOL    HW120156   2.361   3.837   0.332
 6419SOL    HW220157   2.357   3.676   0.357
 6420SOL     OW20158   0.676   2.732   6.674
 6420SOL    HW120159   0.773   2.735   6.653
 6420SOL    HW220160   0.648   2.818   6.716
 6421SOL     OW20161   5.298   2.006   0.302
 6421SOL    HW120162   5.281   2.022   0.204
 6421SOL    HW220163   5.372   2.065   0.333
 6422SOL     OW20164   6.284   2.642   2.876
 6422SOL    HW120165   6.235   2.694   2.806
 6422SOL    HW220166   6.273   2.544   2.859
 6423SOL     OW20167   5.013   3.791   0.489
 6423SOL    HW120168   5.055   3.812   0.578
 6423SOL    HW220169   5.028   3.868   0.427
 6424SOL     OW20170   6.406   4.636   5.346
 6424SOL    HW120171   6.434   4.729   5.373
 6424SOL    HW220172   6.418   4.574   5.424
 6425SOL     OW20173   0.082   5.436   0.855
 6425SOL    HW120174   7.021   5.392   0.884
 6425SOL    HW220175   0.073   5.535   0.866
 6426SOL     OW20176   6.680   2.815   3.333
 6426SOL    HW120177   6.657   2.870   3.413
 6426SOL    HW220178   6.696   2.875   3.255
 6427SOL     OW20179   0.888   3.090   5.395
 6427SOL    HW120180   0.914   3.185   5.382
 6427SOL    HW220181   0.883   3.070   5.493
 6428SOL     OW20182   6.302   3.052   4.334
 6428SOL    HW120183   6.279   2.973   4.392
 6428SOL    HW220184   6.394   3.040   4.297
 6429SOL     OW20185   1.044   1.210   4.961
 6429SOL    HW120186   1.024   1.135   4.898
 6429SOL    HW220187   1.127   1.257   4.931
 6430SOL     OW20188   6.253   3.028   0.014
 6430SOL    HW120189   6.182   2.983   0.069
 6430SOL    HW220190   6.224   3.029   6.942
 6431SOL     OW20191   6.167   1.109   2.519
 6431SOL    HW120192   6.117   1.023   2.531
 6431SOL    HW220193   6.112   1.185   2.553
 6432SOL     OW20194   6.365   3.723   0.510
 6432SOL    HW120195   6.461   3.721   0.483
 6432SOL    HW220196   6.348   3.654   0.580
 6433SOL     OW20197   2.275   3.701   1.577
 6433SOL    HW120198   2.316   3.785   1.613
 6433SOL    HW220199   2.273   3.705   1.477
 6434SOL     OW20200   1.596   5.210   0.160
 6434SOL    HW120201   1.609   5.212   0.259
 6434SOL    HW220202   1.682   5.189   0.115
 6435SOL     OW20203   5.272   3.329   0.639
 6435SOL    HW120204   5.189   3.370   0.677
 6435SOL    HW220205   5.352   3.374   0.679
 6436SOL     OW20206   2.410   2.441   2.299
 6436SOL    HW120207   2.454   2.404   2.218
 6436SOL    HW220208   2.313   2.457   2.281
 6437SOL     OW20209   0.484   0.699   0.724
 6437SOL    HW120210   0.387   0.724   0.720
 6437SOL    HW220211   0.502   0.623   0.662
 6438SOL     OW20212   0.960   3.588   4.076
 6438SOL    HW120213   0.878   3.532   4.071
 6438SOL    HW220214   0.997   3.586   4.168
 6439SOL     OW20215   0.257   6.661   2.278
 6439SOL    HW120216   0.198   6.631   2.203
 6439SOL    HW220217   0.207   6.655   2.365
 6440SOL     OW20218   0.225   0.778   1.882
 6440SOL    HW120219   0.152   0.760   1.948
 6440SOL    HW220220   0.267   0.867   1.903
 6441SOL     OW20221   4.378   1.054   2.794
 6441SOL    HW120222   4.368   1.093   2.703
 6441SOL    HW220223   4.321   1.105   2.859
 6442SOL     OW20224   3.378   0.622   3.356
 6442SOL    HW120225   3.434   0.544   3.327
 6442SOL    HW220226   3.370   0.687   3.281
 6443SOL     OW20227   2.478   0.636   0.684
 6443SOL    HW120228   2.511   0.637   0.590
 6443SOL    HW220229   2.532   0.701   0.739
 6444SOL     OW20230   0.341   1.346   2.703
 6444SOL    HW120231   0.285   1.426   2.724
 6444SOL    HW220232   0.435   1.374   2.684
 6445SOL     OW20233   3.424   3.982   5.853
 6445SOL    HW120234   3.498   3.929   5.813
 6445SOL    HW220235   3.462   4.062   5.901
 6446SOL     OW20236   0.056   1.776   0.639
 6446SOL    HW120237   0.074   1.734   0.550
 6446SOL    HW220238   0.039   1.874   0.627
 6447SOL     OW20239   1.557   0.625   3.384
 6447SOL    HW120240   1.577   0.713   3.427
 6447SOL    HW220241   1.618   0.611   3.306
 6448SOL     OW20242   6.958   2.403   2.997
 6448SOL    HW120243   0.034   2.409   3.005
 6448SOL    HW220244   6.932   2.308   2.980
 6449SOL     OW20245   4.147   2.797   0.779
 6449SOL    HW120246   4.059   2.802   0.827
 6449SOL    HW220247   4.132   2.775   0.683
 6450SOL     OW20248   6.714   2.892   0.729
 6450SOL    HW120249   6.765   2.869   0.646
 6450SOL    HW220250   6.742   2.983   0.761
 6451SOL     OW20251   2.589   6.528   4.100
 6451SOL    HW120252   2.686   6.519   4.120
 6451SOL    HW220253   2.563   6.461   4.030
 6452SOL     OW20254   3.488   5.810   4.997
 6452SOL    HW120255   3.415   5.829   4.931
 6452SOL    HW220256   3.540   5.893   5.013
 6453SOL     OW20257   2.026   5.588   6.584
 6453SOL    HW120258   1.978   5.524   6.523
 6453SOL    HW220259   2.041   5.544   6.673
 6454SOL     OW20260   4.033   1.260   4.910
 6454SOL    HW120261   3.978   1.242   4.991
 6454SOL    HW220262   4.111   1.318   4.934
 6455SOL     OW20263   6.159   3.297   6.516
 6455SOL    HW120264   6.123   3.210   6.482
 6455SOL    HW220265   6.083   3.360   6.531
 6456SOL     OW20266   0.168   1.499   5.044
 6456SOL    HW120267   0.221   1.552   5.111
 6456SOL    HW220268   0.079   1.476   5.083
 6457SOL     OW20269   6.174   3.030   2.365
 6457SOL    HW120270   6.188   3.096   2.439
 6457SOL    HW220271   6.245   3.043   2.295
 6458SOL     OW20272   0.791   6.276   3.539
 6458SOL    HW120273   0.783   6.179   3.562
 6458SOL    HW220274   0.708   6.305   3.491
 6459SOL     OW20275   5.327   4.261   0.988
 6459SOL    HW120276   5.233   4.255   0.955
 6459SOL    HW220277   5.339   4.345   1.040
 6460SOL     OW20278   3.482   4.828   1.483
 6460SOL    HW120279   3.391   4.868   1.489
 6460SOL    HW220280   3.492   4.779   1.396
 6461SOL     OW20281   3.017   5.995   5.642
 6461SOL    HW120282   2.976   6.084   5.660
 6461SOL    HW220283   3.092   6.005   5.576
 6462SOL     OW20284   2.166   3.478   3.257
 6462SOL    HW120285   2.098   3.548   3.278
 6462SOL    HW220286   2.147   3.396   3.311
 6463SOL     OW20287   1.117   3.532   5.900
 6463SOL    HW120288   1.073   3.619   5.880
 6463SOL    HW220289   1.142   3.529   5.997
 6464SOL     OW20290   1.555   5.121   2.083
 6464SOL    HW120291   1.468   5.071   2.077
 6464SOL    HW220292   1.571   5.148   2.177
 6465SOL     OW20293   6.250   0.872   2.774
 6465SOL    HW120294   6.302   0.851   2.856
 6465SOL    HW220295   6.225   0.969   2.775
 6466SOL     OW20296   6.995   1.956   5.008
 6466SOL    HW120297   6.906   1.955   5.053
 6466SOL    HW220298   6.987   2.003   4.920
 6467SOL     OW20299   3.376   0.926   6.162
 6467SOL    HW120300   3.407   1.005   6.216
 6467SOL    HW220301   3.293   0.888   6.202
 6468SOL     OW20302   5.394   3.859   1.826
 6468SOL    HW120303   5.295   3.874   1.832
 6468SOL    HW220304   5.440   3.945   1.806
 6469SOL     OW20305   5.894   0.829   5.702
 6469SOL    HW120306   5.880   0.873   5.613
 6469SOL    HW220307   5.991   0.806   5.713
 6470SOL     OW20308   6.366   5.995   4.436
 6470SOL    HW120309   6.407   5.925   4.377
 6470SOL    HW220310   6.281   5.960   4.475
 6471SOL     OW20311   6.271   5.803   5.403
 6471SOL    HW120312   6.324   5.719   5.385
 6471SOL    HW220313   6.188   5.779   5.454
 6472SOL     OW20314   1.643   6.235   1.610
 6472SOL    HW120315   1.675   6.176   1.536
 6472SOL    HW220316   1.545   6.225   1.621
 6473SOL     OW20317   2.413   0.731   5.247
 6473SOL    HW120318   2.404   0.745   5.148
 6473SOL    HW220319   2.502   0.766   5.277
 6474SOL     OW20320   2.450   3.677   6.270
 6474SOL    HW120321   2.384   3.614   6.228
 6474SOL    HW220322   2.500   3.630   6.342
 6475SOL     OW20323   4.365   4.975   3.686
 6475SOL    HW120324   4.378   5.006   3.592
 6475SOL    HW220325   4.452   4.945   3.724
 6476SOL     OW20326   5.220   4.805   2.377
 6476SOL    HW120327   5.157   4.822   2.453
 6476SOL    HW220328   5.194   4.862   2.299
 6477SOL     OW20329   6.485   6.620   6.848
 6477SOL    HW120330   6.443   6.688   6.909
 6477SOL    HW220331   6.419   6.593   6.778
 6478SOL     OW20332   5.160   6.014   1.471
 6478SOL    HW120333   5.214   6.087   1.429
 6478SOL    HW220334   5.158   6.026   1.570
 6479SOL     OW20335   3.193   5.819   2.625
 6479SOL    HW120336   3.228   5.861   2.541
 6479SOL    HW220337   3.268   5.806   2.690
 6480SOL     OW20338   2.981   1.086   1.480
 6480SOL    HW120339   2.919   1.161   1.506
 6480SOL    HW220340   2.950   1.046   1.394
 6481SOL     OW20341   4.455   0.798   1.231
 6481SOL    HW120342   4.403   0.786   1.315
 6481SOL    HW220343   4.537   0.740   1.234
 6482SOL     OW20344   6.691   6.993   6.480
 6482SOL    HW120345   6.700   6.928   6.556
 6482SOL    HW220346   6.618   0.034   6.500
 6483SOL     OW20347   2.019   5.657   1.994
 6483SOL    HW120348   1.994   5.613   1.907
 6483SOL    HW220349   2.108   5.701   1.985
 6484SOL     OW20350   5.089   6.549   3.170
 6484SOL    HW120351   5.165   6.579   3.226
 6484SOL    HW220352   5.081   6.608   3.090
 6485SOL     OW20353   0.621   2.814   3.012
 6485SOL    HW120354   0.620   2.875   3.091
 6485SOL    HW220355   0.565   2.733   3.032
 6486SOL     OW20356   1.791   2.617   3.533
 6486SOL    HW120357   1.693   2.638   3.531
 6486SOL    HW220358   1.839   2.677   3.469
 6487SOL     OW20359   6.139   4.871   3.402
 6487SOL    HW120360   6.159   4.968   3.392
 6487SOL    HW220361   6.120   4.831   3.313
 6488SOL     OW20362   3.332   5.043   5.315
 6488SOL    HW120363   3.234   5.064   5.320
 6488SOL    HW220364   3.359   4.993   5.398
 6489SOL     OW20365   2.622   1.813   6.663
 6489SOL    HW120366   2.584   1.906   6.661
 6489SOL    HW220367   2.701   1.811   6.725
 6490SOL     OW20368   5.164   1.730   1.044
 6490SOL    HW120369   5.189   1.808   0.987
 6490SOL    HW220370   5.065   1.731   1.060
 6491SOL     OW20371   4.736   0.664   5.692
 6491SOL    HW120372   4.742   0.636   5.787
 6491SOL    HW220373   4.641   0.684   5.668
 6492SOL     OW20374   6.205   5.891   5.779
 6492SOL    HW120375   6.298   5.927   5.772
 6492SOL    HW220376   6.206   5.807   5.833
 6493SOL     OW20377   1.165   6.747   5.400
 6493SOL    HW120378   1.149   6.823   5.463
 6493SOL    HW220379   1.254   6.758   5.356
 6494SOL     OW20380   0.459   1.196   3.146
 6494SOL    HW120381   0.429   1.121   3.205
 6494SOL    HW220382   0.544   1.235   3.182
 6495SOL     OW20383   5.785   4.529   1.936
 6495SOL    HW120384   5.851   4.499   2.004
 6495SOL    HW220385   5.811   4.493   1.846
 6496SOL     OW20386   0.486   6.305   3.571
 6496SOL    HW120387   0.454   6.392   3.532
 6496SOL    HW220388   0.426   6.231   3.539
 6497SOL     OW20389   0.561   5.935   0.374
 6497SOL    HW120390   0.544   6.016   0.429
 6497SOL    HW220391   0.624   5.957   0.300
 6498SOL     OW20392   1.565   4.531   3.996
 6498SOL    HW120393   1.518   4.512   3.910
 6498SOL    HW220394   1.541   4.460   4.063
 6499SOL     OW20395   6.395   1.452   3.576
 6499SOL    HW120396   6.365   1.410   3.661
 6499SOL    HW220397   6.354   1.543   3.568
 6500SOL     OW20398   5.972   4.827   2.827
 6500SOL    HW120399   5.923   4.896   2.880
 6500SOL    HW220400   5.914   4.747   2.813
 6501SOL     OW20401   6.643   3.677   0.610
 6501SOL    HW120402   6.726   3.732   0.599
 6501SOL    HW220403   6.610   3.687   0.704
 6502SOL     OW20404   0.922   5.085   1.219
 6502SOL    HW120405   0.844   5.036   1.180
 6502SOL    HW220406   0.897   5.121   1.309
 6503SOL     OW20407   4.454   6.829   4.470
 6503SOL    HW120408   4.498   6.903   4.419
 6503SOL    HW220409   4.444   6.749   4.411
 6504SOL     OW20410   1.674   1.240   0.885
 6504SOL    HW120411   1.737   1.310   0.851
 6504SOL    HW220412   1.591   1.241   0.829
 6505SOL     OW20413   5.737   5.659   0.488
 6505SOL    HW120414   5.728   5.719   0.568
 6505SOL    HW220415   5.648   5.619   0.467
 6506SOL     OW20416   2.189   1.310   0.806
 6506SOL    HW120417   2.259   1.323   0.737
 6506SOL    HW220418   2.148   1.219   0.796
 6507SOL     OW20419   2.849   0.882   2.238
 6507SOL    HW120420   2.830   0.784   2.225
 6507SOL    HW220421   2.813   0.933   2.160
 6508SOL     OW20422   2.331   1.638   2.049
 6508SOL    HW120423   2.284   1.584   1.978
 6508SOL    HW220424   2.332   1.586   2.135
 6509SOL     OW20425   0.935   3.159   4.259
 6509SOL    HW120426   1.024   3.184   4.220
 6509SOL    HW220427   0.869   3.148   4.185
 6510SOL     OW20428   6.377   4.754   6.476
 6510SOL    HW120429   6.331   4.803   6.402
 6510SOL    HW220430   6.455   4.704   6.439
 6511SOL     OW20431   6.874   6.776   5.988
 6511SOL    HW120432   6.922   6.747   6.071
 6511SOL    HW220433   6.905   6.867   5.960
 6512SOL     OW20434   5.236   6.240   3.844
 6512SOL    HW120435   5.320   6.276   3.803
 6512SOL    HW220436   5.221   6.283   3.933
 6513SOL     OW20437   1.246   6.534   3.452
 6513SOL    HW120438   1.273   6.565   3.361
 6513SOL    HW220439   1.156   6.492   3.448
 6514SOL     OW20440   3.269   0.321   3.545
 6514SOL    HW120441   3.254   0.419   3.534
 6514SOL    HW220442   3.203   0.270   3.490
 6515SOL     OW20443   0.082   0.732   3.296
 6515SOL    HW120444   0.166   0.727   3.243
 6515SOL    HW220445   0.071   0.825   3.331
 6516SOL     OW20446   1.071   1.278   5.428
 6516SOL    HW120447   1.161   1.268   5.385
 6516SOL    HW220448   1.013   1.337   5.371
 6517SOL     OW20449   2.217   2.462   0.972
 6517SOL    HW120450   2.169   2.393   1.025
 6517SOL    HW220451   2.222   2.547   1.023
 6518SOL     OW20452   5.550   6.494   0.823
 6518SOL    HW120453   5.547   6.460   0.917
 6518SOL    HW220454   5.558   6.417   0.760
 6519SOL     OW20455   1.204   2.074   4.251
 6519SOL    HW120456   1.250   2.013   4.187
 6519SOL    HW220457   1.110   2.043   4.264
 6520SOL     OW20458   5.733   5.566   1.460
 6520SOL    HW120459   5.675   5.519   1.525
 6520SOL    HW220460   5.681   5.589   1.378
 6521SOL     OW20461   1.355   2.221   5.362
 6521SOL    HW120462   1.454   2.216   5.358
 6521SOL    HW220463   1.326   2.245   5.455
 6522SOL     OW20464   2.759   5.628   4.407
 6522SOL    HW120465   2.760   5.598   4.503
 6522SOL    HW220466   2.825   5.702   4.395
 6523SOL     OW20467   1.627   2.728   0.207
 6523SOL    HW120468   1.599   2.804   0.148
 6523SOL    HW220469   1.579   2.734   0.295
 6524SOL     OW20470   3.962   3.200   5.651
 6524SOL    HW120471   3.941   3.276   5.590
 6524SOL    HW220472   3.879   3.173   5.700
 6525SOL     OW20473   0.341   2.777   4.495
 6525SOL    HW120474   0.301   2.694   4.534
 6525SOL    HW220475   0.351   2.766   4.396
 6526SOL     OW20476   1.649   5.284   4.108
 6526SOL    HW120477   1.686   5.327   4.025
 6526SOL    HW220478   1.554   5.314   4.121
 6527SOL     OW20479   2.462   1.420   4.072
 6527SOL    HW120480   2.535   1.365   4.030
 6527SOL    HW220481   2.463   1.406   4.171
 6528SOL     OW20482   0.769   0.138   3.141
 6528SOL    HW120483   0.748   0.225   3.186
 6528SOL    HW220484   0.697   0.071   3.162
 6529SOL     OW20485   6.794   2.767   2.317
 6529SOL    HW120486   6.844   2.763   2.231
 6529SOL    HW220487   6.699   2.795   2.299
 6530SOL     OW20488   0.434   1.653   0.528
 6530SOL    HW120489   0.452   1.667   0.431
 6530SOL    HW220490   0.513   1.683   0.582
 6531SOL     OW20491   5.107   2.178   5.229
 6531SOL    HW120492   5.044   2.188   5.307
 6531SOL    HW220493   5.055   2.166   5.145
 6532SOL     OW20494   1.092   2.370   6.878
 6532SOL    HW120495   1.096   2.408   6.785
 6532SOL    HW220496   1.168   2.307   6.891
 6533SOL     OW20497   4.546   0.577   1.412
 6533SOL    HW120498   4.506   0.612   1.496
 6533SOL    HW220499   4.577   0.483   1.427
 6534SOL     OW20500   2.278   3.461   7.011
 6534SOL    HW120501   2.298   3.368   0.018
 6534SOL    HW220502   2.354   3.521   0.011
 6535SOL     OW20503   1.789   3.577   5.396
 6535SOL    HW120504   1.712   3.528   5.356
 6535SOL    HW220505   1.791   3.671   5.363
 6536SOL     OW20506   7.017   2.422   6.719
 6536SOL    HW120507   0.001   2.330   6.680
 6536SOL    HW220508   0.018   2.490   6.650
 6537SOL     OW20509   1.332   0.531   6.444
 6537SOL    HW120510   1.281   0.608   6.407
 6537SOL    HW220511   1.357   0.551   6.539
 6538SOL     OW20512   2.121   2.846   5.662
 6538SOL    HW120513   2.209   2.875   5.624
 6538SOL    HW220514   2.078   2.779   5.601
 6539SOL     OW20515   3.476   1.550   6.409
 6539SOL    HW120516   3.408   1.493   6.455
 6539SOL    HW220517   3.476   1.530   6.311
 6540SOL     OW20518   3.762   1.993   3.969
 6540SOL    HW120519   3.823   1.913   3.976
 6540SOL    HW220520   3.748   2.032   4.060
 6541SOL     OW20521   2.792   2.668   5.361
 6541SOL    HW120522   2.710   2.706   5.317
 6541SOL    HW220523   2.774   2.653   5.458
 6542SOL     OW20524   5.794   3.823   3.332
 6542SOL    HW120525   5.865   3.884   3.297
 6542SOL    HW220526   5.792   3.739   3.278
 6543SOL     OW20527   1.249   6.129   5.958
 6543SOL    HW120528   1.190   6.066   6.008
 6543SOL    HW220529   1.282   6.201   6.020
 6544SOL     OW20530   0.216   5.933   2.562
 6544SOL    HW120531   0.144   5.966   2.501
 6544SOL    HW220532   0.279   6.007   2.583
 6545SOL     OW20533   6.091   3.044   6.440
 6545SOL    HW120534   6.158   2.979   6.404
 6545SOL    HW220535   6.013   2.994   6.479
 6546SOL     OW20536   3.409   4.489   5.930
 6546SOL    HW120537   3.325   4.534   5.901
 6546SOL    HW220538   3.387   4.407   5.983
 6547SOL     OW20539   5.103   0.374   6.443
 6547SOL    HW120540   5.091   0.286   6.396
 6547SOL    HW220541   5.136   0.359   6.536
 6548SOL     OW20542   5.852   3.477   5.503
 6548SOL    HW120543   5.841   3.420   5.585
 6548SOL    HW220544   5.906   3.558   5.526
 6549SOL     OW20545   2.855   2.263   2.545
 6549SOL    HW120546   2.837   2.165   2.533
 6549SOL    HW220547   2.806   2.315   2.474
 6550SOL     OW20548   1.135   5.358   3.101
 6550SOL    HW120549   1.227   5.395   3.092
 6550SOL    HW220550   1.103   5.371   3.195
 6551SOL     OW20551   3.171   5.218   2.248
 6551SOL    HW120552   3.193   5.186   2.341
 6551SOL    HW220553   3.091   5.169   2.214
 6552SOL     OW20554   4.483   5.288   6.669
 6552SOL    HW120555   4.520   5.218   6.730
 6552SOL    HW220556   4.417   5.344   6.718
 6553SOL     OW20557   6.972   3.198   2.963
 6553SOL    HW120558   0.043   3.171   2.952
 6553SOL    HW220559   6.924   3.131   3.019
 6554SOL     OW20560   6.971   3.637   4.379
 6554SOL    HW120561   7.020   3.616   4.463
 6554SOL    HW220562   6.890   3.578   4.372
 6555SOL     OW20563   0.715   1.396   1.577
 6555SOL    HW120564   0.747   1.388   1.672
 6555SOL    HW220565   0.793   1.387   1.515
 6556SOL     OW20566   3.895   0.081   3.730
 6556SOL    HW120567   3.931   7.014   3.749
 6556SOL    HW220568   3.814   0.097   3.786
 6557SOL     OW20569   5.574   6.306   0.468
 6557SOL    HW120570   5.557   6.362   0.387
 6557SOL    HW220571   5.488   6.290   0.516
 6558SOL     OW20572   0.305   6.523   5.675
 6558SOL    HW120573   0.206   6.524   5.670
 6558SOL    HW220574   0.334   6.471   5.756
 6559SOL     OW20575   3.202   3.175   0.967
 6559SOL    HW120576   3.111   3.193   0.930
 6559SOL    HW220577   3.252   3.115   0.905
 6560SOL     OW20578   4.473   1.832   0.944
 6560SOL    HW120579   4.477   1.835   1.044
 6560SOL    HW220580   4.499   1.741   0.912
 6561SOL     OW20581   3.560   3.886   4.249
 6561SOL    HW120582   3.627   3.816   4.272
 6561SOL    HW220583   3.563   3.904   4.150
 6562SOL     OW20584   6.960   4.408   5.295
 6562SOL    HW120585   6.986   4.462   5.215
 6562SOL    HW220586   7.002   4.318   5.290
 6563SOL     OW20587   0.560   5.402   2.605
 6563SOL    HW120588   0.632   5.426   2.669
 6563SOL    HW220589   0.518   5.315   2.633
 6564SOL     OW20590   1.644   5.389   2.784
 6564SOL    HW120591   1.714   5.341   2.731
 6564SOL    HW220592   1.592   5.450   2.724
 6565SOL     OW20593   6.685   3.471   5.449
 6565SOL    HW120594   6.632   3.407   5.394
 6565SOL    HW220595   6.634   3.493   5.533
 6566SOL     OW20596   3.813   1.118   0.926
 6566SOL    HW120597   3.893   1.073   0.886
 6566SOL    HW220598   3.730   1.079   0.887
 6567SOL     OW20599   6.405   2.509   1.080
 6567SOL    HW120600   6.415   2.600   1.121
 6567SOL    HW220601   6.408   2.439   1.152
 6568SOL     OW20602   4.377   3.831   1.467
 6568SOL    HW120603   4.426   3.886   1.399
 6568SOL    HW220604   4.384   3.875   1.556
 6569SOL     OW20605   1.223   4.854   6.327
 6569SOL    HW120606   1.301   4.793   6.315
 6569SOL    HW220607   1.239   4.914   6.405
 6570SOL     OW20608   6.430   3.647   1.824
 6570SOL    HW120609   6.405   3.571   1.764
 6570SOL    HW220610   6.352   3.708   1.836
 6571SOL     OW20611   2.258   6.196   3.564
 6571SOL    HW120612   2.313   6.210   3.646
 6571SOL    HW220613   2.306   6.135   3.501
 6572SOL     OW20614   1.406   4.448   6.277
 6572SOL    HW120615   1.321   4.418   6.322
 6572SOL    HW220616   1.480   4.387   6.303
 6573SOL     OW20617   1.666   1.933   1.860
 6573SOL    HW120618   1.637   2.026   1.841
 6573SOL    HW220619   1.694   1.925   1.956
 6574SOL     OW20620   1.842   4.483   4.514
 6574SOL    HW120621   1.855   4.497   4.613
 6574SOL    HW220622   1.754   4.438   4.498
 6575SOL     OW20623   2.030   1.942   2.998
 6575SOL    HW120624   2.061   1.960   2.904
 6575SOL    HW220625   1.971   1.861   2.998
 6576SOL     OW20626   1.068   6.366   4.171
 6576SOL    HW120627   1.106   6.339   4.082
 6576SOL    HW220628   1.095   6.460   4.192
 6577SOL     OW20629   0.178   3.660   5.442
 6577SOL    HW120630   0.083   3.631   5.431
 6577SOL    HW220631   0.230   3.586   5.486
 6578SOL     OW20632   6.320   5.386   3.257
 6578SOL    HW120633   6.419   5.399   3.256
 6578SOL    HW220634   6.290   5.372   3.351
 6579SOL     OW20635   0.043   4.464   3.601
 6579SOL    HW120636   7.013   4.548   3.603
 6579SOL    HW220637   0.033   4.416   3.688
 6580SOL     OW20638   5.351   2.489   0.424
 6580SOL    HW120639   5.413   2.566   0.435
 6580SOL    HW220640   5.310   2.467   0.513
 6581SOL     OW20641   2.477   2.661   5.670
 6581SOL    HW120642   2.573   2.687   5.662
 6581SOL    HW220643   2.421   2.722   5.614
 6582SOL     OW20644   6.852   0.142   2.355
 6582SOL    HW120645   6.827   0.185   2.268
 6582SOL    HW220646   6.912   0.203   2.406
 6583SOL     OW20647   6.359   1.355   6.346
 6583SOL    HW120648   6.340   1.421   6.273
 6583SOL    HW220649   6.273   1.328   6.390
 6584SOL     OW20650   5.754   2.437   0.220
 6584SOL    HW120651   5.762   2.507   0.149
 6584SOL    HW220652   5.713   2.477   0.302
 6585SOL     OW20653   2.775   1.279   1.732
 6585SOL    HW120654   2.706   1.336   1.777
 6585SOL    HW220655   2.733   1.192   1.707
 6586SOL     OW20656   6.487   1.819   0.164
 6586SOL    HW120657   6.539   1.734   0.165
 6586SOL    HW220658   6.390   1.800   0.179
 6587SOL     OW20659   2.014   6.423   2.195
 6587SOL    HW120660   1.921   6.393   2.210
 6587SOL    HW220661   2.078   6.355   2.230
 6588SOL     OW20662   2.697   2.079   0.141
 6588SOL    HW120663   2.789   2.045   0.122
 6588SOL    HW220664   2.703   2.169   0.185
 6589SOL     OW20665   5.100   1.703   6.365
 6589SOL    HW120666   5.138   1.790   6.395
 6589SOL    HW220667   5.121   1.689   6.268
 6590SOL     OW20668   6.571   1.120   5.640
 6590SOL    HW120669   6.479   1.084   5.621
 6590SOL    HW220670   6.614   1.148   5.554
 6591SOL     OW20671   5.473   0.251   3.138
 6591SOL    HW120672   5.488   0.313   3.215
 6591SOL    HW220673   5.532   0.278   3.062
 6592SOL     OW20674   6.271   5.591   4.693
 6592SOL    HW120675   6.272   5.640   4.780
 6592SOL    HW220676   6.222   5.645   4.625
 6593SOL     OW20677   5.300   1.054   2.704
 6593SOL    HW120678   5.278   1.031   2.609
 6593SOL    HW220679   5.395   1.081   2.711
 6594SOL     OW20680   5.913   1.125   0.121
 6594SOL    HW120681   5.820   1.162   0.124
 6594SOL    HW220682   5.960   1.161   0.040
 6595SOL     OW20683   2.186   2.964   0.023
 6595SOL    HW120684   2.157   3.059   0.016
 6595SOL    HW220685   2.148   2.911   6.972
 6596SOL     OW20686   3.324   6.600   5.171
 6596SOL    HW120687   3.296   6.510   5.138
 6596SOL    HW220688   3.291   6.613   5.265
 6597SOL     OW20689   0.014   4.254   6.598
 6597SOL    HW120690   0.107   4.283   6.574
 6597SOL    HW220691   7.000   4.200   6.523
 6598SOL     OW20692   2.211   5.821   4.823
 6598SOL    HW120693   2.240   5.840   4.917
 6598SOL    HW220694   2.284   5.774   4.774
 6599SOL     OW20695   4.214   3.097   6.257
 6599SOL    HW120696   4.140   3.147   6.301
 6599SOL    HW220697   4.221   3.124   6.161
 6600SOL     OW20698   4.105   4.887   4.498
 6600SOL    HW120699   4.150   4.892   4.587
 6600SOL    HW220700   4.012   4.852   4.510
 6601SOL     OW20701   0.617   0.764   1.318
 6601SOL    HW120702   0.600   0.689   1.382
 6601SOL    HW220703   0.710   0.757   1.283
 6602SOL     OW20704   6.539   1.483   1.579
 6602SOL    HW120705   6.514   1.519   1.669
 6602SOL    HW220706   6.533   1.383   1.581
 6603SOL     OW20707   2.376   1.829   1.679
 6603SOL    HW120708   2.476   1.832   1.681
 6603SOL    HW220709   2.347   1.739   1.647
 6604SOL     OW20710   3.953   5.804   4.044
 6604SOL    HW120711   3.982   5.713   4.015
 6604SOL    HW220712   3.906   5.798   4.132
 6605SOL     OW20713   4.855   6.216   0.189
 6605SOL    HW120714   4.890   6.134   0.235
 6605SOL    HW220715   4.931   6.262   0.142
 6606SOL     OW20716   0.006   1.989   2.847
 6606SOL    HW120717   6.987   1.931   2.777
 6606SOL    HW220718   6.962   2.049   2.888
 6607SOL     OW20719   1.469   2.748   3.163
 6607SOL    HW120720   1.480   2.685   3.087
 6607SOL    HW220721   1.511   2.836   3.140
 6608SOL     OW20722   5.461   5.087   4.786
 6608SOL    HW120723   5.426   5.050   4.871
 6608SOL    HW220724   5.560   5.101   4.794
 6609SOL     OW20725   5.739   1.942   0.098
 6609SOL    HW120726   5.808   1.941   0.171
 6609SOL    HW220727   5.685   2.026   0.105
 6610SOL     OW20728   3.847   1.230   0.588
 6610SOL    HW120729   3.754   1.198   0.568
 6610SOL    HW220730   3.849   1.270   0.679
 6611SOL     OW20731   5.636   3.138   3.108
 6611SOL    HW120732   5.676   3.048   3.098
 6611SOL    HW220733   5.708   3.208   3.109
 6612SOL     OW20734   1.089   5.937   6.627
 6612SOL    HW120735   1.025   5.886   6.684
 6612SOL    HW220736   1.112   6.023   6.673
 6613SOL     OW20737   5.147   4.795   0.716
 6613SOL    HW120738   5.199   4.734   0.657
 6613SOL    HW220739   5.183   4.791   0.809
 6614SOL     OW20740   5.688   4.759   5.603
 6614SOL    HW120741   5.762   4.774   5.537
 6614SOL    HW220742   5.697   4.669   5.644
 6615SOL     OW20743   0.041   3.881   5.246
 6615SOL    HW120744   0.090   3.806   5.291
 6615SOL    HW220745   0.106   3.939   5.198
 6616SOL     OW20746   4.747   0.851   4.208
 6616SOL    HW120747   4.776   0.844   4.112
 6616SOL    HW220748   4.689   0.773   4.231
 6617SOL     OW20749   4.295   6.968   5.025
 6617SOL    HW120750   4.315   0.029   5.073
 6617SOL    HW220751   4.231   6.985   4.951
 6618SOL     OW20752   6.803   5.071   0.977
 6618SOL    HW120753   6.852   4.986   0.956
 6618SOL    HW220754   6.705   5.051   0.985
 6619SOL     OW20755   0.130   6.576   1.537
 6619SOL    HW120756   0.218   6.604   1.576
 6619SOL    HW220757   0.103   6.488   1.576
 6620SOL     OW20758   4.236   3.187   5.619
 6620SOL    HW120759   4.256   3.096   5.656
 6620SOL    HW220760   4.143   3.213   5.642
 6621SOL     OW20761   2.385   3.982   0.443
 6621SOL    HW120762   2.483   3.964   0.447
 6621SOL    HW220763   2.368   4.071   0.401
 6622SOL     OW20764   6.557   5.633   0.818
 6622SOL    HW120765   6.543   5.578   0.900
 6622SOL    HW220766   6.512   5.722   0.829
 6623SOL     OW20767   3.544   4.074   2.342
 6623SOL    HW120768   3.445   4.078   2.328
 6623SOL    HW220769   3.563   4.054   2.438
 6624SOL     OW20770   4.211   4.802   4.089
 6624SOL    HW120771   4.177   4.756   4.007
 6624SOL    HW220772   4.259   4.885   4.063
 6625SOL     OW20773   6.212   6.681   0.219
 6625SOL    HW120774   6.312   6.693   0.221
 6625SOL    HW220775   6.177   6.685   0.313
 6626SOL     OW20776   2.726   4.790   3.636
 6626SOL    HW120777   2.666   4.743   3.700
 6626SOL    HW220778   2.820   4.786   3.669
 6627SOL     OW20779   1.898   6.677   1.569
 6627SOL    HW120780   1.975   6.721   1.522
 6627SOL    HW220781   1.928   6.646   1.659
 6628SOL     OW20782   4.058   5.785   3.658
 6628SOL    HW120783   4.151   5.798   3.694
 6628SOL    HW220784   4.036   5.687   3.659
 6629SOL     OW20785   3.407   3.898   0.247
 6629SOL    HW120786   3.424   3.865   0.340
 6629SOL    HW220787   3.325   3.955   0.246
 6630SOL     OW20788   3.524   1.247   6.623
 6630SOL    HW120789   3.430   1.277   6.607
 6630SOL    HW220790   3.577   1.324   6.659
 6631SOL     OW20791   4.412   0.299   1.206
 6631SOL    HW120792   4.449   0.339   1.122
 6631SOL    HW220793   4.340   0.234   1.182
 6632SOL     OW20794   6.515   2.788   2.698
 6632SOL    HW120795   6.450   2.744   2.635
 6632SOL    HW220796   6.480   2.782   2.791
 6633SOL     OW20797   0.802   6.325   2.076
 6633SOL    HW120798   0.770   6.238   2.037
 6633SOL    HW220799   0.902   6.322   2.086
 6634SOL     OW20800   6.724   2.518   5.724
 6634SOL    HW120801   6.706   2.432   5.676
 6634SOL    HW220802   6.741   2.500   5.820
 6635SOL     OW20803   4.188   4.906   2.930
 6635SOL    HW120804   4.095   4.874   2.949
 6635SOL    HW220805   4.253   4.832   2.948
 6636SOL     OW20806   1.851   3.501   4.081
 6636SOL    HW120807   1.850   3.405   4.055
 6636SOL    HW220808   1.774   3.520   4.143
 6637SOL     OW20809   6.331   2.339   1.634
 6637SOL    HW120810   6.316   2.256   1.579
 6637SOL    HW220811   6.253   2.354   1.694
 6638SOL     OW20812   1.894   0.357   6.539
 6638SOL    HW120813   1.876   0.262   6.510
 6638SOL    HW220814   1.808   0.408   6.540
 6639SOL     OW20815   4.231   5.603   6.064
 6639SOL    HW120816   4.193   5.575   5.975
 6639SOL    HW220817   4.327   5.627   6.052
 6640SOL     OW20818   5.865   2.991   3.454
 6640SOL    HW120819   5.879   2.949   3.365
 6640SOL    HW220820   5.774   2.966   3.489
 6641SOL     OW20821   2.274   5.345   6.754
 6641SOL    HW120822   2.294   5.321   6.659
 6641SOL    HW220823   2.351   5.320   6.812
 6642SOL     OW20824   6.307   6.228   6.439
 6642SOL    HW120825   6.344   6.314   6.403
 6642SOL    HW220826   6.366   6.194   6.512
 6643SOL     OW20827   3.621   5.659   0.347
 6643SOL    HW120828   3.640   5.694   0.439
 6643SOL    HW220829   3.613   5.736   0.284
 6644SOL     OW20830   1.313   3.899   1.853
 6644SOL    HW120831   1.346   3.971   1.791
 6644SOL    HW220832   1.390   3.863   1.905
 6645SOL     OW20833   6.179   4.978   5.378
 6645SOL    HW120834   6.235   5.036   5.318
 6645SOL    HW220835   6.236   4.907   5.418
 6646SOL     OW20836   1.219   5.741   4.003
 6646SOL    HW120837   1.152   5.674   4.033
 6646SOL    HW220838   1.177   5.832   4.002
 6647SOL     OW20839   4.177   1.681   2.290
 6647SOL    HW120840   4.192   1.780   2.282
 6647SOL    HW220841   4.161   1.658   2.386
 6648SOL     OW20842   4.179   5.467   1.689
 6648SOL    HW120843   4.153   5.515   1.773
 6648SOL    HW220844   4.193   5.533   1.615
 6649SOL     OW20845   4.581   1.887   6.006
 6649SOL    HW120846   4.487   1.894   6.039
 6649SOL    HW220847   4.639   1.850   6.078
 6650SOL     OW20848   3.255   0.946   4.040
 6650SOL    HW120849   3.221   1.037   4.015
 6650SOL    HW220850   3.178   0.889   4.067
 6651SOL     OW20851   1.203   1.849   0.658
 6651SOL    HW120852   1.262   1.929   0.666
 6651SOL    HW220853   1.159   1.831   0.745
 6652SOL     OW20854   0.790   5.333   3.200
 6652SOL    HW120855   0.870   5.375   3.244
 6652SOL    HW220856   0.707   5.363   3.247
 6653SOL     OW20857   3.152   3.595   3.446
 6653SOL    HW120858   3.207   3.675   3.421
 6653SOL    HW220859   3.156   3.580   3.544
 6654SOL     OW20860   1.762   3.679   1.552
 6654SOL    HW120861   1.667   3.677   1.522
 6654SOL    HW220862   1.808   3.758   1.512
 6655SOL     OW20863   1.729   0.417   0.305
 6655SOL    HW120864   1.824   0.392   0.288
 6655SOL    HW220865   1.723   0.471   0.389
 6656SOL     OW20866   6.934   2.748   2.082
 6656SOL    HW120867   6.979   2.802   2.011
 6656SOL    HW220868   6.998   2.681   2.119
 6657SOL     OW20869   3.137   4.855   5.568
 6657SOL    HW120870   3.125   4.850   5.469
 6657SOL    HW220871   3.198   4.781   5.598
 6658SOL     OW20872   6.145   0.011   6.314
 6658SOL    HW120873   6.133   6.950   6.366
 6658SOL    HW220874   6.196   7.017   6.231
 6659SOL     OW20875   1.910   2.731   6.780
 6659SOL    HW120876   1.883   2.636   6.770
 6659SOL    HW220877   2.007   2.741   6.759
 6660SOL     OW20878   1.016   6.595   2.854
 6660SOL    HW120879   0.976   6.566   2.767
 6660SOL    HW220880   1.096   6.652   2.836
 6661SOL     OW20881   6.966   6.202   3.647
 6661SOL    HW120882   6.921   6.196   3.558
 6661SOL    HW220883   6.985   6.298   3.669
 6662SOL     OW20884   1.628   4.054   5.917
 6662SOL    HW120885   1.686   4.048   5.836
 6662SOL    HW220886   1.583   4.144   5.919
 6663SOL     OW20887   0.595   5.019   2.328
 6663SOL    HW120888   0.682   4.992   2.369
 6663SOL    HW220889   0.594   5.118   2.313
 6664SOL     OW20890   0.144   1.917   2.519
 6664SOL    HW120891   0.109   2.003   2.557
 6664SOL    HW220892   0.153   1.925   2.420
 6665SOL     OW20893   2.283   0.336   1.955
 6665SOL    HW120894   2.361   0.274   1.939
 6665SOL    HW220895   2.205   0.283   1.989
 6666SOL     OW20896   5.474   1.287   0.436
 6666SOL    HW120897   5.496   1.252   0.527
 6666SOL    HW220898   5.388   1.339   0.441
 6667SOL     OW20899   6.145   5.016   4.684
 6667SOL    HW120900   6.128   5.068   4.767
 6667SOL    HW220901   6.232   5.044   4.643
 6668SOL     OW20902   0.187   6.340   1.157
 6668SOL    HW120903   0.198   6.278   1.235
 6668SOL    HW220904   0.097   6.382   1.160
 6669SOL     OW20905   0.917   5.116   2.865
 6669SOL    HW120906   0.849   5.184   2.890
 6669SOL    HW220907   1.005   5.140   2.906
 6670SOL     OW20908   4.253   4.568   0.183
 6670SOL    HW120909   4.261   4.481   0.133
 6670SOL    HW220910   4.234   4.642   0.118
 6671SOL     OW20911   0.577   3.003   5.180
 6671SOL    HW120912   0.521   2.940   5.234
 6671SOL    HW220913   0.668   2.964   5.167
 6672SOL     OW20914   0.556   0.210   5.502
 6672SOL    HW120915   0.612   0.223   5.420
 6672SOL    HW220916   0.587   0.272   5.574
 6673SOL     OW20917   4.864   5.785   1.020
 6673SOL    HW120918   4.801   5.832   0.959
 6673SOL    HW220919   4.953   5.830   1.017
 6674SOL     OW20920   0.784   6.966   5.594
 6674SOL    HW120921   0.839   0.019   5.563
 6674SOL    HW220922   0.725   6.935   5.520
 6675SOL     OW20923   0.048   6.339   0.183
 6675SOL    HW120924   0.031   6.256   0.130
 6675SOL    HW220925   0.125   6.323   0.245
 6676SOL     OW20926   0.276   1.936   0.991
 6676SOL    HW120927   0.232   1.968   1.075
 6676SOL    HW220928   0.374   1.925   1.006
 6677SOL     OW20929   0.031   4.500   0.230
 6677SOL    HW120930   7.021   4.568   0.165
 6677SOL    HW220931   0.039   4.411   0.185
 6678SOL     OW20932   0.839   3.230   4.501
 6678SOL    HW120933   0.896   3.208   4.422
 6678SOL    HW220934   0.851   3.326   4.526
 6679SOL     OW20935   1.697   0.707   4.728
 6679SOL    HW120936   1.742   0.795   4.712
 6679SOL    HW220937   1.717   0.675   4.821
 6680SOL     OW20938   2.763   0.704   6.557
 6680SOL    HW120939   2.753   0.696   6.458
 6680SOL    HW220940   2.710   0.781   6.591
 6681SOL     OW20941   5.325   5.791   0.056
 6681SOL    HW120942   5.233   5.773   0.089
 6681SOL    HW220943   5.372   5.852   0.120
 6682SOL     OW20944   6.626   5.402   2.074
 6682SOL    HW120945   6.537   5.367   2.102
 6682SOL    HW220946   6.665   5.457   2.148
 6683SOL     OW20947   5.169   1.652   4.938
 6683SOL    HW120948   5.070   1.654   4.927
 6683SOL    HW220949   5.202   1.743   4.965
 6684SOL     OW20950   1.738   1.257   2.824
 6684SOL    HW120951   1.779   1.192   2.760
 6684SOL    HW220952   1.664   1.306   2.778
 6685SOL     OW20953   5.718   2.718   6.689
 6685SOL    HW120954   5.718   2.800   6.747
 6685SOL    HW220955   5.634   2.716   6.635
 6686SOL     OW20956   6.342   3.447   4.341
 6686SOL    HW120957   6.391   3.440   4.253
 6686SOL    HW220958   6.404   3.486   4.410
 6687SOL     OW20959   0.634   0.698   0.144
 6687SOL    HW120960   0.706   0.725   0.080
 6687SOL    HW220961   0.670   0.630   0.208
 6688SOL     OW20962   0.606   5.092   2.642
 6688SOL    HW120963   0.680   5.155   2.621
 6688SOL    HW220964   0.616   5.057   2.735
 6689SOL     OW20965   4.680   4.901   6.867
 6689SOL    HW120966   4.606   4.841   6.835
 6689SOL    HW220967   4.739   4.850   6.930
 6690SOL     OW20968   1.134   1.787   0.901
 6690SOL    HW120969   1.176   1.752   0.985
 6690SOL    HW220970   1.073   1.718   0.863
 6691SOL     OW20971   1.701   5.157   0.866
 6691SOL    HW120972   1.653   5.075   0.895
 6691SOL    HW220973   1.736   5.144   0.773
 6692SOL     OW20974   4.515   4.309   6.095
 6692SOL    HW120975   4.525   4.279   6.000
 6692SOL    HW220976   4.606   4.328   6.133
 6693SOL     OW20977   4.183   3.696   5.737
 6693SOL    HW120978   4.253   3.625   5.735
 6693SOL    HW220979   4.118   3.681   5.662
 6694SOL     OW20980   2.595   6.355   0.141
 6694SOL    HW120981   2.631   6.423   0.205
 6694SOL    HW220982   2.606   6.264   0.179
 6695SOL     OW20983   1.426   1.582   6.849
 6695SOL    HW120984   1.375   1.511   6.899
 6695SOL    HW220985   1.362   1.642   6.802
 6696SOL     OW20986   1.849   2.841   1.436
 6696SOL    HW120987   1.809   2.781   1.367
 6696SOL    HW220988   1.805   2.825   1.524
 6697SOL     OW20989   4.830   3.225   4.115
 6697SOL    HW120990   4.902   3.236   4.184
 6697SOL    HW220991   4.759   3.165   4.151
 6698SOL     OW20992   2.895   4.317   0.115
 6698SOL    HW120993   2.935   4.406   0.094
 6698SOL    HW220994   2.926   4.250   0.048
 6699SOL     OW20995   1.295   3.097   6.616
 6699SOL    HW120996   1.200   3.128   6.608
 6699SOL    HW220997   1.337   3.096   6.526
 6700SOL     OW20998   0.189   6.445   6.082
 6700SOL    HW120999   0.236   6.509   6.142
 6700SOL    HW221000   0.125   6.494   6.023
 6701SOL     OW21001   0.441   2.890   1.337
 6701SOL    HW121002   0.385   2.840   1.271
 6701SOL    HW221003   0.403   2.879   1.429
 6702SOL     OW21004   1.478   3.423   0.348
 6702SOL    HW121005   1.379   3.432   0.357
 6702SOL    HW221006   1.523   3.470   0.423
 6703SOL     OW21007   0.435   2.402   6.611
 6703SOL    HW121008   0.430   2.322   6.551
 6703SOL    HW221009   0.414   2.374   6.705
 6704SOL     OW21010   4.737   2.836   2.945
 6704SOL    HW121011   4.705   2.775   3.018
 6704SOL    HW221012   4.659   2.889   2.911
 6705SOL     OW21013   5.959   1.162   1.271
 6705SOL    HW121014   5.969   1.097   1.346
 6705SOL    HW221015   6.013   1.131   1.192
 6706SOL     OW21016   1.188   5.943   6.951
 6706SOL    HW121017   1.272   5.894   6.973
 6706SOL    HW221018   1.123   5.880   6.909
 6707SOL     OW21019   0.846   5.369   2.424
 6707SOL    HW121020   0.859   5.270   2.433
 6707SOL    HW221021   0.786   5.387   2.346
 6708SOL     OW21022   1.976   6.254   1.336
 6708SOL    HW121023   1.901   6.190   1.356
 6708SOL    HW221024   2.035   6.261   1.417
 6709SOL     OW21025   5.284   1.936   3.280
 6709SOL    HW121026   5.318   1.843   3.295
 6709SOL    HW221027   5.233   1.939   3.194
 6710SOL     OW21028   1.598   1.916   0.520
 6710SOL    HW121029   1.559   1.826   0.536
 6710SOL    HW221030   1.577   1.946   0.426
 6711SOL     OW21031   5.125   3.608   6.955
 6711SOL    HW121032   5.053   3.628   7.022
 6711SOL    HW221033   5.152   3.512   6.964
 6712SOL     OW21034   3.678   6.412   1.245
 6712SOL    HW121035   3.636   6.322   1.232
 6712SOL    HW221036   3.630   6.462   1.317
 6713SOL     OW21037   1.463   1.842   3.140
 6713SOL    HW121038   1.412   1.789   3.073
 6713SOL    HW221039   1.500   1.780   3.210
 6714SOL     OW21040   6.490   0.389   4.627
 6714SOL    HW121041   6.505   0.454   4.702
 6714SOL    HW221042   6.559   0.316   4.632
 6715SOL     OW21043   6.255   2.323   0.674
 6715SOL    HW121044   6.272   2.242   0.618
 6715SOL    HW221045   6.186   2.381   0.631
 6716SOL     OW21046   3.005   6.110   0.748
 6716SOL    HW121047   3.099   6.142   0.758
 6716SOL    HW221048   2.946   6.188   0.728
 6717SOL     OW21049   4.153   0.958   6.829
 6717SOL    HW121050   4.197   0.986   6.744
 6717SOL    HW221051   4.163   1.031   6.897
 6718SOL     OW21052   3.749   0.027   0.149
 6718SOL    HW121053   3.802   0.034   0.233
 6718SOL    HW221054   3.810   0.028   0.070
 6719SOL     OW21055   0.826   1.321   5.038
 6719SOL    HW121056   0.917   1.282   5.025
 6719SOL    HW221057   0.832   1.421   5.040
 6720SOL     OW21058   1.476   4.642   1.132
 6720SOL    HW121059   1.463   4.708   1.206
 6720SOL    HW221060   1.429   4.557   1.153
 6721SOL     OW21061   0.146   6.175   2.800
 6721SOL    HW121062   0.201   6.140   2.724
 6721SOL    HW221063   0.202   6.178   2.883
 6722SOL     OW21064   4.739   4.943   6.596
 6722SOL    HW121065   4.816   5.001   6.571
 6722SOL    HW221066   4.728   4.943   6.695
 6723SOL     OW21067   4.666   0.633   2.877
 6723SOL    HW121068   4.635   0.726   2.892
 6723SOL    HW221069   4.765   0.627   2.890
 6724SOL     OW21070   3.384   4.415   5.549
 6724SOL    HW121071   3.354   4.321   5.535
 6724SOL    HW221072   3.463   4.416   5.611
 6725SOL     OW21073   6.958   5.205   1.193
 6725SOL    HW121074   6.902   5.180   1.272
 6725SOL    HW221075   6.903   5.196   1.110
 6726SOL     OW21076   2.309   2.888   1.789
 6726SOL    HW121077   2.327   2.812   1.726
 6726SOL    HW221078   2.370   2.964   1.769
 6727SOL     OW21079   3.238   3.873   0.610
 6727SOL    HW121080   3.139   3.873   0.602
 6727SOL    HW221081   3.275   3.794   0.560
 6728SOL     OW21082   4.537   1.752   4.716
 6728SOL    HW121083   4.562   1.714   4.805
 6728SOL    HW221084   4.565   1.689   4.644
 6729SOL     OW21085   4.592   6.086   3.431
 6729SOL    HW121086   4.594   6.028   3.512
 6729SOL    HW221087   4.686   6.103   3.399
 6730SOL     OW21088   1.235   0.636   2.139
 6730SOL    HW121089   1.184   0.641   2.225
 6730SOL    HW221090   1.293   0.716   2.130
 6731SOL     OW21091   1.930   4.061   2.271
 6731SOL    HW121092   1.898   3.967   2.285
 6731SOL    HW221093   1.883   4.101   2.193
 6732SOL     OW21094   2.713   5.534   0.402
 6732SOL    HW121095   2.668   5.545   0.314
 6732SOL    HW221096   2.788   5.469   0.394
 6733SOL     OW21097   5.671   6.130   4.725
 6733SOL    HW121098   5.698   6.207   4.783
 6733SOL    HW221099   5.728   6.051   4.749
 6734SOL     OW21100   2.652   3.740   6.038
 6734SOL    HW121101   2.612   3.714   6.126
 6734SOL    HW221102   2.593   3.708   5.964
 6735SOL     OW21103   1.042   6.605   6.723
 6735SOL    HW121104   1.028   6.519   6.772
 6735SOL    HW221105   0.985   6.606   6.641
 6736SOL     OW21106   2.311   4.317   2.239
 6736SOL    HW121107   2.361   4.318   2.325
 6736SOL    HW221108   2.339   4.394   2.182
 6737SOL     OW21109   1.971   0.019   0.753
 6737SOL    HW121110   1.873   0.033   0.740
 6737SOL    HW221111   2.020   0.044   0.670
 6738SOL     OW21112   4.906   1.722   1.157
 6738SOL    HW121113   4.839   1.652   1.132
 6738SOL    HW221114   4.857   1.804   1.187
 6739SOL     OW21115   4.333   6.669   5.752
 6739SOL    HW121116   4.242   6.690   5.714
 6739SOL    HW221117   4.384   6.614   5.686
 6740SOL     OW21118   5.879   2.779   5.720
 6740SOL    HW121119   5.966   2.815   5.688
 6740SOL    HW221120   5.849   2.829   5.800
 6741SOL     OW21121   0.338   0.185   6.271
 6741SOL    HW121122   0.243   0.164   6.249
 6741SOL    HW221123   0.341   0.255   6.343
 6742SOL     OW21124   6.279   6.015   4.865
 6742SOL    HW121125   6.207   6.062   4.813
 6742SOL    HW221126   6.298   6.066   4.949
 6743SOL     OW21127   5.700   2.159   1.683
 6743SOL    HW121128   5.755   2.137   1.601
 6743SOL    HW221129   5.604   2.138   1.665
 6744SOL     OW21130   4.621   6.369   4.451
 6744SOL    HW121131   4.707   6.342   4.407
 6744SOL    HW221132   4.579   6.290   4.493
 6745SOL     OW21133   0.871   3.220   2.816
 6745SOL    HW121134   0.808   3.297   2.829
 6745SOL    HW221135   0.964   3.255   2.809
 6746SOL     OW21136   6.454   1.064   0.713
 6746SOL    HW121137   6.467   1.000   0.789
 6746SOL    HW221138   6.407   1.018   0.638
 6747SOL     OW21139   4.365   5.535   6.811
 6747SOL    HW121140   4.297   5.465   6.789
 6747SOL    HW221141   4.432   5.497   6.875
 6748SOL     OW21142   0.170   6.518   2.028
 6748SOL    HW121143   0.152   6.596   1.968
 6748SOL    HW221144   0.220   6.448   1.978
 6749SOL     OW21145   2.858   5.738   1.101
 6749SOL    HW121146   2.955   5.715   1.109
 6749SOL    HW221147   2.839   5.820   1.156
 6750SOL     OW21148   2.091   2.983   5.087
 6750SOL    HW121149   2.097   2.992   5.186
 6750SOL    HW221150   2.181   2.999   5.047
 6751SOL     OW21151   4.194   1.999   6.234
 6751SOL    HW121152   4.198   1.941   6.316
 6751SOL    HW221153   4.101   2.033   6.222
 6752SOL     OW21154   0.032   1.873   0.131
 6752SOL    HW121155   0.124   1.860   0.093
 6752SOL    HW221156   6.993   1.898   0.057
 6753SOL     OW21157   6.440   1.374   7.019
 6753SOL    HW121158   6.401   1.282   7.016
 6753SOL    HW221159   6.391   1.433   6.955
 6754SOL     OW21160   4.443   0.637   6.514
 6754SOL    HW121161   4.393   0.669   6.594
 6754SOL    HW221162   4.491   0.713   6.472
 6755SOL     OW21163   5.430   2.042   3.706
 6755SOL    HW121164   5.385   1.962   3.665
 6755SOL    HW221165   5.366   2.088   3.768
 6756SOL     OW21166   4.687   4.143   3.700
 6756SOL    HW121167   4.674   4.048   3.727
 6756SOL    HW221168   4.690   4.200   3.782
 6757SOL     OW21169   6.076   4.477   1.207
 6757SOL    HW121170   6.079   4.572   1.238
 6757SOL    HW221171   6.163   4.453   1.164
 6758SOL     OW21172   6.515   1.559   3.111
 6758SOL    HW121173   6.534   1.543   3.208
 6758SOL    HW221174   6.417   1.552   3.094
 6759SOL     OW21175   1.447   5.439   3.072
 6759SOL    HW121176   1.440   5.511   3.002
 6759SOL    HW221177   1.539   5.401   3.072
 6760SOL     OW21178   6.729   3.914   5.099
 6760SOL    HW121179   6.643   3.965   5.101
 6760SOL    HW221180   6.732   3.850   5.176
 6761SOL     OW21181   5.997   2.624   6.319
 6761SOL    HW121182   5.976   2.546   6.379
 6761SOL    HW221183   5.921   2.638   6.255
 6762SOL     OW21184   0.270   4.219   3.335
 6762SOL    HW121185   0.202   4.291   3.346
 6762SOL    HW221186   0.253   4.146   3.401
 6763SOL     OW21187   5.947   6.939   4.967
 6763SOL    HW121188   5.972   6.985   4.882
 6763SOL    HW221189   6.026   6.939   5.029
 6764SOL     OW21190   1.610   3.431   6.885
 6764SOL    HW121191   1.560   3.425   6.971
 6764SOL    HW221192   1.555   3.390   6.811
 6765SOL     OW21193   4.729   4.959   2.392
 6765SOL    HW121194   4.777   4.883   2.348
 6765SOL    HW221195   4.769   4.977   2.482
 6766SOL     OW21196   2.092   2.694   6.131
 6766SOL    HW121197   2.098   2.665   6.035
 6766SOL    HW221198   2.129   2.786   6.141
 6767SOL     OW21199   0.326   2.987   5.937
 6767SOL    HW121200   0.255   2.920   5.916
 6767SOL    HW221201   0.336   3.049   5.859
 6768SOL     OW21202   6.704   0.779   6.256
 6768SOL    HW121203   6.723   0.877   6.248
 6768SOL    HW221204   6.607   0.765   6.276
 6769SOL     OW21205   0.961   2.328   5.850
 6769SOL    HW121206   0.915   2.248   5.813
 6769SOL    HW221207   0.975   2.396   5.778
 6770SOL     OW21208   6.997   1.659   3.940
 6770SOL    HW121209   6.985   1.697   4.031
 6770SOL    HW221210   6.920   1.686   3.882
 6771SOL     OW21211   6.005   1.990   2.759
 6771SOL    HW121212   6.042   2.075   2.720
 6771SOL    HW221213   5.909   2.004   2.784
 6772SOL     OW21214   0.709   0.823   1.999
 6772SOL    HW121215   0.780   0.778   2.053
 6772SOL    HW221216   0.734   0.820   1.902
 6773SOL     OW21217   1.725   0.895   2.898
 6773SOL    HW121218   1.822   0.873   2.908
 6773SOL    HW221219   1.700   0.963   2.966
 6774SOL     OW21220   4.331   1.148   5.186
 6774SOL    HW121221   4.311   1.179   5.094
 6774SOL    HW221222   4.392   1.068   5.183
 6775SOL     OW21223   1.359   2.085   4.479
 6775SOL    HW121224   1.291   2.095   4.407
 6775SOL    HW221225   1.444   2.050   4.440
 6776SOL     OW21226   3.555   3.754   3.742
 6776SOL    HW121227   3.515   3.700   3.667
 6776SOL    HW221228   3.608   3.829   3.704
 6777SOL     OW21229   0.415   6.961   6.191
 6777SOL    HW121230   0.406   0.024   6.238
 6777SOL    HW221231   0.458   6.894   6.252
 6778SOL     OW21232   6.485   6.096   1.977
 6778SOL    HW121233   6.513   6.144   1.894
 6778SOL    HW221234   6.385   6.089   1.980
 6779SOL     OW21235   4.993   4.771   6.409
 6779SOL    HW121236   4.983   4.867   6.434
 6779SOL    HW221237   5.055   4.727   6.474
 6780SOL     OW21238   4.684   1.051   2.520
 6780SOL    HW121239   4.584   1.046   2.516
 6780SOL    HW221240   4.716   0.998   2.599
 6781SOL     OW21241   6.163   3.088   3.020
 6781SOL    HW121242   6.078   3.097   2.969
 6781SOL    HW221243   6.153   3.131   3.110
 6782SOL     OW21244   6.992   1.423   2.899
 6782SOL    HW121245   7.014   1.350   2.834
 6782SOL    HW221246   6.907   1.399   2.947
 6783SOL     OW21247   0.608   6.594   6.540
 6783SOL    HW121248   0.583   6.529   6.469
 6783SOL    HW221249   0.559   6.572   6.624
 6784SOL     OW21250   1.401   4.935   0.333
 6784SOL    HW121251   1.304   4.909   0.336
 6784SOL    HW221252   1.445   4.894   0.253
 6785SOL     OW21253   5.488   4.475   1.799
 6785SOL    HW121254   5.501   4.459   1.897
 6785SOL    HW221255   5.399   4.517   1.783
 6786SOL     OW21256   6.595   1.907   5.766
 6786SOL    HW121257   6.550   1.986   5.807
 6786SOL    HW221258   6.527   1.848   5.723
 6787SOL     OW21259   3.971   2.374   1.310
 6787SOL    HW121260   3.918   2.457   1.292
 6787SOL    HW221261   3.941   2.302   1.247
 6788SOL     OW21262   1.260   4.327   0.917
 6788SOL    HW121263   1.278   4.424   0.928
 6788SOL    HW221264   1.333   4.285   0.863
 6789SOL     OW21265   5.686   3.476   2.390
 6789SOL    HW121266   5.717   3.533   2.314
 6789SOL    HW221267   5.608   3.421   2.362
 6790SOL     OW21268   0.019   5.576   0.595
 6790SOL    HW121269   0.057   5.541   0.680
 6790SOL    HW221270   6.954   5.619   0.613
 6791SOL     OW21271   2.337   6.519   3.589
 6791SOL    HW121272   2.373   6.585   3.654
 6791SOL    HW221273   2.413   6.479   3.537
 6792SOL     OW21274   3.417   6.155   6.814
 6792SOL    HW121275   3.362   6.120   6.738
 6792SOL    HW221276   3.511   6.123   6.805
 6793SOL     OW21277   2.495   4.257   6.574
 6793SOL    HW121278   2.560   4.271   6.650
 6793SOL    HW221279   2.512   4.168   6.532
 6794SOL     OW21280   4.769   2.292   4.415
 6794SOL    HW121281   4.694   2.358   4.417
 6794SOL    HW221282   4.761   2.234   4.334
 6795SOL     OW21283   0.420   0.972   1.892
 6795SOL    HW121284   0.496   0.946   1.833
 6795SOL    HW221285   0.436   1.064   1.928
 6796SOL     OW21286   6.630   2.903   2.022
 6796SOL    HW121287   6.720   2.934   2.052
 6796SOL    HW221288   6.623   2.909   1.923
 6797SOL     OW21289   1.814   3.764   1.119
 6797SOL    HW121290   1.884   3.711   1.070
 6797SOL    HW221291   1.765   3.822   1.055
 6798SOL     OW21292   4.801   1.580   1.828
 6798SOL    HW121293   4.709   1.602   1.859
 6798SOL    HW221294   4.796   1.531   1.741
 6799SOL     OW21295   5.539   6.786   3.167
 6799SOL    HW121296   5.602   6.849   3.122
 6799SOL    HW221297   5.504   6.721   3.100
 6800SOL     OW21298   6.499   2.597   2.211
 6800SOL    HW121299   6.548   2.565   2.130
 6800SOL    HW221300   6.454   2.684   2.191
 6801SOL     OW21301   1.758   5.240   5.333
 6801SOL    HW121302   1.791   5.306   5.265
 6801SOL    HW221303   1.803   5.152   5.317
 6802SOL     OW21304   2.642   4.562   1.585
 6802SOL    HW121305   2.583   4.503   1.642
 6802SOL    HW221306   2.730   4.517   1.571
 6803SOL     OW21307   5.970   5.007   6.686
 6803SOL    HW121308   5.931   5.038   6.773
 6803SOL    HW221309   6.070   5.003   6.694
 6804SOL     OW21310   3.400   4.939   2.029
 6804SOL    HW121311   3.484   4.886   2.041
 6804SOL    HW221312   3.341   4.925   2.109
 6805SOL     OW21313   0.604   4.237   3.331
 6805SOL    HW121314   0.560   4.323   3.355
 6805SOL    HW221315   0.538   4.176   3.289
 6806SOL     OW21316   6.258   3.870   1.852
 6806SOL    HW121317   6.316   3.893   1.930
 6806SOL    HW221318   6.162   3.870   1.880
 6807SOL     OW21319   3.813   3.176   2.528
 6807SOL    HW121320   3.741   3.178   2.458
 6807SOL    HW221321   3.841   3.082   2.545
 6808SOL     OW21322   3.627   6.155   3.163
 6808SOL    HW121323   3.567   6.189   3.090
 6808SOL    HW221324   3.708   6.213   3.169
 6809SOL     OW21325   5.645   2.533   0.453
 6809SOL    HW121326   5.633   2.452   0.510
 6809SOL    HW221327   5.674   2.610   0.509
 6810SOL     OW21328   2.502   6.925   4.505
 6810SOL    HW121329   2.576   6.979   4.466
 6810SOL    HW221330   2.536   6.834   4.530
 6811SOL     OW21331   6.136   1.345   1.504
 6811SOL    HW121332   6.070   1.296   1.561
 6811SOL    HW221333   6.147   1.439   1.539
 6812SOL     OW21334   3.346   4.128   5.603
 6812SOL    HW121335   3.381   4.116   5.696
 6812SOL    HW221336   3.256   4.171   5.606
 6813SOL     OW21337   0.077   3.548   1.940
 6813SOL    HW121338   0.035   3.535   1.850
 6813SOL    HW221339   0.067   3.464   1.994
 6814SOL     OW21340   4.096   2.338   1.783
 6814SOL    HW121341   4.000   2.315   1.776
 6814SOL    HW221342   4.111   2.431   1.750
 6815SOL     OW21343   1.060   5.689   0.175
 6815SOL    HW121344   1.006   5.709   0.257
 6815SOL    HW221345   1.149   5.734   0.182
 6816SOL     OW21346   5.685   6.532   4.504
 6816SOL    HW121347   5.744   6.583   4.567
 6816SOL    HW221348   5.634   6.597   4.447
 6817SOL     OW21349   5.724   0.544   1.691
 6817SOL    HW121350   5.684   0.452   1.693
 6817SOL    HW221351   5.661   0.608   1.648
 6818SOL     OW21352   6.859   6.976   5.503
 6818SOL    HW121353   6.950   6.950   5.534
 6818SOL    HW221354   6.802   7.001   5.581
 6819SOL     OW21355   5.441   3.832   0.417
 6819SOL    HW121356   5.487   3.842   0.328
 6819SOL    HW221357   5.347   3.865   0.410
 6820SOL     OW21358   2.209   3.629   1.282
 6820SOL    HW121359   2.276   3.568   1.239
 6820SOL    HW221360   2.137   3.574   1.324
 6821SOL     OW21361   2.764   3.281   5.929
 6821SOL    HW121362   2.860   3.254   5.924
 6821SOL    HW221363   2.754   3.374   5.892
 6822SOL     OW21364   6.423   4.385   4.688
 6822SOL    HW121365   6.351   4.405   4.755
 6822SOL    HW221366   6.506   4.434   4.713
 6823SOL     OW21367   6.777   3.014   5.860
 6823SOL    HW121368   6.744   3.083   5.796
 6823SOL    HW221369   6.722   2.931   5.851
 6824SOL     OW21370   0.710   0.272   3.609
 6824SOL    HW121371   0.674   0.299   3.699
 6824SOL    HW221372   0.809   0.287   3.607
 6825SOL     OW21373   4.635   4.485   1.615
 6825SOL    HW121374   4.551   4.442   1.581
 6825SOL    HW221375   4.708   4.469   1.549
 6826SOL     OW21376   5.924   1.198   3.771
 6826SOL    HW121377   5.977   1.154   3.699
 6826SOL    HW221378   5.970   1.187   3.859
 6827SOL     OW21379   5.284   5.425   5.411
 6827SOL    HW121380   5.214   5.496   5.402
 6827SOL    HW221381   5.241   5.341   5.444
 6828SOL     OW21382   2.754   2.397   2.757
 6828SOL    HW121383   2.792   2.376   2.847
 6828SOL    HW221384   2.783   2.327   2.691
 6829SOL     OW21385   5.192   6.738   3.910
 6829SOL    HW121386   5.186   6.756   4.008
 6829SOL    HW221387   5.149   6.650   3.890
 6830SOL     OW21388   3.831   6.310   2.149
 6830SOL    HW121389   3.825   6.249   2.070
 6830SOL    HW221390   3.916   6.362   2.145
 6831SOL     OW21391   2.257   1.161   0.072
 6831SOL    HW121392   2.239   1.194   0.164
 6831SOL    HW221393   2.305   1.231   0.020
 6832SOL     OW21394   3.613   3.677   0.319
 6832SOL    HW121395   3.619   3.604   0.251
 6832SOL    HW221396   3.678   3.659   0.393
 6833SOL     OW21397   4.895   5.501   6.965
 6833SOL    HW121398   4.946   5.443   0.005
 6833SOL    HW221399   4.943   5.504   6.877
 6834SOL     OW21400   6.047   5.740   5.553
 6834SOL    HW121401   6.035   5.645   5.523
 6834SOL    HW221402   6.074   5.741   5.649
 6835SOL     OW21403   3.762   0.085   2.936
 6835SOL    HW121404   3.669   0.118   2.916
 6835SOL    HW221405   3.817   0.090   2.852
 6836SOL     OW21406   0.694   4.599   6.667
 6836SOL    HW121407   0.692   4.509   6.711
 6836SOL    HW221408   0.787   4.636   6.670
 6837SOL     OW21409   6.480   2.037   1.652
 6837SOL    HW121410   6.541   2.002   1.723
 6837SOL    HW221411   6.385   2.022   1.678
 6838SOL     OW21412   1.737   4.408   6.880
 6838SOL    HW121413   1.677   4.479   6.842
 6838SOL    HW221414   1.824   4.409   6.830
 6839SOL     OW21415   5.708   2.334   5.475
 6839SOL    HW121416   5.705   2.400   5.550
 6839SOL    HW221417   5.617   2.296   5.459
 6840SOL     OW21418   3.352   7.023   4.678
 6840SOL    HW121419   3.327   6.929   4.703
 6840SOL    HW221420   3.353   0.008   4.579
 6841SOL     OW21421   4.466   6.459   0.674
 6841SOL    HW121422   4.487   6.497   0.764
 6841SOL    HW221423   4.372   6.480   0.650
 6842SOL     OW21424   0.975   3.371   3.527
 6842SOL    HW121425   0.914   3.443   3.561
 6842SOL    HW221426   0.946   3.283   3.564
 6843SOL     OW21427   4.912   2.964   1.812
 6843SOL    HW121428   4.842   3.006   1.870
 6843SOL    HW221429   4.961   2.894   1.865
 6844SOL     OW21430   3.243   6.740   4.704
 6844SOL    HW121431   3.296   6.659   4.678
 6844SOL    HW221432   3.161   6.746   4.647
 6845SOL     OW21433   3.676   3.783   0.037
 6845SOL    HW121434   3.647   3.768   0.132
 6845SOL    HW221435   3.637   3.712   7.003
 6846SOL     OW21436   4.034   3.142   3.855
 6846SOL    HW121437   3.978   3.146   3.773
 6846SOL    HW221438   3.995   3.075   3.919
 6847SOL     OW21439   5.454   2.967   2.375
 6847SOL    HW121440   5.394   2.930   2.303
 6847SOL    HW221441   5.469   3.064   2.359
 6848SOL     OW21442   0.712   6.118   4.833
 6848SOL    HW121443   0.758   6.198   4.870
 6848SOL    HW221444   0.674   6.063   4.908
 6849SOL     OW21445   3.111   0.251   4.816
 6849SOL    HW121446   3.158   0.305   4.886
 6849SOL    HW221447   3.121   0.296   4.727
 6850SOL     OW21448   6.593   3.707   1.577
 6850SOL    HW121449   6.523   3.738   1.513
 6850SOL    HW221450   6.550   3.677   1.662
 6851SOL     OW21451   1.528   5.988   6.801
 6851SOL    HW121452   1.494   5.941   6.883
 6851SOL    HW221453   1.628   5.988   6.801
 6852SOL     OW21454   5.912   5.018   2.152
 6852SOL    HW121455   5.946   4.931   2.118
 6852SOL    HW221456   5.929   5.090   2.084
 6853SOL     OW21457   6.482   4.147   4.901
 6853SOL    HW121458   6.532   4.077   4.850
 6853SOL    HW221459   6.460   4.223   4.839
 6854SOL     OW21460   6.260   1.081   6.844
 6854SOL    HW121461   6.268   0.991   6.803
 6854SOL    HW221462   6.260   1.073   6.944
 6855SOL     OW21463   2.928   6.893   1.901
 6855SOL    HW121464   3.014   6.902   1.953
 6855SOL    HW221465   2.929   6.959   1.825
 6856SOL     OW21466   0.398   6.007   5.648
 6856SOL    HW121467   0.453   5.994   5.566
 6856SOL    HW221468   0.379   5.918   5.690
 6857SOL     OW21469   4.962   0.612   6.689
 6857SOL    HW121470   5.008   0.666   6.619
 6857SOL    HW221471   5.030   0.557   6.739
 6858SOL     OW21472   3.453   2.750   6.616
 6858SOL    HW121473   3.515   2.801   6.557
 6858SOL    HW221474   3.395   2.814   6.667
 6859SOL     OW21475   4.258   0.901   0.162
 6859SOL    HW121476   4.353   0.892   0.131
 6859SOL    HW221477   4.258   0.920   0.260
 6860SOL     OW21478   4.833   3.481   6.622
 6860SOL    HW121479   4.856   3.561   6.677
 6860SOL    HW221480   4.892   3.479   6.541
 6861SOL     OW21481   5.903   3.527   0.572
 6861SOL    HW121482   5.972   3.585   0.528
 6861SOL    HW221483   5.932   3.506   0.665
 6862SOL     OW21484   2.573   4.656   4.605
 6862SOL    HW121485   2.665   4.678   4.637
 6862SOL    HW221486   2.509   4.728   4.632
 6863SOL     OW21487   1.348   3.396   3.804
 6863SOL    HW121488   1.381   3.402   3.710
 6863SOL    HW221489   1.390   3.468   3.859
 6864SOL     OW21490   3.727   5.363   6.293
 6864SOL    HW121491   3.801   5.310   6.251
 6864SOL    HW221492   3.681   5.417   6.222
 6865SOL     OW21493   0.648   3.044   4.379
 6865SOL    HW121494   0.728   3.100   4.400
 6865SOL    HW221495   0.633   2.977   4.452
 6866SOL     OW21496   0.721   4.012   2.654
 6866SOL    HW121497   0.717   4.095   2.710
 6866SOL    HW221498   0.635   3.962   2.662
 6867SOL     OW21499   2.177   5.599   3.464
 6867SOL    HW121500   2.163   5.698   3.469
 6867SOL    HW221501   2.171   5.560   3.556
 6868SOL     OW21502   2.065   5.562   4.798
 6868SOL    HW121503   2.116   5.647   4.785
 6868SOL    HW221504   1.969   5.583   4.817
 6869SOL     OW21505   0.126   3.385   5.122
 6869SOL    HW121506   0.162   3.336   5.043
 6869SOL    HW221507   0.180   3.467   5.140
 6870SOL     OW21508   5.285   3.549   3.171
 6870SOL    HW121509   5.293   3.638   3.127
 6870SOL    HW221510   5.348   3.484   3.127
 6871SOL     OW21511   4.985   5.813   1.369
 6871SOL    HW121512   5.041   5.892   1.395
 6871SOL    HW221513   4.889   5.833   1.386
 6872SOL     OW21514   3.321   4.339   1.142
 6872SOL    HW121515   3.237   4.389   1.121
 6872SOL    HW221516   3.375   4.328   1.059
 6873SOL     OW21517   5.811   4.572   4.680
 6873SOL    HW121518   5.897   4.619   4.703
 6873SOL    HW221519   5.734   4.634   4.697
 6874SOL     OW21520   0.821   1.665   6.182
 6874SOL    HW121521   0.751   1.667   6.252
 6874SOL    HW221522   0.784   1.627   6.097
 6875SOL     OW21523   4.053   0.572   4.577
 6875SOL    HW121524   3.956   0.550   4.580
 6875SOL    HW221525   4.103   0.499   4.530
 6876SOL     OW21526   3.341   5.944   4.794
 6876SOL    HW121527   3.341   6.043   4.780
 6876SOL    HW221528   3.350   5.898   4.705
 6877SOL     OW21529   1.619   3.399   6.286
 6877SOL    HW121530   1.644   3.351   6.370
 6877SOL    HW221531   1.703   3.426   6.237
 6878SOL     OW21532   1.282   1.170   4.639
 6878SOL    HW121533   1.357   1.234   4.618
 6878SOL    HW221534   1.320   1.089   4.683
 6879SOL     OW21535   6.653   0.755   5.147
 6879SOL    HW121536   6.646   0.842   5.098
 6879SOL    HW221537   6.609   0.764   5.236
 6880SOL     OW21538   1.118   4.186   5.077
 6880SOL    HW121539   1.024   4.172   5.109
 6880SOL    HW221540   1.130   4.142   4.989
 6881SOL     OW21541   5.288   5.723   1.488
 6881SOL    HW121542   5.342   5.732   1.572
 6881SOL    HW221543   5.258   5.813   1.458
 6882SOL     OW21544   2.333   5.941   5.747
 6882SOL    HW121545   2.379   5.882   5.813
 6882SOL    HW221546   2.359   6.036   5.764
 6883SOL     OW21547   2.948   5.943   2.251
 6883SOL    HW121548   3.010   5.865   2.258
 6883SOL    HW221549   2.946   5.975   2.157
 6884SOL     OW21550   1.772   4.905   2.038
 6884SOL    HW121551   1.865   4.925   2.068
 6884SOL    HW221552   1.715   4.986   2.048
 6885SOL     OW21553   4.201   4.846   5.030
 6885SOL    HW121554   4.132   4.822   5.098
 6885SOL    HW221555   4.239   4.763   4.990
 6886SOL     OW21556   5.267   1.232   1.499
 6886SOL    HW121557   5.279   1.201   1.405
 6886SOL    HW221558   5.293   1.158   1.562
 6887SOL     OW21559   6.104   0.916   5.172
 6887SOL    HW121560   6.183   0.856   5.157
 6887SOL    HW221561   6.117   0.967   5.257
 6888SOL     OW21562   5.777   0.202   4.040
 6888SOL    HW121563   5.750   0.285   4.090
 6888SOL    HW221564   5.698   0.166   3.990
 6889SOL     OW21565   1.889   4.097   6.526
 6889SOL    HW121566   1.909   4.001   6.505
 6889SOL    HW221567   1.912   4.154   6.447
 6890SOL     OW21568   2.033   0.331   1.435
 6890SOL    HW121569   2.017   0.239   1.398
 6890SOL    HW221570   2.055   0.394   1.361
 6891SOL     OW21571   4.688   5.500   5.987
 6891SOL    HW121572   4.620   5.558   5.943
 6891SOL    HW221573   4.652   5.467   6.074
 6892SOL     OW21574   3.393   1.562   4.796
 6892SOL    HW121575   3.349   1.631   4.738
 6892SOL    HW221576   3.488   1.548   4.765
 6893SOL     OW21577   4.961   0.289   1.197
 6893SOL    HW121578   4.938   0.233   1.118
 6893SOL    HW221579   4.890   0.280   1.266
 6894SOL     OW21580   5.652   4.662   6.457
 6894SOL    HW121581   5.750   4.679   6.464
 6894SOL    HW221582   5.610   4.674   6.548
 6895SOL     OW21583   4.207   5.282   5.546
 6895SOL    HW121584   4.157   5.314   5.627
 6895SOL    HW221585   4.217   5.358   5.481
 6896SOL     OW21586   4.699   1.525   2.535
 6896SOL    HW121587   4.620   1.557   2.588
 6896SOL    HW221588   4.706   1.577   2.450
 6897SOL     OW21589   3.791   0.557   1.284
 6897SOL    HW121590   3.864   0.593   1.341
 6897SOL    HW221591   3.796   0.597   1.193
 6898SOL     OW21592   4.237   1.291   2.697
 6898SOL    HW121593   4.294   1.327   2.770
 6898SOL    HW221594   4.239   1.355   2.619
 6899SOL     OW21595   5.554   5.889   6.072
 6899SOL    HW121596   5.631   5.825   6.080
 6899SOL    HW221597   5.572   5.970   6.128
 6900SOL     OW21598   4.287   0.379   6.422
 6900SOL    HW121599   4.362   0.316   6.437
 6900SOL    HW221600   4.271   0.434   6.504
 6901SOL     OW21601   2.117   0.850   0.413
 6901SOL    HW121602   2.043   0.785   0.427
 6901SOL    HW221603   2.085   0.943   0.431
 6902SOL     OW21604   6.782   5.677   2.660
 6902SOL    HW121605   6.713   5.616   2.700
 6902SOL    HW221606   6.749   5.771   2.662
 6903SOL     OW21607   4.782   4.219   0.092
 6903SOL    HW121608   4.740   4.239   0.180
 6903SOL    HW221609   4.810   4.123   0.090
 6904SOL     OW21610   0.683   0.677   2.635
 6904SOL    HW121611   0.651   0.588   2.602
 6904SOL    HW221612   0.611   0.718   2.692
 6905SOL     OW21613   3.441   5.504   1.114
 6905SOL    HW121614   3.446   5.416   1.066
 6905SOL    HW221615   3.442   5.578   1.047
 6906SOL     OW21616   6.040   6.105   3.412
 6906SOL    HW121617   6.100   6.025   3.403
 6906SOL    HW221618   5.961   6.081   3.468
 6907SOL     OW21619   3.554   0.456   1.394
 6907SOL    HW121620   3.644   0.488   1.364
 6907SOL    HW221621   3.484   0.523   1.370
 6908SOL     OW21622   5.392   7.006   6.848
 6908SOL    HW121623   5.491   7.019   6.834
 6908SOL    HW221624   5.346   7.006   6.760
 6909SOL     OW21625   2.129   2.294   0.277
 6909SOL    HW121626   2.170   2.292   0.186
 6909SOL    HW221627   2.199   2.275   0.346
 6910SOL     OW21628   5.228   1.386   0.927
 6910SOL    HW121629   5.182   1.451   0.867
 6910SOL    HW221630   5.207   1.406   1.022
 6911SOL     OW21631   4.243   0.352   4.988
 6911SOL    HW121632   4.277   0.302   5.068
 6911SOL    HW221633   4.311   0.420   4.960
 6912SOL     OW21634   4.262   4.819   1.792
 6912SOL    HW121635   4.353   4.851   1.816
 6912SOL    HW221636   4.264   4.721   1.775
 6913SOL     OW21637   4.610   5.712   5.273
 6913SOL    HW121638   4.640   5.699   5.179
 6913SOL    HW221639   4.607   5.623   5.319
 6914SOL     OW21640   6.539   4.831   0.127
 6914SOL    HW121641   6.495   4.746   0.099
 6914SOL    HW221642   6.579   4.819   0.218
 6915SOL     OW21643   0.298   6.603   0.752
 6915SOL    HW121644   0.222   6.656   0.716
 6915SOL    HW221645   0.384   6.642   0.720
 6916SOL     OW21646   6.225   0.573   5.583
 6916SOL    HW121647   6.279   0.535   5.508
 6916SOL    HW221648   6.163   0.502   5.618
 6917SOL     OW21649   4.615   6.847   5.748
 6917SOL    HW121650   4.603   6.787   5.827
 6917SOL    HW221651   4.527   6.862   5.704
 6918SOL     OW21652   2.337   2.640   3.503
 6918SOL    HW121653   2.266   2.670   3.566
 6918SOL    HW221654   2.381   2.557   3.538
 6919SOL     OW21655   1.051   5.959   3.711
 6919SOL    HW121656   1.146   5.943   3.684
 6919SOL    HW221657   1.041   5.948   3.809
 6920SOL     OW21658   5.400   5.898   4.432
 6920SOL    HW121659   5.362   5.828   4.372
 6920SOL    HW221660   5.500   5.899   4.423
 6921SOL     OW21661   1.355   5.462   3.503
 6921SOL    HW121662   1.284   5.401   3.468
 6921SOL    HW221663   1.370   5.537   3.438
 6922SOL     OW21664   2.039   6.804   0.855
 6922SOL    HW121665   2.092   6.757   0.784
 6922SOL    HW221666   1.981   6.874   0.812
 6923SOL     OW21667   4.885   5.673   3.379
 6923SOL    HW121668   4.829   5.592   3.397
 6923SOL    HW221669   4.956   5.681   3.449
 6924SOL     OW21670   6.127   5.695   2.230
 6924SOL    HW121671   6.141   5.678   2.132
 6924SOL    HW221672   6.127   5.609   2.280
 6925SOL     OW21673   5.021   5.368   2.366
 6925SOL    HW121674   4.987   5.448   2.317
 6925SOL    HW221675   4.952   5.336   2.431
 6926SOL     OW21676   2.747   3.990   5.557
 6926SOL    HW121677   2.713   4.062   5.618
 6926SOL    HW221678   2.821   3.941   5.602
 6927SOL     OW21679   4.128   3.741   0.755
 6927SOL    HW121680   4.097   3.830   0.787
 6927SOL    HW221681   4.093   3.669   0.815
 6928SOL     OW21682   7.018   0.547   6.640
 6928SOL    HW121683   0.089   0.571   6.658
 6928SOL    HW221684   6.971   0.626   6.600
 6929SOL     OW21685   3.199   5.461   2.011
 6929SOL    HW121686   3.249   5.527   2.067
 6929SOL    HW221687   3.237   5.370   2.027
 6930SOL     OW21688   0.158   0.306   3.057
 6930SOL    HW121689   0.177   0.379   2.991
 6930SOL    HW221690   0.076   0.256   3.029
 6931SOL     OW21691   2.499   0.129   0.282
 6931SOL    HW121692   2.418   0.170   0.239
 6931SOL    HW221693   2.558   0.090   0.211
 6932SOL     OW21694   2.433   2.528   0.592
 6932SOL    HW121695   2.421   2.429   0.593
 6932SOL    HW221696   2.346   2.572   0.615
 6933SOL     OW21697   2.215   6.252   4.962
 6933SOL    HW121698   2.133   6.195   4.952
 6933SOL    HW221699   2.295   6.193   4.966
 6934SOL     OW21700   5.646   5.029   6.470
 6934SOL    HW121701   5.652   5.128   6.484
 6934SOL    HW221702   5.688   4.982   6.548
 6935SOL     OW21703   4.511   5.763   3.159
 6935SOL    HW121704   4.438   5.752   3.226
 6935SOL    HW221705   4.564   5.846   3.181
 6936SOL     OW21706   0.617   4.537   0.469
 6936SOL    HW121707   0.702   4.486   0.480
 6936SOL    HW221708   0.542   4.475   0.449
 6937SOL     OW21709   4.756   6.086   5.699
 6937SOL    HW121710   4.694   6.160   5.672
 6937SOL    HW221711   4.769   6.024   5.622
 6938SOL     OW21712   5.657   2.859   5.122
 6938SOL    HW121713   5.660   2.935   5.187
 6938SOL    HW221714   5.712   2.883   5.041
 6939SOL     OW21715   6.545   4.679   1.778
 6939SOL    HW121716   6.482   4.603   1.761
 6939SOL    HW221717   6.639   4.648   1.766
 6940SOL     OW21718   4.305   0.717   4.621
 6940SOL    HW121719   4.299   0.769   4.706
 6940SOL    HW221720   4.225   0.658   4.613
 6941SOL     OW21721   3.812   2.931   4.718
 6941SOL    HW121722   3.864   2.885   4.790
 6941SOL    HW221723   3.726   2.882   4.703
 6942SOL     OW21724   6.097   1.687   0.098
 6942SOL    HW121725   6.063   1.712   0.007
 6942SOL    HW221726   6.036   1.619   0.139
 6943SOL     OW21727   6.036   5.563   6.505
 6943SOL    HW121728   6.060   5.502   6.429
 6943SOL    HW221729   6.051   5.515   6.592
 6944SOL     OW21730   1.371   6.476   0.528
 6944SOL    HW121731   1.407   6.534   0.455
 6944SOL    HW221732   1.322   6.532   0.594
 6945SOL     OW21733   4.756   1.852   6.252
 6945SOL    HW121734   4.737   1.944   6.287
 6945SOL    HW221735   4.757   1.787   6.328
 6946SOL     OW21736   6.431   3.857   3.582
 6946SOL    HW121737   6.435   3.909   3.668
 6946SOL    HW221738   6.398   3.916   3.509
 6947SOL     OW21739   3.860   6.989   1.052
 6947SOL    HW121740   3.811   0.036   1.103
 6947SOL    HW221741   3.818   6.900   1.070
 6948SOL     OW21742   3.563   2.605   5.669
 6948SOL    HW121743   3.546   2.565   5.579
 6948SOL    HW221744   3.506   2.686   5.681
 6949SOL     OW21745   5.149   0.935   2.478
 6949SOL    HW121746   5.100   0.880   2.410
 6949SOL    HW221747   5.111   1.028   2.478
 6950SOL     OW21748   3.425   1.350   3.233
 6950SOL    HW121749   3.450   1.361   3.136
 6950SOL    HW221750   3.373   1.429   3.263
 6951SOL     OW21751   5.150   4.818   5.426
 6951SOL    HW121752   5.249   4.825   5.412
 6951SOL    HW221753   5.110   4.760   5.355
 6952SOL     OW21754   7.006   4.084   5.657
 6952SOL    HW121755   0.005   4.123   5.568
 6952SOL    HW221756   0.061   4.038   5.695
 6953SOL     OW21757   5.038   2.344   4.890
 6953SOL    HW121758   4.967   2.370   4.824
 6953SOL    HW221759   5.126   2.339   4.844
 6954SOL     OW21760   0.032   4.216   1.884
 6954SOL    HW121761   0.116   4.200   1.832
 6954SOL    HW221762   6.990   4.264   1.827
 6955SOL     OW21763   6.648   0.487   3.199
 6955SOL    HW121764   6.640   0.476   3.298
 6955SOL    HW221765   6.700   0.411   3.161
 6956SOL     OW21766   2.472   4.048   0.911
 6956SOL    HW121767   2.390   4.054   0.855
 6956SOL    HW221768   2.454   3.990   0.990
 6957SOL     OW21769   0.769   4.475   0.001
 6957SOL    HW121770   0.770   4.414   0.080
 6957SOL    HW221771   0.718   4.431   6.950
 6958SOL     OW21772   2.560   4.173   6.063
 6958SOL    HW121773   2.507   4.133   6.137
 6958SOL    HW221774   2.600   4.101   6.007
 6959SOL     OW21775   3.873   1.331   4.658
 6959SOL    HW121776   3.903   1.323   4.753
 6959SOL    HW221777   3.881   1.426   4.628
 6960SOL     OW21778   0.626   5.505   0.061
 6960SOL    HW121779   0.695   5.568   0.096
 6960SOL    HW221780   0.536   5.532   0.095
 6961SOL     OW21781   6.568   1.590   3.409
 6961SOL    HW121782   6.550   1.688   3.399
 6961SOL    HW221783   6.509   1.552   3.480
 6962SOL     OW21784   3.813   3.888   0.996
 6962SOL    HW121785   3.716   3.910   1.009
 6962SOL    HW221786   3.846   3.835   1.075
 6963SOL     OW21787   6.243   5.933   2.191
 6963SOL    HW121788   6.240   5.967   2.285
 6963SOL    HW221789   6.198   5.844   2.186
 6964SOL     OW21790   3.217   5.882   5.807
 6964SOL    HW121791   3.233   5.962   5.865
 6964SOL    HW221792   3.135   5.896   5.753
 6965SOL     OW21793   6.165   1.587   5.417
 6965SOL    HW121794   6.074   1.575   5.378
 6965SOL    HW221795   6.158   1.601   5.515
 6966SOL     OW21796   5.297   2.179   3.948
 6966SOL    HW121797   5.357   2.155   4.025
 6966SOL    HW221798   5.250   2.264   3.969
 6967SOL     OW21799   2.520   2.467   6.146
 6967SOL    HW121800   2.493   2.503   6.057
 6967SOL    HW221801   2.483   2.526   6.218
 6968SOL     OW21802   4.346   6.966   4.112
 6968SOL    HW121803   4.411   6.891   4.098
 6968SOL    HW221804   4.255   6.937   4.082
 6969SOL     OW21805   3.051   3.684   0.959
 6969SOL    HW121806   3.123   3.753   0.952
 6969SOL    HW221807   3.063   3.632   1.043
 6970SOL     OW21808   4.658   4.349   0.769
 6970SOL    HW121809   4.572   4.324   0.724
 6970SOL    HW221810   4.730   4.355   0.700
 6971SOL     OW21811   6.421   1.597   2.542
 6971SOL    HW121812   6.446   1.689   2.572
 6971SOL    HW221813   6.367   1.552   2.614
 6972SOL     OW21814   5.621   4.879   4.307
 6972SOL    HW121815   5.611   4.962   4.362
 6972SOL    HW221816   5.716   4.848   4.309
 6973SOL     OW21817   1.299   4.445   4.120
 6973SOL    HW121818   1.286   4.511   4.046
 6973SOL    HW221819   1.314   4.354   4.082
 6974SOL     OW21820   3.826   4.050   5.311
 6974SOL    HW121821   3.743   4.068   5.364
 6974SOL    HW221822   3.810   3.972   5.250
 6975SOL     OW21823   3.144   6.945   6.103
 6975SOL    HW121824   3.087   6.876   6.147
 6975SOL    HW221825   3.190   7.000   6.173
 6976SOL     OW21826   1.534   6.259   0.509
 6976SOL    HW121827   1.466   6.329   0.529
 6976SOL    HW221828   1.489   6.181   0.466
 6977SOL     OW21829   4.831   2.823   2.114
 6977SOL    HW121830   4.791   2.893   2.055
 6977SOL    HW221831   4.847   2.862   2.205
 6978SOL     OW21832   4.631   2.226   3.918
 6978SOL    HW121833   4.640   2.168   3.836
 6978SOL    HW221834   4.573   2.304   3.896
 6979SOL     OW21835   0.408   4.011   3.831
 6979SOL    HW121836   0.474   3.943   3.862
 6979SOL    HW221837   0.449   4.068   3.760
 6980SOL     OW21838   4.622   1.340   4.585
 6980SOL    HW121839   4.539   1.303   4.543
 6980SOL    HW221840   4.689   1.267   4.599
 6981SOL     OW21841   3.122   3.523   6.734
 6981SOL    HW121842   3.167   3.506   6.821
 6981SOL    HW221843   3.027   3.490   6.738
 6982SOL     OW21844   0.565   0.090   5.042
 6982SOL    HW121845   0.497   0.160   5.062
 6982SOL    HW221846   0.529   0.000   5.070
 6983SOL     OW21847   6.379   1.178   2.809
 6983SOL    HW121848   6.406   1.267   2.846
 6983SOL    HW221849   6.283   1.181   2.783
 6984SOL     OW21850   1.697   1.317   6.067
 6984SOL    HW121851   1.755   1.242   6.098
 6984SOL    HW221852   1.750   1.402   6.066
 6985SOL     OW21853   4.928   0.143   4.059
 6985SOL    HW121854   4.853   0.077   4.065
 6985SOL    HW221855   4.931   0.182   3.967
 6986SOL     OW21856   1.603   6.697   5.488
 6986SOL    HW121857   1.702   6.681   5.487
 6986SOL    HW221858   1.584   6.789   5.454
 6987SOL     OW21859   6.937   3.245   6.616
 6987SOL    HW121860   6.948   3.196   6.529
 6987SOL    HW221861   6.975   3.337   6.607
 6988SOL     OW21862   5.871   1.622   5.994
 6988SOL    HW121863   5.857   1.537   5.943
 6988SOL    HW221864   5.963   1.657   5.976
 6989SOL     OW21865   2.047   2.972   3.554
 6989SOL    HW121866   1.957   3.005   3.525
 6989SOL    HW221867   2.111   2.980   3.478
 6990SOL     OW21868   3.712   3.434   0.886
 6990SOL    HW121869   3.633   3.384   0.851
 6990SOL    HW221870   3.681   3.507   0.947
 6991SOL     OW21871   4.032   4.817   5.239
 6991SOL    HW121872   3.936   4.839   5.228
 6991SOL    HW221873   4.069   4.868   5.318
 6992SOL     OW21874   6.277   6.890   4.413
 6992SOL    HW121875   6.183   6.879   4.384
 6992SOL    HW221876   6.334   6.915   4.335
 6993SOL     OW21877   0.511   0.065   3.237
 6993SOL    HW121878   0.450   7.013   3.216
 6993SOL    HW221879   0.486   0.145   3.182
 6994SOL     OW21880   1.247   2.519   0.085
 6994SOL    HW121881   1.258   2.542   7.013
 6994SOL    HW221882   1.197   2.592   0.132
 6995SOL     OW21883   0.780   5.429   4.312
 6995SOL    HW121884   0.776   5.381   4.224
 6995SOL    HW221885   0.777   5.528   4.296
 6996SOL     OW21886   2.008   0.079   6.176
 6996SOL    HW121887   1.928   0.137   6.161
 6996SOL    HW221888   1.980   7.007   6.177
 6997SOL     OW21889   4.495   5.249   4.485
 6997SOL    HW121890   4.511   5.331   4.431
 6997SOL    HW221891   4.410   5.205   4.455
 6998SOL     OW21892   2.870   1.914   2.807
 6998SOL    HW121893   2.841   2.006   2.783
 6998SOL    HW221894   2.961   1.897   2.771
 6999SOL     OW21895   5.651   2.225   0.082
 6999SOL    HW121896   5.559   2.242   0.116
 6999SOL    HW221897   5.714   2.291   0.123
 7000SOL     OW21898   6.708   0.197   1.851
 7000SOL    HW121899   6.770   0.273   1.833
 7000SOL    HW221900   6.619   0.215   1.809
 7001SOL     OW21901   3.274   1.385   6.603
 7001SOL    HW121902   3.258   1.412   6.698
 7001SOL    HW221903   3.223   1.446   6.542
 7002SOL     OW21904   2.096   4.934   2.093
 7002SOL    HW121905   2.169   4.992   2.057
 7002SOL    HW221906   2.126   4.838   2.090
 7003SOL     OW21907   1.862   6.451   5.891
 7003SOL    HW121908   1.797   6.526   5.886
 7003SOL    HW221909   1.814   6.365   5.873
 7004SOL     OW21910   1.567   4.169   6.982
 7004SOL    HW121911   1.551   4.191   6.886
 7004SOL    HW221912   1.665   4.177   7.002
 7005SOL     OW21913   6.900   0.029   5.935
 7005SOL    HW121914   6.969   0.094   5.903
 7005SOL    HW221915   6.884   0.043   6.033
 7006SOL     OW21916   4.506   4.596   3.906
 7006SOL    HW121917   4.437   4.549   3.961
 7006SOL    HW221918   4.597   4.565   3.933
 7007SOL     OW21919   4.824   5.255   2.527
 7007SOL    HW121920   4.787   5.181   2.470
 7007SOL    HW221921   4.825   5.227   2.623
 7008SOL     OW21922   1.075   5.219   4.041
 7008SOL    HW121923   1.091   5.120   4.038
 7008SOL    HW221924   1.154   5.264   4.082
 7009SOL     OW21925   6.788   3.867   2.087
 7009SOL    HW121926   6.785   3.865   1.987
 7009SOL    HW221927   6.862   3.808   2.119
 7010SOL     OW21928   5.360   4.648   6.363
 7010SOL    HW121929   5.454   4.662   6.333
 7010SOL    HW221930   5.304   4.619   6.285
 7011SOL     OW21931   0.820   0.829   5.175
 7011SOL    HW121932   0.827   0.907   5.237
 7011SOL    HW221933   0.852   0.856   5.084
 7012SOL     OW21934   1.350   1.193   1.599
 7012SOL    HW121935   1.294   1.184   1.682
 7012SOL    HW221936   1.438   1.235   1.622
 7013SOL     OW21937   6.860   1.857   1.752
 7013SOL    HW121938   6.915   1.912   1.814
 7013SOL    HW221939   6.765   1.856   1.783
 7014SOL     OW21940   2.321   5.222   0.761
 7014SOL    HW121941   2.397   5.266   0.712
 7014SOL    HW221942   2.355   5.143   0.811
 7015SOL     OW21943   4.869   2.000   2.937
 7015SOL    HW121944   4.895   2.039   2.849
 7015SOL    HW221945   4.808   1.922   2.923
 7016SOL     OW21946   4.383   4.340   1.639
 7016SOL    HW121947   4.456   4.287   1.682
 7016SOL    HW221948   4.315   4.278   1.600
 7017SOL     OW21949   5.218   1.688   5.648
 7017SOL    HW121950   5.270   1.654   5.726
 7017SOL    HW221951   5.139   1.629   5.633
 7018SOL     OW21952   0.500   3.245   3.154
 7018SOL    HW121953   0.516   3.311   3.080
 7018SOL    HW221954   0.437   3.174   3.123
 7019SOL     OW21955   1.252   5.949   1.237
 7019SOL    HW121956   1.293   5.859   1.247
 7019SOL    HW221957   1.154   5.939   1.217
 7020SOL     OW21958   0.462   5.906   6.919
 7020SOL    HW121959   0.397   5.975   6.888
 7020SOL    HW221960   0.412   5.825   6.949
 7021SOL     OW21961   3.678   6.871   5.949
 7021SOL    HW121962   3.661   6.954   6.003
 7021SOL    HW221963   3.611   6.865   5.876
 7022SOL     OW21964   4.688   5.331   5.743
 7022SOL    HW121965   4.694   5.367   5.836
 7022SOL    HW221966   4.736   5.244   5.737
 7023SOL     OW21967   4.935   4.222   2.627
 7023SOL    HW121968   4.877   4.149   2.662
 7023SOL    HW221969   4.880   4.286   2.573
 7024SOL     OW21970   5.972   6.754   1.190
 7024SOL    HW121971   6.052   6.696   1.170
 7024SOL    HW221972   5.984   6.798   1.279
 7025SOL     OW21973   2.482   0.423   0.280
 7025SOL    HW121974   2.393   0.465   0.265
 7025SOL    HW221975   2.470   0.339   0.334
 7026SOL     OW21976   3.880   2.014   1.386
 7026SOL    HW121977   3.946   2.043   1.455
 7026SOL    HW221978   3.872   1.914   1.387
 7027SOL     OW21979   5.952   6.112   4.039
 7027SOL    HW121980   6.051   6.128   4.041
 7027SOL    HW221981   5.930   6.049   3.964
 7028SOL     OW21982   2.814   0.303   4.531
 7028SOL    HW121983   2.754   0.236   4.488
 7028SOL    HW221984   2.879   0.338   4.464
 7029SOL     OW21985   4.341   1.479   4.433
 7029SOL    HW121986   4.430   1.525   4.437
 7029SOL    HW221987   4.356   1.381   4.420
 7030SOL     OW21988   1.896   3.243   4.042
 7030SOL    HW121989   1.984   3.210   4.008
 7030SOL    HW221990   1.822   3.189   4.001
 7031SOL     OW21991   1.558   1.056   4.572
 7031SOL    HW121992   1.638   1.012   4.614
 7031SOL    HW221993   1.534   1.008   4.488
 7032SOL     OW21994   6.281   2.450   3.868
 7032SOL    HW121995   6.198   2.455   3.812
 7032SOL    HW221996   6.333   2.369   3.842
 7033SOL     OW21997   0.910   0.170   5.517
 7033SOL    HW121998   0.949   0.198   5.429
 7033SOL    HW221999   0.891   0.250   5.573
 7034SOL     OW22000   0.264   5.329   3.213
 7034SOL    HW122001   0.178   5.376   3.200
 7034SOL    HW222002   0.252   5.231   3.195
 7035SOL     OW22003   6.531   4.906   1.956
 7035SOL    HW122004   6.524   4.818   1.908
 7035SOL    HW222005   6.468   4.971   1.915
 7036SOL     OW22006   5.875   4.895   0.927
 7036SOL    HW122007   5.924   4.981   0.913
 7036SOL    HW222008   5.849   4.857   0.839
 7037SOL     OW22009   1.611   0.258   6.349
 7037SOL    HW122010   1.610   0.324   6.425
 7037SOL    HW222011   1.601   0.166   6.385
 7038SOL     OW22012   2.160   3.041   4.354
 7038SOL    HW122013   2.220   3.015   4.430
 7038SOL    HW222014   2.142   3.139   4.358
 7039SOL     OW22015   3.263   2.295   6.627
 7039SOL    HW122016   3.176   2.260   6.660
 7039SOL    HW222017   3.338   2.247   6.672
 7040SOL     OW22018   5.299   2.828   6.769
 7040SOL    HW122019   5.273   2.868   6.681
 7040SOL    HW222020   5.259   2.880   6.844
 7041SOL     OW22021   2.013   1.684   3.600
 7041SOL    HW122022   1.954   1.765   3.593
 7041SOL    HW222023   2.096   1.699   3.547
 7042SOL     OW22024   1.397   0.614   6.702
 7042SOL    HW122025   1.484   0.637   6.746
 7042SOL    HW222026   1.332   0.584   6.772
 7043SOL     OW22027   1.798   2.180   2.058
 7043SOL    HW122028   1.699   2.174   2.044
 7043SOL    HW222029   1.833   2.091   2.087
 7044SOL     OW22030   6.747   6.466   1.898
 7044SOL    HW122031   6.759   6.535   1.968
 7044SOL    HW222032   6.825   6.403   1.899
 7045SOL     OW22033   6.732   5.004   0.013
 7045SOL    HW122034   6.660   4.939   0.041
 7045SOL    HW222035   6.743   5.074   0.084
 7046SOL     OW22036   3.417   1.348   3.955
 7046SOL    HW122037   3.393   1.336   4.051
 7046SOL    HW222038   3.503   1.300   3.936
 7047SOL     OW22039   1.669   0.233   2.900
 7047SOL    HW122040   1.737   0.192   2.839
 7047SOL    HW222041   1.714   0.266   2.983
 7048SOL     OW22042   6.684   5.783   0.076
 7048SOL    HW122043   6.650   5.734   0.157
 7048SOL    HW222044   6.783   5.770   0.070
 7049SOL     OW22045   2.086   1.046   6.678
 7049SOL    HW122046   2.057   1.067   6.772
 7049SOL    HW222047   2.044   1.111   6.615
 7050SOL     OW22048   3.844   3.719   5.132
 7050SOL    HW122049   3.787   3.733   5.214
 7050SOL    HW222050   3.799   3.761   5.053
 7051SOL     OW22051   6.616   6.722   3.190
 7051SOL    HW122052   6.580   6.814   3.205
 7051SOL    HW222053   6.653   6.715   3.097
 7052SOL     OW22054   6.703   0.433   5.378
 7052SOL    HW122055   6.777   0.494   5.407
 7052SOL    HW222056   6.703   0.424   5.279
 7053SOL     OW22057   6.456   4.401   5.960
 7053SOL    HW122058   6.483   4.347   6.040
 7053SOL    HW222059   6.506   4.488   5.960
 7054SOL     OW22060   6.203   1.595   1.576
 7054SOL    HW122061   6.285   1.612   1.631
 7054SOL    HW222062   6.175   1.680   1.532
 7055SOL     OW22063   4.647   1.508   4.195
 7055SOL    HW122064   4.584   1.509   4.117
 7055SOL    HW222065   4.714   1.435   4.183
 7056SOL     OW22066   4.384   5.239   4.160
 7056SOL    HW122067   4.412   5.318   4.105
 7056SOL    HW222068   4.314   5.268   4.226
 7057SOL     OW22069   5.987   5.876   2.978
 7057SOL    HW122070   6.030   5.791   3.008
 7057SOL    HW222071   6.040   5.954   3.011
 7058SOL     OW22072   7.010   4.400   4.619
 7058SOL    HW122073   6.947   4.469   4.584
 7058SOL    HW222074   0.021   4.346   4.543
 7059SOL     OW22075   1.875   1.593   2.651
 7059SOL    HW122076   1.926   1.539   2.718
 7059SOL    HW222077   1.795   1.542   2.621
 7060SOL     OW22078   3.085   6.330   0.990
 7060SOL    HW122079   3.073   6.305   1.086
 7060SOL    HW222080   3.150   6.267   0.948
 7061SOL     OW22081   6.999   0.630   2.870
 7061SOL    HW122082   6.904   0.619   2.840
 7061SOL    HW222083   0.004   0.725   2.854
 7062SOL     OW22084   6.218   1.122   5.414
 7062SOL    HW122085   6.245   1.058   5.486
 7062SOL    HW222086   6.253   1.213   5.437
 7063SOL     OW22087   1.855   6.800   2.583
 7063SOL    HW122088   1.813   6.889   2.562
 7063SOL    HW222089   1.786   6.728   2.572
 7064SOL     OW22090   4.020   2.581   0.306
 7064SOL    HW122091   4.062   2.658   0.355
 7064SOL    HW222092   3.920   2.589   0.313
 7065SOL     OW22093   3.398   3.430   2.125
 7065SOL    HW122094   3.438   3.395   2.209
 7065SOL    HW222095   3.349   3.357   2.077
 7066SOL     OW22096   2.677   5.394   1.399
 7066SOL    HW122097   2.711   5.427   1.310
 7066SOL    HW222098   2.726   5.311   1.425
 7067SOL     OW22099   0.412   4.205   4.168
 7067SOL    HW122100   0.356   4.138   4.119
 7067SOL    HW222101   0.398   4.195   4.266
 7068SOL     OW22102   0.278   0.293   2.692
 7068SOL    HW122103   0.352   0.308   2.626
 7068SOL    HW222104   0.278   0.367   2.759
 7069SOL     OW22105   1.743   4.959   5.192
 7069SOL    HW122106   1.770   4.932   5.285
 7069SOL    HW222107   1.825   4.981   5.139
 7070SOL     OW22108   5.732   5.379   3.529
 7070SOL    HW122109   5.792   5.434   3.470
 7070SOL    HW222110   5.638   5.410   3.518
 7071SOL     OW22111   1.847   6.875   5.348
 7071SOL    HW122112   1.865   6.782   5.379
 7071SOL    HW222113   1.779   6.874   5.275
 7072SOL     OW22114   0.592   0.095   6.910
 7072SOL    HW122115   0.605   7.022   6.891
 7072SOL    HW222116   0.595   0.111   7.009
 7073SOL     OW22117   1.927   1.919   6.160
 7073SOL    HW122118   1.885   1.999   6.203
 7073SOL    HW222119   1.954   1.942   6.067
 7074SOL     OW22120   3.563   1.332   0.201
 7074SOL    HW122121   3.493   1.287   0.257
 7074SOL    HW222122   3.652   1.290   0.221
 7075SOL     OW22123   0.627   5.942   2.380
 7075SOL    HW122124   0.572   5.914   2.459
 7075SOL    HW222125   0.667   6.032   2.398
 7076SOL     OW22126   3.838   1.777   6.005
 7076SOL    HW122127   3.898   1.719   5.949
 7076SOL    HW222128   3.834   1.741   6.098
 7077SOL     OW22129   1.776   5.198   6.605
 7077SOL    HW122130   1.832   5.119   6.630
 7077SOL    HW222131   1.809   5.279   6.652
 7078SOL     OW22132   6.568   0.863   2.184
 7078SOL    HW122133   6.532   0.954   2.202
 7078SOL    HW222134   6.571   0.847   2.085
 7079SOL     OW22135   5.481   5.885   5.241
 7079SOL    HW122136   5.460   5.884   5.339
 7079SOL    HW222137   5.510   5.977   5.214
 7080SOL     OW22138   5.816   0.612   4.062
 7080SOL    HW122139   5.774   0.531   4.104
 7080SOL    HW222140   5.848   0.674   4.133
 7081SOL     OW22141   4.639   0.613   5.101
 7081SOL    HW122142   4.557   0.623   5.157
 7081SOL    HW222143   4.714   0.579   5.158
 7082SOL     OW22144   5.988   1.063   0.383
 7082SOL    HW122145   6.047   1.143   0.385
 7082SOL    HW222146   5.939   1.059   0.295
 7083SOL     OW22147   3.306   0.553   5.676
 7083SOL    HW122148   3.372   0.552   5.601
 7083SOL    HW222149   3.354   0.554   5.763
 7084SOL     OW22150   5.999   5.818   0.215
 7084SOL    HW122151   5.950   5.830   0.129
 7084SOL    HW222152   6.087   5.866   0.211
 7085SOL     OW22153   4.085   1.520   1.147
 7085SOL    HW122154   3.994   1.481   1.132
 7085SOL    HW222155   4.090   1.610   1.105
 7086SOL     OW22156   1.406   1.195   6.095
 7086SOL    HW122157   1.380   1.156   6.006
 7086SOL    HW222158   1.493   1.243   6.085
 7087SOL     OW22159   2.316   2.728   5.037
 7087SOL    HW122160   2.342   2.824   5.044
 7087SOL    HW222161   2.333   2.694   4.945
 7088SOL     OW22162   0.538   2.235   5.362
 7088SOL    HW122163   0.521   2.241   5.264
 7088SOL    HW222164   0.606   2.304   5.389
 7089SOL     OW22165   3.070   1.955   1.373
 7089SOL    HW122166   3.106   2.038   1.331
 7089SOL    HW222167   3.052   1.971   1.470
 7090SOL     OW22168   2.313   2.285   5.607
 7090SOL    HW122169   2.252   2.217   5.568
 7090SOL    HW222170   2.331   2.357   5.540
 7091SOL     OW22171   6.923   6.355   0.808
 7091SOL    HW122172   6.829   6.379   0.831
 7091SOL    HW222173   6.926   6.312   0.718
 7092SOL     OW22174   2.741   2.307   0.673
 7092SOL    HW122175   2.644   2.329   0.683
 7092SOL    HW222176   2.762   2.223   0.723
 7093SOL     OW22177   4.234   3.194   5.997
 7093SOL    HW122178   4.140   3.226   5.989
 7093SOL    HW222179   4.285   3.219   5.915
 7094SOL     OW22180   6.600   0.882   5.764
 7094SOL    HW122181   6.670   0.834   5.711
 7094SOL    HW222182   6.590   0.975   5.729
 7095SOL     OW22183   0.291   4.064   0.474
 7095SOL    HW122184   0.235   4.112   0.541
 7095SOL    HW222185   0.317   3.974   0.510
 7096SOL     OW22186   4.938   6.980   2.740
 7096SOL    HW122187   4.968   0.031   2.682
 7096SOL    HW222188   4.946   6.894   2.689
 7097SOL     OW22189   1.975   1.273   1.765
 7097SOL    HW122190   1.970   1.348   1.830
 7097SOL    HW222191   2.008   1.190   1.811
 7098SOL     OW22192   1.064   0.612   6.123
 7098SOL    HW122193   1.130   0.607   6.048
 7098SOL    HW222194   0.973   0.586   6.088
 7099SOL     OW22195   0.013   0.949   5.521
 7099SOL    HW122196   0.103   0.930   5.559
 7099SOL    HW222197   6.973   0.879   5.550
 7100SOL     OW22198   5.522   1.801   1.447
 7100SOL    HW122199   5.445   1.769   1.502
 7100SOL    HW222200   5.575   1.722   1.414
 7101SOL     OW22201   1.491   0.603   3.825
 7101SOL    HW122202   1.462   0.540   3.753
 7101SOL    HW222203   1.529   0.552   3.902
 7102SOL     OW22204   4.953   2.905   0.300
 7102SOL    HW122205   4.884   2.833   0.298
 7102SOL    HW222206   5.003   2.906   0.213
 7103SOL     OW22207   2.966   6.987   5.900
 7103SOL    HW122208   2.909   0.029   5.948
 7103SOL    HW222209   3.058   6.988   5.939
 7104SOL     OW22210   0.535   2.539   1.830
 7104SOL    HW122211   0.522   2.440   1.826
 7104SOL    HW222212   0.632   2.560   1.838
 7105SOL     OW22213   2.097   3.910   5.542
 7105SOL    HW122214   2.192   3.918   5.513
 7105SOL    HW222215   2.083   3.820   5.584
 7106SOL     OW22216   3.070   2.746   5.344
 7106SOL    HW122217   2.970   2.755   5.344
 7106SOL    HW222218   3.095   2.653   5.316
 7107SOL     OW22219   1.880   1.287   0.656
 7107SOL    HW122220   1.855   1.321   0.565
 7107SOL    HW222221   1.897   1.365   0.716
 7108SOL     OW22222   4.362   6.472   1.778
 7108SOL    HW122223   4.305   6.520   1.844
 7108SOL    HW222224   4.308   6.446   1.698
 7109SOL     OW22225   4.123   5.919   6.461
 7109SOL    HW122226   4.125   5.862   6.544
 7109SOL    HW222227   4.118   5.859   6.381
 7110SOL     OW22228   3.054   5.035   4.193
 7110SOL    HW122229   3.149   5.039   4.162
 7110SOL    HW222230   3.041   5.098   4.269
 7111SOL     OW22231   1.518   2.610   3.626
 7111SOL    HW122232   1.486   2.550   3.699
 7111SOL    HW222233   1.441   2.637   3.569
 7112SOL     OW22234   1.582   6.509   2.715
 7112SOL    HW122235   1.579   6.590   2.774
 7112SOL    HW222236   1.548   6.533   2.624
 7113SOL     OW22237   3.799   3.292   5.181
 7113SOL    HW122238   3.706   3.277   5.149
 7113SOL    HW222239   3.863   3.246   5.119
 7114SOL     OW22240   3.917   6.486   0.585
 7114SOL    HW122241   3.908   6.396   0.542
 7114SOL    HW222242   3.827   6.524   0.603
 7115SOL     OW22243   4.022   1.873   1.639
 7115SOL    HW122244   4.058   1.848   1.549
 7115SOL    HW222245   4.076   1.826   1.710
 7116SOL     OW22246   5.862   3.851   3.001
 7116SOL    HW122247   5.923   3.897   2.936
 7116SOL    HW222248   5.916   3.818   3.079
 7117SOL     OW22249   6.051   6.762   2.585
 7117SOL    HW122250   6.099   6.836   2.633
 7117SOL    HW222251   6.081   6.760   2.489
 7118SOL     OW22252   0.018   3.260   2.700
 7118SOL    HW122253   7.021   3.163   2.684
 7118SOL    HW222254   0.077   3.268   2.781
 7119SOL     OW22255   1.043   2.354   2.730
 7119SOL    HW122256   0.974   2.380   2.662
 7119SOL    HW222257   1.134   2.363   2.689
 7120SOL     OW22258   4.832   6.306   2.884
 7120SOL    HW122259   4.912   6.270   2.930
 7120SOL    HW222260   4.857   6.339   2.793
 7121SOL     OW22261   2.554   6.651   1.310
 7121SOL    HW122262   2.463   6.609   1.300
 7121SOL    HW222263   2.624   6.580   1.303
 7122SOL     OW22264   6.835   6.423   0.274
 7122SOL    HW122265   6.928   6.427   0.239
 7122SOL    HW222266   6.771   6.409   0.199
 7123SOL     OW22267   2.660   5.600   0.660
 7123SOL    HW122268   2.655   5.561   0.568
 7123SOL    HW222269   2.719   5.681   0.659
 7124SOL     OW22270   6.935   6.290   6.715
 7124SOL    HW122271   0.002   6.317   6.681
 7124SOL    HW222272   6.925   6.191   6.707
 7125SOL     OW22273   0.287   6.600   3.259
 7125SOL    HW122274   0.210   6.623   3.320
 7125SOL    HW222275   0.360   6.557   3.313
 7126SOL     OW22276   1.864   4.328   1.092
 7126SOL    HW122277   1.885   4.322   1.190
 7126SOL    HW222278   1.949   4.343   1.041
 7127SOL     OW22279   2.643   0.145   4.416
 7127SOL    HW122280   2.563   0.201   4.437
 7127SOL    HW222281   2.640   0.118   4.320
 7128SOL     OW22282   2.824   3.835   1.720
 7128SOL    HW122283   2.889   3.837   1.796
 7128SOL    HW222284   2.826   3.923   1.672
 7129SOL     OW22285   2.419   1.917   1.287
 7129SOL    HW122286   2.370   1.986   1.341
 7129SOL    HW222287   2.414   1.941   1.190
 7130SOL     OW22288   2.472   0.342   2.824
 7130SOL    HW122289   2.399   0.316   2.761
 7130SOL    HW222290   2.546   0.275   2.818
 7131SOL     OW22291   3.159   1.485   3.804
 7131SOL    HW122292   3.146   1.405   3.863
 7131SOL    HW222293   3.231   1.543   3.843
 7132SOL     OW22294   3.069   4.129   1.915
 7132SOL    HW122295   3.001   4.127   1.842
 7132SOL    HW222296   3.028   4.166   1.998
 7133SOL     OW22297   5.709   4.245   2.239
 7133SOL    HW122298   5.764   4.273   2.160
 7133SOL    HW222299   5.766   4.194   2.303
 7134SOL     OW22300   5.485   4.914   2.661
 7134SOL    HW122301   5.442   4.850   2.724
 7134SOL    HW222302   5.502   4.869   2.573
 7135SOL     OW22303   0.360   2.121   5.609
 7135SOL    HW122304   0.386   2.196   5.670
 7135SOL    HW222305   0.418   2.124   5.527
 7136SOL     OW22306   2.126   2.071   6.619
 7136SOL    HW122307   2.030   2.098   6.621
 7136SOL    HW222308   2.138   1.995   6.554
 7137SOL     OW22309   4.940   1.870   5.124
 7137SOL    HW122310   4.946   1.969   5.110
 7137SOL    HW222311   5.016   1.839   5.181
 7138SOL     OW22312   2.197   2.770   6.812
 7138SOL    HW122313   2.235   2.850   6.766
 7138SOL    HW222314   2.271   2.706   6.832
 7139SOL     OW22315   2.772   1.552   0.565
 7139SOL    HW122316   2.740   1.638   0.526
 7139SOL    HW222317   2.800   1.490   0.492
 7140SOL     OW22318   6.952   3.858   4.911
 7140SOL    HW122319   6.876   3.866   4.976
 7140SOL    HW222320   6.927   3.795   4.838
 7141SOL     OW22321   1.230   6.869   1.784
 7141SOL    HW122322   1.283   6.917   1.714
 7141SOL    HW222323   1.182   6.791   1.743
 7142SOL     OW22324   3.596   6.523   3.386
 7142SOL    HW122325   3.520   6.553   3.445
 7142SOL    HW222326   3.629   6.434   3.418
 7143SOL     OW22327   2.601   2.131   3.927
 7143SOL    HW122328   2.646   2.046   3.901
 7143SOL    HW222329   2.605   2.142   4.026
 7144SOL     OW22330   1.461   3.293   3.561
 7144SOL    HW122331   1.511   3.270   3.478
 7144SOL    HW222332   1.378   3.343   3.538
 7145SOL     OW22333   4.317   6.072   5.774
 7145SOL    HW122334   4.280   5.980   5.763
 7145SOL    HW222335   4.293   6.128   5.695
 7146SOL     OW22336   3.339   5.224   2.042
 7146SOL    HW122337   3.360   5.131   2.011
 7146SOL    HW222338   3.297   5.219   2.133
 7147SOL     OW22339   0.072   0.987   3.404
 7147SOL    HW122340   0.101   1.074   3.365
 7147SOL    HW222341   6.998   0.992   3.426
 7148SOL     OW22342   0.017   1.626   0.898
 7148SOL    HW122343   0.077   1.649   0.821
 7148SOL    HW222344   0.071   1.583   0.970
 7149SOL     OW22345   0.481   0.463   4.732
 7149SOL    HW122346   0.439   0.546   4.693
 7149SOL    HW222347   0.573   0.484   4.764
 7150SOL     OW22348   6.306   3.598   6.528
 7150SOL    HW122349   6.248   3.562   6.602
 7150SOL    HW222350   6.285   3.551   6.443
 7151SOL     OW22351   2.462   6.712   0.896
 7151SOL    HW122352   2.543   6.673   0.940
 7151SOL    HW222353   2.394   6.640   0.880
 7152SOL     OW22354   0.988   2.406   4.332
 7152SOL    HW122355   1.060   2.336   4.327
 7152SOL    HW222356   0.914   2.374   4.391
 7153SOL     OW22357   3.898   1.752   2.947
 7153SOL    HW122358   3.962   1.753   3.024
 7153SOL    HW222359   3.869   1.658   2.929
 7154SOL     OW22360   3.787   6.611   4.905
 7154SOL    HW122361   3.788   6.570   4.996
 7154SOL    HW222362   3.696   6.601   4.864
 7155SOL     OW22363   2.731   1.714   3.130
 7155SOL    HW122364   2.722   1.614   3.134
 7155SOL    HW222365   2.640   1.756   3.136
 7156SOL     OW22366   1.804   6.012   5.519
 7156SOL    HW122367   1.895   5.971   5.523
 7156SOL    HW222368   1.749   5.979   5.595
 7157SOL     OW22369   5.166   3.871   0.728
 7157SOL    HW122370   5.263   3.857   0.711
 7157SOL    HW222371   5.141   3.963   0.698
 7158SOL     OW22372   4.640   6.783   3.741
 7158SOL    HW122373   4.724   6.818   3.783
 7158SOL    HW222374   4.660   6.750   3.649
 7159SOL     OW22375   0.758   5.350   0.338
 7159SOL    HW122376   0.773   5.438   0.294
 7159SOL    HW222377   0.672   5.311   0.306
 7160SOL     OW22378   6.272   0.786   1.521
 7160SOL    HW122379   6.230   0.771   1.610
 7160SOL    HW222380   6.335   0.711   1.500
 7161SOL     OW22381   3.823   4.091   4.504
 7161SOL    HW122382   3.768   4.171   4.478
 7161SOL    HW222383   3.815   4.075   4.602
 7162SOL     OW22384   3.456   4.916   4.259
 7162SOL    HW122385   3.450   4.864   4.344
 7162SOL    HW222386   3.461   5.014   4.279
 7163SOL     OW22387   1.605   6.446   3.368
 7163SOL    HW122388   1.531   6.381   3.385
 7163SOL    HW222389   1.693   6.398   3.374
 7164SOL     OW22390   2.162   2.281   4.602
 7164SOL    HW122391   2.133   2.375   4.617
 7164SOL    HW222392   2.191   2.241   4.689
 7165SOL     OW22393   5.153   6.103   2.021
 7165SOL    HW122394   5.067   6.141   2.056
 7165SOL    HW222395   5.226   6.119   2.087
 7166SOL     OW22396   4.078   5.986   2.212
 7166SOL    HW122397   4.125   5.956   2.295
 7166SOL    HW222398   3.992   5.936   2.202
 7167SOL     OW22399   5.136   3.376   6.448
 7167SOL    HW122400   5.112   3.473   6.442
 7167SOL    HW222401   5.235   3.367   6.452
 7168SOL     OW22402   1.077   1.875   3.810
 7168SOL    HW122403   1.173   1.900   3.810
 7168SOL    HW222404   1.021   1.953   3.838
 7169SOL     OW22405   2.073   2.993   6.609
 7169SOL    HW122406   2.045   3.051   6.533
 7169SOL    HW222407   2.038   3.030   6.695
 7170SOL     OW22408   5.580   4.551   3.562
 7170SOL    HW122409   5.527   4.545   3.647
 7170SOL    HW222410   5.644   4.627   3.568
 7171SOL     OW22411   4.159   3.250   5.202
 7171SOL    HW122412   4.128   3.238   5.107
 7171SOL    HW222413   4.093   3.206   5.264
 7172SOL     OW22414   0.443   6.870   1.917
 7172SOL    HW122415   0.471   6.806   1.988
 7172SOL    HW222416   0.367   6.925   1.950
 7173SOL     OW22417   6.264   6.569   4.279
 7173SOL    HW122418   6.317   6.586   4.362
 7173SOL    HW222419   6.234   6.656   4.239
 7174SOL     OW22420   0.749   6.247   6.235
 7174SOL    HW122421   0.820   6.285   6.295
 7174SOL    HW222422   0.790   6.180   6.173
 7175SOL     OW22423   6.073   3.539   5.676
 7175SOL    HW122424   6.062   3.458   5.733
 7175SOL    HW222425   6.075   3.621   5.735
 7176SOL     OW22426   0.301   3.230   1.593
 7176SOL    HW122427   0.352   3.304   1.638
 7176SOL    HW222428   0.273   3.163   1.661
 7177SOL     OW22429   0.873   5.189   1.934
 7177SOL    HW122430   0.867   5.097   1.972
 7177SOL    HW222431   0.953   5.236   1.970
 7178SOL     OW22432   6.437   1.237   6.734
 7178SOL    HW122433   6.391   1.180   6.802
 7178SOL    HW222434   6.459   1.181   6.653
 7179SOL     OW22435   1.758   4.667   6.198
 7179SOL    HW122436   1.807   4.741   6.244
 7179SOL    HW222437   1.662   4.693   6.186
 7180SOL     OW22438   0.088   6.761   2.800
 7180SOL    HW122439   0.081   6.832   2.730
 7180SOL    HW222440   0.090   6.804   2.891
 7181SOL     OW22441   5.830   6.322   2.463
 7181SOL    HW122442   5.908   6.379   2.439
 7181SOL    HW222443   5.837   6.293   2.559
 7182SOL     OW22444   4.317   3.440   5.703
 7182SOL    HW122445   4.285   3.354   5.663
 7182SOL    HW222446   4.375   3.488   5.637
 7183SOL     OW22447   1.705   3.618   3.599
 7183SOL    HW122448   1.755   3.633   3.684
 7183SOL    HW222449   1.611   3.652   3.609
 7184SOL     OW22450   2.627   5.649   3.590
 7184SOL    HW122451   2.613   5.581   3.518
 7184SOL    HW222452   2.562   5.632   3.664
 7185SOL     OW22453   4.217   2.938   6.926
 7185SOL    HW122454   4.223   2.864   6.992
 7185SOL    HW222455   4.305   2.950   6.881
 7186SOL     OW22456   0.575   6.737   4.870
 7186SOL    HW122457   0.522   6.752   4.953
 7186SOL    HW222458   0.582   6.639   4.852
 7187SOL     OW22459   1.513   5.357   0.835
 7187SOL    HW122460   1.468   5.320   0.916
 7187SOL    HW222461   1.528   5.282   0.769
 7188SOL     OW22462   5.030   6.783   2.050
 7188SOL    HW122463   4.981   6.736   2.123
 7188SOL    HW222464   5.012   6.881   2.055
 7189SOL     OW22465   6.422   0.775   5.399
 7189SOL    HW122466   6.396   0.680   5.382
 7189SOL    HW222467   6.414   0.826   5.313
 7190SOL     OW22468   4.374   5.004   2.714
 7190SOL    HW122469   4.297   4.969   2.767
 7190SOL    HW222470   4.342   5.079   2.656
 7191SOL     OW22471   0.804   3.219   1.594
 7191SOL    HW122472   0.786   3.122   1.574
 7191SOL    HW222473   0.781   3.238   1.689
 7192SOL     OW22474   3.597   4.617   6.797
 7192SOL    HW122475   3.618   4.647   6.890
 7192SOL    HW222476   3.642   4.530   6.779
 7193SOL     OW22477   5.225   1.370   4.279
 7193SOL    HW122478   5.150   1.419   4.235
 7193SOL    HW222479   5.239   1.406   4.371
 7194SOL     OW22480   3.300   1.704   1.362
 7194SOL    HW122481   3.234   1.766   1.405
 7194SOL    HW222482   3.277   1.693   1.266
 7195SOL     OW22483   0.295   6.281   1.819
 7195SOL    HW122484   0.213   6.299   1.766
 7195SOL    HW222485   0.274   6.216   1.892
 7196SOL     OW22486   3.548   3.313   1.256
 7196SOL    HW122487   3.573   3.254   1.180
 7196SOL    HW222488   3.628   3.330   1.313
 7197SOL     OW22489   1.195   1.218   4.080
 7197SOL    HW122490   1.190   1.123   4.050
 7197SOL    HW222491   1.176   1.279   4.003
 7198SOL     OW22492   0.209   7.017   5.979
 7198SOL    HW122493   0.279   6.966   6.029
 7198SOL    HW222494   0.218   6.999   5.881
 7199SOL     OW22495   5.657   5.988   2.619
 7199SOL    HW122496   5.685   5.938   2.701
 7199SOL    HW222497   5.652   5.924   2.542
 7200SOL     OW22498   2.278   2.145   2.045
 7200SOL    HW122499   2.345   2.073   2.029
 7200SOL    HW222500   2.322   2.234   2.037
 7201SOL     OW22501   2.166   4.892   3.548
 7201SOL    HW122502   2.233   4.845   3.604
 7201SOL    HW222503   2.082   4.907   3.601
 7202SOL     OW22504   3.070   0.258   5.442
 7202SOL    HW122505   3.098   0.243   5.537
 7202SOL    HW222506   3.022   0.346   5.435
 7203SOL     OW22507   5.756   0.272   0.085
 7203SOL    HW122508   5.813   0.304   0.008
 7203SOL    HW222509   5.813   0.226   0.152
 7204SOL     OW22510   6.124   1.931   3.132
 7204SOL    HW122511   6.048   1.869   3.111
 7204SOL    HW222512   6.192   1.883   3.188
 7205SOL     OW22513   1.679   4.527   1.432
 7205SOL    HW122514   1.633   4.446   1.395
 7205SOL    HW222515   1.647   4.608   1.382
 7206SOL     OW22516   5.933   1.234   1.640
 7206SOL    HW122517   5.839   1.231   1.605
 7206SOL    HW222518   5.934   1.283   1.727
 7207SOL     OW22519   4.285   6.535   1.463
 7207SOL    HW122520   4.214   6.601   1.487
 7207SOL    HW222521   4.247   6.465   1.403
 7208SOL     OW22522   2.811   0.547   4.993
 7208SOL    HW122523   2.812   0.585   5.085
 7208SOL    HW222524   2.902   0.555   4.952
 7209SOL     OW22525   2.863   3.632   4.354
 7209SOL    HW122526   2.805   3.638   4.435
 7209SOL    HW222527   2.932   3.705   4.357
 7210SOL     OW22528   4.543   6.796   4.033
 7210SOL    HW122529   4.554   6.784   3.935
 7210SOL    HW222530   4.609   6.740   4.082
 7211SOL     OW22531   0.808   4.882   2.126
 7211SOL    HW122532   0.841   4.941   2.200
 7211SOL    HW222533   0.823   4.786   2.150
 7212SOL     OW22534   5.093   6.295   3.256
 7212SOL    HW122535   5.140   6.301   3.344
 7212SOL    HW222536   5.079   6.387   3.219
 7213SOL     OW22537   5.068   6.335   4.785
 7213SOL    HW122538   5.093   6.359   4.879
 7213SOL    HW222539   5.040   6.239   4.781
 7214SOL     OW22540   0.954   4.632   5.497
 7214SOL    HW122541   0.868   4.655   5.543
 7214SOL    HW222542   1.015   4.712   5.500
 7215SOL     OW22543   1.118   3.152   1.967
 7215SOL    HW122544   1.123   3.069   2.022
 7215SOL    HW222545   1.166   3.137   1.881
 7216SOL     OW22546   3.139   2.117   2.238
 7216SOL    HW122547   3.040   2.123   2.256
 7216SOL    HW222548   3.158   2.152   2.147
 7217SOL     OW22549   0.591   3.273   2.123
 7217SOL    HW122550   0.513   3.327   2.155
 7217SOL    HW222551   0.594   3.186   2.172
 7218SOL     OW22552   6.199   2.556   5.073
 7218SOL    HW122553   6.183   2.591   4.981
 7218SOL    HW222554   6.282   2.598   5.111
 7219SOL     OW22555   3.356   0.984   1.434
 7219SOL    HW122556   3.335   1.048   1.507
 7219SOL    HW222557   3.431   0.924   1.462
 7220SOL     OW22558   6.747   1.664   2.960
 7220SOL    HW122559   6.757   1.566   2.975
 7220SOL    HW222560   6.652   1.685   2.936
 7221SOL     OW22561   6.390   4.232   5.580
 7221SOL    HW122562   6.447   4.170   5.527
 7221SOL    HW222563   6.297   4.232   5.542
 7222SOL     OW22564   0.102   6.868   3.635
 7222SOL    HW122565   0.081   6.935   3.706
 7222SOL    HW222566   0.101   6.912   3.546
 7223SOL     OW22567   4.664   0.642   4.830
 7223SOL    HW122568   4.644   0.655   4.927
 7223SOL    HW222569   4.700   0.727   4.792
 7224SOL     OW22570   5.966   1.282   3.389
 7224SOL    HW122571   6.014   1.275   3.302
 7224SOL    HW222572   5.876   1.324   3.375
 7225SOL     OW22573   2.729   0.253   1.674
 7225SOL    HW122574   2.803   0.306   1.716
 7225SOL    HW222575   2.643   0.303   1.682
 7226SOL     OW22576   6.292   6.684   5.029
 7226SOL    HW122577   6.279   6.777   5.064
 7226SOL    HW222578   6.212   6.655   4.978
 7227SOL     OW22579   0.010   2.445   5.886
 7227SOL    HW122580   7.024   2.488   5.976
 7227SOL    HW222581   6.966   2.373   5.876
 7228SOL     OW22582   2.273   1.138   3.395
 7228SOL    HW122583   2.303   1.112   3.303
 7228SOL    HW222584   2.207   1.213   3.389
 7229SOL     OW22585   0.156   0.236   3.383
 7229SOL    HW122586   0.190   0.233   3.289
 7229SOL    HW222587   0.056   0.247   3.382
 7230SOL     OW22588   6.419   5.704   1.216
 7230SOL    HW122589   6.419   5.611   1.179
 7230SOL    HW222590   6.494   5.756   1.177
 7231SOL     OW22591   5.840   0.873   0.539
 7231SOL    HW122592   5.901   0.794   0.549
 7231SOL    HW222593   5.877   0.935   0.470
 7232SOL     OW22594   4.043   3.991   0.944
 7232SOL    HW122595   3.961   3.933   0.946
 7232SOL    HW222596   4.086   3.992   1.034
 7233SOL     OW22597   0.850   2.214   5.346
 7233SOL    HW122598   0.938   2.177   5.376
 7233SOL    HW222599   0.838   2.197   5.248
 7234SOL     OW22600   4.600   2.051   3.703
 7234SOL    HW122601   4.532   1.990   3.744
 7234SOL    HW222602   4.689   2.006   3.701
 7235SOL     OW22603   5.898   2.924   4.461
 7235SOL    HW122604   5.951   2.971   4.390
 7235SOL    HW222605   5.800   2.933   4.441
 7236SOL     OW22606   1.802   1.575   3.207
 7236SOL    HW122607   1.824   1.490   3.158
 7236SOL    HW222608   1.786   1.648   3.141
 7237SOL     OW22609   5.649   5.126   4.437
 7237SOL    HW122610   5.725   5.111   4.500
 7237SOL    HW222611   5.598   5.208   4.466
 7238SOL     OW22612   1.685   0.335   1.442
 7238SOL    HW122613   1.629   0.252   1.443
 7238SOL    HW222614   1.747   0.335   1.521
 7239SOL     OW22615   3.972   1.155   1.810
 7239SOL    HW122616   3.905   1.214   1.853
 7239SOL    HW222617   4.063   1.196   1.818
 7240SOL     OW22618   3.048   3.272   2.263
 7240SOL    HW122619   3.085   3.303   2.351
 7240SOL    HW222620   3.032   3.351   2.204
 7241SOL     OW22621   4.229   6.849   4.634
 7241SOL    HW122622   4.309   6.850   4.574
 7241SOL    HW222623   4.247   6.788   4.711
 7242SOL     OW22624   6.253   5.734   0.808
 7242SOL    HW122625   6.269   5.711   0.712
 7242SOL    HW222626   6.243   5.650   0.862
 7243SOL     OW22627   0.273   5.754   0.650
 7243SOL    HW122628   0.202   5.696   0.608
 7243SOL    HW222629   0.343   5.695   0.691
 7244SOL     OW22630   4.952   2.069   1.012
 7244SOL    HW122631   5.016   2.028   0.946
 7244SOL    HW222632   4.909   1.997   1.066
 7245SOL     OW22633   6.096   2.145   4.329
 7245SOL    HW122634   6.161   2.188   4.267
 7245SOL    HW222635   6.012   2.200   4.333
 7246SOL     OW22636   0.936   6.058   5.499
 7246SOL    HW122637   0.921   6.140   5.555
 7246SOL    HW222638   0.933   6.083   5.402
 7247SOL     OW22639   3.693   5.446   4.214
 7247SOL    HW122640   3.666   5.479   4.123
 7247SOL    HW222641   3.650   5.358   4.232
 7248SOL     OW22642   3.029   0.906   4.402
 7248SOL    HW122643   3.094   0.831   4.416
 7248SOL    HW222644   3.030   0.934   4.306
 7249SOL     OW22645   4.678   3.536   5.678
 7249SOL    HW122646   4.676   3.484   5.763
 7249SOL    HW222647   4.584   3.558   5.651
 7250SOL     OW22648   2.673   3.691   6.684
 7250SOL    HW122649   2.726   3.700   6.768
 7250SOL    HW222650   2.577   3.713   6.702
 7251SOL     OW22651   5.843   0.961   5.201
 7251SOL    HW122652   5.793   0.992   5.120
 7251SOL    HW222653   5.937   0.938   5.175
 7252SOL     OW22654   4.406   3.685   5.286
 7252SOL    HW122655   4.494   3.665   5.244
 7252SOL    HW222656   4.338   3.618   5.257
 7253SOL     OW22657   5.216   4.557   0.553
 7253SOL    HW122658   5.213   4.488   0.480
 7253SOL    HW222659   5.197   4.513   0.641
 7254SOL     OW22660   5.174   6.780   4.623
 7254SOL    HW122661   5.220   6.774   4.534
 7254SOL    HW222662   5.079   6.749   4.614
 7255SOL     OW22663   4.033   3.090   3.144
 7255SOL    HW122664   4.100   3.159   3.115
 7255SOL    HW222665   4.016   3.026   3.069
 7256SOL     OW22666   3.260   5.518   3.986
 7256SOL    HW122667   3.219   5.609   3.979
 7256SOL    HW222668   3.216   5.457   3.919
 7257SOL     OW22669   6.162   4.766   2.365
 7257SOL    HW122670   6.066   4.760   2.393
 7257SOL    HW222671   6.167   4.778   2.266
 7258SOL     OW22672   2.600   0.433   5.381
 7258SOL    HW122673   2.574   0.374   5.457
 7258SOL    HW222674   2.519   0.460   5.330
 7259SOL     OW22675   3.445   4.360   6.252
 7259SOL    HW122676   3.540   4.378   6.227
 7259SOL    HW222677   3.401   4.446   6.280
 7260SOL     OW22678   4.721   2.237   3.025
 7260SOL    HW122679   4.662   2.221   3.104
 7260SOL    HW222680   4.777   2.156   3.009
 7261SOL     OW22681   2.500   5.008   1.069
 7261SOL    HW122682   2.527   5.101   1.042
 7261SOL    HW222683   2.559   4.942   1.024
 7262SOL     OW22684   6.319   0.800   4.544
 7262SOL    HW122685   6.306   0.725   4.480
 7262SOL    HW222686   6.376   0.871   4.501
 7263SOL     OW22687   5.224   5.415   1.740
 7263SOL    HW122688   5.190   5.478   1.671
 7263SOL    HW222689   5.147   5.374   1.789
 7264SOL     OW22690   0.663   6.410   4.398
 7264SOL    HW122691   0.675   6.453   4.488
 7264SOL    HW222692   0.741   6.433   4.340
 7265SOL     OW22693   4.379   3.332   6.722
 7265SOL    HW122694   4.429   3.387   6.656
 7265SOL    HW222695   4.371   3.238   6.688
 7266SOL     OW22696   4.295   1.579   2.055
 7266SOL    HW122697   4.254   1.616   2.138
 7266SOL    HW222698   4.232   1.593   1.978
 7267SOL     OW22699   5.555   2.411   4.573
 7267SOL    HW122700   5.556   2.319   4.611
 7267SOL    HW222701   5.551   2.406   4.473
 7268SOL     OW22702   4.299   0.267   0.320
 7268SOL    HW122703   4.287   0.364   0.340
 7268SOL    HW222704   4.259   0.212   0.394
 7269SOL     OW22705   1.282   0.649   1.727
 7269SOL    HW122706   1.241   0.596   1.801
 7269SOL    HW222707   1.294   0.743   1.757
 7270SOL     OW22708   3.265   2.107   1.797
 7270SOL    HW122709   3.359   2.113   1.763
 7270SOL    HW222710   3.208   2.173   1.748
 7271SOL     OW22711   5.965   5.594   3.927
 7271SOL    HW122712   5.929   5.593   3.834
 7271SOL    HW222713   5.990   5.688   3.953
 7272SOL     OW22714   5.897   1.768   1.346
 7272SOL    HW122715   5.814   1.786   1.293
 7272SOL    HW222716   5.955   1.705   1.295
 7273SOL     OW22717   5.631   5.617   5.290
 7273SOL    HW122718   5.677   5.654   5.371
 7273SOL    HW222719   5.536   5.647   5.289
 7274SOL     OW22720   5.526   4.804   3.943
 7274SOL    HW122721   5.433   4.799   3.908
 7274SOL    HW222722   5.537   4.886   3.998
 7275SOL     OW22723   5.729   6.751   2.001
 7275SOL    HW122724   5.813   6.714   2.041
 7275SOL    HW222725   5.711   6.841   2.040
 7276SOL     OW22726   3.899   1.983   3.376
 7276SOL    HW122727   3.893   2.067   3.431
 7276SOL    HW222728   3.995   1.956   3.368
 7277SOL     OW22729   6.313   2.034   4.085
 7277SOL    HW122730   6.312   1.974   4.165
 7277SOL    HW222731   6.224   2.029   4.039
 7278SOL     OW22732   4.237   1.924   3.643
 7278SOL    HW122733   4.246   1.983   3.723
 7278SOL    HW222734   4.166   1.855   3.660
 7279SOL     OW22735   3.566   3.398   1.836
 7279SOL    HW122736   3.633   3.410   1.909
 7279SOL    HW222737   3.535   3.487   1.803
 7280SOL     OW22738   6.544   1.570   5.549
 7280SOL    HW122739   6.628   1.590   5.499
 7280SOL    HW222740   6.499   1.656   5.573
 7281SOL     OW22741   3.504   6.280   2.969
 7281SOL    HW122742   3.556   6.298   2.885
 7281SOL    HW222743   3.415   6.243   2.945
 7282SOL     OW22744   0.257   3.372   1.031
 7282SOL    HW122745   0.257   3.430   1.112
 7282SOL    HW222746   0.163   3.358   1.000
 7283SOL     OW22747   3.352   5.849   2.856
 7283SOL    HW122748   3.435   5.869   2.908
 7283SOL    HW222749   3.273   5.856   2.916
 7284SOL     OW22750   0.587   0.417   3.106
 7284SOL    HW122751   0.546   0.507   3.099
 7284SOL    HW222752   0.667   0.421   3.165
 7285SOL     OW22753   5.298   2.591   2.176
 7285SOL    HW122754   5.217   2.546   2.211
 7285SOL    HW222755   5.314   2.563   2.081
 7286SOL     OW22756   6.774   1.161   4.042
 7286SOL    HW122757   6.824   1.122   4.120
 7286SOL    HW222758   6.839   1.206   3.981
 7287SOL     OW22759   3.243   1.704   4.577
 7287SOL    HW122760   3.188   1.623   4.601
 7287SOL    HW222761   3.226   1.729   4.482
 7288SOL     OW22762   3.023   1.983   1.661
 7288SOL    HW122763   3.112   2.012   1.697
 7288SOL    HW222764   2.955   2.054   1.679
 7289SOL     OW22765   6.594   2.422   1.670
 7289SOL    HW122766   6.505   2.377   1.672
 7289SOL    HW222767   6.614   2.453   1.577
 7290SOL     OW22768   3.538   2.005   4.733
 7290SOL    HW122769   3.443   1.996   4.705
 7290SOL    HW222770   3.551   1.962   4.822
 7291SOL     OW22771   1.163   1.086   0.446
 7291SOL    HW122772   1.076   1.130   0.467
 7291SOL    HW222773   1.154   1.034   0.361
 7292SOL     OW22774   4.124   1.164   2.195
 7292SOL    HW122775   4.091   1.080   2.237
 7292SOL    HW222776   4.131   1.236   2.264
 7293SOL     OW22777   6.186   0.985   4.215
 7293SOL    HW122778   6.271   0.991   4.266
 7293SOL    HW222779   6.171   0.890   4.187
 7294SOL     OW22780   3.483   0.109   2.889
 7294SOL    HW122781   3.488   0.010   2.874
 7294SOL    HW222782   3.421   0.128   2.966
 7295SOL     OW22783   5.173   3.568   1.558
 7295SOL    HW122784   5.208   3.661   1.569
 7295SOL    HW222785   5.099   3.568   1.492
 7296SOL     OW22786   3.342   6.316   2.247
 7296SOL    HW122787   3.337   6.306   2.347
 7296SOL    HW222788   3.343   6.225   2.206
 7297SOL     OW22789   3.834   0.292   0.703
 7297SOL    HW122790   3.744   0.274   0.664
 7297SOL    HW222791   3.891   0.338   0.635
 7298SOL     OW22792   4.319   4.992   1.568
 7298SOL    HW122793   4.231   4.969   1.526
 7298SOL    HW222794   4.334   4.933   1.648
 7299SOL     OW22795   0.366   3.429   0.132
 7299SOL    HW122796   0.449   3.397   0.178
 7299SOL    HW222797   0.295   3.359   0.140
 7300SOL     OW22798   0.983   3.838   1.336
 7300SOL    HW122799   0.968   3.925   1.383
 7300SOL    HW222800   0.951   3.763   1.394
 7301SOL     OW22801   4.431   1.885   0.289
 7301SOL    HW122802   4.390   1.794   0.277
 7301SOL    HW222803   4.407   1.942   0.211
 7302SOL     OW22804   5.739   1.753   6.207
 7302SOL    HW122805   5.789   1.684   6.154
 7302SOL    HW222806   5.800   1.828   6.230
 7303SOL     OW22807   3.484   2.020   1.309
 7303SOL    HW122808   3.509   1.938   1.359
 7303SOL    HW222809   3.430   2.080   1.368
 7304SOL     OW22810   2.370   7.010   0.475
 7304SOL    HW122811   2.416   0.029   0.398
 7304SOL    HW222812   2.429   6.940   0.514
 7305SOL     OW22813   6.660   6.773   6.307
 7305SOL    HW122814   6.678   6.834   6.384
 7305SOL    HW222815   6.735   6.708   6.298
 7306SOL     OW22816   1.460   3.455   0.640
 7306SOL    HW122817   1.524   3.441   0.716
 7306SOL    HW222818   1.429   3.551   0.641
 7307SOL     OW22819   3.424   6.615   1.714
 7307SOL    HW122820   3.501   6.622   1.778
 7307SOL    HW222821   3.339   6.634   1.763
 7308SOL     OW22822   3.814   1.504   2.904
 7308SOL    HW122823   3.760   1.436   2.954
 7308SOL    HW222824   3.757   1.547   2.834
 7309SOL     OW22825   1.993   4.558   4.181
 7309SOL    HW122826   1.896   4.563   4.202
 7309SOL    HW222827   2.046   4.561   4.266
 7310SOL     OW22828   2.851   3.034   6.876
 7310SOL    HW122829   2.871   2.974   6.953
 7310SOL    HW222830   2.855   2.981   6.791
 7311SOL     OW22831   1.332   6.502   6.006
 7311SOL    HW122832   1.376   6.591   6.005
 7311SOL    HW222833   1.314   6.474   6.100
 7312SOL     OW22834   6.490   1.929   4.694
 7312SOL    HW122835   6.457   1.839   4.723
 7312SOL    HW222836   6.584   1.921   4.662
 7313SOL     OW22837   3.538   1.153   2.858
 7313SOL    HW122838   3.585   1.128   2.774
 7313SOL    HW222839   3.569   1.093   2.932
 7314SOL     OW22840   2.124   5.656   5.261
 7314SOL    HW122841   2.175   5.601   5.195
 7314SOL    HW222842   2.188   5.702   5.323
 7315SOL     OW22843   2.289   5.768   2.708
 7315SOL    HW122844   2.329   5.849   2.750
 7315SOL    HW222845   2.362   5.707   2.676
 7316SOL     OW22846   4.044   0.862   1.767
 7316SOL    HW122847   4.059   0.960   1.783
 7316SOL    HW222848   3.956   0.849   1.721
 7317SOL     OW22849   6.175   1.831   1.419
 7317SOL    HW122850   6.260   1.793   1.384
 7317SOL    HW222851   6.108   1.838   1.344
 7318SOL     OW22852   5.269   6.237   1.325
 7318SOL    HW122853   5.351   6.229   1.269
 7318SOL    HW222854   5.189   6.213   1.271
 7319SOL     OW22855   4.547   6.016   5.906
 7319SOL    HW122856   4.479   6.044   5.838
 7319SOL    HW222857   4.638   6.016   5.864
 7320SOL     OW22858   0.952   3.019   6.999
 7320SOL    HW122859   0.895   3.078   6.941
 7320SOL    HW222860   0.896   2.946   0.012
 7321SOL     OW22861   2.306   2.507   5.457
 7321SOL    HW122862   2.298   2.603   5.483
 7321SOL    HW222863   2.353   2.500   5.369
 7322SOL     OW22864   2.009   1.761   4.342
 7322SOL    HW122865   2.073   1.836   4.363
 7322SOL    HW222866   2.060   1.675   4.340
 7323SOL     OW22867   2.159   2.224   1.118
 7323SOL    HW122868   2.129   2.150   1.058
 7323SOL    HW222869   2.122   2.211   1.209
 7324SOL     OW22870   4.870   3.762   4.672
 7324SOL    HW122871   4.834   3.678   4.631
 7324SOL    HW222872   4.895   3.745   4.767
 7325SOL     OW22873   3.733   1.123   6.243
 7325SOL    HW122874   3.748   1.033   6.284
 7325SOL    HW222875   3.736   1.115   6.144
 7326SOL     OW22876   3.601   6.513   0.741
 7326SOL    HW122877   3.615   6.438   0.675
 7326SOL    HW222878   3.528   6.573   0.708
 7327SOL     OW22879   1.452   4.140   3.391
 7327SOL    HW122880   1.489   4.226   3.427
 7327SOL    HW222881   1.526   4.088   3.348
 7328SOL     OW22882   4.730   5.155   6.363
 7328SOL    HW122883   4.771   5.191   6.447
 7328SOL    HW222884   4.802   5.120   6.303
 7329SOL     OW22885   2.749   4.048   0.025
 7329SOL    HW122886   2.695   4.102   0.088
 7329SOL    HW222887   2.697   4.032   6.965
 7330SOL     OW22888   2.567   3.098   0.630
 7330SOL    HW122889   2.531   3.165   0.566
 7330SOL    HW222890   2.628   3.143   0.695
 7331SOL     OW22891   4.941   1.314   2.240
 7331SOL    HW122892   4.981   1.354   2.323
 7331SOL    HW222893   4.994   1.342   2.160
 7332SOL     OW22894   2.598   0.027   5.509
 7332SOL    HW122895   2.637   6.973   5.461
 7332SOL    HW222896   2.657   0.053   5.586
 7333SOL     OW22897   6.179   1.020   1.406
 7333SOL    HW122898   6.218   0.952   1.468
 7333SOL    HW222899   6.172   1.108   1.453
 7334SOL     OW22900   1.312   4.657   4.697
 7334SOL    HW122901   1.285   4.561   4.684
 7334SOL    HW222902   1.246   4.716   4.650
 7335SOL     OW22903   0.489   2.870   2.763
 7335SOL    HW122904   0.536   2.796   2.715
 7335SOL    HW222905   0.518   2.872   2.858
 7336SOL     OW22906   2.246   0.554   0.824
 7336SOL    HW122907   2.317   0.587   0.761
 7336SOL    HW222908   2.287   0.493   0.892
 7337SOL     OW22909   3.506   1.395   2.980
 7337SOL    HW122910   3.509   1.305   2.937
 7337SOL    HW222911   3.511   1.466   2.909
 7338SOL     OW22912   5.229   3.622   0.318
 7338SOL    HW122913   5.172   3.644   0.397
 7338SOL    HW222914   5.189   3.665   0.236
 7339SOL     OW22915   6.974   6.663   3.993
 7339SOL    HW122916   6.990   6.572   4.030
 7339SOL    HW222917   6.887   6.664   3.943
 7340SOL     OW22918   3.020   6.535   0.248
 7340SOL    HW122919   3.012   6.585   0.334
 7340SOL    HW222920   3.081   6.584   0.186
 7341SOL     OW22921   6.294   5.562   3.693
 7341SOL    HW122922   6.357   5.512   3.752
 7341SOL    HW222923   6.277   5.652   3.732
 7342SOL     OW22924   0.446   5.545   0.760
 7342SOL    HW122925   0.494   5.543   0.672
 7342SOL    HW222926   0.421   5.452   0.787
 7343SOL     OW22927   6.857   2.621   2.904
 7343SOL    HW122928   6.786   2.606   2.835
 7343SOL    HW222929   6.897   2.534   2.931
 7344SOL     OW22930   1.900   1.164   6.516
 7344SOL    HW122931   1.959   1.176   6.437
 7344SOL    HW222932   1.810   1.130   6.487
 7345SOL     OW22933   1.775   7.011   6.707
 7345SOL    HW122934   1.837   7.004   6.629
 7345SOL    HW222935   1.776   6.924   6.757
 7346SOL     OW22936   3.468   5.159   3.908
 7346SOL    HW122937   3.538   5.106   3.957
 7346SOL    HW222938   3.493   5.256   3.909
 7347SOL     OW22939   6.133   2.928   3.553
 7347SOL    HW122940   6.099   2.888   3.638
 7347SOL    HW222941   6.057   2.970   3.504
 7348SOL     OW22942   5.800   0.785   6.208
 7348SOL    HW122943   5.711   0.821   6.180
 7348SOL    HW222944   5.851   0.756   6.127
 7349SOL     OW22945   3.808   1.742   1.400
 7349SOL    HW122946   3.709   1.747   1.404
 7349SOL    HW222947   3.843   1.706   1.487
 7350SOL     OW22948   2.042   1.322   3.355
 7350SOL    HW122949   2.056   1.420   3.342
 7350SOL    HW222950   1.984   1.307   3.435
 7351SOL     OW22951   4.866   4.292   0.545
 7351SOL    HW122952   4.928   4.355   0.497
 7351SOL    HW222953   4.776   4.296   0.502
 7352SOL     OW22954   6.861   1.193   3.395
 7352SOL    HW122955   6.852   1.286   3.360
 7352SOL    HW222956   6.790   1.176   3.463
 7353SOL     OW22957   5.411   1.783   5.485
 7353SOL    HW122958   5.330   1.759   5.538
 7353SOL    HW222959   5.492   1.750   5.532
 7354SOL     OW22960   5.512   4.388   5.199
 7354SOL    HW122961   5.473   4.359   5.112
 7354SOL    HW222962   5.606   4.419   5.185
 7355SOL     OW22963   6.770   5.952   0.368
 7355SOL    HW122964   6.851   6.001   0.337
 7355SOL    HW222965   6.768   5.951   0.468
 7356SOL     OW22966   0.061   1.532   5.922
 7356SOL    HW122967   0.047   1.629   5.902
 7356SOL    HW222968   0.159   1.512   5.919
 7357SOL     OW22969   0.919   1.583   0.836
 7357SOL    HW122970   0.887   1.562   0.744
 7357SOL    HW222971   0.840   1.592   0.897
 7358SOL     OW22972   3.556   1.097   3.903
 7358SOL    HW122973   3.473   1.067   3.857
 7358SOL    HW222974   3.584   1.028   3.971
 7359SOL     OW22975   2.989   3.793   4.082
 7359SOL    HW122976   2.959   3.704   4.117
 7359SOL    HW222977   3.089   3.794   4.076
 7360SOL     OW22978   0.949   4.217   6.483
 7360SOL    HW122979   0.882   4.234   6.411
 7360SOL    HW222980   0.950   4.120   6.506
 7361SOL     OW22981   4.812   6.519   1.337
 7361SOL    HW122982   4.730   6.557   1.381
 7361SOL    HW222983   4.786   6.447   1.274
 7362SOL     OW22984   1.436   5.489   6.614
 7362SOL    HW122985   1.345   5.449   6.613
 7362SOL    HW222986   1.493   5.444   6.545
 7363SOL     OW22987   4.570   2.392   6.413
 7363SOL    HW122988   4.508   2.354   6.344
 7363SOL    HW222989   4.570   2.492   6.406
 7364SOL     OW22990   4.990   6.795   0.899
 7364SOL    HW122991   5.081   6.810   0.861
 7364SOL    HW222992   4.997   6.780   0.998
 7365SOL     OW22993   4.134   6.903   1.095
 7365SOL    HW122994   4.115   6.805   1.101
 7365SOL    HW222995   4.051   6.952   1.068
 7366SOL     OW22996   1.837   0.116   0.432
 7366SOL    HW122997   1.933   0.110   0.457
 7366SOL    HW222998   1.786   0.164   0.504
 7367SOL     OW22999   4.416   2.821   6.728
 7367SOL    HW123000   4.489   2.753   6.737
 7367SOL    HW223001   4.327   2.775   6.729
 7368SOL     OW23002   3.088   3.138   4.589
 7368SOL    HW123003   3.130   3.180   4.509
 7368SOL    HW223004   3.008   3.193   4.617
 7369SOL     OW23005   6.205   0.632   6.572
 7369SOL    HW123006   6.170   0.643   6.479
 7369SOL    HW223007   6.296   0.592   6.569
 7370SOL     OW23008   0.549   6.024   0.919
 7370SOL    HW123009   0.546   6.018   0.820
 7370SOL    HW223010   0.541   5.932   0.959
 7371SOL     OW23011   1.614   5.065   4.512
 7371SOL    HW123012   1.680   5.073   4.437
 7371SOL    HW223013   1.556   5.147   4.514
 7372SOL     OW23014   3.291   0.414   4.948
 7372SOL    HW123015   3.310   0.411   5.046
 7372SOL    HW223016   3.272   0.509   4.922
 7373SOL     OW23017   3.388   0.665   1.358
 7373SOL    HW123018   3.420   0.738   1.418
 7373SOL    HW223019   3.292   0.646   1.376
 7374SOL     OW23020   2.125   3.714   6.843
 7374SOL    HW123021   2.079   3.758   6.920
 7374SOL    HW223022   2.100   3.617   6.841
 7375SOL     OW23023   2.877   6.176   3.594
 7375SOL    HW123024   2.940   6.228   3.536
 7375SOL    HW223025   2.921   6.157   3.682
 7376SOL     OW23026   3.234   3.988   6.560
 7376SOL    HW123027   3.292   4.062   6.528
 7376SOL    HW223028   3.145   3.992   6.514
 7377SOL     OW23029   6.424   6.096   1.664
 7377SOL    HW123030   6.337   6.060   1.699
 7377SOL    HW223031   6.489   6.021   1.653
 7378SOL     OW23032   0.852   2.010   5.575
 7378SOL    HW123033   0.787   1.998   5.500
 7378SOL    HW223034   0.943   2.029   5.537
 7379SOL     OW23035   4.495   0.543   0.399
 7379SOL    HW123036   4.554   0.467   0.428
 7379SOL    HW223037   4.413   0.545   0.456
 7380SOL     OW23038   6.644   2.552   6.478
 7380SOL    HW123039   6.575   2.613   6.439
 7380SOL    HW223040   6.704   2.603   6.539
 7381SOL     OW23041   5.244   2.011   0.043
 7381SOL    HW123042   5.309   1.962   7.008
 7381SOL    HW223043   5.161   1.956   0.054
 7382SOL     OW23044   0.848   5.394   4.054
 7382SOL    HW123045   0.919   5.324   4.044
 7382SOL    HW223046   0.785   5.389   3.977
 7383SOL     OW23047   1.677   4.160   2.739
 7383SOL    HW123048   1.671   4.233   2.671
 7383SOL    HW223049   1.772   4.130   2.748
 7384SOL     OW23050   5.925   1.880   0.967
 7384SOL    HW123051   5.994   1.881   0.894
 7384SOL    HW223052   5.841   1.924   0.934
 7385SOL     OW23053   5.228   0.309   2.129
 7385SOL    HW123054   5.173   0.334   2.050
 7385SOL    HW223055   5.306   0.254   2.100
 7386SOL     OW23056   6.686   1.573   5.933
 7386SOL    HW123057   6.647   1.484   5.910
 7386SOL    HW223058   6.749   1.601   5.861
 7387SOL     OW23059   5.223   6.020   3.272
 7387SOL    HW123060   5.261   6.099   3.223
 7387SOL    HW223061   5.129   6.039   3.298
 7388SOL     OW23062   5.265   3.769   4.946
 7388SOL    HW123063   5.170   3.754   4.919
 7388SOL    HW223064   5.317   3.685   4.935
 7389SOL     OW23065   1.036   3.198   4.762
 7389SOL    HW123066   1.043   3.168   4.667
 7389SOL    HW223067   1.126   3.191   4.806
 7390SOL     OW23068   4.619   0.094   0.091
 7390SOL    HW123069   4.543   0.109   0.028
 7390SOL    HW223070   4.703   0.078   0.039
 7391SOL     OW23071   0.448   5.183   0.062
 7391SOL    HW123072   0.517   5.118   0.092
 7391SOL    HW223073   0.476   5.276   0.087
 7392SOL     OW23074   2.200   4.680   2.071
 7392SOL    HW123075   2.117   4.623   2.074
 7392SOL    HW223076   2.224   4.698   1.976
 7393SOL     OW23077   1.132   3.898   0.035
 7393SOL    HW123078   1.041   3.927   0.065
 7393SOL    HW223079   1.157   3.812   0.081
 7394SOL     OW23080   2.377   3.355   6.588
 7394SOL    HW123081   2.392   3.269   6.539
 7394SOL    HW223082   2.280   3.377   6.589
 7395SOL     OW23083   2.665   0.923   0.034
 7395SOL    HW123084   2.694   0.988   6.988
 7395SOL    HW223085   2.574   0.887   0.010
 7396SOL     OW23086   6.933   6.896   2.328
 7396SOL    HW123087   6.854   6.849   2.368
 7396SOL    HW223088   6.908   6.990   2.306
 7397SOL     OW23089   6.435   4.021   4.581
 7397SOL    HW123090   6.457   4.065   4.493
 7397SOL    HW223091   6.519   3.988   4.624
 7398SOL     OW23092   4.402   6.386   3.036
 7398SOL    HW123093   4.309   6.422   3.033
 7398SOL    HW223094   4.417   6.341   3.124
 7399SOL     OW23095   5.061   5.250   3.823
 7399SOL    HW123096   4.995   5.287   3.889
 7399SOL    HW223097   5.129   5.195   3.870
 7400SOL     OW23098   3.120   3.868   7.010
 7400SOL    HW123099   3.107   3.840   6.914
 7400SOL    HW223100   3.206   3.830   0.020
 7401SOL     OW23101   6.005   3.132   4.318
 7401SOL    HW123102   6.102   3.133   4.343
 7401SOL    HW223103   5.994   3.080   4.233
 7402SOL     OW23104   2.025   6.286   4.502
 7402SOL    HW123105   2.041   6.351   4.576
 7402SOL    HW223106   2.044   6.193   4.534
 7403SOL     OW23107   2.361   3.129   1.692
 7403SOL    HW123108   2.417   3.203   1.654
 7403SOL    HW223109   2.289   3.104   1.627
 7404SOL     OW23110   1.185   2.500   2.916
 7404SOL    HW123111   1.151   2.464   3.004
 7404SOL    HW223112   1.162   2.436   2.843
 7405SOL     OW23113   3.510   4.963   5.975
 7405SOL    HW123114   3.510   4.910   5.891
 7405SOL    HW223115   3.604   4.983   6.002
 7406SOL     OW23116   0.521   6.004   2.802
 7406SOL    HW123117   0.513   5.911   2.766
 7406SOL    HW223118   0.584   6.005   2.880
 7407SOL     OW23119   3.257   1.647   5.893
 7407SOL    HW123120   3.295   1.573   5.838
 7407SOL    HW223121   3.312   1.729   5.881
 7408SOL     OW23122   0.886   3.423   5.389
 7408SOL    HW123123   0.958   3.383   5.332
 7408SOL    HW223124   0.850   3.506   5.346
 7409SOL     OW23125   2.599   6.622   4.584
 7409SOL    HW123126   2.536   6.644   4.658
 7409SOL    HW223127   2.671   6.562   4.617
 7410SOL     OW23128   4.758   5.797   5.865
 7410SOL    HW123129   4.766   5.775   5.767
 7410SOL    HW223130   4.811   5.732   5.918
 7411SOL     OW23131   5.403   3.928   5.682
 7411SOL    HW123132   5.423   3.917   5.584
 7411SOL    HW223133   5.353   4.013   5.696
 7412SOL     OW23134   1.755   1.452   0.119
 7412SOL    HW123135   1.798   1.394   0.188
 7412SOL    HW223136   1.713   1.394   0.049
 7413SOL     OW23137   6.904   3.683   3.958
 7413SOL    HW123138   6.861   3.597   3.985
 7413SOL    HW223139   6.915   3.742   4.038
 7414SOL     OW23140   0.210   5.169   1.635
 7414SOL    HW123141   0.253   5.160   1.545
 7414SOL    HW223142   0.279   5.194   1.703
 7415SOL     OW23143   3.254   1.544   2.931
 7415SOL    HW123144   3.320   1.476   2.964
 7415SOL    HW223145   3.301   1.632   2.918
 7416SOL     OW23146   6.555   6.982   3.303
 7416SOL    HW123147   6.507   6.971   3.390
 7416SOL    HW223148   6.530   0.046   3.262
 7417SOL     OW23149   0.208   5.038   0.985
 7417SOL    HW123150   0.181   5.122   0.938
 7417SOL    HW223151   0.133   4.971   0.979
 7418SOL     OW23152   1.216   3.638   0.112
 7418SOL    HW123153   1.119   3.624   0.091
 7418SOL    HW223154   1.232   3.621   0.209
 7419SOL     OW23155   6.178   2.485   5.574
 7419SOL    HW123156   6.091   2.532   5.562
 7419SOL    HW223157   6.227   2.524   5.653
 7420SOL     OW23158   6.401   5.815   1.921
 7420SOL    HW123159   6.498   5.815   1.945
 7420SOL    HW223160   6.373   5.909   1.899
 7421SOL     OW23161   4.110   1.720   1.899
 7421SOL    HW123162   4.115   1.777   1.981
 7421SOL    HW223163   4.025   1.668   1.900
 7422SOL     OW23164   0.833   1.662   1.317
 7422SOL    HW123165   0.865   1.569   1.298
 7422SOL    HW223166   0.888   1.727   1.264
 7423SOL     OW23167   2.683   4.274   0.336
 7423SOL    HW123168   2.772   4.311   0.308
 7423SOL    HW223169   2.652   4.319   0.419
 7424SOL     OW23170   4.793   0.511   4.065
 7424SOL    HW123171   4.866   0.518   4.132
 7424SOL    HW223172   4.714   0.465   4.106
 7425SOL     OW23173   3.277   0.348   4.183
 7425SOL    HW123174   3.264   0.447   4.178
 7425SOL    HW223175   3.233   0.305   4.104
 7426SOL     OW23176   0.262   0.609   6.759
 7426SOL    HW123177   0.287   0.537   6.823
 7426SOL    HW223178   0.326   0.608   6.682
 7427SOL     OW23179   5.739   5.107   4.820
 7427SOL    HW123180   5.764   5.033   4.883
 7427SOL    HW223181   5.789   5.096   4.735
 7428SOL     OW23182   4.712   0.899   5.486
 7428SOL    HW123183   4.628   0.860   5.523
 7428SOL    HW223184   4.775   0.919   5.561
 7429SOL     OW23185   6.430   6.373   3.871
 7429SOL    HW123186   6.391   6.282   3.855
 7429SOL    HW223187   6.360   6.443   3.859
 7430SOL     OW23188   0.669   4.137   4.131
 7430SOL    HW123189   0.733   4.202   4.089
 7430SOL    HW223190   0.576   4.173   4.126
 7431SOL     OW23191   0.302   3.715   2.612
 7431SOL    HW123192   0.352   3.783   2.666
 7431SOL    HW223193   0.220   3.687   2.661
 7432SOL     OW23194   1.725   6.333   5.466
 7432SOL    HW123195   1.646   6.304   5.519
 7432SOL    HW223196   1.720   6.294   5.374
 7433SOL     OW23197   0.399   6.869   1.067
 7433SOL    HW123198   0.424   6.781   1.109
 7433SOL    HW223199   0.304   6.890   1.088
 7434SOL     OW23200   4.520   6.470   0.135
 7434SOL    HW123201   4.426   6.478   0.101
 7434SOL    HW223202   4.562   6.561   0.138
 7435SOL     OW23203   1.686   5.289   0.442
 7435SOL    HW123204   1.687   5.233   0.525
 7435SOL    HW223205   1.703   5.385   0.466
 7436SOL     OW23206   4.424   3.734   6.838
 7436SOL    HW123207   4.379   3.769   6.920
 7436SOL    HW223208   4.523   3.745   6.847
 7437SOL     OW23209   0.155   6.400   5.009
 7437SOL    HW123210   0.190   6.337   5.079
 7437SOL    HW223211   0.169   6.361   4.919
 7438SOL     OW23212   5.686   3.777   0.812
 7438SOL    HW123213   5.781   3.762   0.837
 7438SOL    HW223214   5.662   3.718   0.735
 7439SOL     OW23215   1.446   6.846   3.055
 7439SOL    HW123216   1.503   6.815   2.978
 7439SOL    HW223217   1.386   6.920   3.024
 7440SOL     OW23218   0.488   1.072   3.935
 7440SOL    HW123219   0.481   1.151   3.874
 7440SOL    HW223220   0.463   0.989   3.886
 7441SOL     OW23221   6.178   0.002   3.789
 7441SOL    HW123222   6.134   6.936   3.790
 7441SOL    HW223223   6.181   0.039   3.881
 7442SOL     OW23224   1.612   0.738   6.476
 7442SOL    HW123225   1.712   0.747   6.485
 7442SOL    HW223226   1.588   0.729   6.380
 7443SOL     OW23227   0.028   2.100   2.029
 7443SOL    HW123228   0.044   2.044   1.947
 7443SOL    HW223229   7.014   2.188   2.001
 7444SOL     OW23230   0.751   2.670   4.989
 7444SOL    HW123231   0.776   2.755   5.036
 7444SOL    HW223232   0.675   2.686   4.927
 7445SOL     OW23233   6.036   2.676   1.802
 7445SOL    HW123234   6.066   2.631   1.717
 7445SOL    HW223235   6.081   2.633   1.880
 7446SOL     OW23236   5.621   3.619   3.028
 7446SOL    HW123237   5.589   3.589   2.939
 7446SOL    HW223238   5.712   3.659   3.019
 7447SOL     OW23239   0.582   3.855   6.435
 7447SOL    HW123240   0.621   3.867   6.344
 7447SOL    HW223241   0.495   3.904   6.440
 7448SOL     OW23242   0.516   0.571   6.118
 7448SOL    HW123243   0.536   0.551   6.214
 7448SOL    HW223244   0.420   0.548   6.099
 7449SOL     OW23245   4.158   0.062   1.826
 7449SOL    HW123246   4.245   0.054   1.875
 7449SOL    HW223247   4.170   0.033   1.732
 7450SOL     OW23248   3.598   1.552   1.598
 7450SOL    HW123249   3.540   1.577   1.675
 7450SOL    HW223250   3.583   1.456   1.574
 7451SOL     OW23251   1.180   0.542   2.720
 7451SOL    HW123252   1.235   0.585   2.792
 7451SOL    HW223253   1.102   0.601   2.698
 7452SOL     OW23254   1.598   5.799   3.364
 7452SOL    HW123255   1.664   5.746   3.310
 7452SOL    HW223256   1.515   5.745   3.378
 7453SOL     OW23257   6.688   4.683   5.171
 7453SOL    HW123258   6.623   4.618   5.130
 7453SOL    HW223259   6.699   4.761   5.110
 7454SOL     OW23260   1.498   2.814   7.008
 7454SOL    HW123261   1.525   2.721   6.985
 7454SOL    HW223262   1.398   2.820   7.012
 7455SOL     OW23263   4.594   0.325   0.552
 7455SOL    HW123264   4.519   0.333   0.618
 7455SOL    HW223265   4.671   0.279   0.595
 7456SOL     OW23266   1.061   4.196   6.179
 7456SOL    HW123267   1.141   4.212   6.235
 7456SOL    HW223268   1.037   4.099   6.181
 7457SOL     OW23269   7.009   6.543   5.881
 7457SOL    HW123270   6.957   6.459   5.896
 7457SOL    HW223271   6.959   6.620   5.920
 7458SOL     OW23272   2.767   0.445   1.060
 7458SOL    HW123273   2.771   0.515   0.989
 7458SOL    HW223274   2.813   0.479   1.142
 7459SOL     OW23275   3.708   6.042   4.239
 7459SOL    HW123276   3.636   6.065   4.174
 7459SOL    HW223277   3.724   6.120   4.300
 7460SOL     OW23278   0.762   5.204   0.026
 7460SOL    HW123279   0.766   5.304   0.021
 7460SOL    HW223280   0.679   5.172   7.006
 7461SOL     OW23281   4.243   0.603   4.206
 7461SOL    HW123282   4.287   0.569   4.122
 7461SOL    HW223283   4.158   0.553   4.221
 7462SOL     OW23284   2.385   1.847   3.844
 7462SOL    HW123285   2.370   1.830   3.942
 7462SOL    HW223286   2.458   1.786   3.811
 7463SOL     OW23287   3.805   4.041   2.215
 7463SOL    HW123288   3.715   4.080   2.236
 7463SOL    HW223289   3.873   4.115   2.211
 7464SOL     OW23290   4.665   6.078   0.015
 7464SOL    HW123291   4.632   6.164   6.999
 7464SOL    HW223292   4.750   6.095   0.065
 7465SOL     OW23293   3.992   0.413   2.990
 7465SOL    HW123294   4.081   0.384   2.958
 7465SOL    HW223295   4.003   0.479   3.065
 7466SOL     OW23296   6.317   0.097   0.472
 7466SOL    HW123297   6.217   0.106   0.471
 7466SOL    HW223298   6.357   0.182   0.506
 7467SOL     OW23299   4.965   2.534   0.897
 7467SOL    HW123300   4.968   2.557   0.994
 7467SOL    HW223301   4.891   2.469   0.880
 7468SOL     OW23302   5.780   4.110   4.479
 7468SOL    HW123303   5.741   4.127   4.388
 7468SOL    HW223304   5.822   4.194   4.514
 7469SOL     OW23305   5.070   1.400   2.000
 7469SOL    HW123306   5.010   1.345   1.941
 7469SOL    HW223307   5.150   1.428   1.948
 7470SOL     OW23308   0.206   3.082   3.380
 7470SOL    HW123309   0.285   3.058   3.436
 7470SOL    HW223310   0.122   3.058   3.430
 7471SOL     OW23311   6.417   5.119   5.259
 7471SOL    HW123312   6.493   5.122   5.195
 7471SOL    HW223313   6.433   5.185   5.333
 7472SOL     OW23314   4.252   5.177   2.990
 7472SOL    HW123315   4.236   5.081   2.968
 7472SOL    HW223316   4.333   5.210   2.941
 7473SOL     OW23317   1.317   2.845   5.844
 7473SOL    HW123318   1.258   2.836   5.763
 7473SOL    HW223319   1.346   2.940   5.853
 7474SOL     OW23320   2.771   1.577   2.846
 7474SOL    HW123321   2.704   1.586   2.772
 7474SOL    HW223322   2.763   1.654   2.909
 7475SOL     OW23323   4.557   0.434   6.363
 7475SOL    HW123324   4.492   0.486   6.418
 7475SOL    HW223325   4.642   0.486   6.354
 7476SOL     OW23326   2.185   6.987   4.974
 7476SOL    HW123327   2.180   6.923   5.050
 7476SOL    HW223328   2.280   6.995   4.943
 7477SOL     OW23329   4.943   3.834   4.392
 7477SOL    HW123330   4.883   3.836   4.472
 7477SOL    HW223331   4.987   3.922   4.381
 7478SOL     OW23332   0.675   4.558   1.732
 7478SOL    HW123333   0.594   4.610   1.706
 7478SOL    HW223334   0.750   4.580   1.669
 7479SOL     OW23335   3.779   0.527   4.561
 7479SOL    HW123336   3.759   0.584   4.641
 7479SOL    HW223337   3.712   0.452   4.556
 7480SOL     OW23338   6.112   5.369   0.359
 7480SOL    HW123339   6.071   5.459   0.371
 7480SOL    HW223340   6.046   5.307   0.316
 7481SOL     OW23341   6.235   6.298   0.270
 7481SOL    HW123342   6.207   6.357   0.193
 7481SOL    HW223343   6.332   6.311   0.288
 7482SOL     OW23344   4.880   0.217   4.617
 7482SOL    HW123345   4.863   0.269   4.533
 7482SOL    HW223346   4.878   0.279   4.695
 7483SOL     OW23347   3.516   0.400   6.723
 7483SOL    HW123348   3.460   0.322   6.697
 7483SOL    HW223349   3.606   0.368   6.754
 7484SOL     OW23350   3.397   0.007   1.739
 7484SOL    HW123351   3.359   0.095   1.711
 7484SOL    HW223352   3.404   0.003   1.838
 7485SOL     OW23353   1.105   6.595   4.899
 7485SOL    HW123354   1.027   6.642   4.939
 7485SOL    HW223355   1.149   6.538   4.968
 7486SOL     OW23356   1.159   2.112   5.143
 7486SOL    HW123357   1.191   2.137   5.234
 7486SOL    HW223358   1.172   2.190   5.081
 7487SOL     OW23359   3.364   5.024   3.217
 7487SOL    HW123360   3.284   4.967   3.200
 7487SOL    HW223361   3.334   5.113   3.251
 7488SOL     OW23362   4.431   0.844   5.259
 7488SOL    HW123363   4.422   0.746   5.276
 7488SOL    HW223364   4.352   0.893   5.296
 7489SOL     OW23365   6.752   3.424   3.963
 7489SOL    HW123366   6.654   3.426   3.985
 7489SOL    HW223367   6.763   3.401   3.866
 7490SOL     OW23368   5.706   7.000   3.038
 7490SOL    HW123369   5.796   0.009   3.064
 7490SOL    HW223370   5.658   0.046   2.985
 7491SOL     OW23371   0.265   6.950   0.576
 7491SOL    HW123372   0.248   6.875   0.512
 7491SOL    HW223373   0.187   7.012   0.576
 7492SOL     OW23374   2.829   2.033   3.322
 7492SOL    HW123375   2.883   1.965   3.271
 7492SOL    HW223376   2.740   1.995   3.344
 7493SOL     OW23377   4.954   4.808   6.147
 7493SOL    HW123378   4.901   4.738   6.099
 7493SOL    HW223379   4.960   4.785   6.244
 7494SOL     OW23380   4.999   1.854   1.826
 7494SOL    HW123381   5.055   1.774   1.848
 7494SOL    HW223382   5.047   1.937   1.854
 7495SOL     OW23383   1.052   1.923   2.668
 7495SOL    HW123384   1.149   1.932   2.692
 7495SOL    HW223385   0.999   1.992   2.719
 7496SOL     OW23386   0.315   5.754   5.776
 7496SOL    HW123387   0.384   5.699   5.824
 7496SOL    HW223388   0.230   5.754   5.829
 7497SOL     OW23389   1.771   5.042   2.494
 7497SOL    HW123390   1.718   4.963   2.525
 7497SOL    HW223391   1.859   5.011   2.458
 7498SOL     OW23392   5.784   2.086   4.538
 7498SOL    HW123393   5.742   2.073   4.628
 7498SOL    HW223394   5.777   2.183   4.512
 7499SOL     OW23395   3.762   5.333   3.744
 7499SOL    HW123396   3.768   5.237   3.772
 7499SOL    HW223397   3.838   5.384   3.786
 7500SOL     OW23398   4.763   3.994   1.962
 7500SOL    HW123399   4.693   4.063   1.943
 7500SOL    HW223400   4.837   4.036   2.014
 7501SOL     OW23401   0.700   4.572   4.098
 7501SOL    HW123402   0.711   4.560   4.197
 7501SOL    HW223403   0.649   4.495   4.060
 7502SOL     OW23404   1.532   2.177   3.978
 7502SOL    HW123405   1.589   2.099   3.954
 7502SOL    HW223406   1.555   2.208   4.070
 7503SOL     OW23407   2.590   2.661   6.838
 7503SOL    HW123408   2.670   2.675   6.896
 7503SOL    HW223409   2.508   2.661   6.896
 7504SOL     OW23410   4.237   5.686   4.204
 7504SOL    HW123411   4.150   5.734   4.188
 7504SOL    HW223412   4.299   5.703   4.129
 7505SOL     OW23413   2.049   1.263   4.348
 7505SOL    HW123414   2.060   1.285   4.445
 7505SOL    HW223415   2.120   1.198   4.320
 7506SOL     OW23416   4.512   1.002   3.200
 7506SOL    HW123417   4.512   0.924   3.263
 7506SOL    HW223418   4.559   0.977   3.116
 7507SOL     OW23419   2.193   0.262   5.493
 7507SOL    HW123420   2.260   0.254   5.567
 7507SOL    HW223421   2.187   0.175   5.445
 7508SOL     OW23422   5.337   5.622   3.182
 7508SOL    HW123423   5.412   5.558   3.197
 7508SOL    HW223424   5.252   5.571   3.167
 7509SOL     OW23425   4.220   4.150   6.257
 7509SOL    HW123426   4.311   4.121   6.286
 7509SOL    HW223427   4.196   4.104   6.172
 7510SOL     OW23428   3.630   3.608   4.754
 7510SOL    HW123429   3.538   3.615   4.716
 7510SOL    HW223430   3.697   3.634   4.685
 7511SOL     OW23431   1.338   1.693   2.497
 7511SOL    HW123432   1.332   1.735   2.407
 7511SOL    HW223433   1.320   1.762   2.567
 7512SOL     OW23434   2.084   3.322   2.440
 7512SOL    HW123435   2.129   3.356   2.358
 7512SOL    HW223436   2.022   3.392   2.476
 7513SOL     OW23437   1.689   3.227   6.513
 7513SOL    HW123438   1.628   3.180   6.449
 7513SOL    HW223439   1.696   3.173   6.597
 7514SOL     OW23440   3.406   5.644   3.353
 7514SOL    HW123441   3.367   5.608   3.439
 7514SOL    HW223442   3.482   5.586   3.326
 7515SOL     OW23443   0.203   4.630   2.714
 7515SOL    HW123444   0.163   4.539   2.722
 7515SOL    HW223445   0.249   4.639   2.625
 7516SOL     OW23446   2.120   2.911   1.341
 7516SOL    HW123447   2.155   2.829   1.297
 7516SOL    HW223448   2.044   2.887   1.402
 7517SOL     OW23449   0.079   4.926   1.717
 7517SOL    HW123450   0.142   4.859   1.756
 7517SOL    HW223451   0.130   5.006   1.685
 7518SOL     OW23452   5.187   4.096   3.217
 7518SOL    HW123453   5.123   4.053   3.280
 7518SOL    HW223454   5.142   4.114   3.130
 7519SOL     OW23455   1.906   6.790   4.256
 7519SOL    HW123456   1.849   6.837   4.188
 7519SOL    HW223457   1.958   6.717   4.212
 7520SOL     OW23458   2.537   6.663   3.758
 7520SOL    HW123459   2.566   6.570   3.780
 7520SOL    HW223460   2.450   6.682   3.804
 7521SOL     OW23461   4.640   3.326   5.318
 7521SOL    HW123462   4.633   3.386   5.238
 7521SOL    HW223463   4.548   3.302   5.350
 7522SOL     OW23464   1.683   6.975   2.449
 7522SOL    HW123465   1.656   6.951   2.356
 7522SOL    HW223466   1.750   0.026   2.447
 7523SOL     OW23467   6.459   6.476   6.101
 7523SOL    HW123468   6.519   6.522   6.036
 7523SOL    HW223469   6.368   6.518   6.098
 7524SOL     OW23470   6.654   1.048   4.633
 7524SOL    HW123471   6.595   1.128   4.629
 7524SOL    HW223472   6.743   1.070   4.592
 7525SOL     OW23473   0.757   0.398   0.782
 7525SOL    HW123474   0.776   0.462   0.857
 7525SOL    HW223475   0.721   0.312   0.820
 7526SOL     OW23476   3.697   3.271   5.774
 7526SOL    HW123477   3.598   3.288   5.780
 7526SOL    HW223478   3.745   3.359   5.765
 7527SOL     OW23479   3.808   6.153   1.926
 7527SOL    HW123480   3.889   6.200   1.891
 7527SOL    HW223481   3.727   6.191   1.882
 7528SOL     OW23482   6.027   3.297   6.928
 7528SOL    HW123483   5.952   3.357   6.901
 7528SOL    HW223484   6.113   3.348   6.924
 7529SOL     OW23485   2.124   0.068   4.342
 7529SOL    HW123486   2.179   0.043   4.422
 7529SOL    HW223487   2.044   0.008   4.337
 7530SOL     OW23488   6.800   2.934   3.082
 7530SOL    HW123489   6.895   2.921   3.109
 7530SOL    HW223490   6.763   2.848   3.046
 7531SOL     OW23491   2.359   1.653   4.593
 7531SOL    HW123492   2.326   1.622   4.504
 7531SOL    HW223493   2.397   1.745   4.585
 7532SOL     OW23494   4.893   4.683   1.863
 7532SOL    HW123495   4.811   4.628   1.851
 7532SOL    HW223496   4.970   4.623   1.888
 7533SOL     OW23497   3.430   0.684   4.783
 7533SOL    HW123498   3.464   0.775   4.758
 7533SOL    HW223499   3.482   0.650   4.861
 7534SOL     OW23500   4.849   6.779   3.914
 7534SOL    HW123501   4.877   6.725   3.994
 7534SOL    HW223502   4.920   6.847   3.893
 7535SOL     OW23503   2.867   4.812   0.502
 7535SOL    HW123504   2.911   4.809   0.412
 7535SOL    HW223505   2.790   4.749   0.504
 7536SOL     OW23506   4.508   5.677   5.873
 7536SOL    HW123507   4.444   5.706   5.803
 7536SOL    HW223508   4.587   5.739   5.875
 7537SOL     OW23509   1.940   4.707   5.424
 7537SOL    HW123510   1.894   4.618   5.417
 7537SOL    HW223511   1.873   4.777   5.448
 7538SOL     OW23512   3.403   4.106   4.995
 7538SOL    HW123513   3.322   4.100   5.053
 7538SOL    HW223514   3.382   4.159   4.913
 7539SOL     OW23515   0.915   2.358   4.825
 7539SOL    HW123516   0.956   2.359   4.916
 7539SOL    HW223517   0.937   2.272   4.780
 7540SOL     OW23518   2.202   1.215   0.339
 7540SOL    HW123519   2.202   1.311   0.367
 7540SOL    HW223520   2.116   1.173   0.366
 7541SOL     OW23521   6.864   2.672   5.505
 7541SOL    HW123522   6.955   2.630   5.506
 7541SOL    HW223523   6.799   2.613   5.554
 7542SOL     OW23524   1.655   0.552   5.453
 7542SOL    HW123525   1.596   0.474   5.468
 7542SOL    HW223526   1.729   0.528   5.390
 7543SOL     OW23527   2.845   2.617   0.344
 7543SOL    HW123528   2.750   2.608   0.376
 7543SOL    HW223529   2.904   2.559   0.401
 7544SOL     OW23530   1.478   1.999   2.446
 7544SOL    HW123531   1.572   2.004   2.414
 7544SOL    HW223532   1.416   2.030   2.374
 7545SOL     OW23533   4.135   0.349   3.558
 7545SOL    HW123534   4.156   0.427   3.499
 7545SOL    HW223535   4.101   0.382   3.646
 7546SOL     OW23536   5.556   0.369   5.520
 7546SOL    HW123537   5.528   0.292   5.463
 7546SOL    HW223538   5.585   0.445   5.461
 7547SOL     OW23539   3.028   0.452   0.178
 7547SOL    HW123540   2.970   0.419   0.253
 7547SOL    HW223541   2.975   0.516   0.122
 7548SOL     OW23542   1.810   3.062   1.269
 7548SOL    HW123543   1.813   2.981   1.327
 7548SOL    HW223544   1.752   3.132   1.310
 7549SOL     OW23545   5.551   0.557   2.553
 7549SOL    HW123546   5.490   0.624   2.511
 7549SOL    HW223547   5.506   0.468   2.555
 7550SOL     OW23548   1.063   5.633   0.654
 7550SOL    HW123549   1.036   5.602   0.744
 7550SOL    HW223550   1.162   5.622   0.643
 7551SOL     OW23551   5.370   3.707   6.574
 7551SOL    HW123552   5.286   3.759   6.559
 7551SOL    HW223553   5.363   3.618   6.528
 7552SOL     OW23554   3.826   5.894   3.807
 7552SOL    HW123555   3.882   5.904   3.725
 7552SOL    HW223556   3.885   5.894   3.888
 7553SOL     OW23557   4.076   4.031   6.026
 7553SOL    HW123558   4.006   3.960   6.031
 7553SOL    HW223559   4.116   4.033   5.934
 7554SOL     OW23560   0.049   1.400   1.072
 7554SOL    HW123561   0.063   1.462   1.149
 7554SOL    HW223562   6.979   1.365   1.075
 7555SOL     OW23563   1.639   5.906   5.778
 7555SOL    HW123564   1.539   5.909   5.768
 7555SOL    HW223565   1.669   5.811   5.771
 7556SOL     OW23566   6.688   4.041   3.874
 7556SOL    HW123567   6.618   4.072   3.810
 7556SOL    HW223568   6.739   3.965   3.834
 7557SOL     OW23569   4.073   3.880   0.511
 7557SOL    HW123570   4.027   3.837   0.434
 7557SOL    HW223571   4.090   3.812   0.583
 7558SOL     OW23572   1.887   2.811   3.323
 7558SOL    HW123573   1.962   2.745   3.315
 7558SOL    HW223574   1.922   2.903   3.305
 7559SOL     OW23575   0.626   4.967   6.958
 7559SOL    HW123576   0.695   4.896   6.945
 7559SOL    HW223577   0.606   4.977   0.031
 7560SOL     OW23578   4.581   0.520   5.424
 7560SOL    HW123579   4.577   0.429   5.466
 7560SOL    HW223580   4.672   0.533   5.383
 7561SOL     OW23581   0.351   4.144   0.194
 7561SOL    HW123582   0.414   4.125   0.269
 7561SOL    HW223583   0.270   4.087   0.203
 7562SOL     OW23584   4.764   6.203   4.636
 7562SOL    HW123585   4.770   6.136   4.709
 7562SOL    HW223586   4.771   6.295   4.674
 7563SOL     OW23587   2.520   1.142   4.244
 7563SOL    HW123588   2.600   1.083   4.258
 7563SOL    HW223589   2.505   1.155   4.146
 7564SOL     OW23590   6.007   5.739   4.214
 7564SOL    HW123591   6.002   5.639   4.209
 7564SOL    HW223592   5.914   5.777   4.212
 7565SOL     OW23593   4.651   5.625   6.905
 7565SOL    HW123594   4.680   5.666   6.818
 7565SOL    HW223595   4.718   5.555   6.932
 7566SOL     OW23596   1.486   5.584   4.335
 7566SOL    HW123597   1.476   5.652   4.409
 7566SOL    HW223598   1.406   5.525   4.333
 7567SOL     OW23599   2.143   3.138   0.445
 7567SOL    HW123600   2.064   3.152   0.385
 7567SOL    HW223601   2.222   3.112   0.391
 7568SOL     OW23602   3.909   4.878   2.737
 7568SOL    HW123603   3.937   4.806   2.674
 7568SOL    HW223604   3.828   4.925   2.700
 7569SOL     OW23605   3.757   6.939   1.966
 7569SOL    HW123606   3.844   6.984   1.950
 7569SOL    HW223607   3.704   6.936   1.881
 7570SOL     OW23608   5.867   5.062   4.581
 7570SOL    HW123609   5.955   5.108   4.569
 7570SOL    HW223610   5.882   4.964   4.589
 7571SOL     OW23611   6.095   3.697   0.515
 7571SOL    HW123612   6.170   3.719   0.452
 7571SOL    HW223613   6.120   3.726   0.607
 7572SOL     OW23614   6.752   1.406   3.022
 7572SOL    HW123615   6.703   1.320   3.034
 7572SOL    HW223616   6.791   1.434   3.110
 7573SOL     OW23617   3.445   5.202   4.975
 7573SOL    HW123618   3.352   5.211   5.011
 7573SOL    HW223619   3.449   5.123   4.914
 7574SOL     OW23620   4.655   6.358   2.282
 7574SOL    HW123621   4.630   6.312   2.367
 7574SOL    HW223622   4.754   6.369   2.278
 7575SOL     OW23623   5.082   2.744   4.875
 7575SOL    HW123624   5.045   2.816   4.934
 7575SOL    HW223625   5.123   2.673   4.932
 7576SOL     OW23626   6.999   3.566   1.673
 7576SOL    HW123627   6.988   3.576   1.574
 7576SOL    HW223628   6.918   3.519   1.710
 7577SOL     OW23629   4.594   1.576   4.439
 7577SOL    HW123630   4.624   1.568   4.344
 7577SOL    HW223631   4.622   1.494   4.489
 7578SOL     OW23632   2.263   5.453   5.145
 7578SOL    HW123633   2.302   5.435   5.055
 7578SOL    HW223634   2.171   5.415   5.151
 7579SOL     OW23635   4.459   2.434   3.887
 7579SOL    HW123636   4.418   2.400   3.803
 7579SOL    HW223637   4.398   2.413   3.964
 7580SOL     OW23638   1.944   3.496   2.050
 7580SOL    HW123639   2.043   3.504   2.038
 7580SOL    HW223640   1.898   3.570   2.001
 7581SOL     OW23641   5.219   0.680   0.782
 7581SOL    HW123642   5.254   0.587   0.777
 7581SOL    HW223643   5.195   0.712   0.690
 7582SOL     OW23644   3.610   2.343   1.013
 7582SOL    HW123645   3.692   2.398   1.027
 7582SOL    HW223646   3.629   2.248   1.039
 7583SOL     OW23647   6.768   4.237   3.071
 7583SOL    HW123648   6.866   4.220   3.074
 7583SOL    HW223649   6.725   4.199   3.153
 7584SOL     OW23650   2.322   1.396   1.844
 7584SOL    HW123651   2.278   1.389   1.754
 7584SOL    HW223652   2.416   1.429   1.832
 7585SOL     OW23653   1.955   4.340   6.744
 7585SOL    HW123654   1.977   4.375   6.653
 7585SOL    HW223655   1.931   4.243   6.737
 7586SOL     OW23656   1.440   2.084   2.935
 7586SOL    HW123657   1.472   2.027   3.010
 7586SOL    HW223658   1.498   2.165   2.927
 7587SOL     OW23659   2.607   1.220   5.881
 7587SOL    HW123660   2.651   1.216   5.791
 7587SOL    HW223661   2.634   1.304   5.928
 7588SOL     OW23662   0.673   4.291   1.629
 7588SOL    HW123663   0.672   4.379   1.678
 7588SOL    HW223664   0.704   4.219   1.691
 7589SOL     OW23665   5.164   6.352   6.464
 7589SOL    HW123666   5.113   6.414   6.523
 7589SOL    HW223667   5.137   6.257   6.484
 7590SOL     OW23668   1.503   0.771   5.858
 7590SOL    HW123669   1.477   0.839   5.927
 7590SOL    HW223670   1.453   0.686   5.875
 7591SOL     OW23671   6.415   5.790   6.777
 7591SOL    HW123672   6.428   5.752   6.686
 7591SOL    HW223673   6.322   5.772   6.808
 7592SOL     OW23674   4.454   5.134   6.009
 7592SOL    HW123675   4.464   5.040   5.976
 7592SOL    HW223676   4.497   5.143   6.099
 7593SOL     OW23677   5.692   3.986   0.574
 7593SOL    HW123678   5.699   3.950   0.667
 7593SOL    HW223679   5.703   3.912   0.509
 7594SOL     OW23680   1.179   6.996   3.841
 7594SOL    HW123681   1.235   6.918   3.811
 7594SOL    HW223682   1.166   6.992   3.940
 7595SOL     OW23683   6.342   2.781   6.706
 7595SOL    HW123684   6.354   2.693   6.752
 7595SOL    HW223685   6.383   2.854   6.761
 7596SOL     OW23686   4.637   5.609   2.287
 7596SOL    HW123687   4.656   5.653   2.199
 7596SOL    HW223688   4.572   5.535   2.274
 7597SOL     OW23689   2.140   5.811   1.686
 7597SOL    HW123690   2.116   5.908   1.693
 7597SOL    HW223691   2.137   5.783   1.590
 7598SOL     OW23692   6.423   1.077   2.268
 7598SOL    HW123693   6.446   1.088   2.364
 7598SOL    HW223694   6.324   1.089   2.255
 7599SOL     OW23695   5.870   2.782   2.030
 7599SOL    HW123696   5.929   2.862   2.019
 7599SOL    HW223697   5.871   2.728   1.946
 7600SOL     OW23698   2.522   2.427   2.886
 7600SOL    HW123699   2.512   2.332   2.917
 7600SOL    HW223700   2.607   2.437   2.835
 7601SOL     OW23701   2.152   0.655   5.352
 7601SOL    HW123702   2.139   0.658   5.452
 7601SOL    HW223703   2.235   0.704   5.328
 7602SOL     OW23704   2.203   3.393   5.271
 7602SOL    HW123705   2.267   3.331   5.226
 7602SOL    HW223706   2.172   3.462   5.206
 7603SOL     OW23707   6.631   1.137   2.084
 7603SOL    HW123708   6.544   1.135   2.134
 7603SOL    HW223709   6.705   1.158   2.147
 7604SOL     OW23710   5.295   5.588   6.756
 7604SOL    HW123711   5.344   5.639   6.685
 7604SOL    HW223712   5.243   5.652   6.814
 7605SOL     OW23713   5.960   3.695   6.478
 7605SOL    HW123714   6.004   3.784   6.471
 7605SOL    HW223715   5.941   3.660   6.385
 7606SOL     OW23716   5.617   2.007   3.923
 7606SOL    HW123717   5.630   1.917   3.965
 7606SOL    HW223718   5.523   2.016   3.891
 7607SOL     OW23719   4.855   0.017   5.997
 7607SOL    HW123720   4.916   0.082   5.951
 7607SOL    HW223721   4.826   0.055   6.085
 7608SOL     OW23722   3.374   3.541   4.660
 7608SOL    HW123723   3.342   3.453   4.695
 7608SOL    HW223724   3.321   3.566   4.579
 7609SOL     OW23725   1.594   2.895   3.396
 7609SOL    HW123726   1.579   2.813   3.342
 7609SOL    HW223727   1.682   2.887   3.444
 7610SOL     OW23728   5.707   0.366   1.954
 7610SOL    HW123729   5.669   0.343   2.044
 7610SOL    HW223730   5.806   0.374   1.961
 7611SOL     OW23731   2.052   1.785   1.762
 7611SOL    HW123732   2.067   1.692   1.728
 7611SOL    HW223733   2.106   1.849   1.707
 7612SOL     OW23734   4.319   2.063   2.923
 7612SOL    HW123735   4.254   2.000   2.881
 7612SOL    HW223736   4.383   2.096   2.853
 7613SOL     OW23737   5.639   0.560   2.841
 7613SOL    HW123738   5.589   0.571   2.755
 7613SOL    HW223739   5.583   0.595   2.917
 7614SOL     OW23740   4.341   0.985   0.458
 7614SOL    HW123741   4.249   1.016   0.484
 7614SOL    HW223742   4.387   0.947   0.537
 7615SOL     OW23743   3.689   4.572   5.930
 7615SOL    HW123744   3.729   4.610   6.013
 7615SOL    HW223745   3.590   4.570   5.938
 7616SOL     OW23746   0.120   5.148   2.981
 7616SOL    HW123747   0.211   5.158   2.939
 7616SOL    HW223748   0.054   5.205   2.932
 7617SOL     OW23749   3.081   5.900   3.040
 7617SOL    HW123750   3.069   5.816   3.092
 7617SOL    HW223751   3.044   5.887   2.948
 7618SOL     OW23752   2.267   1.945   0.635
 7618SOL    HW123753   2.255   1.920   0.538
 7618SOL    HW223754   2.181   1.980   0.671
 7619SOL     OW23755   6.084   3.552   6.231
 7619SOL    HW123756   6.032   3.595   6.157
 7619SOL    HW223757   6.171   3.517   6.194
 7620SOL     OW23758   2.986   5.998   1.554
 7620SOL    HW123759   3.011   5.936   1.628
 7620SOL    HW223760   3.029   5.967   1.469
 7621SOL     OW23761   1.801   2.612   0.660
 7621SOL    HW123762   1.878   2.675   0.662
 7621SOL    HW223763   1.813   2.542   0.730
 7622SOL     OW23764   4.290   2.089   1.370
 7622SOL    HW123765   4.221   2.125   1.433
 7622SOL    HW223766   4.341   2.164   1.328
 7623SOL     OW23767   6.067   6.312   4.957
 7623SOL    HW123768   6.101   6.280   5.045
 7623SOL    HW223769   6.097   6.249   4.885
 7624SOL     OW23770   6.986   0.570   4.507
 7624SOL    HW123771   0.003   0.617   4.429
 7624SOL    HW223772   0.034   0.524   4.559
 7625SOL     OW23773   3.480   5.715   0.879
 7625SOL    HW123774   3.580   5.714   0.881
 7625SOL    HW223775   3.449   5.745   0.788
 7626SOL     OW23776   2.626   4.287   5.402
 7626SOL    HW123777   2.656   4.369   5.354
 7626SOL    HW223778   2.683   4.273   5.483
 7627SOL     OW23779   0.121   1.188   0.613
 7627SOL    HW123780   0.182   1.163   0.538
 7627SOL    HW223781   0.167   1.171   0.701
 7628SOL     OW23782   4.915   1.811   1.562
 7628SOL    HW123783   4.950   1.846   1.648
 7628SOL    HW223784   4.919   1.711   1.562
 7629SOL     OW23785   6.332   5.928   3.368
 7629SOL    HW123786   6.365   6.018   3.340
 7629SOL    HW223787   6.372   5.857   3.309
 7630SOL     OW23788   6.517   1.430   2.061
 7630SOL    HW123789   6.556   1.345   2.095
 7630SOL    HW223790   6.540   1.505   2.124
 7631SOL     OW23791   1.293   0.883   3.572
 7631SOL    HW123792   1.227   0.814   3.604
 7631SOL    HW223793   1.303   0.954   3.641
 7632SOL     OW23794   4.215   0.370   5.362
 7632SOL    HW123795   4.143   0.321   5.313
 7632SOL    HW223796   4.183   0.391   5.455
 7633SOL     OW23797   5.910   3.904   6.836
 7633SOL    HW123798   5.843   3.966   6.795
 7633SOL    HW223799   5.865   3.817   6.858
 7634SOL     OW23800   0.991   2.431   2.402
 7634SOL    HW123801   0.904   2.440   2.452
 7634SOL    HW223802   1.029   2.340   2.417
 7635SOL     OW23803   2.845   5.062   6.104
 7635SOL    HW123804   2.814   5.045   6.197
 7635SOL    HW223805   2.791   5.137   6.064
 7636SOL     OW23806   1.639   0.145   3.521
 7636SOL    HW123807   1.609   0.231   3.563
 7636SOL    HW223808   1.561   0.083   3.511
 7637SOL     OW23809   2.981   6.169   3.851
 7637SOL    HW123810   2.997   6.265   3.875
 7637SOL    HW223811   3.016   6.111   3.925
 7638SOL     OW23812   4.255   4.550   1.730
 7638SOL    HW123813   4.304   4.476   1.683
 7638SOL    HW223814   4.157   4.542   1.712
 7639SOL     OW23815   0.490   1.957   4.294
 7639SOL    HW123816   0.494   1.872   4.346
 7639SOL    HW223817   0.561   1.956   4.224
 7640SOL     OW23818   2.399   3.281   5.670
 7640SOL    HW123819   2.359   3.333   5.596
 7640SOL    HW223820   2.488   3.244   5.642
 7641SOL     OW23821   6.067   3.174   3.295
 7641SOL    HW123822   6.128   3.204   3.369
 7641SOL    HW223823   6.025   3.087   3.320
 7642SOL     OW23824   1.582   1.605   2.565
 7642SOL    HW123825   1.608   1.695   2.601
 7642SOL    HW223826   1.483   1.603   2.550
 7643SOL     OW23827   5.849   3.462   3.455
 7643SOL    HW123828   5.768   3.472   3.397
 7643SOL    HW223829   5.822   3.452   3.550
 7644SOL     OW23830   6.458   3.418   3.761
 7644SOL    HW123831   6.504   3.336   3.727
 7644SOL    HW223832   6.363   3.418   3.732
 7645SOL     OW23833   3.386   2.751   0.233
 7645SOL    HW123834   3.300   2.702   0.249
 7645SOL    HW223835   3.396   2.824   0.301
 7646SOL     OW23836   1.001   0.261   1.744
 7646SOL    HW123837   1.015   0.291   1.649
 7646SOL    HW223838   0.905   0.240   1.758
 7647SOL     OW23839   2.294   4.835   0.196
 7647SOL    HW123840   2.369   4.856   0.258
 7647SOL    HW223841   2.212   4.812   0.249
 7648SOL     OW23842   3.179   1.223   3.917
 7648SOL    HW123843   3.260   1.272   3.950
 7648SOL    HW223844   3.203   1.172   3.834
 7649SOL     OW23845   2.888   1.562   1.208
 7649SOL    HW123846   2.926   1.578   1.300
 7649SOL    HW223847   2.800   1.609   1.201
 7650SOL     OW23848   6.122   4.846   0.610
 7650SOL    HW123849   6.139   4.748   0.619
 7650SOL    HW223850   6.190   4.897   0.663
 7651SOL     OW23851   5.499   1.990   6.106
 7651SOL    HW123852   5.401   1.982   6.124
 7651SOL    HW223853   5.517   2.078   6.062
 7652SOL     OW23854   1.141   3.345   2.850
 7652SOL    HW123855   1.152   3.444   2.857
 7652SOL    HW223856   1.166   3.302   2.936
 7653SOL     OW23857   4.533   2.506   2.190
 7653SOL    HW123858   4.586   2.560   2.125
 7653SOL    HW223859   4.461   2.563   2.230
 7654SOL     OW23860   5.176   3.720   4.369
 7654SOL    HW123861   5.097   3.780   4.378
 7654SOL    HW223862   5.254   3.773   4.335
 7655SOL     OW23863   5.318   5.053   5.483
 7655SOL    HW123864   5.400   5.096   5.445
 7655SOL    HW223865   5.261   5.123   5.524
 7656SOL     OW23866   0.927   0.410   4.841
 7656SOL    HW123867   0.923   0.314   4.813
 7656SOL    HW223868   1.013   0.451   4.808
 7657SOL     OW23869   3.929   1.748   3.562
 7657SOL    HW123870   3.854   1.803   3.526
 7657SOL    HW223871   3.910   1.722   3.657
 7658SOL     OW23872   4.032   0.343   5.951
 7658SOL    HW123873   4.096   0.413   5.919
 7658SOL    HW223874   4.007   0.283   5.875
 7659SOL     OW23875   5.301   6.093   6.711
 7659SOL    HW123876   5.373   6.071   6.646
 7659SOL    HW223877   5.265   6.184   6.693
 7660SOL     OW23878   5.418   5.101   3.790
 7660SOL    HW123879   5.437   5.070   3.697
 7660SOL    HW223880   5.500   5.091   3.847
 7661SOL     OW23881   6.199   3.418   4.689
 7661SOL    HW123882   6.221   3.471   4.771
 7661SOL    HW223883   6.116   3.455   4.646
 7662SOL     OW23884   6.181   5.580   3.382
 7662SOL    HW123885   6.248   5.561   3.311
 7662SOL    HW223886   6.186   5.677   3.407
 7663SOL     OW23887   0.464   6.183   0.512
 7663SOL    HW123888   0.412   6.245   0.452
 7663SOL    HW223889   0.400   6.119   0.555
 7664SOL     OW23890   3.054   5.461   5.145
 7664SOL    HW123891   2.961   5.492   5.163
 7664SOL    HW223892   3.103   5.449   5.232
 7665SOL     OW23893   2.454   5.534   3.807
 7665SOL    HW123894   2.431   5.605   3.873
 7665SOL    HW223895   2.523   5.473   3.846
 7666SOL     OW23896   2.224   0.783   2.091
 7666SOL    HW123897   2.184   0.729   2.166
 7666SOL    HW223898   2.226   0.728   2.008
 7667SOL     OW23899   5.806   6.750   5.344
 7667SOL    HW123900   5.753   6.720   5.423
 7667SOL    HW223901   5.744   6.772   5.269
 7668SOL     OW23902   2.899   4.101   1.671
 7668SOL    HW123903   2.802   4.124   1.657
 7668SOL    HW223904   2.954   4.184   1.662
 7669SOL     OW23905   4.458   6.364   4.837
 7669SOL    HW123906   4.459   6.302   4.916
 7669SOL    HW223907   4.552   6.387   4.812
 7670SOL     OW23908   1.478   5.881   0.587
 7670SOL    HW123909   1.569   5.913   0.559
 7670SOL    HW223910   1.472   5.782   0.574
 7671SOL     OW23911   5.188   1.986   4.844
 7671SOL    HW123912   5.181   2.026   4.936
 7671SOL    HW223913   5.282   1.955   4.829
 7672SOL     OW23914   6.122   0.402   1.723
 7672SOL    HW123915   6.051   0.439   1.663
 7672SOL    HW223916   6.082   0.332   1.782
 7673SOL     OW23917   0.430   3.807   0.132
 7673SOL    HW123918   0.508   3.756   0.168
 7673SOL    HW223919   0.396   3.870   0.203
 7674SOL     OW23920   6.144   0.331   5.456
 7674SOL    HW123921   6.115   0.236   5.451
 7674SOL    HW223922   6.065   0.391   5.440
 7675SOL     OW23923   5.030   6.925   3.214
 7675SOL    HW123924   5.014   6.968   3.126
 7675SOL    HW223925   5.085   6.986   3.272
 7676SOL     OW23926   1.222   0.603   1.144
 7676SOL    HW123927   1.154   0.617   1.071
 7676SOL    HW223928   1.300   0.664   1.128
 7677SOL     OW23929   1.472   2.573   2.934
 7677SOL    HW123930   1.537   2.498   2.944
 7677SOL    HW223931   1.378   2.537   2.939
 7678SOL     OW23932   5.259   6.609   5.871
 7678SOL    HW123933   5.197   6.531   5.872
 7678SOL    HW223934   5.255   6.654   5.782
 7679SOL     OW23935   1.362   5.183   4.264
 7679SOL    HW123936   1.424   5.227   4.330
 7679SOL    HW223937   1.377   5.221   4.173
 7680SOL     OW23938   5.123   0.850   6.886
 7680SOL    HW123939   5.154   0.773   6.942
 7680SOL    HW223940   5.151   0.936   6.930
 7681SOL     OW23941   2.890   2.390   6.480
 7681SOL    HW123942   2.795   2.398   6.507
 7681SOL    HW223943   2.896   2.374   6.381
 7682SOL     OW23944   2.881   0.046   0.608
 7682SOL    HW123945   2.901   6.983   0.654
 7682SOL    HW223946   2.967   0.088   0.579
 7683SOL     OW23947   6.976   2.583   3.585
 7683SOL    HW123948   0.022   2.520   3.551
 7683SOL    HW223949   6.887   2.558   3.547
 7684SOL     OW23950   4.013   2.199   5.914
 7684SOL    HW123951   4.062   2.167   5.833
 7684SOL    HW223952   3.985   2.293   5.900
 7685SOL     OW23953   3.988   3.956   1.374
 7685SOL    HW123954   4.043   3.992   1.298
 7685SOL    HW223955   3.946   4.031   1.423
 7686SOL     OW23956   3.112   1.018   3.469
 7686SOL    HW123957   3.093   1.112   3.443
 7686SOL    HW223958   3.128   0.963   3.387
 7687SOL     OW23959   4.497   4.519   5.798
 7687SOL    HW123960   4.397   4.516   5.802
 7687SOL    HW223961   4.534   4.430   5.823
 7688SOL     OW23962   6.426   0.667   3.255
 7688SOL    HW123963   6.490   0.603   3.213
 7688SOL    HW223964   6.444   0.672   3.353
 7689SOL     OW23965   3.335   6.456   4.658
 7689SOL    HW123966   3.262   6.416   4.713
 7689SOL    HW223967   3.395   6.384   4.623
 7690SOL     OW23968   0.454   5.542   2.355
 7690SOL    HW123969   0.477   5.521   2.450
 7690SOL    HW223970   0.533   5.582   2.309
 7691SOL     OW23971   6.136   3.825   5.811
 7691SOL    HW123972   6.116   3.879   5.729
 7691SOL    HW223973   6.169   3.885   5.884
 7692SOL     OW23974   1.510   6.476   1.037
 7692SOL    HW123975   1.484   6.523   1.121
 7692SOL    HW223976   1.542   6.384   1.058
 7693SOL     OW23977   5.480   1.571   0.621
 7693SOL    HW123978   5.467   1.631   0.700
 7693SOL    HW223979   5.393   1.526   0.599
 7694SOL     OW23980   5.574   5.072   3.543
 7694SOL    HW123981   5.636   5.150   3.538
 7694SOL    HW223982   5.621   4.995   3.586
 7695SOL     OW23983   4.814   0.379   6.703
 7695SOL    HW123984   4.731   0.409   6.749
 7695SOL    HW223985   4.853   0.456   6.651
 7696SOL     OW23986   1.268   4.345   5.513
 7696SOL    HW123987   1.340   4.326   5.446
 7696SOL    HW223988   1.253   4.264   5.570
 7697SOL     OW23989   4.668   1.403   2.209
 7697SOL    HW123990   4.692   1.496   2.236
 7697SOL    HW223991   4.747   1.343   2.223
 7698SOL     OW23992   6.973   2.834   5.694
 7698SOL    HW123993   6.890   2.850   5.747
 7698SOL    HW223994   6.953   2.771   5.619
 7699SOL     OW23995   3.245   4.136   0.250
 7699SOL    HW123996   3.315   4.187   0.300
 7699SOL    HW223997   3.177   4.100   0.314
 7700SOL     OW23998   5.564   6.673   4.296
 7700SOL    HW123999   5.632   6.718   4.239
 7700SOL    HW224000   5.544   6.583   4.259
 7701SOL     OW24001   6.833   2.189   5.238
 7701SOL    HW124002   6.742   2.192   5.196
 7701SOL    HW224003   6.838   2.113   5.302
 7702SOL     OW24004   1.825   6.481   6.631
 7702SOL    HW124005   1.797   6.505   6.538
 7702SOL    HW224006   1.892   6.548   6.664
 7703SOL     OW24007   0.641   2.620   5.636
 7703SOL    HW124008   0.673   2.565   5.560
 7703SOL    HW224009   0.719   2.656   5.687
 7704SOL     OW24010   2.369   4.068   1.259
 7704SOL    HW124011   2.335   4.134   1.193
 7704SOL    HW224012   2.388   3.981   1.213
 7705SOL     OW24013   3.692   4.112   4.731
 7705SOL    HW124014   3.614   4.167   4.702
 7705SOL    HW224015   3.703   4.118   4.830
 7706SOL     OW24016   6.660   0.700   5.563
 7706SOL    HW124017   6.627   0.608   5.585
 7706SOL    HW224018   6.583   0.757   5.533
 7707SOL     OW24019   6.959   6.017   6.734
 7707SOL    HW124020   6.884   5.983   6.677
 7707SOL    HW224021   6.990   5.944   6.795
 7708SOL     OW24022   4.925   1.387   5.113
 7708SOL    HW124023   5.015   1.412   5.149
 7708SOL    HW224024   4.922   1.409   5.015
 7709SOL     OW24025   3.836   2.301   1.708
 7709SOL    HW124026   3.756   2.312   1.767
 7709SOL    HW224027   3.812   2.327   1.615
 7710SOL     OW24028   2.814   1.898   6.857
 7710SOL    HW124029   2.801   1.992   6.889
 7710SOL    HW224030   2.849   1.842   6.932
 7711SOL     OW24031   4.302   5.565   4.704
 7711SOL    HW124032   4.335   5.591   4.613
 7711SOL    HW224033   4.378   5.567   4.769
 7712SOL     OW24034   5.198   4.623   6.585
 7712SOL    HW124035   5.213   4.656   6.678
 7712SOL    HW224036   5.277   4.644   6.528
 7713SOL     OW24037   0.360   5.749   6.134
 7713SOL    HW124038   0.429   5.814   6.166
 7713SOL    HW224039   0.275   5.762   6.186
 7714SOL     OW24040   5.190   4.138   4.735
 7714SOL    HW124041   5.102   4.094   4.716
 7714SOL    HW224042   5.262   4.070   4.736
 7715SOL     OW24043   3.870   2.011   1.945
 7715SOL    HW124044   3.889   1.979   1.852
 7715SOL    HW224045   3.799   2.081   1.943
 7716SOL     OW24046   4.278   2.273   4.332
 7716SOL    HW124047   4.203   2.236   4.386
 7716SOL    HW224048   4.309   2.359   4.373
 7717SOL     OW24049   3.025   0.064   6.548
 7717SOL    HW124050   3.078   0.135   6.595
 7717SOL    HW224051   2.944   0.104   6.507
 7718SOL     OW24052   2.730   6.210   3.943
 7718SOL    HW124053   2.730   6.180   4.038
 7718SOL    HW224054   2.817   6.187   3.900
 7719SOL     OW24055   5.996   2.836   5.343
 7719SOL    HW124056   5.925   2.890   5.299
 7719SOL    HW224057   5.954   2.760   5.392
 7720SOL     OW24058   5.962   6.041   1.829
 7720SOL    HW124059   5.933   6.106   1.899
 7720SOL    HW224060   5.892   5.970   1.818
 7721SOL     OW24061   0.859   4.867   2.952
 7721SOL    HW124062   0.938   4.808   2.937
 7721SOL    HW224063   0.872   4.954   2.905
 7722SOL     OW24064   0.990   5.991   4.392
 7722SOL    HW124065   0.926   5.987   4.469
 7722SOL    HW224066   0.939   5.982   4.306
 7723SOL     OW24067   6.789   1.818   0.457
 7723SOL    HW124068   6.858   1.763   0.505
 7723SOL    HW224069   6.698   1.784   0.478
 7724SOL     OW24070   2.423   6.483   6.994
 7724SOL    HW124071   2.465   6.416   0.030
 7724SOL    HW224072   2.338   6.445   6.955
 7725SOL     OW24073   4.907   3.455   4.590
 7725SOL    HW124074   4.961   3.449   4.507
 7725SOL    HW224075   4.967   3.482   4.666
 7726SOL     OW24076   5.145   4.543   3.078
 7726SOL    HW124077   5.065   4.488   3.100
 7726SOL    HW224078   5.127   4.638   3.101
 7727SOL     OW24079   5.441   3.235   2.362
 7727SOL    HW124080   5.368   3.235   2.294
 7727SOL    HW224081   5.431   3.315   2.421
 7728SOL     OW24082   2.336   2.715   2.652
 7728SOL    HW124083   2.363   2.698   2.747
 7728SOL    HW224084   2.252   2.769   2.651
 7729SOL     OW24085   5.113   2.265   6.828
 7729SOL    HW124086   5.046   2.191   6.838
 7729SOL    HW224087   5.167   2.273   6.912
 7730SOL     OW24088   4.680   0.169   2.095
 7730SOL    HW124089   4.610   0.215   2.150
 7730SOL    HW224090   4.769   0.181   2.137
 7731SOL     OW24091   0.172   1.669   4.247
 7731SOL    HW124092   0.082   1.679   4.206
 7731SOL    HW224093   0.163   1.659   4.346
 7732SOL     OW24094   4.264   5.021   0.832
 7732SOL    HW124095   4.214   5.101   0.864
 7732SOL    HW224096   4.249   5.009   0.733
 7733SOL     OW24097   2.973   6.302   0.377
 7733SOL    HW124098   3.001   6.383   0.327
 7733SOL    HW224099   3.025   6.223   0.344
 7734SOL     OW24100   1.520   2.946   2.129
 7734SOL    HW124101   1.431   2.900   2.135
 7734SOL    HW224102   1.526   3.016   2.200
 7735SOL     OW24103   5.157   4.500   0.798
 7735SOL    HW124104   5.063   4.532   0.806
 7735SOL    HW224105   5.204   4.513   0.886
 7736SOL     OW24106   5.822   4.283   6.441
 7736SOL    HW124107   5.825   4.330   6.352
 7736SOL    HW224108   5.783   4.344   6.510
 7737SOL     OW24109   4.485   2.641   0.248
 7737SOL    HW124110   4.427   2.615   0.326
 7737SOL    HW224111   4.440   2.714   0.197
 7738SOL     OW24112   2.304   5.037   6.985
 7738SOL    HW124113   2.300   4.968   0.033
 7738SOL    HW224114   2.211   5.053   6.950
 7739SOL     OW24115   5.168   3.922   2.594
 7739SOL    HW124116   5.234   3.917   2.519
 7739SOL    HW224117   5.151   4.017   2.616
 7740SOL     OW24118   0.309   6.167   3.886
 7740SOL    HW124119   0.272   6.247   3.933
 7740SOL    HW224120   0.242   6.133   3.820
 7741SOL     OW24121   3.193   5.486   4.399
 7741SOL    HW124122   3.198   5.430   4.482
 7741SOL    HW224123   3.206   5.427   4.319
 7742SOL     OW24124   6.908   0.878   4.304
 7742SOL    HW124125   6.824   0.914   4.263
 7742SOL    HW224126   6.904   0.888   4.403
 7743SOL     OW24127   4.898   3.100   2.237
 7743SOL    HW124128   4.823   3.085   2.173
 7743SOL    HW224129   4.891   3.034   2.312
 7744SOL     OW24130   0.265   6.214   4.805
 7744SOL    HW124131   0.337   6.145   4.807
 7744SOL    HW224132   0.297   6.295   4.755
 7745SOL     OW24133   5.198   3.363   5.435
 7745SOL    HW124134   5.202   3.436   5.367
 7745SOL    HW224135   5.157   3.397   5.519
 7746SOL     OW24136   1.996   0.594   6.748
 7746SOL    HW124137   2.022   0.538   6.668
 7746SOL    HW224138   1.923   0.548   6.798
 7747SOL     OW24139   4.818   5.311   0.360
 7747SOL    HW124140   4.892   5.323   0.293
 7747SOL    HW224141   4.849   5.250   0.433
 7748SOL     OW24142   2.155   4.297   6.350
 7748SOL    HW124143   2.085   4.347   6.401
 7748SOL    HW224144   2.113   4.220   6.303
 7749SOL     OW24145   5.685   3.193   6.398
 7749SOL    HW124146   5.709   3.120   6.334
 7749SOL    HW224147   5.748   3.270   6.385
 7750SOL     OW24148   4.420   5.631   2.648
 7750SOL    HW124149   4.459   5.707   2.596
 7750SOL    HW224150   4.470   5.547   2.627
 7751SOL     OW24151   0.566   2.725   1.093
 7751SOL    HW124152   0.568   2.750   1.190
 7751SOL    HW224153   0.573   2.626   1.083
 7752SOL     OW24154   3.766   1.052   3.314
 7752SOL    HW124155   3.794   1.071   3.408
 7752SOL    HW224156   3.747   0.954   3.305
 7753SOL     OW24157   4.009   1.050   5.363
 7753SOL    HW124158   4.069   1.124   5.334
 7753SOL    HW224159   4.062   0.966   5.375
 7754SOL     OW24160   5.083   5.560   1.542
 7754SOL    HW124161   5.054   5.521   1.454
 7754SOL    HW224162   5.157   5.626   1.527
 7755SOL     OW24163   0.267   4.614   5.500
 7755SOL    HW124164   0.331   4.613   5.577
 7755SOL    HW224165   0.245   4.520   5.474
 7756SOL     OW24166   2.208   4.040   2.282
 7756SOL    HW124167   2.111   4.050   2.262
 7756SOL    HW224168   2.256   4.124   2.261
 7757SOL     OW24169   0.108   4.173   0.647
 7757SOL    HW124170   0.048   4.232   0.593
 7757SOL    HW224171   0.162   4.230   0.710
 7758SOL     OW24172   0.696   1.069   5.789
 7758SOL    HW124173   0.786   1.047   5.751
 7758SOL    HW224174   0.631   1.083   5.714
 7759SOL     OW24175   3.729   1.242   2.428
 7759SOL    HW124176   3.653   1.307   2.431
 7759SOL    HW224177   3.802   1.272   2.490
 7760SOL     OW24178   4.942   3.200   6.969
 7760SOL    HW124179   4.875   3.224   6.898
 7760SOL    HW224180   4.933   3.103   6.992
 7761SOL     OW24181   5.511   5.404   3.251
 7761SOL    HW124182   5.482   5.311   3.227
 7761SOL    HW224183   5.605   5.418   3.221
 7762SOL     OW24184   4.839   2.159   1.915
 7762SOL    HW124185   4.867   2.255   1.914
 7762SOL    HW224186   4.866   2.117   2.001
 7763SOL     OW24187   2.148   0.680   3.248
 7763SOL    HW124188   2.242   0.650   3.269
 7763SOL    HW224189   2.101   0.704   3.333
 7764SOL     OW24190   3.839   5.224   5.639
 7764SOL    HW124191   3.821   5.170   5.557
 7764SOL    HW224192   3.800   5.316   5.628
 7765SOL     OW24193   5.513   4.039   4.545
 7765SOL    HW124194   5.611   4.059   4.542
 7765SOL    HW224195   5.462   4.125   4.557
 7766SOL     OW24196   6.669   2.166   6.456
 7766SOL    HW124197   6.662   2.186   6.554
 7766SOL    HW224198   6.581   2.184   6.412
 7767SOL     OW24199   4.269   0.206   3.938
 7767SOL    HW124200   4.301   0.229   3.846
 7767SOL    HW224201   4.344   0.164   3.989
 7768SOL     OW24202   3.066   5.730   4.333
 7768SOL    HW124203   3.104   5.640   4.354
 7768SOL    HW224204   3.034   5.731   4.239
 7769SOL     OW24205   3.552   2.603   6.810
 7769SOL    HW124206   3.650   2.620   6.821
 7769SOL    HW224207   3.513   2.670   6.747
 7770SOL     OW24208   0.942   3.804   3.735
 7770SOL    HW124209   0.988   3.741   3.798
 7770SOL    HW224210   1.009   3.841   3.670
 7771SOL     OW24211   1.064   3.811   5.330
 7771SOL    HW124212   1.059   3.815   5.430
 7771SOL    HW224213   1.023   3.894   5.291
 7772SOL     OW24214   5.466   6.029   1.762
 7772SOL    HW124215   5.417   5.947   1.791
 7772SOL    HW224216   5.491   6.021   1.666
 7773SOL     OW24217   2.770   0.184   6.546
 7773SOL    HW124218   2.671   0.186   6.560
 7773SOL    HW224219   2.811   0.266   6.586
 7774SOL     OW24220   5.039   1.309   3.013
 7774SOL    HW124221   4.978   1.360   2.953
 7774SOL    HW224222   4.987   1.272   3.090
 7775SOL     OW24223   3.304   1.505   0.872
 7775SOL    HW124224   3.207   1.498   0.898
 7775SOL    HW224225   3.332   1.421   0.826
 7776SOL     OW24226   3.529   0.887   4.111
 7776SOL    HW124227   3.446   0.942   4.106
 7776SOL    HW224228   3.552   0.869   4.207
 7777SOL     OW24229   5.136   4.882   3.030
 7777SOL    HW124230   5.134   4.879   3.130
 7777SOL    HW224231   5.161   4.974   3.000
 7778SOL     OW24232   1.508   4.221   2.360
 7778SOL    HW124233   1.564   4.304   2.356
 7778SOL    HW224234   1.429   4.236   2.420
 7779SOL     OW24235   3.220   6.527   2.137
 7779SOL    HW124236   3.282   6.454   2.164
 7779SOL    HW224237   3.125   6.497   2.146
 7780SOL     OW24238   6.638   5.552   4.055
 7780SOL    HW124239   6.592   5.617   4.116
 7780SOL    HW224240   6.709   5.503   4.105
 7781SOL     OW24241   2.201   2.668   0.629
 7781SOL    HW124242   2.154   2.593   0.583
 7781SOL    HW224243   2.145   2.751   0.623
 7782SOL     OW24244   5.985   3.770   4.236
 7782SOL    HW124245   6.016   3.679   4.263
 7782SOL    HW224246   5.922   3.806   4.305
 7783SOL     OW24247   1.392   6.400   4.235
 7783SOL    HW124248   1.470   6.461   4.250
 7783SOL    HW224249   1.312   6.436   4.284
 7784SOL     OW24250   1.762   2.515   3.011
 7784SOL    HW124251   1.787   2.611   3.024
 7784SOL    HW224252   1.741   2.474   3.100
 7785SOL     OW24253   6.616   6.446   2.614
 7785SOL    HW124254   6.713   6.446   2.639
 7785SOL    HW224255   6.601   6.502   2.533
 7786SOL     OW24256   5.244   1.028   6.552
 7786SOL    HW124257   5.318   0.994   6.609
 7786SOL    HW224258   5.230   1.126   6.570
 7787SOL     OW24259   1.330   2.969   1.074
 7787SOL    HW124260   1.343   2.890   1.013
 7787SOL    HW224261   1.387   2.957   1.155
 7788SOL     OW24262   0.762   4.085   2.114
 7788SOL    HW124263   0.763   4.058   2.210
 7788SOL    HW224264   0.699   4.161   2.101
 7789SOL     OW24265   3.482   0.772   5.959
 7789SOL    HW124266   3.445   0.820   6.039
 7789SOL    HW224267   3.497   0.838   5.885
 7790SOL     OW24268   3.872   5.150   4.203
 7790SOL    HW124269   3.922   5.063   4.206
 7790SOL    HW224270   3.876   5.194   4.292
 7791SOL     OW24271   2.670   6.201   1.912
 7791SOL    HW124272   2.577   6.221   1.879
 7791SOL    HW224273   2.665   6.141   1.992
 7792SOL     OW24274   1.527   1.165   2.460
 7792SOL    HW124275   1.593   1.189   2.388
 7792SOL    HW224276   1.444   1.128   2.417
 7793SOL     OW24277   4.769   1.916   0.852
 7793SOL    HW124278   4.675   1.928   0.887
 7793SOL    HW224279   4.789   1.818   0.846
 7794SOL     OW24280   1.433   0.889   2.840
 7794SOL    HW124281   1.370   0.967   2.839
 7794SOL    HW224282   1.526   0.922   2.859
 7795SOL     OW24283   3.872   3.738   1.204
 7795SOL    HW124284   3.920   3.653   1.227
 7795SOL    HW224285   3.913   3.813   1.255
 7796SOL     OW24286   4.188   1.481   0.498
 7796SOL    HW124287   4.156   1.560   0.551
 7796SOL    HW224288   4.229   1.414   0.559
 7797SOL     OW24289   1.486   6.287   2.953
 7797SOL    HW124290   1.582   6.296   2.979
 7797SOL    HW224291   1.442   6.376   2.961
 7798SOL     OW24292   1.996   3.384   1.066
 7798SOL    HW124293   2.013   3.433   0.980
 7798SOL    HW224294   2.081   3.381   1.119
 7799SOL     OW24295   2.423   6.233   3.784
 7799SOL    HW124296   2.399   6.262   3.877
 7799SOL    HW224297   2.503   6.284   3.753
 7800SOL     OW24298   1.545   1.337   2.656
 7800SOL    HW124299   1.539   1.433   2.629
 7800SOL    HW224300   1.545   1.280   2.574
 7801SOL     OW24301   1.828   2.079   1.198
 7801SOL    HW124302   1.756   2.148   1.206
 7801SOL    HW224303   1.786   1.988   1.193
 7802SOL     OW24304   6.068   4.839   4.110
 7802SOL    HW124305   6.009   4.800   4.181
 7802SOL    HW224306   6.014   4.855   4.027
 7803SOL     OW24307   3.198   2.559   6.217
 7803SOL    HW124308   3.184   2.657   6.202
 7803SOL    HW224309   3.109   2.513   6.212
 7804SOL     OW24310   2.866   1.790   5.402
 7804SOL    HW124311   2.828   1.765   5.313
 7804SOL    HW224312   2.875   1.889   5.408
 7805SOL     OW24313   5.744   2.969   6.778
 7805SOL    HW124314   5.795   2.996   6.860
 7805SOL    HW224315   5.652   3.006   6.783
 7806SOL     OW24316   6.177   2.022   5.313
 7806SOL    HW124317   6.179   1.934   5.265
 7806SOL    HW224318   6.099   2.025   5.375
 7807SOL     OW24319   1.658   5.352   5.863
 7807SOL    HW124320   1.598   5.286   5.910
 7807SOL    HW224321   1.735   5.303   5.822
 7808SOL     OW24322   0.260   3.232   4.249
 7808SOL    HW124323   0.280   3.285   4.167
 7808SOL    HW224324   0.173   3.261   4.288
 7809SOL     OW24325   4.664   6.951   2.661
 7809SOL    HW124326   4.616   7.016   2.720
 7809SOL    HW224327   4.763   6.965   2.670
 7810SOL     OW24328   1.930   6.837   5.813
 7810SOL    HW124329   1.872   6.918   5.808
 7810SOL    HW224330   2.025   6.862   5.793
 7811SOL     OW24331   1.326   5.818   3.110
 7811SOL    HW124332   1.356   5.753   3.040
 7811SOL    HW224333   1.360   5.909   3.086
 7812SOL     OW24334   3.082   1.191   5.718
 7812SOL    HW124335   3.147   1.165   5.646
 7812SOL    HW224336   3.004   1.238   5.678
 7813SOL     OW24337   5.493   1.355   0.913
 7813SOL    HW124338   5.398   1.386   0.917
 7813SOL    HW224339   5.554   1.435   0.907
 7814SOL     OW24340   6.452   2.656   1.718
 7814SOL    HW124341   6.424   2.654   1.622
 7814SOL    HW224342   6.531   2.596   1.730
 7815SOL     OW24343   4.620   5.247   3.570
 7815SOL    HW124344   4.681   5.199   3.633
 7815SOL    HW224345   4.588   5.184   3.499
 7816SOL     OW24346   1.317   1.312   4.984
 7816SOL    HW124347   1.307   1.384   4.915
 7816SOL    HW224348   1.389   1.338   5.048
 7817SOL     OW24349   4.311   1.399   6.464
 7817SOL    HW124350   4.310   1.410   6.364
 7817SOL    HW224351   4.334   1.487   6.507
 7818SOL     OW24352   5.748   1.021   3.063
 7818SOL    HW124353   5.829   0.967   3.085
 7818SOL    HW224354   5.708   1.057   3.147
 7819SOL     OW24355   2.358   2.680   4.306
 7819SOL    HW124356   2.441   2.645   4.348
 7819SOL    HW224357   2.378   2.709   4.212
 7820SOL     OW24358   1.751   1.203   5.805
 7820SOL    HW124359   1.735   1.258   5.887
 7820SOL    HW224360   1.665   1.191   5.755
 7821SOL     OW24361   3.667   5.835   0.141
 7821SOL    HW124362   3.657   5.925   0.183
 7821SOL    HW224363   3.762   5.823   0.113
 7822SOL     OW24364   1.049   1.269   4.488
 7822SOL    HW124365   1.127   1.219   4.527
 7822SOL    HW224366   0.976   1.274   4.556
 7823SOL     OW24367   2.828   2.959   5.880
 7823SOL    HW124368   2.736   2.996   5.895
 7823SOL    HW224369   2.886   2.981   5.957
 7824SOL     OW24370   6.028   3.917   2.785
 7824SOL    HW124371   6.005   4.000   2.734
 7824SOL    HW224372   6.032   3.839   2.722
 7825SOL     OW24373   3.592   2.905   3.044
 7825SOL    HW124374   3.610   2.919   3.142
 7825SOL    HW224375   3.622   2.813   3.017
 7826SOL     OW24376   6.567   7.020   0.967
 7826SOL    HW124377   6.644   6.963   0.995
 7826SOL    HW224378   6.544   7.000   0.871
 7827SOL     OW24379   4.596   3.491   0.256
 7827SOL    HW124380   4.508   3.464   0.216
 7827SOL    HW224381   4.643   3.554   0.194
 7828SOL     OW24382   1.314   6.376   0.836
 7828SOL    HW124383   1.384   6.307   0.855
 7828SOL    HW224384   1.356   6.466   0.829
 7829SOL     OW24385   3.457   3.814   2.815
 7829SOL    HW124386   3.435   3.905   2.851
 7829SOL    HW224387   3.544   3.818   2.766
 7830SOL     OW24388   6.591   4.069   0.675
 7830SOL    HW124389   6.659   4.006   0.713
 7830SOL    HW224390   6.550   4.028   0.594
 7831SOL     OW24391   2.006   2.096   0.623
 7831SOL    HW124392   1.967   2.112   0.533
 7831SOL    HW224393   2.025   2.184   0.667
 7832SOL     OW24394   3.260   2.816   6.036
 7832SOL    HW124395   3.176   2.818   5.982
 7832SOL    HW224396   3.298   2.723   6.035
 7833SOL     OW24397   6.795   6.730   1.755
 7833SOL    HW124398   6.743   6.661   1.704
 7833SOL    HW224399   6.851   6.783   1.692
 7834SOL     OW24400   5.477   1.293   1.192
 7834SOL    HW124401   5.497   1.288   1.094
 7834SOL    HW224402   5.392   1.344   1.206
 7835SOL     OW24403   2.156   1.983   4.417
 7835SOL    HW124404   2.157   2.003   4.515
 7835SOL    HW224405   2.165   2.068   4.366
 7836SOL     OW24406   2.196   0.795   6.796
 7836SOL    HW124407   2.129   0.721   6.786
 7836SOL    HW224408   2.166   0.875   6.744
 7837SOL     OW24409   5.924   5.731   2.605
 7837SOL    HW124410   5.990   5.655   2.614
 7837SOL    HW224411   5.915   5.756   2.509
 7838SOL     OW24412   3.636   5.685   3.904
 7838SOL    HW124413   3.687   5.771   3.901
 7838SOL    HW224414   3.576   5.678   3.825
 7839SOL     OW24415   6.752   4.886   3.424
 7839SOL    HW124416   6.723   4.854   3.334
 7839SOL    HW224417   6.696   4.842   3.495
 7840SOL     OW24418   4.657   3.153   5.825
 7840SOL    HW124419   4.578   3.095   5.845
 7840SOL    HW224420   4.715   3.109   5.757
 7841SOL     OW24421   1.030   2.564   5.733
 7841SOL    HW124422   1.088   2.571   5.652
 7841SOL    HW224423   1.087   2.548   5.813
 7842SOL     OW24424   2.554   1.054   2.744
 7842SOL    HW124425   2.593   0.988   2.680
 7842SOL    HW224426   2.538   1.009   2.832
 7843SOL     OW24427   0.118   2.535   2.193
 7843SOL    HW124428   0.128   2.481   2.277
 7843SOL    HW224429   0.208   2.568   2.164
 7844SOL     OW24430   4.339   2.339   3.626
 7844SOL    HW124431   4.291   2.272   3.569
 7844SOL    HW224432   4.405   2.389   3.570
 7845SOL     OW24433   0.115   0.664   4.295
 7845SOL    HW124434   0.183   0.708   4.236
 7845SOL    HW224435   0.024   0.699   4.273
 7846SOL     OW24436   4.454   0.390   2.441
 7846SOL    HW124437   4.507   0.389   2.526
 7846SOL    HW224438   4.456   0.482   2.402
 7847SOL     OW24439   0.296   7.018   6.895
 7847SOL    HW124440   0.388   0.013   6.928
 7847SOL    HW224441   0.262   0.072   6.843
 7848SOL     OW24442   3.607   3.936   1.533
 7848SOL    HW124443   3.648   3.981   1.612
 7848SOL    HW224444   3.635   3.841   1.530
 7849SOL     OW24445   5.492   4.291   4.946
 7849SOL    HW124446   5.578   4.241   4.960
 7849SOL    HW224447   5.501   4.354   4.869
 7850SOL     OW24448   0.600   2.846   4.599
 7850SOL    HW124449   0.501   2.834   4.589
 7850SOL    HW224450   0.646   2.759   4.583
 7851SOL     OW24451   3.783   6.608   1.104
 7851SOL    HW124452   3.730   6.669   1.044
 7851SOL    HW224453   3.723   6.536   1.139
 7852SOL     OW24454   3.022   0.111   0.251
 7852SOL    HW124455   3.029   0.191   0.310
 7852SOL    HW224456   2.968   0.134   0.170
 7853SOL     OW24457   1.905   2.162   0.369
 7853SOL    HW124458   1.974   2.193   0.304
 7853SOL    HW224459   1.870   2.072   0.341
 7854SOL     OW24460   4.093   3.617   4.192
 7854SOL    HW124461   4.118   3.686   4.260
 7854SOL    HW224462   4.091   3.658   4.101
 7855SOL     OW24463   2.834   0.148   4.860
 7855SOL    HW124464   2.803   0.078   4.796
 7855SOL    HW224465   2.934   0.152   4.860
 7856SOL     OW24466   2.979   3.261   6.922
 7856SOL    HW124467   2.937   3.344   6.887
 7856SOL    HW224468   2.922   3.182   6.901
 7857SOL     OW24469   0.477   3.050   4.915
 7857SOL    HW124470   0.499   3.053   5.013
 7857SOL    HW224471   0.552   3.006   4.866
 7858SOL     OW24472   5.322   3.319   2.825
 7858SOL    HW124473   5.274   3.232   2.812
 7858SOL    HW224474   5.257   3.395   2.821
 7859SOL     OW24475   0.438   6.909   0.802
 7859SOL    HW124476   0.361   6.951   0.753
 7859SOL    HW224477   0.412   6.894   0.897
 7860SOL     OW24478   4.979   6.268   0.935
 7860SOL    HW124479   5.025   6.315   0.860
 7860SOL    HW224480   4.894   6.228   0.900
 7861SOL     OW24481   5.809   3.802   0.396
 7861SOL    HW124482   5.899   3.793   0.439
 7861SOL    HW224483   5.776   3.712   0.368
 7862SOL     OW24484   3.020   4.735   1.727
 7862SOL    HW124485   2.980   4.660   1.779
 7862SOL    HW224486   3.111   4.755   1.763
 7863SOL     OW24487   4.364   6.218   2.711
 7863SOL    HW124488   4.374   6.122   2.685
 7863SOL    HW224489   4.398   6.232   2.804
 7864SOL     OW24490   1.200   5.605   5.346
 7864SOL    HW124491   1.165   5.633   5.435
 7864SOL    HW224492   1.174   5.673   5.277
 7865SOL     OW24493   4.607   0.383   3.354
 7865SOL    HW124494   4.599   0.402   3.256
 7865SOL    HW224495   4.535   0.433   3.403
 7866SOL     OW24496   2.766   2.089   6.029
 7866SOL    HW124497   2.812   2.018   6.082
 7866SOL    HW224498   2.832   2.138   5.972
 7867SOL     OW24499   5.910   3.684   1.291
 7867SOL    HW124500   5.882   3.636   1.374
 7867SOL    HW224501   5.918   3.782   1.311
 7868SOL     OW24502   4.478   7.021   0.304
 7868SOL    HW124503   4.387   0.024   0.275
 7868SOL    HW224504   4.547   0.040   0.246
 7869SOL     OW24505   6.095   1.807   4.177
 7869SOL    HW124506   6.032   1.862   4.122
 7869SOL    HW224507   6.171   1.776   4.119
 7870SOL     OW24508   6.631   0.584   2.933
 7870SOL    HW124509   6.655   0.589   3.030
 7870SOL    HW224510   6.574   0.503   2.917
 7871SOL     OW24511   5.458   3.151   4.159
 7871SOL    HW124512   5.513   3.093   4.099
 7871SOL    HW224513   5.517   3.218   4.204
 7872SOL     OW24514   0.025   4.353   4.012
 7872SOL    HW124515   0.080   4.270   4.017
 7872SOL    HW224516   6.973   4.339   3.949
 7873SOL     OW24517   6.941   5.573   4.434
 7873SOL    HW124518   6.937   5.634   4.514
 7873SOL    HW224519   7.023   5.515   4.441
 7874SOL     OW24520   5.951   0.134   0.188
 7874SOL    HW124521   6.046   0.152   0.165
 7874SOL    HW224522   5.938   0.036   0.204
 7875SOL     OW24523   4.824   3.390   0.404
 7875SOL    HW124524   4.881   3.356   0.330
 7875SOL    HW224525   4.744   3.437   0.367
 7876SOL     OW24526   0.596   1.780   4.692
 7876SOL    HW124527   0.688   1.809   4.717
 7876SOL    HW224528   0.590   1.768   4.593
 7877SOL     OW24529   6.008   3.821   2.386
 7877SOL    HW124530   5.980   3.750   2.321
 7877SOL    HW224531   5.986   3.790   2.479
 7878SOL     OW24532   3.535   4.104   1.264
 7878SOL    HW124533   3.558   4.012   1.293
 7878SOL    HW224534   3.528   4.107   1.164
 7879SOL     OW24535   6.855   1.099   5.056
 7879SOL    HW124536   6.873   1.086   4.959
 7879SOL    HW224537   6.917   1.041   5.110
 7880SOL     OW24538   1.586   6.170   6.473
 7880SOL    HW124539   1.504   6.164   6.416
 7880SOL    HW224540   1.596   6.085   6.525
 7881SOL     OW24541   1.158   5.374   4.558
 7881SOL    HW124542   1.198   5.323   4.634
 7881SOL    HW224543   1.061   5.351   4.550
 7882SOL     OW24544   1.482   4.782   1.373
 7882SOL    HW124545   1.434   4.804   1.458
 7882SOL    HW224546   1.549   4.853   1.353
 7883SOL     OW24547   3.352   1.903   2.262
 7883SOL    HW124548   3.256   1.929   2.258
 7883SOL    HW224549   3.398   1.933   2.178
 7884SOL     OW24550   0.926   2.913   4.595
 7884SOL    HW124551   0.846   2.870   4.554
 7884SOL    HW224552   0.944   2.872   4.684
 7885SOL     OW24553   6.147   5.448   2.395
 7885SOL    HW124554   6.146   5.476   2.491
 7885SOL    HW224555   6.186   5.356   2.388
 7886SOL     OW24556   4.076   4.798   2.486
 7886SOL    HW124557   4.002   4.797   2.419
 7886SOL    HW224558   4.153   4.745   2.451
 7887SOL     OW24559   0.872   3.156   0.930
 7887SOL    HW124560   0.968   3.140   0.953
 7887SOL    HW224561   0.821   3.070   0.935
 7888SOL     OW24562   6.778   1.520   5.357
 7888SOL    HW124563   6.842   1.465   5.303
 7888SOL    HW224564   6.776   1.613   5.322
 7889SOL     OW24565   5.199   5.043   0.428
 7889SOL    HW124566   5.221   5.131   0.385
 7889SOL    HW224567   5.198   5.054   0.527
 7890SOL     OW24568   2.193   2.900   3.053
 7890SOL    HW124569   2.165   2.841   2.977
 7890SOL    HW224570   2.182   2.996   3.026
 7891SOL     OW24571   6.473   1.255   4.567
 7891SOL    HW124572   6.491   1.346   4.529
 7891SOL    HW224573   6.379   1.253   4.602
 7892SOL     OW24574   1.318   1.857   4.858
 7892SOL    HW124575   1.349   1.780   4.803
 7892SOL    HW224576   1.366   1.940   4.831
 7893SOL     OW24577   5.947   6.382   0.907
 7893SOL    HW124578   5.944   6.482   0.902
 7893SOL    HW224579   6.006   6.354   0.983
 7894SOL     OW24580   3.089   0.863   6.191
 7894SOL    HW124581   3.044   0.926   6.254
 7894SOL    HW224582   3.042   0.864   6.104
 7895SOL     OW24583   6.246   6.356   3.197
 7895SOL    HW124584   6.260   6.447   3.235
 7895SOL    HW224585   6.151   6.345   3.169
 7896SOL     OW24586   2.488   1.769   0.690
 7896SOL    HW124587   2.392   1.798   0.696
 7896SOL    HW224588   2.495   1.672   0.711
 7897SOL     OW24589   4.743   1.379   1.175
 7897SOL    HW124590   4.705   1.368   1.084
 7897SOL    HW224591   4.716   1.468   1.212
 7898SOL     OW24592   4.807   6.269   3.241
 7898SOL    HW124593   4.758   6.211   3.176
 7898SOL    HW224594   4.905   6.263   3.223
 7899SOL     OW24595   5.995   4.461   2.971
 7899SOL    HW124596   5.947   4.389   3.021
 7899SOL    HW224597   5.928   4.515   2.920
 7900SOL     OW24598   0.239   3.644   0.304
 7900SOL    HW124599   0.146   3.623   0.273
 7900SOL    HW224600   0.305   3.603   0.242
 7901SOL     OW24601   0.365   2.430   0.230
 7901SOL    HW124602   0.456   2.463   0.204
 7901SOL    HW224603   0.375   2.360   0.302
 7902SOL     OW24604   1.442   0.083   1.105
 7902SOL    HW124605   1.347   0.105   1.130
 7902SOL    HW224606   1.482   0.026   1.176
 7903SOL     OW24607   3.237   2.028   5.468
 7903SOL    HW124608   3.306   2.003   5.536
 7903SOL    HW224609   3.278   2.090   5.401
 7904SOL     OW24610   4.884   3.230   2.732
 7904SOL    HW124611   4.847   3.318   2.765
 7904SOL    HW224612   4.903   3.237   2.634
 7905SOL     OW24613   6.131   2.059   1.581
 7905SOL    HW124614   6.133   1.970   1.535
 7905SOL    HW224615   6.148   2.047   1.679
 7906SOL     OW24616   0.544   5.606   6.544
 7906SOL    HW124617   0.518   5.697   6.511
 7906SOL    HW224618   0.486   5.581   6.621
 7907SOL     OW24619   5.988   6.272   3.205
 7907SOL    HW124620   6.017   6.224   3.287
 7907SOL    HW224621   5.929   6.349   3.231
 7908SOL     OW24622   2.135   0.500   6.136
 7908SOL    HW124623   2.188   0.469   6.215
 7908SOL    HW224624   2.171   0.588   6.104
 7909SOL     OW24625   6.637   3.252   1.429
 7909SOL    HW124626   6.733   3.261   1.402
 7909SOL    HW224627   6.629   3.185   1.503
 7910SOL     OW24628   1.811   4.712   5.053
 7910SOL    HW124629   1.775   4.778   5.118
 7910SOL    HW224630   1.901   4.681   5.084
 7911SOL     OW24631   5.861   4.520   5.868
 7911SOL    HW124632   5.769   4.497   5.837
 7911SOL    HW224633   5.913   4.436   5.884
 7912SOL     OW24634   5.768   5.881   0.766
 7912SOL    HW124635   5.858   5.842   0.748
 7912SOL    HW224636   5.778   5.974   0.800
 7913SOL     OW24637   1.589   5.121   6.842
 7913SOL    HW124638   1.654   5.149   6.913
 7913SOL    HW224639   1.631   5.133   6.752
 7914SOL     OW24640   1.062   6.966   4.673
 7914SOL    HW124641   1.048   6.981   4.771
 7914SOL    HW224642   1.111   0.020   4.634
 7915SOL     OW24643   2.943   5.070   2.152
 7915SOL    HW124644   2.852   5.085   2.191
 7915SOL    HW224645   2.950   4.976   2.118
 7916SOL     OW24646   1.069   0.035   3.598
 7916SOL    HW124647   0.998   6.992   3.573
 7916SOL    HW224648   1.118   0.002   3.679
 7917SOL     OW24649   4.893   2.173   2.720
 7917SOL    HW124650   4.970   2.210   2.772
 7917SOL    HW224651   4.861   2.242   2.655
 7918SOL     OW24652   1.732   3.001   2.823
 7918SOL    HW124653   1.811   3.058   2.798
 7918SOL    HW224654   1.696   2.956   2.741
 7919SOL     OW24655   0.866   6.714   4.995
 7919SOL    HW124656   0.792   6.695   5.059
 7919SOL    HW224657   0.864   6.810   4.968
 7920SOL     OW24658   5.234   0.315   1.215
 7920SOL    HW124659   5.262   0.380   1.286
 7920SOL    HW224660   5.135   0.304   1.217
 7921SOL     OW24661   5.285   3.044   0.683
 7921SOL    HW124662   5.274   3.135   0.644
 7921SOL    HW224663   5.198   2.995   0.682
 7922SOL     OW24664   2.363   0.075   2.643
 7922SOL    HW124665   2.398   0.091   2.551
 7922SOL    HW224666   2.292   0.142   2.664
 7923SOL     OW24667   4.412   0.893   0.730
 7923SOL    HW124668   4.495   0.867   0.779
 7923SOL    HW224669   4.347   0.818   0.733
 7924SOL     OW24670   5.810   6.069   0.168
 7924SOL    HW124671   5.819   5.985   0.114
 7924SOL    HW224672   5.831   6.050   0.264
 7925SOL     OW24673   1.480   4.703   6.181
 7925SOL    HW124674   1.454   4.613   6.216
 7925SOL    HW224675   1.427   4.724   6.099
 7926SOL     OW24676   5.161   6.054   5.461
 7926SOL    HW124677   5.232   6.123   5.449
 7926SOL    HW224678   5.189   5.989   5.532
 7927SOL     OW24679   4.506   6.934   3.398
 7927SOL    HW124680   4.463   6.894   3.479
 7927SOL    HW224681   4.564   6.865   3.353
 7928SOL     OW24682   5.928   2.289   3.953
 7928SOL    HW124683   5.841   2.326   3.922
 7928SOL    HW224684   5.928   2.284   4.053
 7929SOL     OW24685   4.864   4.128   5.829
 7929SOL    HW124686   4.894   4.223   5.817
 7929SOL    HW224687   4.944   4.068   5.833
 7930SOL     OW24688   4.231   5.725   6.971
 7930SOL    HW124689   4.268   5.712   0.038
 7930SOL    HW224690   4.298   5.694   6.903
 7931SOL     OW24691   4.957   1.241   0.890
 7931SOL    HW124692   5.008   1.170   0.938
 7931SOL    HW224693   5.013   1.324   0.883
 7932SOL     OW24694   1.284   3.728   1.120
 7932SOL    HW124695   1.285   3.656   1.051
 7932SOL    HW224696   1.259   3.688   1.209
 7933SOL     OW24697   1.224   1.842   0.381
 7933SOL    HW124698   1.246   1.858   0.477
 7933SOL    HW224699   1.136   1.882   0.359
 7934SOL     OW24700   6.869   5.320   0.877
 7934SOL    HW124701   6.823   5.377   0.810
 7934SOL    HW224702   6.824   5.231   0.883
 7935SOL     OW24703   6.678   3.175   3.135
 7935SOL    HW124704   6.587   3.136   3.152
 7935SOL    HW224705   6.733   3.108   3.085
 7936SOL     OW24706   2.517   6.491   3.387
 7936SOL    HW124707   2.445   6.502   3.319
 7936SOL    HW224708   2.579   6.417   3.359
 7937SOL     OW24709   4.390   1.305   1.196
 7937SOL    HW124710   4.370   1.373   1.267
 7937SOL    HW224711   4.464   1.245   1.226
 7938SOL     OW24712   2.384   0.109   3.074
 7938SOL    HW124713   2.445   0.083   3.149
 7938SOL    HW224714   2.432   0.098   2.987
 7939SOL     OW24715   1.953   0.700   2.541
 7939SOL    HW124716   1.967   0.646   2.624
 7939SOL    HW224717   1.857   0.726   2.534
 7940SOL     OW24718   6.281   1.776   5.180
 7940SOL    HW124719   6.340   1.713   5.129
 7940SOL    HW224720   6.191   1.735   5.192
 7941SOL     OW24721   3.438   6.930   0.900
 7941SOL    HW124722   3.522   6.879   0.919
 7941SOL    HW224723   3.421   6.995   0.974
 7942SOL     OW24724   1.437   4.488   0.687
 7942SOL    HW124725   1.425   4.391   0.708
 7942SOL    HW224726   1.362   4.520   0.629
 7943SOL     OW24727   1.385   5.941   6.582
 7943SOL    HW124728   1.290   5.950   6.611
 7943SOL    HW224729   1.445   5.964   6.658
 7944SOL     OW24730   1.758   1.695   1.452
 7944SOL    HW124731   1.668   1.655   1.435
 7944SOL    HW224732   1.822   1.623   1.477
 7945SOL     OW24733   6.524   3.109   2.801
 7945SOL    HW124734   6.574   3.053   2.735
 7945SOL    HW224735   6.577   3.191   2.821
 7946SOL     OW24736   4.395   1.417   6.217
 7946SOL    HW124737   4.480   1.381   6.179
 7946SOL    HW224738   4.335   1.446   6.142
 7947SOL     OW24739   6.994   3.254   5.939
 7947SOL    HW124740   0.019   3.188   5.997
 7947SOL    HW224741   0.031   3.329   5.916
 7948SOL     OW24742   1.191   6.015   0.614
 7948SOL    HW124743   1.263   5.946   0.612
 7948SOL    HW224744   1.206   6.081   0.540
 7949SOL     OW24745   2.874   5.792   5.815
 7949SOL    HW124746   2.818   5.727   5.763
 7949SOL    HW224747   2.932   5.844   5.752
 7950SOL     OW24748   6.594   4.052   5.506
 7950SOL    HW124749   6.665   3.982   5.506
 7950SOL    HW224750   6.629   4.135   5.461
 7951SOL     OW24751   4.137   0.084   2.806
 7951SOL    HW124752   4.041   0.075   2.777
 7951SOL    HW224753   4.146   0.052   2.901
 7952SOL     OW24754   6.633   3.275   5.229
 7952SOL    HW124755   6.722   3.298   5.190
 7952SOL    HW224756   6.572   3.241   5.158
 7953SOL     OW24757   1.717   6.957   0.253
 7953SOL    HW124758   1.762   7.018   0.319
 7953SOL    HW224759   1.618   6.963   0.265
 7954SOL     OW24760   3.395   2.962   0.050
 7954SOL    HW124761   3.471   3.013   0.091
 7954SOL    HW224762   3.394   2.869   0.086
 7955SOL     OW24763   0.456   1.265   6.808
 7955SOL    HW124764   0.498   1.176   6.827
 7955SOL    HW224765   0.528   1.332   6.789
 7956SOL     OW24766   0.457   0.104   0.463
 7956SOL    HW124767   0.391   0.178   0.479
 7956SOL    HW224768   0.425   0.021   0.508
 7957SOL     OW24769   5.427   1.361   5.828
 7957SOL    HW124770   5.403   1.353   5.731
 7957SOL    HW224771   5.375   1.293   5.880
 7958SOL     OW24772   4.575   2.311   0.037
 7958SOL    HW124773   4.628   2.336   0.118
 7958SOL    HW224774   4.503   2.378   0.023
 7959SOL     OW24775   5.087   2.940   0.062
 7959SOL    HW124776   5.118   2.996   7.009
 7959SOL    HW224777   5.167   2.900   0.107
 7960SOL     OW24778   1.016   1.601   4.955
 7960SOL    HW124779   1.007   1.624   4.858
 7960SOL    HW224780   0.926   1.604   4.998
 7961SOL     OW24781   6.048   0.160   0.493
 7961SOL    HW124782   5.979   0.157   0.566
 7961SOL    HW224783   6.002   0.157   0.404
 7962SOL     OW24784   6.051   6.407   4.657
 7962SOL    HW124785   6.096   6.458   4.730
 7962SOL    HW224786   5.964   6.450   4.634
 7963SOL     OW24787   5.795   6.122   2.865
 7963SOL    HW124788   5.877   6.178   2.882
 7963SOL    HW224789   5.756   6.147   2.777
 7964SOL     OW24790   6.560   3.451   1.276
 7964SOL    HW124791   6.465   3.448   1.247
 7964SOL    HW224792   6.581   3.370   1.332
 7965SOL     OW24793   4.885   1.593   6.548
 7965SOL    HW124794   4.948   1.593   6.470
 7965SOL    HW224795   4.908   1.517   6.609
 7966SOL     OW24796   6.186   3.277   5.088
 7966SOL    HW124797   6.112   3.327   5.132
 7966SOL    HW224798   6.153   3.239   5.001
 7967SOL     OW24799   1.696   4.530   0.983
 7967SOL    HW124800   1.740   4.447   1.017
 7967SOL    HW224801   1.643   4.573   1.056
 7968SOL     OW24802   2.153   2.607   3.700
 7968SOL    HW124803   2.122   2.697   3.731
 7968SOL    HW224804   2.075   2.546   3.692
 7969SOL     OW24805   3.191   4.714   6.207
 7969SOL    HW124806   3.123   4.757   6.266
 7969SOL    HW224807   3.272   4.691   6.261
 7970SOL     OW24808   6.366   2.947   3.728
 7970SOL    HW124809   6.333   3.016   3.793
 7970SOL    HW224810   6.289   2.915   3.673
 7971SOL     OW24811   3.336   0.816   6.659
 7971SOL    HW124812   3.309   0.790   6.566
 7971SOL    HW224813   3.255   0.824   6.716
 7972SOL     OW24814   4.033   3.800   4.512
 7972SOL    HW124815   4.014   3.847   4.598
 7972SOL    HW224816   4.015   3.863   4.436
 7973SOL     OW24817   6.838   4.863   2.018
 7973SOL    HW124818   6.751   4.870   1.970
 7973SOL    HW224819   6.853   4.768   2.046
 7974SOL     OW24820   0.548   3.597   4.937
 7974SOL    HW124821   0.644   3.587   4.961
 7974SOL    HW224822   0.528   3.544   4.854
 7975SOL     OW24823   4.360   6.914   0.038
 7975SOL    HW124824   4.434   6.899   0.104
 7975SOL    HW224825   4.380   6.863   6.978
 7976SOL     OW24826   0.733   0.521   0.336
 7976SOL    HW124827   0.753   0.434   0.289
 7976SOL    HW224828   0.683   0.502   0.421
 7977SOL     OW24829   5.122   5.330   2.635
 7977SOL    HW124830   5.171   5.247   2.659
 7977SOL    HW224831   5.108   5.334   2.536
 7978SOL     OW24832   0.064   3.920   1.511
 7978SOL    HW124833   0.130   3.852   1.544
 7978SOL    HW224834   0.096   3.958   1.424
 7979SOL     OW24835   2.808   2.357   5.296
 7979SOL    HW124836   2.766   2.422   5.232
 7979SOL    HW224837   2.776   2.376   5.389
 7980SOL     OW24838   3.496   5.410   1.931
 7980SOL    HW124839   3.443   5.345   1.985
 7980SOL    HW224840   3.530   5.364   1.849
 7981SOL     OW24841   1.606   3.394   4.576
 7981SOL    HW124842   1.702   3.413   4.597
 7981SOL    HW224843   1.596   3.298   4.549
 7982SOL     OW24844   6.908   0.855   0.024
 7982SOL    HW124845   6.847   0.826   0.098
 7982SOL    HW224846   6.854   0.871   6.965
 7983SOL     OW24847   3.698   1.004   1.821
 7983SOL    HW124848   3.782   1.056   1.808
 7983SOL    HW224849   3.619   1.062   1.802
 7984SOL     OW24850   6.467   2.590   3.073
 7984SOL    HW124851   6.406   2.602   2.995
 7984SOL    HW224852   6.497   2.679   3.107
 7985SOL     OW24853   2.863   3.037   5.612
 7985SOL    HW124854   2.851   3.032   5.711
 7985SOL    HW224855   2.776   3.057   5.569
 7986SOL     OW24856   3.885   0.963   3.752
 7986SOL    HW124857   3.922   0.973   3.844
 7986SOL    HW224858   3.830   1.043   3.729
 7987SOL     OW24859   0.902   3.114   6.243
 7987SOL    HW124860   0.947   3.049   6.304
 7987SOL    HW224861   0.867   3.191   6.296
 7988SOL     OW24862   6.207   0.617   1.252
 7988SOL    HW124863   6.177   0.555   1.180
 7988SOL    HW224864   6.154   0.702   1.247
 7989SOL     OW24865   0.470   4.717   1.653
 7989SOL    HW124866   0.477   4.769   1.568
 7989SOL    HW224867   0.389   4.746   1.704
 7990SOL     OW24868   4.542   5.134   4.931
 7990SOL    HW124869   4.498   5.125   5.020
 7990SOL    HW224870   4.618   5.070   4.924
 7991SOL     OW24871   5.654   0.671   4.426
 7991SOL    HW124872   5.600   0.599   4.468
 7991SOL    HW224873   5.631   0.678   4.329
 7992SOL     OW24874   1.833   0.685   0.043
 7992SOL    HW124875   1.865   0.603   7.019
 7992SOL    HW224876   1.792   0.748   7.001
 7993SOL     OW24877   6.611   6.378   0.819
 7993SOL    HW124878   6.595   6.325   0.903
 7993SOL    HW224879   6.599   6.475   0.839
 7994SOL     OW24880   0.333   1.079   4.597
 7994SOL    HW124881   0.270   1.106   4.524
 7994SOL    HW224882   0.424   1.117   4.578
 7995SOL     OW24883   0.410   5.798   1.389
 7995SOL    HW124884   0.443   5.776   1.481
 7995SOL    HW224885   0.310   5.798   1.390
 7996SOL     OW24886   1.998   6.715   3.720
 7996SOL    HW124887   1.924   6.653   3.694
 7996SOL    HW224888   2.009   6.785   3.650
 7997SOL     OW24889   2.136   1.547   5.886
 7997SOL    HW124890   2.135   1.585   5.979
 7997SOL    HW224891   2.125   1.448   5.891
 7998SOL     OW24892   1.943   0.742   0.903
 7998SOL    HW124893   2.041   0.759   0.887
 7998SOL    HW224894   1.915   0.786   0.988
 7999SOL     OW24895   0.218   0.497   2.874
 7999SOL    HW124896   0.289   0.539   2.931
 7999SOL    HW224897   0.132   0.547   2.886
 8000SOL     OW24898   4.022   5.981   0.683
 8000SOL    HW124899   4.094   6.031   0.634
 8000SOL    HW224900   4.016   5.888   0.647
 8001SOL     OW24901   4.986   4.138   1.663
 8001SOL    HW124902   5.041   4.178   1.736
 8001SOL    HW224903   4.902   4.191   1.653
 8002SOL     OW24904   1.177   0.526   4.789
 8002SOL    HW124905   1.195   0.485   4.700
 8002SOL    HW224906   1.210   0.620   4.790
 8003SOL     OW24907   2.642   5.428   3.378
 8003SOL    HW124908   2.607   5.335   3.370
 8003SOL    HW224909   2.739   5.426   3.400
 8004SOL     OW24910   2.156   3.230   3.929
 8004SOL    HW124911   2.140   3.262   3.836
 8004SOL    HW224912   2.173   3.308   3.989
 8005SOL     OW24913   2.748   0.030   3.974
 8005SOL    HW124914   2.765   6.956   3.982
 8005SOL    HW224915   2.659   0.052   4.015
 8006SOL     OW24916   5.003   5.360   6.114
 8006SOL    HW124917   4.938   5.436   6.118
 8006SOL    HW224918   4.957   5.276   6.143
 8007SOL     OW24919   6.955   0.392   0.583
 8007SOL    HW124920   6.915   0.330   0.649
 8007SOL    HW224921   6.900   0.393   0.499
 8008SOL     OW24922   4.719   4.616   1.224
 8008SOL    HW124923   4.647   4.677   1.256
 8008SOL    HW224924   4.713   4.529   1.272
 8009SOL     OW24925   6.569   1.208   1.590
 8009SOL    HW124926   6.571   1.121   1.542
 8009SOL    HW224927   6.623   1.201   1.675
 8010SOL     OW24928   3.429   0.491   6.003
 8010SOL    HW124929   3.497   0.564   6.003
 8010SOL    HW224930   3.366   0.503   6.080
 8011SOL     OW24931   3.869   2.066   2.682
 8011SOL    HW124932   3.788   2.028   2.636
 8011SOL    HW224933   3.941   2.082   2.614
 8012SOL     OW24934   6.348   0.826   4.824
 8012SOL    HW124935   6.268   0.774   4.855
 8012SOL    HW224936   6.350   0.827   4.724
 8013SOL     OW24937   3.869   0.145   3.186
 8013SOL    HW124938   3.965   0.166   3.201
 8013SOL    HW224939   3.854   0.119   3.091
 8014SOL     OW24940   2.435   2.458   3.218
 8014SOL    HW124941   2.484   2.412   3.144
 8014SOL    HW224942   2.444   2.557   3.207
 8015SOL     OW24943   3.109   6.220   4.573
 8015SOL    HW124944   3.028   6.164   4.556
 8015SOL    HW224945   3.177   6.203   4.502
 8016SOL     OW24946   3.309   2.754   5.679
 8016SOL    HW124947   3.282   2.667   5.639
 8016SOL    HW224948   3.229   2.814   5.685
 8017SOL     OW24949   6.296   6.225   0.961
 8017SOL    HW124950   6.383   6.191   0.996
 8017SOL    HW224951   6.314   6.284   0.881
 8018SOL     OW24952   2.775   3.729   0.948
 8018SOL    HW124953   2.868   3.693   0.942
 8018SOL    HW224954   2.777   3.828   0.943
 8019SOL     OW24955   2.397   3.528   0.474
 8019SOL    HW124956   2.312   3.514   0.525
 8019SOL    HW224957   2.475   3.511   0.534
 8020SOL     OW24958   0.213   0.236   6.787
 8020SOL    HW124959   0.229   0.279   6.875
 8020SOL    HW224960   0.301   0.221   6.741
 8021SOL     OW24961   1.035   3.168   0.672
 8021SOL    HW124962   0.961   3.155   0.737
 8021SOL    HW224963   1.054   3.082   0.625
 8022SOL     OW24964   4.203   6.969   2.242
 8022SOL    HW124965   4.279   7.009   2.292
 8022SOL    HW224966   4.226   6.874   2.218
 8023SOL     OW24967   4.070   5.099   2.257
 8023SOL    HW124968   3.999   5.033   2.235
 8023SOL    HW224969   4.118   5.071   2.340
 8024SOL     OW24970   2.418   1.256   6.607
 8024SOL    HW124971   2.496   1.286   6.553
 8024SOL    HW224972   2.373   1.179   6.562
 8025SOL     OW24973   1.200   6.457   1.414
 8025SOL    HW124974   1.147   6.475   1.331
 8025SOL    HW224975   1.173   6.522   1.485
 8026SOL     OW24976   0.785   6.877   6.259
 8026SOL    HW124977   0.861   6.820   6.292
 8026SOL    HW224978   0.752   6.934   6.334
 8027SOL     OW24979   4.166   0.170   6.595
 8027SOL    HW124980   4.166   0.238   6.521
 8027SOL    HW224981   4.154   0.079   6.557
 8028SOL     OW24982   3.677   6.004   6.351
 8028SOL    HW124983   3.690   6.098   6.382
 8028SOL    HW224984   3.763   5.954   6.361
 8029SOL     OW24985   0.743   6.994   1.883
 8029SOL    HW124986   0.773   7.003   1.978
 8029SOL    HW224987   0.646   6.970   1.881
 8030SOL     OW24988   0.654   4.309   0.933
 8030SOL    HW124989   0.722   4.376   0.905
 8030SOL    HW224990   0.632   4.249   0.856
 8031SOL     OW24991   6.737   0.040   2.650
 8031SOL    HW124992   6.800   0.038   2.572
 8031SOL    HW224993   6.682   0.123   2.646
 8032SOL     OW24994   0.198   3.130   0.606
 8032SOL    HW124995   0.218   3.136   0.704
 8032SOL    HW224996   0.189   3.222   0.568
 8033SOL     OW24997   3.355   4.523   1.423
 8033SOL    HW124998   3.382   4.583   1.347
 8033SOL    HW224999   3.361   4.574   1.509
 8034SOL     OW25000   0.813   0.586   5.560
 8034SOL    HW125001   0.754   0.512   5.592
 8034SOL    HW225002   0.794   0.604   5.464
 8035SOL     OW25003   5.901   6.954   4.574
 8035SOL    HW125004   5.822   7.015   4.571
 8035SOL    HW225005   5.969   6.990   4.639
 8036SOL     OW25006   4.828   3.970   4.065
 8036SOL    HW125007   4.830   3.944   3.969
 8036SOL    HW225008   4.850   3.891   4.122
 8037SOL     OW25009   2.630   1.676   6.258
 8037SOL    HW125010   2.574   1.652   6.178
 8037SOL    HW225011   2.727   1.661   6.236
 8038SOL     OW25012   6.190   5.633   1.952
 8038SOL    HW125013   6.284   5.666   1.949
 8038SOL    HW225014   6.137   5.676   1.879
 8039SOL     OW25015   2.090   2.483   4.840
 8039SOL    HW125016   2.113   2.559   4.901
 8039SOL    HW225017   2.063   2.518   4.751
 8040SOL     OW25018   0.860   6.311   5.934
 8040SOL    HW125019   0.878   6.222   5.976
 8040SOL    HW225020   0.919   6.380   5.976
 8041SOL     OW25021   3.112   1.303   2.977
 8041SOL    HW125022   3.127   1.401   2.973
 8041SOL    HW225023   3.069   1.279   3.064
 8042SOL     OW25024   3.816   3.945   5.925
 8042SOL    HW125025   3.792   4.038   5.897
 8042SOL    HW225026   3.737   3.902   5.969
 8043SOL     OW25027   5.074   4.916   6.971
 8043SOL    HW125028   5.029   4.981   6.910
 8043SOL    HW225029   5.010   4.888   0.019
 8044SOL     OW25030   1.301   3.178   1.518
 8044SOL    HW125031   1.347   3.171   1.430
 8044SOL    HW225032   1.214   3.226   1.506
 8045SOL     OW25033   6.360   3.421   5.456
 8045SOL    HW125034   6.340   3.366   5.375
 8045SOL    HW225035   6.321   3.513   5.444
 8046SOL     OW25036   0.096   3.944   0.923
 8046SOL    HW125037   0.144   3.987   0.846
 8046SOL    HW225038   0.115   3.846   0.922
 8047SOL     OW25039   3.211   6.592   6.601
 8047SOL    HW125040   3.124   6.641   6.605
 8047SOL    HW225041   3.205   6.509   6.656
 8048SOL     OW25042   3.957   1.866   6.567
 8048SOL    HW125043   3.870   1.886   6.612
 8048SOL    HW225044   3.969   1.767   6.562
 8049SOL     OW25045   1.883   1.049   0.941
 8049SOL    HW125046   1.938   1.055   0.858
 8049SOL    HW225047   1.803   1.107   0.933
 8050SOL     OW25048   0.127   5.664   5.969
 8050SOL    HW125049   0.119   5.565   5.986
 8050SOL    HW225050   0.194   5.703   6.033
 8051SOL     OW25051   4.575   6.489   2.833
 8051SOL    HW125052   4.517   6.474   2.913
 8051SOL    HW225053   4.640   6.414   2.824
 8052SOL     OW25054   3.269   1.604   3.317
 8052SOL    HW125055   3.173   1.607   3.289
 8052SOL    HW225056   3.274   1.581   3.414
 8053SOL     OW25057   0.880   2.495   6.061
 8053SOL    HW125058   0.928   2.431   6.001
 8053SOL    HW225059   0.783   2.496   6.039
 8054SOL     OW25060   5.018   3.755   5.428
 8054SOL    HW125061   5.021   3.713   5.519
 8054SOL    HW225062   5.041   3.852   5.436
 8055SOL     OW25063   6.527   0.049   6.859
 8055SOL    HW125064   6.568   0.137   6.881
 8055SOL    HW225065   6.432   0.063   6.831
 8056SOL     OW25066   2.645   1.742   3.787
 8056SOL    HW125067   2.720   1.809   3.787
 8056SOL    HW225068   2.680   1.654   3.818
 8057SOL     OW25069   3.062   2.044   1.966
 8057SOL    HW125070   3.135   2.071   1.903
 8057SOL    HW225071   3.021   2.126   2.007
 8058SOL     OW25072   3.705   6.289   1.593
 8058SOL    HW125073   3.659   6.357   1.536
 8058SOL    HW225074   3.674   6.297   1.688
 8059SOL     OW25075   3.843   3.083   5.931
 8059SOL    HW125076   3.891   3.161   5.971
 8059SOL    HW225077   3.785   3.116   5.856
 8060SOL     OW25078   0.553   0.883   6.008
 8060SOL    HW125079   0.617   0.959   5.999
 8060SOL    HW225080   0.570   0.835   6.094
 8061SOL     OW25081   6.944   0.947   1.651
 8061SOL    HW125082   6.963   1.014   1.580
 8061SOL    HW225083   7.015   0.877   1.651
 8062SOL     OW25084   4.563   4.921   5.642
 8062SOL    HW125085   4.629   4.971   5.698
 8062SOL    HW225086   4.570   4.953   5.547
 8063SOL     OW25087   2.345   4.656   2.974
 8063SOL    HW125088   2.341   4.623   3.069
 8063SOL    HW225089   2.434   4.633   2.935
 8064SOL     OW25090   0.119   2.862   0.873
 8064SOL    HW125091   0.166   2.951   0.877
 8064SOL    HW225092   0.036   2.866   0.929
 8065SOL     OW25093   4.793   0.171   6.518
 8065SOL    HW125094   4.784   0.265   6.553
 8065SOL    HW225095   4.772   0.106   6.591
 8066SOL     OW25096   0.068   0.685   6.074
 8066SOL    HW125097   7.009   0.654   6.122
 8066SOL    HW225098   0.149   0.653   6.123
 8067SOL     OW25099   5.059   0.701   4.450
 8067SOL    HW125100   5.069   0.729   4.354
 8067SOL    HW225101   5.149   0.703   4.495
 8068SOL     OW25102   6.786   3.762   1.818
 8068SOL    HW125103   6.751   3.788   1.728
 8068SOL    HW225104   6.769   3.665   1.833
 8069SOL     OW25105   1.443   2.577   2.195
 8069SOL    HW125106   1.356   2.610   2.229
 8069SOL    HW225107   1.444   2.477   2.196
 8070SOL     OW25108   5.062   3.640   1.144
 8070SOL    HW125109   5.029   3.589   1.065
 8070SOL    HW225110   5.109   3.723   1.113
 8071SOL     OW25111   2.923   0.389   5.803
 8071SOL    HW125112   2.931   0.479   5.761
 8071SOL    HW225113   3.011   0.341   5.799
 8072SOL     OW25114   2.192   2.374   5.837
 8072SOL    HW125115   2.182   2.301   5.904
 8072SOL    HW225116   2.226   2.336   5.751
 8073SOL     OW25117   5.508   0.430   6.239
 8073SOL    HW125118   5.594   0.384   6.216
 8073SOL    HW225119   5.439   0.410   6.169
 8074SOL     OW25120   6.447   0.685   0.630
 8074SOL    HW125121   6.417   0.626   0.705
 8074SOL    HW225122   6.539   0.720   0.649
 8075SOL     OW25123   0.477   0.350   1.029
 8075SOL    HW125124   0.510   0.442   1.003
 8075SOL    HW225125   0.386   0.336   0.992
 8076SOL     OW25126   6.639   6.242   0.587
 8076SOL    HW125127   6.631   6.298   0.670
 8076SOL    HW225128   6.727   6.261   0.543
 8077SOL     OW25129   5.966   4.240   1.390
 8077SOL    HW125130   5.942   4.156   1.437
 8077SOL    HW225131   5.913   4.248   1.305
 8078SOL     OW25132   6.343   1.172   1.764
 8078SOL    HW125133   6.262   1.120   1.737
 8078SOL    HW225134   6.390   1.207   1.683
 8079SOL     OW25135   0.298   0.937   6.698
 8079SOL    HW125136   0.318   0.860   6.638
 8079SOL    HW225137   0.293   0.905   6.792
 8080SOL     OW25138   1.613   3.916   3.618
 8080SOL    HW125139   1.638   4.010   3.594
 8080SOL    HW225140   1.515   3.902   3.606
 8081SOL     OW25141   6.406   0.234   5.575
 8081SOL    HW125142   6.315   0.275   5.567
 8081SOL    HW225143   6.405   0.167   5.650
 8082SOL     OW25144   4.288   2.152   4.647
 8082SOL    HW125145   4.295   2.055   4.625
 8082SOL    HW225146   4.300   2.164   4.746
 8083SOL     OW25147   6.652   2.902   4.364
 8083SOL    HW125148   6.653   2.995   4.326
 8083SOL    HW225149   6.745   2.877   4.393
 8084SOL     OW25150   5.312   1.525   6.767
 8084SOL    HW125151   5.393   1.535   6.824
 8084SOL    HW225152   5.309   1.600   6.700
 8085SOL     OW25153   1.468   6.106   4.180
 8085SOL    HW125154   1.462   6.201   4.212
 8085SOL    HW225155   1.379   6.062   4.189
 8086SOL     OW25156   6.978   2.332   2.422
 8086SOL    HW125157   0.003   2.323   2.509
 8086SOL    HW225158   6.910   2.406   2.430
 8087SOL     OW25159   6.785   0.899   6.507
 8087SOL    HW125160   6.824   0.874   6.419
 8087SOL    HW225161   6.855   0.940   6.564
 8088SOL     OW25162   0.482   6.902   5.203
 8088SOL    HW125163   0.401   6.856   5.169
 8088SOL    HW225164   0.460   6.952   5.287
 8089SOL     OW25165   6.606   1.695   6.896
 8089SOL    HW125166   6.523   1.687   6.841
 8089SOL    HW225167   6.586   1.669   6.991
 8090SOL     OW25168   4.466   2.604   5.169
 8090SOL    HW125169   4.395   2.592   5.100
 8090SOL    HW225170   4.547   2.644   5.127
 8091SOL     OW25171   0.350   3.913   4.641
 8091SOL    HW125172   0.395   3.941   4.557
 8091SOL    HW225173   0.417   3.912   4.716
 8092SOL     OW25174   5.051   0.242   6.050
 8092SOL    HW125175   4.959   0.278   6.067
 8092SOL    HW225176   5.103   0.309   5.997
 8093SOL     OW25177   3.049   6.365   3.491
 8093SOL    HW125178   3.131   6.319   3.527
 8093SOL    HW225179   3.070   6.407   3.403
 8094SOL     OW25180   2.117   3.877   4.328
 8094SOL    HW125181   2.065   3.942   4.383
 8094SOL    HW225182   2.110   3.901   4.232
 8095SOL     OW25183   1.170   5.400   5.029
 8095SOL    HW125184   1.237   5.473   5.019
 8095SOL    HW225185   1.168   5.368   5.124
 8096SOL     OW25186   0.682   4.970   1.097
 8096SOL    HW125187   0.686   5.019   1.010
 8096SOL    HW225188   0.594   4.987   1.141
 8097SOL     OW25189   4.821   6.404   6.784
 8097SOL    HW125190   4.729   6.369   6.802
 8097SOL    HW225191   4.888   6.342   6.825
 8098SOL     OW25192   2.440   6.075   4.953
 8098SOL    HW125193   2.431   5.991   5.008
 8098SOL    HW225194   2.486   6.053   4.867
 8099SOL     OW25195   2.359   4.325   2.517
 8099SOL    HW125196   2.261   4.344   2.509
 8099SOL    HW225197   2.371   4.236   2.561
 8100SOL     OW25198   0.142   0.204   0.226
 8100SOL    HW125199   0.087   0.270   0.175
 8100SOL    HW225200   0.232   0.244   0.247
 8101SOL     OW25201   1.973   5.728   0.423
 8101SOL    HW125202   2.020   5.780   0.494
 8101SOL    HW225203   2.035   5.716   0.345
 8102SOL     OW25204   0.703   4.468   4.364
 8102SOL    HW125205   0.700   4.368   4.357
 8102SOL    HW225206   0.770   4.495   4.433
 8103SOL     OW25207   4.339   0.621   1.715
 8103SOL    HW125208   4.387   0.648   1.798
 8103SOL    HW225209   4.240   0.620   1.732
 8104SOL     OW25210   1.136   5.432   6.585
 8104SOL    HW125211   1.106   5.395   6.497
 8104SOL    HW225212   1.077   5.397   6.658
 8105SOL     OW25213   6.940   6.765   3.165
 8105SOL    HW125214   6.890   6.768   3.252
 8105SOL    HW225215   6.954   6.670   3.139
 8106SOL     OW25216   2.811   6.927   6.120
 8106SOL    HW125217   2.797   6.889   6.028
 8106SOL    HW225218   2.725   6.923   6.171
 8107SOL     OW25219   1.055   6.882   0.193
 8107SOL    HW125220   1.098   6.937   0.122
 8107SOL    HW225221   1.101   6.793   0.199
 8108SOL     OW25222   1.562   1.455   0.377
 8108SOL    HW125223   1.543   1.526   0.309
 8108SOL    HW225224   1.478   1.405   0.398
 8109SOL     OW25225   6.845   3.424   2.253
 8109SOL    HW125226   6.804   3.460   2.336
 8109SOL    HW225227   6.903   3.345   2.275
 8110SOL     OW25228   4.301   4.481   0.550
 8110SOL    HW125229   4.393   4.514   0.569
 8110SOL    HW225230   4.238   4.559   0.544
 8111SOL     OW25231   6.259   1.564   2.299
 8111SOL    HW125232   6.277   1.627   2.223
 8111SOL    HW225233   6.341   1.556   2.356
 8112SOL     OW25234   1.733   5.462   6.168
 8112SOL    HW125235   1.807   5.437   6.105
 8112SOL    HW225236   1.732   5.561   6.179
 8113SOL     OW25237   4.964   5.101   6.182
 8113SOL    HW125238   4.951   5.007   6.151
 8113SOL    HW225239   5.061   5.118   6.199
 8114SOL     OW25240   2.134   3.708   2.753
 8114SOL    HW125241   2.039   3.737   2.754
 8114SOL    HW225242   2.188   3.766   2.815
 8115SOL     OW25243   2.097   1.684   6.105
 8115SOL    HW125244   2.174   1.668   6.167
 8115SOL    HW225245   2.057   1.774   6.126
 8116SOL     OW25246   4.043   3.125   2.232
 8116SOL    HW125247   4.079   3.150   2.142
 8116SOL    HW225248   3.996   3.037   2.225
 8117SOL     OW25249   1.442   6.989   4.106
 8117SOL    HW125250   1.350   6.961   4.133
 8117SOL    HW225251   1.482   6.919   4.047
 8118SOL     OW25252   6.735   2.741   6.665
 8118SOL    HW125253   6.756   2.834   6.632
 8118SOL    HW225254   6.784   2.724   6.750
 8119SOL     OW25255   5.142   5.810   6.275
 8119SOL    HW125256   5.230   5.857   6.273
 8119SOL    HW225257   5.121   5.784   6.369
 8120SOL     OW25258   2.242   6.462   2.779
 8120SOL    HW125259   2.152   6.496   2.804
 8120SOL    HW225260   2.305   6.539   2.766
 8121SOL     OW25261   1.963   2.419   2.539
 8121SOL    HW125262   1.933   2.339   2.487
 8121SOL    HW225263   1.884   2.461   2.582
 8122SOL     OW25264   0.760   4.721   1.300
 8122SOL    HW125265   0.825   4.770   1.242
 8122SOL    HW225266   0.806   4.689   1.383
 8123SOL     OW25267   6.943   2.115   6.574
 8123SOL    HW125268   6.969   2.031   6.525
 8123SOL    HW225269   6.844   2.114   6.590
 8124SOL     OW25270   6.345   6.459   5.573
 8124SOL    HW125271   6.419   6.521   5.600
 8124SOL    HW225272   6.375   6.365   5.584
 8125SOL     OW25273   0.715   5.554   1.661
 8125SOL    HW125274   0.696   5.473   1.717
 8125SOL    HW225275   0.628   5.598   1.637
 8126SOL     OW25276   3.165   5.486   4.875
 8126SOL    HW125277   3.116   5.485   4.963
 8126SOL    HW225278   3.215   5.573   4.866
 8127SOL     OW25279   3.930   1.824   6.307
 8127SOL    HW125280   3.923   1.856   6.402
 8127SOL    HW225281   3.919   1.725   6.304
 8128SOL     OW25282   3.285   3.346   1.181
 8128SOL    HW125283   3.374   3.320   1.220
 8128SOL    HW225284   3.254   3.275   1.118
 8129SOL     OW25285   0.481   2.493   3.338
 8129SOL    HW125286   0.482   2.399   3.306
 8129SOL    HW225287   0.566   2.513   3.387
 8130SOL     OW25288   6.632   6.385   6.804
 8130SOL    HW125289   6.721   6.414   6.767
 8130SOL    HW225290   6.579   6.465   6.830
 8131SOL     OW25291   1.487   2.298   0.909
 8131SOL    HW125292   1.474   2.205   0.941
 8131SOL    HW225293   1.537   2.297   0.822
 8132SOL     OW25294   6.432   1.665   4.749
 8132SOL    HW125295   6.413   1.619   4.836
 8132SOL    HW225296   6.353   1.656   4.689
 8133SOL     OW25297   3.762   5.380   1.359
 8133SOL    HW125298   3.759   5.288   1.398
 8133SOL    HW225299   3.695   5.438   1.405
 8134SOL     OW25300   5.809   2.477   5.916
 8134SOL    HW125301   5.898   2.454   5.876
 8134SOL    HW225302   5.780   2.403   5.977
 8135SOL     OW25303   2.158   6.476   1.955
 8135SOL    HW125304   2.255   6.488   1.975
 8135SOL    HW225305   2.108   6.457   2.040
 8136SOL     OW25306   4.615   4.604   2.129
 8136SOL    HW125307   4.533   4.611   2.072
 8136SOL    HW225308   4.685   4.552   2.080
 8137SOL     OW25309   4.692   1.557   6.065
 8137SOL    HW125310   4.658   1.570   6.158
 8137SOL    HW225311   4.786   1.592   6.058
 8138SOL     OW25312   5.279   1.147   2.019
 8138SOL    HW125313   5.185   1.118   2.002
 8138SOL    HW225314   5.299   1.143   2.117
 8139SOL     OW25315   0.729   1.404   3.848
 8139SOL    HW125316   0.630   1.407   3.864
 8139SOL    HW225317   0.773   1.481   3.895
 8140SOL     OW25318   5.267   2.788   3.037
 8140SOL    HW125319   5.248   2.740   3.123
 8140SOL    HW225320   5.238   2.884   3.045
 8141SOL     OW25321   6.111   3.639   3.984
 8141SOL    HW125322   6.156   3.691   3.911
 8141SOL    HW225323   6.146   3.668   4.073
 8142SOL     OW25324   0.048   6.590   0.056
 8142SOL    HW125325   0.029   6.494   0.079
 8142SOL    HW225326   0.037   6.603   6.982
 8143SOL     OW25327   6.485   2.840   5.443
 8143SOL    HW125328   6.433   2.829   5.359
 8143SOL    HW225329   6.533   2.928   5.442
 8144SOL     OW25330   5.056   6.243   6.835
 8144SOL    HW125331   5.110   6.327   6.844
 8144SOL    HW225332   5.101   6.169   6.887
 8145SOL     OW25333   4.494   6.333   3.539
 8145SOL    HW125334   4.441   6.357   3.457
 8145SOL    HW225335   4.545   6.249   3.521
 8146SOL     OW25336   3.520   1.798   4.466
 8146SOL    HW125337   3.519   1.889   4.505
 8146SOL    HW225338   3.474   1.734   4.528
 8147SOL     OW25339   5.605   1.109   3.338
 8147SOL    HW125340   5.638   1.202   3.350
 8147SOL    HW225341   5.626   1.055   3.420
 8148SOL     OW25342   0.188   4.142   2.855
 8148SOL    HW125343   0.155   4.212   2.792
 8148SOL    HW225344   0.287   4.148   2.862
 8149SOL     OW25345   3.510   5.406   3.922
 8149SOL    HW125346   3.570   5.466   3.867
 8149SOL    HW225347   3.423   5.453   3.939
 8150SOL     OW25348   0.994   6.383   0.984
 8150SOL    HW125349   1.021   6.460   1.042
 8150SOL    HW225350   1.075   6.344   0.940
 8151SOL     OW25351   0.428   1.385   4.615
 8151SOL    HW125352   0.335   1.387   4.580
 8151SOL    HW225353   0.430   1.420   4.708
 8152SOL     OW25354   0.710   0.570   3.485
 8152SOL    HW125355   0.792   0.621   3.511
 8152SOL    HW225356   0.668   0.530   3.566
 8153SOL     OW25357   2.058   6.657   0.208
 8153SOL    HW125358   2.137   6.695   0.159
 8153SOL    HW225359   2.036   6.715   0.286
 8154SOL     OW25360   2.175   6.731   3.159
 8154SOL    HW125361   2.248   6.799   3.161
 8154SOL    HW225362   2.132   6.726   3.250
 8155SOL     OW25363   3.027   3.584   4.679
 8155SOL    HW125364   3.121   3.602   4.650
 8155SOL    HW225365   2.976   3.670   4.684
 8156SOL     OW25366   6.955   0.315   5.553
 8156SOL    HW125367   6.955   0.415   5.550
 8156SOL    HW225368   6.969   0.279   5.460
 8157SOL     OW25369   5.847   1.929   6.623
 8157SOL    HW125370   5.853   1.833   6.649
 8157SOL    HW225371   5.872   1.987   6.701
 8158SOL     OW25372   1.115   5.314   2.344
 8158SOL    HW125373   1.036   5.374   2.346
 8158SOL    HW225374   1.147   5.304   2.249
 8159SOL     OW25375   0.370   5.667   0.994
 8159SOL    HW125376   0.446   5.724   1.027
 8159SOL    HW225377   0.399   5.617   0.913
 8160SOL     OW25378   4.415   1.978   1.786
 8160SOL    HW125379   4.429   2.001   1.882
 8160SOL    HW225380   4.349   1.903   1.779
 8161SOL     OW25381   4.093   2.922   1.317
 8161SOL    HW125382   4.023   2.854   1.341
 8161SOL    HW225383   4.086   2.945   1.220
 8162SOL     OW25384   5.930   0.749   1.731
 8162SOL    HW125385   5.873   0.668   1.744
 8162SOL    HW225386   5.879   0.817   1.678
 8163SOL     OW25387   1.993   3.373   5.457
 8163SOL    HW125388   2.070   3.382   5.394
 8163SOL    HW225389   1.937   3.456   5.453
 8164SOL     OW25390   4.596   3.597   1.603
 8164SOL    HW125391   4.618   3.682   1.555
 8164SOL    HW225392   4.680   3.553   1.634
 8165SOL     OW25393   1.952   4.688   1.713
 8165SOL    HW125394   1.863   4.672   1.755
 8165SOL    HW225395   1.962   4.786   1.693
 8166SOL     OW25396   3.960   6.823   1.374
 8166SOL    HW125397   3.864   6.800   1.390
 8166SOL    HW225398   3.999   6.759   1.307
 8167SOL     OW25399   5.418   2.653   4.514
 8167SOL    HW125400   5.328   2.675   4.552
 8167SOL    HW225401   5.453   2.569   4.556
 8168SOL     OW25402   2.514   2.027   2.689
 8168SOL    HW125403   2.486   2.080   2.609
 8168SOL    HW225404   2.592   1.969   2.666
 8169SOL     OW25405   5.426   3.988   5.037
 8169SOL    HW125406   5.351   3.924   5.022
 8169SOL    HW225407   5.402   4.052   5.110
 8170SOL     OW25408   1.667   5.088   3.847
 8170SOL    HW125409   1.627   5.159   3.906
 8170SOL    HW225410   1.719   5.132   3.773
 8171SOL     OW25411   1.590   1.026   6.625
 8171SOL    HW125412   1.542   1.033   6.713
 8171SOL    HW225413   1.539   0.965   6.564
 8172SOL     OW25414   0.224   6.001   1.150
 8172SOL    HW125415   0.264   5.909   1.156
 8172SOL    HW225416   0.243   6.050   1.235
 8173SOL     OW25417   5.910   3.316   0.414
 8173SOL    HW125418   5.820   3.290   0.380
 8173SOL    HW225419   5.900   3.388   0.482
 8174SOL     OW25420   5.415   6.376   2.545
 8174SOL    HW125421   5.364   6.294   2.518
 8174SOL    HW225422   5.421   6.439   2.468
 8175SOL     OW25423   1.906   2.361   4.033
 8175SOL    HW125424   1.827   2.304   4.053
 8175SOL    HW225425   1.875   2.453   4.007
 8176SOL     OW25426   3.932   5.923   3.455
 8176SOL    HW125427   3.893   5.853   3.396
 8176SOL    HW225428   3.981   5.880   3.531
 8177SOL     OW25429   1.588   6.330   6.146
 8177SOL    HW125430   1.611   6.269   6.070
 8177SOL    HW225431   1.512   6.292   6.198
 8178SOL     OW25432   2.421   6.545   5.828
 8178SOL    HW125433   2.453   6.488   5.903
 8178SOL    HW225434   2.481   6.625   5.818
 8179SOL     OW25435   3.940   0.303   0.115
 8179SOL    HW125436   3.952   0.399   0.092
 8179SOL    HW225437   3.956   0.247   0.034
 8180SOL     OW25438   5.138   4.446   5.266
 8180SOL    HW125439   5.048   4.401   5.260
 8180SOL    HW225440   5.151   4.504   5.186
 8181SOL     OW25441   2.694   2.378   2.350
 8181SOL    HW125442   2.661   2.419   2.265
 8181SOL    HW225443   2.633   2.402   2.425
 8182SOL     OW25444   5.354   2.875   6.087
 8182SOL    HW125445   5.328   2.914   6.176
 8182SOL    HW225446   5.338   2.942   6.015
 8183SOL     OW25447   2.222   2.989   3.338
 8183SOL    HW125448   2.319   3.010   3.323
 8183SOL    HW225449   2.187   2.939   3.258
 8184SOL     OW25450   6.094   5.990   4.497
 8184SOL    HW125451   6.083   6.048   4.578
 8184SOL    HW225452   6.018   6.006   4.434
 8185SOL     OW25453   1.477   2.338   3.247
 8185SOL    HW125454   1.556   2.396   3.226
 8185SOL    HW225455   1.419   2.384   3.314
 8186SOL     OW25456   4.311   3.929   6.619
 8186SOL    HW125457   4.284   3.956   6.711
 8186SOL    HW225458   4.251   3.973   6.552
 8187SOL     OW25459   2.028   1.930   5.911
 8187SOL    HW125460   2.114   1.879   5.904
 8187SOL    HW225461   2.004   1.968   5.822
 8188SOL     OW25462   4.839   2.860   2.375
 8188SOL    HW125463   4.824   2.763   2.354
 8188SOL    HW225464   4.824   2.875   2.473
 8189SOL     OW25465   6.758   4.991   2.861
 8189SOL    HW125466   6.706   5.069   2.897
 8189SOL    HW225467   6.854   5.002   2.886
 8190SOL     OW25468   6.345   3.439   2.423
 8190SOL    HW125469   6.334   3.538   2.409
 8190SOL    HW225470   6.412   3.423   2.495
 8191SOL     OW25471   6.061   5.060   1.516
 8191SOL    HW125472   6.020   5.118   1.586
 8191SOL    HW225473   6.025   4.967   1.523
 8192SOL     OW25474   1.276   2.516   0.942
 8192SOL    HW125475   1.247   2.548   0.852
 8192SOL    HW225476   1.345   2.445   0.931
 8193SOL     OW25477   3.888   6.686   5.452
 8193SOL    HW125478   3.808   6.729   5.493
 8193SOL    HW225479   3.956   6.755   5.428
 8194SOL     OW25480   2.094   1.022   2.728
 8194SOL    HW125481   2.009   1.049   2.683
 8194SOL    HW225482   2.090   1.046   2.825
 8195SOL     OW25483   5.584   1.499   1.729
 8195SOL    HW125484   5.496   1.499   1.682
 8195SOL    HW225485   5.586   1.573   1.797
 8196SOL     OW25486   1.589   1.052   0.578
 8196SOL    HW125487   1.538   0.972   0.610
 8196SOL    HW225488   1.545   1.135   0.613
 8197SOL     OW25489   0.730   6.968   0.901
 8197SOL    HW125490   0.663   6.896   0.885
 8197SOL    HW225491   0.685   0.033   0.900
 8198SOL     OW25492   3.494   0.531   2.979
 8198SOL    HW125493   3.504   0.470   3.058
 8198SOL    HW225494   3.573   0.592   2.975
 8199SOL     OW25495   5.577   4.647   1.182
 8199SOL    HW125496   5.577   4.583   1.104
 8199SOL    HW225497   5.624   4.604   1.259
 8200SOL     OW25498   4.191   3.456   1.889
 8200SOL    HW125499   4.266   3.418   1.835
 8200SOL    HW225500   4.202   3.554   1.898
 8201SOL     OW25501   0.784   1.335   5.322
 8201SOL    HW125502   0.865   1.360   5.270
 8201SOL    HW225503   0.702   1.355   5.268
 8202SOL     OW25504   1.867   3.485   4.727
 8202SOL    HW125505   1.948   3.522   4.773
 8202SOL    HW225506   1.873   3.504   4.629
 8203SOL     OW25507   6.162   4.454   6.709
 8203SOL    HW125508   6.199   4.367   6.676
 8203SOL    HW225509   6.233   4.524   6.708
 8204SOL     OW25510   3.593   0.253   0.566
 8204SOL    HW125511   3.526   0.287   0.499
 8204SOL    HW225512   3.616   0.158   0.545
 8205SOL     OW25513   4.471   6.546   3.316
 8205SOL    HW125514   4.414   6.576   3.240
 8205SOL    HW225515   4.559   6.513   3.282
 8206SOL     OW25516   3.601   1.872   4.950
 8206SOL    HW125517   3.624   1.776   4.933
 8206SOL    HW225518   3.668   1.911   5.014
 8207SOL     OW25519   3.013   6.024   6.811
 8207SOL    HW125520   3.025   6.031   6.712
 8207SOL    HW225521   2.946   6.093   6.841
 8208SOL     OW25522   2.142   5.970   0.319
 8208SOL    HW125523   2.189   5.895   0.273
 8208SOL    HW225524   2.201   6.006   0.392
 8209SOL     OW25525   0.604   5.289   5.656
 8209SOL    HW125526   0.633   5.280   5.561
 8209SOL    HW225527   0.620   5.383   5.687
 8210SOL     OW25528   2.418   1.219   0.586
 8210SOL    HW125529   2.393   1.193   0.493
 8210SOL    HW225530   2.478   1.149   0.625
 8211SOL     OW25531   3.407   4.142   3.456
 8211SOL    HW125532   3.501   4.163   3.479
 8211SOL    HW225533   3.350   4.145   3.538
 8212SOL     OW25534   4.363   4.966   6.669
 8212SOL    HW125535   4.430   4.893   6.679
 8212SOL    HW225536   4.335   4.999   6.759
 8213SOL     OW25537   4.713   4.201   1.671
 8213SOL    HW125538   4.640   4.173   1.734
 8213SOL    HW225539   4.719   4.300   1.669
 8214SOL     OW25540   3.998   5.510   3.633
 8214SOL    HW125541   4.001   5.425   3.580
 8214SOL    HW225542   3.902   5.537   3.648
 8215SOL     OW25543   2.741   6.269   6.373
 8215SOL    HW125544   2.682   6.299   6.448
 8215SOL    HW225545   2.751   6.169   6.377
 8216SOL     OW25546   5.062   5.578   0.806
 8216SOL    HW125547   5.002   5.504   0.775
 8216SOL    HW225548   5.072   5.574   0.905
 8217SOL     OW25549   3.443   6.598   3.590
 8217SOL    HW125550   3.362   6.563   3.638
 8217SOL    HW225551   3.450   6.696   3.606
 8218SOL     OW25552   1.906   6.613   4.060
 8218SOL    HW125553   1.886   6.679   3.988
 8218SOL    HW225554   1.827   6.553   4.074
 8219SOL     OW25555   3.564   3.468   3.203
 8219SOL    HW125556   3.495   3.398   3.223
 8219SOL    HW225557   3.655   3.430   3.216
 8220SOL     OW25558   4.442   4.246   5.626
 8220SOL    HW125559   4.349   4.263   5.658
 8220SOL    HW225560   4.448   4.267   5.528
 8221SOL     OW25561   6.620   3.735   4.124
 8221SOL    HW125562   6.586   3.750   4.031
 8221SOL    HW225563   6.714   3.770   4.132
 8222SOL     OW25564   5.731   2.324   6.160
 8222SOL    HW125565   5.737   2.232   6.198
 8222SOL    HW225566   5.742   2.391   6.233
 8223SOL     OW25567   1.202   6.210   5.701
 8223SOL    HW125568   1.150   6.138   5.655
 8223SOL    HW225569   1.226   6.181   5.793
 8224SOL     OW25570   5.829   1.041   6.058
 8224SOL    HW125571   5.743   0.994   6.035
 8224SOL    HW225572   5.810   1.137   6.077
 8225SOL     OW25573   5.996   2.675   7.017
 8225SOL    HW125574   6.017   2.701   6.923
 8225SOL    HW225575   6.051   2.596   0.019
 8226SOL     OW25576   3.889   1.169   6.964
 8226SOL    HW125577   3.984   1.138   6.961
 8226SOL    HW225578   3.829   1.090   6.978
 8227SOL     OW25579   4.864   3.514   2.577
 8227SOL    HW125580   4.861   3.420   2.543
 8227SOL    HW225581   4.844   3.514   2.675
 8228SOL     OW25582   3.222   1.254   4.784
 8228SOL    HW125583   3.153   1.182   4.786
 8228SOL    HW225584   3.197   1.323   4.715
 8229SOL     OW25585   4.249   4.821   1.017
 8229SOL    HW125586   4.218   4.902   0.967
 8229SOL    HW225587   4.265   4.746   0.952
 8230SOL     OW25588   6.250   0.803   6.103
 8230SOL    HW125589   6.154   0.829   6.093
 8230SOL    HW225590   6.306   0.857   6.040
 8231SOL     OW25591   3.355   1.589   2.268
 8231SOL    HW125592   3.315   1.573   2.178
 8231SOL    HW225593   3.374   1.687   2.279
 8232SOL     OW25594   4.110   6.571   3.572
 8232SOL    HW125595   4.048   6.493   3.566
 8232SOL    HW225596   4.181   6.553   3.640
 8233SOL     OW25597   2.456   1.414   6.347
 8233SOL    HW125598   2.397   1.453   6.417
 8233SOL    HW225599   2.408   1.416   6.259
 8234SOL     OW25600   1.243   2.685   6.881
 8234SOL    HW125601   1.312   2.719   6.817
 8234SOL    HW225602   1.210   2.761   6.938
 8235SOL     OW25603   0.539   6.677   1.564
 8235SOL    HW125604   0.481   6.595   1.569
 8235SOL    HW225605   0.623   6.661   1.616
 8236SOL     OW25606   0.956   0.211   1.094
 8236SOL    HW125607   1.007   0.201   1.008
 8236SOL    HW225608   0.974   0.131   1.152
 8237SOL     OW25609   4.106   5.107   5.343
 8237SOL    HW125610   4.037   5.165   5.299
 8237SOL    HW225611   4.149   5.158   5.418
 8238SOL     OW25612   6.688   5.203   0.250
 8238SOL    HW125613   6.734   5.252   0.176
 8238SOL    HW225614   6.705   5.249   0.337
 8239SOL     OW25615   4.950   2.138   5.013
 8239SOL    HW125616   4.962   2.058   4.956
 8239SOL    HW225617   4.985   2.219   4.965
 8240SOL     OW25618   3.459   3.579   5.037
 8240SOL    HW125619   3.511   3.576   5.123
 8240SOL    HW225620   3.408   3.665   5.032
 8241SOL     OW25621   1.248   3.032   5.381
 8241SOL    HW125622   1.216   2.984   5.300
 8241SOL    HW225623   1.336   2.995   5.410
 8242SOL     OW25624   0.381   2.796   3.367
 8242SOL    HW125625   0.361   2.862   3.294
 8242SOL    HW225626   0.355   2.705   3.337
 8243SOL     OW25627   1.359   6.268   3.433
 8243SOL    HW125628   1.401   6.265   3.524
 8243SOL    HW225629   1.290   6.340   3.431
 8244SOL     OW25630   5.652   1.164   3.815
 8244SOL    HW125631   5.749   1.169   3.788
 8244SOL    HW225632   5.608   1.091   3.763
 8245SOL     OW25633   5.404   3.394   2.076
 8245SOL    HW125634   5.343   3.334   2.129
 8245SOL    HW225635   5.354   3.434   2.000
 8246SOL     OW25636   1.952   4.457   6.452
 8246SOL    HW125637   1.937   4.489   6.359
 8246SOL    HW225638   1.904   4.516   6.516
 8247SOL     OW25639   2.389   4.817   3.697
 8247SOL    HW125640   2.399   4.738   3.758
 8247SOL    HW225641   2.405   4.901   3.748
 8248SOL     OW25642   6.910   6.205   2.779
 8248SOL    HW125643   7.007   6.194   2.803
 8248SOL    HW225644   6.854   6.156   2.846
 8249SOL     OW25645   2.785   0.677   6.088
 8249SOL    HW125646   2.769   0.756   6.147
 8249SOL    HW225647   2.858   0.621   6.126
 8250SOL     OW25648   1.333   1.717   0.169
 8250SOL    HW125649   1.433   1.722   0.163
 8250SOL    HW225650   1.301   1.775   0.244
 8251SOL     OW25651   1.349   2.260   6.147
 8251SOL    HW125652   1.250   2.262   6.137
 8251SOL    HW225653   1.390   2.327   6.086
 8252SOL     OW25654   0.525   2.052   6.799
 8252SOL    HW125655   0.469   2.115   6.854
 8252SOL    HW225656   0.610   2.097   6.773
 8253SOL     OW25657   6.090   4.615   6.154
 8253SOL    HW125658   6.172   4.590   6.101
 8253SOL    HW225659   6.030   4.671   6.097
 8254SOL     OW25660   5.390   4.871   6.676
 8254SOL    HW125661   5.342   4.959   6.679
 8254SOL    HW225662   5.483   4.884   6.643
 8255SOL     OW25663   1.529   0.009   5.826
 8255SOL    HW125664   1.470   0.087   5.846
 8255SOL    HW225665   1.615   0.020   5.875
 8256SOL     OW25666   1.401   5.634   2.904
 8256SOL    HW125667   1.329   5.606   2.840
 8256SOL    HW225668   1.473   5.682   2.854
 8257SOL     OW25669   4.857   3.889   3.811
 8257SOL    HW125670   4.869   3.794   3.837
 8257SOL    HW225671   4.939   3.923   3.765
 8258SOL     OW25672   0.596   3.851   3.963
 8258SOL    HW125673   0.662   3.856   4.038
 8258SOL    HW225674   0.506   3.826   3.999
 8259SOL     OW25675   5.492   2.799   4.019
 8259SOL    HW125676   5.409   2.853   4.032
 8259SOL    HW225677   5.571   2.860   4.012
 8260SOL     OW25678   4.744   2.101   6.677
 8260SOL    HW125679   4.728   2.007   6.648
 8260SOL    HW225680   4.659   2.140   6.713
 8261SOL     OW25681   5.735   2.035   2.853
 8261SOL    HW125682   5.697   2.121   2.820
 8261SOL    HW225683   5.778   2.049   2.942
 8262SOL     OW25684   4.876   3.741   1.915
 8262SOL    HW125685   4.821   3.682   1.855
 8262SOL    HW225686   4.824   3.825   1.935
 8263SOL     OW25687   6.246   1.536   6.888
 8263SOL    HW125688   6.189   1.587   6.952
 8263SOL    HW225689   6.187   1.485   6.825
 8264SOL     OW25690   3.056   0.894   1.657
 8264SOL    HW125691   3.027   0.915   1.751
 8264SOL    HW225692   3.036   0.972   1.598
 8265SOL     OW25693   4.475   5.702   0.357
 8265SOL    HW125694   4.492   5.778   0.294
 8265SOL    HW225695   4.457   5.619   0.304
 8266SOL     OW25696   4.544   2.217   3.279
 8266SOL    HW125697   4.456   2.265   3.271
 8266SOL    HW225698   4.579   2.227   3.372
 8267SOL     OW25699   1.951   3.067   3.190
 8267SOL    HW125700   2.024   3.115   3.141
 8267SOL    HW225701   1.880   3.133   3.216
 8268SOL     OW25702   2.813   5.192   1.555
 8268SOL    HW125703   2.908   5.177   1.581
 8268SOL    HW225704   2.769   5.251   1.622
 8269SOL     OW25705   6.701   1.286   4.377
 8269SOL    HW125706   6.642   1.251   4.304
 8269SOL    HW225707   6.797   1.262   4.357
 8270SOL     OW25708   3.532   4.438   0.242
 8270SOL    HW125709   3.455   4.500   0.261
 8270SOL    HW225710   3.548   4.435   0.143
 8271SOL     OW25711   3.284   6.922   5.298
 8271SOL    HW125712   3.197   6.926   5.248
 8271SOL    HW225713   3.266   6.911   5.396
 8272SOL     OW25714   0.881   0.611   2.096
 8272SOL    HW125715   0.903   0.607   1.999
 8272SOL    HW225716   0.942   0.676   2.141
 8273SOL     OW25717   4.590   6.740   5.996
 8273SOL    HW125718   4.687   6.760   6.002
 8273SOL    HW225719   4.543   6.782   6.074
 8274SOL     OW25720   5.493   6.653   3.895
 8274SOL    HW125721   5.499   6.742   3.849
 8274SOL    HW225722   5.408   6.648   3.948
 8275SOL     OW25723   4.686   0.917   4.710
 8275SOL    HW125724   4.614   0.920   4.779
 8275SOL    HW225725   4.670   0.841   4.648
 8276SOL     OW25726   5.740   2.606   0.960
 8276SOL    HW125727   5.805   2.641   0.893
 8276SOL    HW225728   5.790   2.579   1.043
 8277SOL     OW25729   1.524   0.112   1.515
 8277SOL    HW125730   1.566   0.059   1.589
 8277SOL    HW225731   1.436   0.149   1.545
 8278SOL     OW25732   1.542   0.686   1.141
 8278SOL    HW125733   1.579   0.593   1.136
 8278SOL    HW225734   1.561   0.734   1.055
 8279SOL     OW25735   5.786   5.184   5.621
 8279SOL    HW125736   5.873   5.135   5.616
 8279SOL    HW225737   5.748   5.177   5.713
 8280SOL     OW25738   6.013   3.968   0.064
 8280SOL    HW125739   5.982   3.947   6.995
 8280SOL    HW225740   6.095   3.915   0.085
 8281SOL     OW25741   3.204   4.893   6.488
 8281SOL    HW125742   3.237   4.987   6.485
 8281SOL    HW225743   3.274   4.835   6.531
 8282SOL     OW25744   4.082   2.988   1.041
 8282SOL    HW125745   3.996   2.997   0.991
 8282SOL    HW225746   4.138   3.070   1.027
 8283SOL     OW25747   0.782   1.074   3.244
 8283SOL    HW125748   0.856   1.009   3.229
 8283SOL    HW225749   0.695   1.025   3.246
 8284SOL     OW25750   5.131   2.068   1.908
 8284SOL    HW125751   5.079   2.051   1.992
 8284SOL    HW225752   5.227   2.085   1.930
 8285SOL     OW25753   0.493   4.739   0.331
 8285SOL    HW125754   0.554   4.695   0.396
 8285SOL    HW225755   0.418   4.677   0.308
 8286SOL     OW25756   6.759   1.840   6.657
 8286SOL    HW125757   6.813   1.866   6.576
 8286SOL    HW225758   6.703   1.760   6.635
 8287SOL     OW25759   0.385   0.434   3.610
 8287SOL    HW125760   0.296   0.402   3.643
 8287SOL    HW225761   0.419   0.370   3.540
 8288SOL     OW25762   2.926   0.159   2.352
 8288SOL    HW125763   3.009   0.169   2.297
 8288SOL    HW225764   2.945   0.097   2.429
 8289SOL     OW25765   5.996   6.920   0.290
 8289SOL    HW125766   5.971   6.889   0.382
 8289SOL    HW225767   6.041   6.845   0.241
 8290SOL     OW25768   5.058   2.745   1.999
 8290SOL    HW125769   5.065   2.648   2.021
 8290SOL    HW225770   4.977   2.783   2.043
 8291SOL     OW25771   5.249   5.788   5.611
 8291SOL    HW125772   5.156   5.753   5.615
 8291SOL    HW225773   5.289   5.789   5.703
 8292SOL     OW25774   6.754   3.821   5.369
 8292SOL    HW125775   6.851   3.822   5.346
 8292SOL    HW225776   6.741   3.788   5.462
 8293SOL     OW25777   2.787   5.541   4.164
 8293SOL    HW125778   2.782   5.574   4.258
 8293SOL    HW225779   2.817   5.615   4.104
 8294SOL     OW25780   0.011   3.389   6.263
 8294SOL    HW125781   0.080   3.360   6.196
 8294SOL    HW225782   0.047   3.465   6.317
 8295SOL     OW25783   4.183   5.275   2.075
 8295SOL    HW125784   4.123   5.351   2.050
 8295SOL    HW225785   4.131   5.206   2.126
 8296SOL     OW25786   3.918   0.223   2.448
 8296SOL    HW125787   4.017   0.215   2.447
 8296SOL    HW225788   3.885   0.243   2.356
 8297SOL     OW25789   5.509   4.141   1.826
 8297SOL    HW125790   5.602   4.168   1.804
 8297SOL    HW225791   5.445   4.187   1.765
 8298SOL     OW25792   7.021   6.844   0.917
 8298SOL    HW125793   0.011   6.877   1.010
 8298SOL    HW225794   7.015   6.922   0.854
 8299SOL     OW25795   1.074   2.890   6.370
 8299SOL    HW125796   1.102   2.868   6.464
 8299SOL    HW225797   1.096   2.814   6.310
 8300SOL     OW25798   5.206   5.637   3.898
 8300SOL    HW125799   5.246   5.708   3.840
 8300SOL    HW225800   5.269   5.560   3.904
 8301SOL     OW25801   6.622   5.666   0.324
 8301SOL    HW125802   6.548   5.621   0.374
 8301SOL    HW225803   6.668   5.731   0.384
 8302SOL     OW25804   3.812   6.659   5.888
 8302SOL    HW125805   3.764   6.747   5.897
 8302SOL    HW225806   3.745   6.586   5.876
 8303SOL     OW25807   1.304   5.156   3.800
 8303SOL    HW125808   1.398   5.184   3.779
 8303SOL    HW225809   1.246   5.237   3.803
 8304SOL     OW25810   5.613   2.837   3.640
 8304SOL    HW125811   5.587   2.925   3.680
 8304SOL    HW225812   5.532   2.779   3.630
 8305SOL     OW25813   4.708   6.929   5.499
 8305SOL    HW125814   4.627   6.963   5.451
 8305SOL    HW225815   4.682   6.897   5.590
 8306SOL     OW25816   4.963   1.014   4.065
 8306SOL    HW125817   5.038   1.078   4.083
 8306SOL    HW225818   4.913   1.044   3.984
 8307SOL     OW25819   0.119   4.969   4.143
 8307SOL    HW125820   0.133   4.889   4.085
 8307SOL    HW225821   0.041   4.953   4.204
 8308SOL     OW25822   1.915   5.201   0.285
 8308SOL    HW125823   1.827   5.248   0.296
 8308SOL    HW225824   1.976   5.226   0.359
 8309SOL     OW25825   6.415   4.578   2.594
 8309SOL    HW125826   6.342   4.632   2.636
 8309SOL    HW225827   6.414   4.486   2.632
 8310SOL     OW25828   2.075   6.395   3.103
 8310SOL    HW125829   2.132   6.449   3.165
 8310SOL    HW225830   2.133   6.337   3.046
 8311SOL     OW25831   4.927   6.132   1.708
 8311SOL    HW125832   4.982   6.049   1.710
 8311SOL    HW225833   4.837   6.113   1.668
 8312SOL     OW25834   6.377   1.550   0.582
 8312SOL    HW125835   6.425   1.502   0.655
 8312SOL    HW225836   6.392   1.503   0.495
 8313SOL     OW25837   4.746   2.643   6.151
 8313SOL    HW125838   4.831   2.603   6.184
 8313SOL    HW225839   4.686   2.571   6.116
 8314SOL     OW25840   4.673   5.541   4.081
 8314SOL    HW125841   4.723   5.469   4.034
 8314SOL    HW225842   4.709   5.631   4.054
 8315SOL     OW25843   2.986   2.581   6.671
 8315SOL    HW125844   2.950   2.512   6.608
 8315SOL    HW225845   3.084   2.593   6.656
 8316SOL     OW25846   1.736   1.332   4.640
 8316SOL    HW125847   1.774   1.394   4.572
 8316SOL    HW225848   1.638   1.322   4.627
 8317SOL     OW25849   1.351   1.875   5.897
 8317SOL    HW125850   1.251   1.867   5.891
 8317SOL    HW225851   1.387   1.911   5.811
 8318SOL     OW25852   4.576   6.597   5.291
 8318SOL    HW125853   4.563   6.647   5.206
 8318SOL    HW225854   4.674   6.594   5.314
 8319SOL     OW25855   2.661   5.808   6.865
 8319SOL    HW125856   2.579   5.766   6.826
 8319SOL    HW225857   2.636   5.892   6.913
 8320SOL     OW25858   3.895   5.036   5.840
 8320SOL    HW125859   3.853   5.084   5.762
 8320SOL    HW225860   3.988   5.010   5.816
 8321SOL     OW25861   0.533   0.624   0.984
 8321SOL    HW125862   0.533   0.660   0.891
 8321SOL    HW225863   0.628   0.616   1.016
 8322SOL     OW25864   1.829   1.067   1.318
 8322SOL    HW125865   1.875   1.016   1.391
 8322SOL    HW225866   1.898   1.104   1.256
 8323SOL     OW25867   5.703   4.975   0.084
 8323SOL    HW125868   5.738   5.046   0.022
 8323SOL    HW225869   5.761   4.970   0.165
 8324SOL     OW25870   5.593   6.532   6.165
 8324SOL    HW125871   5.660   6.537   6.239
 8324SOL    HW225872   5.552   6.622   6.151
 8325SOL     OW25873   1.429   6.617   4.801
 8325SOL    HW125874   1.350   6.658   4.754
 8325SOL    HW225875   1.427   6.518   4.790
 8326SOL     OW25876   2.372   1.947   6.764
 8326SOL    HW125877   2.348   1.850   6.770
 8326SOL    HW225878   2.293   1.998   6.728
 8327SOL     OW25879   0.829   6.317   4.977
 8327SOL    HW125880   0.818   6.341   5.074
 8327SOL    HW225881   0.774   6.380   4.922
 8328SOL     OW25882   1.309   6.655   0.936
 8328SOL    HW125883   1.368   6.580   0.965
 8328SOL    HW225884   1.357   6.742   0.950
 8329SOL     OW25885   1.562   2.329   5.022
 8329SOL    HW125886   1.591   2.357   4.931
 8329SOL    HW225887   1.643   2.319   5.081
 8330SOL     OW25888   3.232   0.135   0.068
 8330SOL    HW125889   3.175   0.138   0.150
 8330SOL    HW225890   3.323   0.102   0.092
 8331SOL     OW25891   2.138   2.415   6.269
 8331SOL    HW125892   2.109   2.443   6.361
 8331SOL    HW225893   2.185   2.492   6.225
 8332SOL     OW25894   5.468   3.752   1.129
 8332SOL    HW125895   5.455   3.849   1.111
 8332SOL    HW225896   5.459   3.735   1.227
 8333SOL     OW25897   3.132   4.437   6.466
 8333SOL    HW125898   3.129   4.450   6.367
 8333SOL    HW225899   3.039   4.433   6.502
 8334SOL     OW25900   3.478   2.464   5.423
 8334SOL    HW125901   3.446   2.400   5.352
 8334SOL    HW225902   3.513   2.547   5.379
 8335SOL     OW25903   5.439   3.740   6.121
 8335SOL    HW125904   5.487   3.656   6.148
 8335SOL    HW225905   5.506   3.810   6.097
 8336SOL     OW25906   1.021   4.449   3.561
 8336SOL    HW125907   1.102   4.460   3.618
 8336SOL    HW225908   1.002   4.351   3.549
 8337SOL     OW25909   6.504   0.747   4.193
 8337SOL    HW125910   6.412   0.719   4.166
 8337SOL    HW225911   6.532   0.696   4.275
 8338SOL     OW25912   2.385   5.911   1.038
 8338SOL    HW125913   2.302   5.905   1.093
 8338SOL    HW225914   2.395   6.005   1.004
 8339SOL     OW25915   6.594   0.614   2.003
 8339SOL    HW125916   6.514   0.594   1.945
 8339SOL    HW225917   6.567   0.610   2.099
 8340SOL     OW25918   6.085   2.423   6.799
 8340SOL    HW125919   6.075   2.350   6.866
 8340SOL    HW225920   6.182   2.449   6.793
 8341SOL     OW25921   3.521   0.336   1.152
 8341SOL    HW125922   3.537   0.373   1.243
 8341SOL    HW225923   3.514   0.411   1.086
 8342SOL     OW25924   4.708   1.367   0.904
 8342SOL    HW125925   4.798   1.325   0.896
 8342SOL    HW225926   4.641   1.313   0.853
 8343SOL     OW25927   5.033   5.669   2.842
 8343SOL    HW125928   5.110   5.606   2.852
 8343SOL    HW225929   4.993   5.687   2.932
 8344SOL     OW25930   2.505   4.668   6.104
 8344SOL    HW125931   2.480   4.659   6.007
 8344SOL    HW225932   2.470   4.590   6.155
 8345SOL     OW25933   6.226   0.314   3.855
 8345SOL    HW125934   6.129   0.325   3.877
 8345SOL    HW225935   6.238   0.318   3.756
 8346SOL     OW25936   5.807   3.925   3.742
 8346SOL    HW125937   5.889   3.937   3.799
 8346SOL    HW225938   5.726   3.928   3.801
 8347SOL     OW25939   1.340   1.941   6.408
 8347SOL    HW125940   1.317   1.868   6.344
 8347SOL    HW225941   1.388   1.902   6.487
 8348SOL     OW25942   3.298   5.829   1.062
 8348SOL    HW125943   3.336   5.919   1.084
 8348SOL    HW225944   3.357   5.784   0.995
 8349SOL     OW25945   4.568   5.598   1.431
 8349SOL    HW125946   4.621   5.525   1.388
 8349SOL    HW225947   4.565   5.583   1.530
 8350SOL     OW25948   1.858   0.454   6.946
 8350SOL    HW125949   1.917   0.376   6.965
 8350SOL    HW225950   1.781   0.426   6.889
 8351SOL     OW25951   0.051   2.965   3.129
 8351SOL    HW125952   0.066   2.913   3.213
 8351SOL    HW225953   0.133   2.961   3.072
 8352SOL     OW25954   2.879   6.528   6.371
 8352SOL    HW125955   2.856   6.433   6.351
 8352SOL    HW225956   2.896   6.538   6.469
 8353SOL     OW25957   0.514   5.740   2.732
 8353SOL    HW125958   0.582   5.671   2.758
 8353SOL    HW225959   0.437   5.694   2.687
 8354SOL     OW25960   4.602   2.261   3.531
 8354SOL    HW125961   4.686   2.310   3.555
 8354SOL    HW225962   4.593   2.181   3.591
 8355SOL     OW25963   3.094   5.364   6.285
 8355SOL    HW125964   3.055   5.292   6.227
 8355SOL    HW225965   3.193   5.356   6.285
 8356SOL     OW25966   2.765   3.865   1.234
 8356SOL    HW125967   2.805   3.798   1.171
 8356SOL    HW225968   2.713   3.818   1.304
 8357SOL     OW25969   2.833   6.724   4.861
 8357SOL    HW125970   2.815   6.685   4.951
 8357SOL    HW225971   2.917   6.684   4.823
 8358SOL     OW25972   0.161   0.132   4.872
 8358SOL    HW125973   0.183   0.229   4.882
 8358SOL    HW225974   0.235   0.086   4.823
 8359SOL     OW25975   5.167   1.710   5.273
 8359SOL    HW125976   5.194   1.771   5.348
 8359SOL    HW225977   5.224   1.728   5.193
 8360SOL     OW25978   3.390   0.020   2.029
 8360SOL    HW125979   3.420   0.058   2.117
 8360SOL    HW225980   3.360   6.950   2.043
 8361SOL     OW25981   5.107   1.117   0.328
 8361SOL    HW125982   5.030   1.177   0.351
 8361SOL    HW225983   5.084   1.023   0.350
 8362SOL     OW25984   0.782   4.258   1.340
 8362SOL    HW125985   0.751   4.333   1.399
 8362SOL    HW225986   0.831   4.295   1.261
 8363SOL     OW25987   1.662   2.221   1.633
 8363SOL    HW125988   1.754   2.258   1.642
 8363SOL    HW225989   1.666   2.128   1.596
 8364SOL     OW25990   0.245   1.701   3.789
 8364SOL    HW125991   0.236   1.675   3.885
 8364SOL    HW225992   0.278   1.624   3.736
 8365SOL     OW25993   1.875   2.418   1.388
 8365SOL    HW125994   1.792   2.368   1.411
 8365SOL    HW225995   1.955   2.363   1.415
 8366SOL     OW25996   5.259   5.836   1.948
 8366SOL    HW125997   5.191   5.772   1.983
 8366SOL    HW225998   5.243   5.926   1.987
 8367SOL     OW25999   1.862   4.072   3.457
 8367SOL    HW126000   1.865   4.170   3.477
 8367SOL    HW226001   1.937   4.048   3.397
 8368SOL     OW26002   6.921   3.863   5.938
 8368SOL    HW126003   6.921   3.764   5.919
 8368SOL    HW226004   6.894   3.912   5.855
 8369SOL     OW26005   1.380   0.260   7.010
 8369SOL    HW126006   1.455   0.251   0.051
 8369SOL    HW226007   1.394   0.197   6.934
 8370SOL     OW26008   3.025   3.179   0.340
 8370SOL    HW126009   3.015   3.109   0.270
 8370SOL    HW226010   3.027   3.136   0.430
 8371SOL     OW26011   2.946   4.047   5.865
 8371SOL    HW126012   3.029   4.100   5.852
 8371SOL    HW226013   2.963   3.976   5.933
 8372SOL     OW26014   1.367   0.238   1.998
 8372SOL    HW126015   1.292   0.300   1.978
 8372SOL    HW226016   1.435   0.242   1.925
 8373SOL     OW26017   5.210   1.199   3.995
 8373SOL    HW126018   5.305   1.212   4.022
 8373SOL    HW226019   5.207   1.147   3.909
 8374SOL     OW26020   0.970   1.775   3.431
 8374SOL    HW126021   1.063   1.810   3.441
 8374SOL    HW226022   0.932   1.753   3.521
 8375SOL     OW26023   1.397   2.476   5.168
 8375SOL    HW126024   1.436   2.428   5.090
 8375SOL    HW226025   1.381   2.412   5.243
 8376SOL     OW26026   0.891   2.069   4.231
 8376SOL    HW126027   0.808   2.063   4.176
 8376SOL    HW226028   0.875   2.130   4.308
 8377SOL     OW26029   3.279   5.508   1.317
 8377SOL    HW126030   3.205   5.441   1.303
 8377SOL    HW226031   3.351   5.492   1.250
 8378SOL     OW26032   4.003   5.190   4.766
 8378SOL    HW126033   4.087   5.208   4.716
 8378SOL    HW226034   3.952   5.275   4.778
 8379SOL     OW26035   6.123   2.527   2.186
 8379SOL    HW126036   6.191   2.554   2.118
 8379SOL    HW226037   6.055   2.600   2.195
 8380SOL     OW26038   1.224   5.872   2.216
 8380SOL    HW126039   1.229   5.871   2.117
 8380SOL    HW226040   1.178   5.955   2.247
 8381SOL     OW26041   1.280   2.404   2.650
 8381SOL    HW126042   1.361   2.346   2.642
 8381SOL    HW226043   1.298   2.493   2.607
 8382SOL     OW26044   0.945   6.418   1.649
 8382SOL    HW126045   0.923   6.344   1.585
 8382SOL    HW226046   1.006   6.382   1.720
 8383SOL     OW26047   2.413   6.877   5.611
 8383SOL    HW126048   2.482   6.946   5.592
 8383SOL    HW226049   2.335   6.919   5.657
 8384SOL     OW26050   0.214   3.381   3.404
 8384SOL    HW126051   0.230   3.284   3.390
 8384SOL    HW226052   0.138   3.411   3.345
 8385SOL     OW26053   4.455   2.291   1.994
 8385SOL    HW126054   4.452   2.359   2.068
 8385SOL    HW226055   4.478   2.336   1.908
 8386SOL     OW26056   0.226   5.525   1.609
 8386SOL    HW126057   0.226   5.431   1.577
 8386SOL    HW226058   0.132   5.556   1.623
 8387SOL     OW26059   0.571   2.014   3.627
 8387SOL    HW126060   0.658   2.033   3.673
 8387SOL    HW226061   0.588   1.966   3.541
 8388SOL     OW26062   3.788   5.398   1.802
 8388SOL    HW126063   3.724   5.323   1.788
 8388SOL    HW226064   3.815   5.402   1.898
 8389SOL     OW26065   1.121   2.791   4.040
 8389SOL    HW126066   1.167   2.732   3.973
 8389SOL    HW226067   1.176   2.795   4.123
 8390SOL     OW26068   2.846   0.451   6.237
 8390SOL    HW126069   2.897   0.365   6.233
 8390SOL    HW226070   2.762   0.438   6.291
 8391SOL     OW26071   4.554   6.098   1.029
 8391SOL    HW126072   4.496   6.110   0.948
 8391SOL    HW226073   4.500   6.115   1.111
 8392SOL     OW26074   4.108   5.499   0.540
 8392SOL    HW126075   4.138   5.564   0.470
 8392SOL    HW226076   4.184   5.440   0.565
 8393SOL     OW26077   0.896   5.647   1.861
 8393SOL    HW126078   0.879   5.745   1.860
 8393SOL    HW226079   0.867   5.607   1.775
 8394SOL     OW26080   1.612   1.141   3.608
 8394SOL    HW126081   1.572   1.157   3.698
 8394SOL    HW226082   1.545   1.166   3.537
 8395SOL     OW26083   1.746   6.013   6.255
 8395SOL    HW126084   1.663   6.002   6.200
 8395SOL    HW226085   1.798   6.091   6.222
 8396SOL     OW26086   4.204   2.535   0.825
 8396SOL    HW126087   4.196   2.635   0.822
 8396SOL    HW226088   4.292   2.510   0.866
 8397SOL     OW26089   1.240   4.564   3.289
 8397SOL    HW126090   1.141   4.571   3.297
 8397SOL    HW226091   1.284   4.614   3.364
 8398SOL     OW26092   5.810   1.671   6.726
 8398SOL    HW126093   5.791   1.582   6.684
 8398SOL    HW226094   5.746   1.687   6.801
 8399SOL     OW26095   5.540   6.426   5.529
 8399SOL    HW126096   5.509   6.519   5.512
 8399SOL    HW226097   5.585   6.421   5.618
 8400SOL     OW26098   5.932   6.579   3.892
 8400SOL    HW126099   5.851   6.526   3.865
 8400SOL    HW226100   5.990   6.523   3.951
 8401SOL     OW26101   2.791   3.632   5.312
 8401SOL    HW126102   2.708   3.621   5.366
 8401SOL    HW226103   2.783   3.714   5.256
 8402SOL     OW26104   5.067   0.795   5.294
 8402SOL    HW126105   4.969   0.815   5.292
 8402SOL    HW226106   5.087   0.729   5.366
 8403SOL     OW26107   0.594   2.875   5.541
 8403SOL    HW126108   0.601   2.789   5.591
 8403SOL    HW226109   0.680   2.925   5.547
 8404SOL     OW26110   4.945   5.459   5.742
 8404SOL    HW126111   4.986   5.388   5.799
 8404SOL    HW226112   4.845   5.449   5.743
 8405SOL     OW26113   1.720   2.562   5.599
 8405SOL    HW126114   1.658   2.613   5.659
 8405SOL    HW226115   1.745   2.476   5.643
 8406SOL     OW26116   5.653   3.304   1.948
 8406SOL    HW126117   5.570   3.322   2.002
 8406SOL    HW226118   5.713   3.384   1.954
 8407SOL     OW26119   5.173   3.790   2.857
 8407SOL    HW126120   5.182   3.837   2.770
 8407SOL    HW226121   5.251   3.813   2.916
 8408SOL     OW26122   4.969   3.741   4.137
 8408SOL    HW126123   4.967   3.769   4.233
 8408SOL    HW226124   5.062   3.752   4.101
 8409SOL     OW26125   1.570   1.586   3.682
 8409SOL    HW126126   1.628   1.509   3.654
 8409SOL    HW226127   1.611   1.671   3.650
 8410SOL     OW26128   2.051   4.944   2.378
 8410SOL    HW126129   2.140   4.905   2.403
 8410SOL    HW226130   2.038   4.938   2.279
 8411SOL     OW26131   1.879   3.339   3.247
 8411SOL    HW126132   1.794   3.348   3.299
 8411SOL    HW226133   1.876   3.397   3.167
 8412SOL     OW26134   6.468   3.140   2.451
 8412SOL    HW126135   6.436   3.222   2.497
 8412SOL    HW226136   6.410   3.121   2.372
 8413SOL     OW26137   2.199   5.201   1.094
 8413SOL    HW126138   2.257   5.281   1.080
 8413SOL    HW226139   2.104   5.223   1.073
 8414SOL     OW26140   5.726   0.733   3.851
 8414SOL    HW126141   5.749   0.676   3.772
 8414SOL    HW226142   5.778   0.703   3.930
 8415SOL     OW26143   6.808   4.660   1.179
 8415SOL    HW126144   6.867   4.595   1.132
 8415SOL    HW226145   6.863   4.736   1.213
 8416SOL     OW26146   4.467   4.518   2.362
 8416SOL    HW126147   4.509   4.523   2.272
 8416SOL    HW226148   4.487   4.601   2.414
 8417SOL     OW26149   1.460   5.446   0.078
 8417SOL    HW126150   1.505   5.358   0.095
 8417SOL    HW226151   1.383   5.457   0.140
 8418SOL     OW26152   5.527   5.698   2.786
 8418SOL    HW126153   5.599   5.767   2.791
 8418SOL    HW226154   5.482   5.703   2.696
 8419SOL     OW26155   4.472   0.824   4.079
 8419SOL    HW126156   4.551   0.859   4.029
 8419SOL    HW226157   4.502   0.783   4.165
 8420SOL     OW26158   4.087   2.106   5.652
 8420SOL    HW126159   4.163   2.096   5.588
 8420SOL    HW226160   4.009   2.054   5.618
 8421SOL     OW26161   0.484   1.502   1.233
 8421SOL    HW126162   0.546   1.424   1.237
 8421SOL    HW226163   0.439   1.514   1.321
 8422SOL     OW26164   2.882   0.251   1.909
 8422SOL    HW126165   2.873   0.348   1.886
 8422SOL    HW226166   2.948   0.241   1.983
 8423SOL     OW26167   2.336   3.464   1.102
 8423SOL    HW126168   2.424   3.508   1.081
 8423SOL    HW226169   2.299   3.421   1.020
 8424SOL     OW26170   2.722   2.358   1.509
 8424SOL    HW126171   2.708   2.421   1.585
 8424SOL    HW226172   2.721   2.408   1.423
 8425SOL     OW26173   0.511   4.520   5.894
 8425SOL    HW126174   0.468   4.585   5.831
 8425SOL    HW226175   0.442   4.463   5.937
 8426SOL     OW26176   3.596   3.111   2.361
 8426SOL    HW126177   3.528   3.063   2.417
 8426SOL    HW226178   3.557   3.131   2.271
 8427SOL     OW26179   1.768   2.317   0.070
 8427SOL    HW126180   1.772   2.372   7.011
 8427SOL    HW226181   1.812   2.366   0.145
 8428SOL     OW26182   6.323   3.605   0.741
 8428SOL    HW126183   6.370   3.657   0.812
 8428SOL    HW226184   6.241   3.562   0.779
 8429SOL     OW26185   2.035   6.637   3.365
 8429SOL    HW126186   1.944   6.657   3.329
 8429SOL    HW226187   2.045   6.538   3.376
 8430SOL     OW26188   4.880   5.033   2.897
 8430SOL    HW126189   4.888   5.038   2.996
 8430SOL    HW226190   4.882   5.125   2.859
 8431SOL     OW26191   3.134   3.407   2.479
 8431SOL    HW126192   3.230   3.437   2.481
 8431SOL    HW226193   3.075   3.487   2.478
 8432SOL     OW26194   4.648   6.166   6.629
 8432SOL    HW126195   4.621   6.070   6.626
 8432SOL    HW226196   4.601   6.217   6.557
 8433SOL     OW26197   0.321   1.196   3.669
 8433SOL    HW126198   0.403   1.142   3.648
 8433SOL    HW226199   0.286   1.238   3.585
 8434SOL     OW26200   5.649   6.996   6.687
 8434SOL    HW126201   5.629   0.052   6.630
 8434SOL    HW226202   5.683   0.002   6.776
 8435SOL     OW26203   4.970   2.565   1.170
 8435SOL    HW126204   4.951   2.467   1.168
 8435SOL    HW226205   5.064   2.581   1.139
 8436SOL     OW26206   3.021   4.334   1.656
 8436SOL    HW126207   2.983   4.398   1.723
 8436SOL    HW226208   3.022   4.377   1.566
 8437SOL     OW26209   0.198   2.128   1.193
 8437SOL    HW126210   0.172   2.222   1.213
 8437SOL    HW226211   0.290   2.110   1.230
 8438SOL     OW26212   2.245   5.533   0.896
 8438SOL    HW126213   2.284   5.552   0.806
 8438SOL    HW226214   2.155   5.577   0.903
 8439SOL     OW26215   5.082   0.829   1.375
 8439SOL    HW126216   5.124   0.770   1.306
 8439SOL    HW226217   5.014   0.776   1.427
 8440SOL     OW26218   1.153   3.218   3.915
 8440SOL    HW126219   1.208   3.284   3.863
 8440SOL    HW226220   1.124   3.260   4.001
 8441SOL     OW26221   4.481   5.886   1.637
 8441SOL    HW126222   4.495   5.787   1.638
 8441SOL    HW226223   4.397   5.908   1.587
 8442SOL     OW26224   2.621   2.660   0.774
 8442SOL    HW126225   2.567   2.625   0.697
 8442SOL    HW226226   2.717   2.665   0.747
 8443SOL     OW26227   6.860   1.658   1.415
 8443SOL    HW126228   6.774   1.681   1.369
 8443SOL    HW226229   6.854   1.564   1.450
 8444SOL     OW26230   4.602   1.750   3.456
 8444SOL    HW126231   4.648   1.789   3.376
 8444SOL    HW226232   4.667   1.745   3.533
 8445SOL     OW26233   5.029   5.640   2.079
 8445SOL    HW126234   4.978   5.571   2.027
 8445SOL    HW226235   4.965   5.697   2.130
 8446SOL     OW26236   6.846   3.354   3.248
 8446SOL    HW126237   6.779   3.300   3.196
 8446SOL    HW226238   6.892   3.417   3.186
 8447SOL     OW26239   4.672   4.210   1.007
 8447SOL    HW126240   4.676   4.257   0.919
 8447SOL    HW226241   4.687   4.112   0.993
 8448SOL     OW26242   1.607   4.423   5.824
 8448SOL    HW126243   1.558   4.378   5.898
 8448SOL    HW226244   1.636   4.354   5.757
 8449SOL     OW26245   1.246   0.765   5.130
 8449SOL    HW126246   1.272   0.777   5.034
 8449SOL    HW226247   1.183   0.837   5.157
 8450SOL     OW26248   2.002   5.669   0.873
 8450SOL    HW126249   1.960   5.585   0.838
 8450SOL    HW226250   1.936   5.718   0.931
 8451SOL     OW26251   3.265   3.525   0.662
 8451SOL    HW126252   3.187   3.543   0.722
 8451SOL    HW226253   3.270   3.427   0.643
 8452SOL     OW26254   0.047   6.047   1.523
 8452SOL    HW126255   6.997   6.015   1.463
 8452SOL    HW226256   0.065   5.978   1.593
 8453SOL     OW26257   6.958   5.040   5.055
 8453SOL    HW126258   6.949   5.047   5.154
 8453SOL    HW226259   6.879   4.991   5.018
 8454SOL     OW26260   2.197   0.209   4.858
 8454SOL    HW126261   2.183   0.111   4.874
 8454SOL    HW226262   2.138   0.240   4.784
 8455SOL     OW26263   5.953   2.652   0.796
 8455SOL    HW126264   6.013   2.716   0.844
 8455SOL    HW226265   6.009   2.594   0.736
 8456SOL     OW26266   5.365   4.653   3.439
 8456SOL    HW126267   5.431   4.598   3.491
 8456SOL    HW226268   5.316   4.714   3.502
 8457SOL     OW26269   6.562   6.636   5.678
 8457SOL    HW126270   6.576   6.683   5.591
 8457SOL    HW226271   6.530   6.701   5.746
 8458SOL     OW26272   1.412   1.952   1.214
 8458SOL    HW126273   1.413   1.970   1.312
 8458SOL    HW226274   1.320   1.923   1.186
 8459SOL     OW26275   2.247   4.919   3.062
 8459SOL    HW126276   2.231   4.836   3.008
 8459SOL    HW226277   2.241   4.999   3.002
 8460SOL     OW26278   3.900   1.438   1.669
 8460SOL    HW126279   3.990   1.434   1.626
 8460SOL    HW226280   3.829   1.421   1.600
 8461SOL     OW26281   5.462   4.018   3.213
 8461SOL    HW126282   5.512   4.026   3.299
 8461SOL    HW226283   5.367   4.044   3.227
 8462SOL     OW26284   2.003   3.953   0.805
 8462SOL    HW126285   1.993   3.935   0.903
 8462SOL    HW226286   1.948   4.033   0.780
 8463SOL     OW26287   0.086   6.934   1.174
 8463SOL    HW126288   0.105   0.008   1.180
 8463SOL    HW226289   0.106   6.891   1.262
 8464SOL     OW26290   6.665   2.934   6.407
 8464SOL    HW126291   6.683   2.962   6.501
 8464SOL    HW226292   6.752   2.927   6.357
 8465SOL     OW26293   5.092   4.213   0.892
 8465SOL    HW126294   5.027   4.289   0.891
 8465SOL    HW226295   5.107   4.182   0.798
 8466SOL     OW26296   0.241   1.294   5.449
 8466SOL    HW126297   0.220   1.230   5.375
 8466SOL    HW226298   0.228   1.248   5.537
 8467SOL     OW26299   3.190   1.099   0.792
 8467SOL    HW126300   3.129   1.060   0.861
 8467SOL    HW226301   3.158   1.073   0.701
 8468SOL     OW26302   5.422   3.862   0.751
 8468SOL    HW126303   5.435   3.960   0.766
 8468SOL    HW226304   5.510   3.815   0.753
 8469SOL     OW26305   3.849   2.908   5.105
 8469SOL    HW126306   3.754   2.883   5.088
 8469SOL    HW226307   3.891   2.840   5.165
 8470SOL     OW26308   1.554   5.908   1.635
 8470SOL    HW126309   1.492   5.985   1.651
 8470SOL    HW226310   1.542   5.875   1.542
 8471SOL     OW26311   4.128   1.415   3.674
 8471SOL    HW126312   4.053   1.433   3.611
 8471SOL    HW226313   4.208   1.468   3.646
 8472SOL     OW26314   5.851   1.524   6.377
 8472SOL    HW126315   5.758   1.527   6.340
 8472SOL    HW226316   5.870   1.611   6.424
 8473SOL     OW26317   5.384   5.268   5.860
 8473SOL    HW126318   5.400   5.342   5.794
 8473SOL    HW226319   5.290   5.236   5.851
 8474SOL     OW26320   3.030   3.747   5.431
 8474SOL    HW126321   3.026   3.847   5.440
 8474SOL    HW226322   2.943   3.714   5.395
 8475SOL     OW26323   0.280   2.149   2.823
 8475SOL    HW126324   0.192   2.101   2.818
 8475SOL    HW226325   0.316   2.145   2.916
 8476SOL     OW26326   6.151   1.158   2.228
 8476SOL    HW126327   6.178   1.217   2.153
 8476SOL    HW226328   6.148   1.210   2.313
 8477SOL     OW26329   5.559   0.648   0.843
 8477SOL    HW126330   5.658   0.649   0.828
 8477SOL    HW226331   5.512   0.677   0.760
 8478SOL     OW26332   1.016   6.706   6.266
 8478SOL    HW126333   1.064   6.741   6.186
 8478SOL    HW226334   1.022   6.606   6.268
 8479SOL     OW26335   0.798   2.743   0.198
 8479SOL    HW126336   0.808   2.840   0.219
 8479SOL    HW226337   0.809   2.728   0.100
 8480SOL     OW26338   3.007   4.260   0.762
 8480SOL    HW126339   3.072   4.287   0.691
 8480SOL    HW226340   2.926   4.319   0.757
 8481SOL     OW26341   4.851   2.973   2.630
 8481SOL    HW126342   4.816   3.043   2.693
 8481SOL    HW226343   4.951   2.980   2.626
 8482SOL     OW26344   4.465   0.176   6.471
 8482SOL    HW126345   4.477   0.137   6.562
 8482SOL    HW226346   4.553   0.209   6.437
 8483SOL     OW26347   3.898   4.922   3.594
 8483SOL    HW126348   3.836   4.868   3.536
 8483SOL    HW226349   3.975   4.955   3.539
 8484SOL     OW26350   6.528   6.347   5.217
 8484SOL    HW126351   6.601   6.313   5.276
 8484SOL    HW226352   6.483   6.425   5.261
 8485SOL     OW26353   4.193   0.752   5.630
 8485SOL    HW126354   4.206   0.659   5.666
 8485SOL    HW226355   4.119   0.797   5.681
 8486SOL     OW26356   5.573   2.179   4.744
 8486SOL    HW126357   5.501   2.109   4.746
 8486SOL    HW226358   5.569   2.233   4.828
 8487SOL     OW26359   6.703   1.981   6.225
 8487SOL    HW126360   6.649   2.004   6.306
 8487SOL    HW226361   6.800   1.993   6.245
 8488SOL     OW26362   3.931   4.812   2.247
 8488SOL    HW126363   3.837   4.825   2.216
 8488SOL    HW226364   3.983   4.764   2.176
 8489SOL     OW26365   6.345   2.315   2.170
 8489SOL    HW126366   6.427   2.371   2.179
 8489SOL    HW226367   6.273   2.351   2.229
 8490SOL     OW26368   3.325   0.028   0.486
 8490SOL    HW126369   3.333   6.971   0.428
 8490SOL    HW226370   3.413   0.076   0.490
 8491SOL     OW26371   3.605   5.390   2.202
 8491SOL    HW126372   3.639   5.472   2.248
 8491SOL    HW226373   3.592   5.409   2.104
 8492SOL     OW26374   6.098   6.423   4.062
 8492SOL    HW126375   6.127   6.493   4.127
 8492SOL    HW226376   6.140   6.336   4.087
 8493SOL     OW26377   5.313   0.385   5.629
 8493SOL    HW126378   5.242   0.330   5.584
 8493SOL    HW226379   5.402   0.361   5.592
 8494SOL     OW26380   0.044   3.294   2.015
 8494SOL    HW126381   0.079   3.222   1.955
 8494SOL    HW226382   0.078   3.279   2.108
 8495SOL     OW26383   5.751   5.842   5.795
 8495SOL    HW126384   5.737   5.881   5.886
 8495SOL    HW226385   5.735   5.912   5.726
 8496SOL     OW26386   4.621   1.863   2.780
 8496SOL    HW126387   4.574   1.952   2.782
 8496SOL    HW226388   4.637   1.833   2.874
 8497SOL     OW26389   6.172   0.759   2.510
 8497SOL    HW126390   6.197   0.670   2.474
 8497SOL    HW226391   6.230   0.780   2.589
 8498SOL     OW26392   4.284   6.219   4.125
 8498SOL    HW126393   4.201   6.221   4.179
 8498SOL    HW226394   4.265   6.176   4.036
 8499SOL     OW26395   6.381   6.953   5.110
 8499SOL    HW126396   6.364   6.991   5.201
 8499SOL    HW226397   6.405   0.002   5.047
 8500SOL     OW26398   1.269   0.504   6.909
 8500SOL    HW126399   1.231   0.558   6.984
 8500SOL    HW226400   1.299   0.415   6.944
 8501SOL     OW26401   3.593   1.054   5.282
 8501SOL    HW126402   3.624   0.973   5.232
 8501SOL    HW226403   3.654   1.130   5.263
 8502SOL     OW26404   6.439   2.833   0.256
 8502SOL    HW126405   6.349   2.877   0.248
 8502SOL    HW226406   6.493   2.881   0.325
 8503SOL     OW26407   4.728   2.455   5.763
 8503SOL    HW126408   4.702   2.388   5.832
 8503SOL    HW226409   4.824   2.478   5.773
 8504SOL     OW26410   1.254   0.005   3.041
 8504SOL    HW126411   1.160   0.038   3.045
 8504SOL    HW226412   1.303   0.034   3.124
 8505SOL     OW26413   5.342   1.732   2.811
 8505SOL    HW126414   5.399   1.779   2.878
 8505SOL    HW226415   5.247   1.733   2.841
 8506SOL     OW26416   1.759   0.433   5.917
 8506SOL    HW126417   1.746   0.407   6.012
 8506SOL    HW226418   1.814   0.516   5.912
 8507SOL     OW26419   4.128   4.893   5.490
 8507SOL    HW126420   4.157   4.978   5.446
 8507SOL    HW226421   4.047   4.910   5.545
 8508SOL     OW26422   3.503   0.698   6.395
 8508SOL    HW126423   3.553   0.613   6.377
 8508SOL    HW226424   3.405   0.681   6.391
 8509SOL     OW26425   4.975   2.569   2.196
 8509SOL    HW126426   5.002   2.496   2.259
 8509SOL    HW226427   4.886   2.606   2.224
 8510SOL     OW26428   0.801   1.923   4.809
 8510SOL    HW126429   0.830   1.928   4.714
 8510SOL    HW226430   0.880   1.940   4.868
 8511SOL     OW26431   5.701   2.386   3.851
 8511SOL    HW126432   5.628   2.435   3.899
 8511SOL    HW226433   5.660   2.318   3.790
 8512SOL     OW26434   1.919   0.001   5.571
 8512SOL    HW126435   1.882   6.980   5.489
 8512SOL    HW226436   1.865   0.082   5.592
 8513SOL     OW26437   4.165   5.392   0.104
 8513SOL    HW126438   4.116   5.363   0.186
 8513SOL    HW226439   4.099   5.416   0.032
 8514SOL     OW26440   3.094   5.810   4.910
 8514SOL    HW126441   3.175   5.858   4.879
 8514SOL    HW226442   3.058   5.754   4.835
 8515SOL     OW26443   5.435   2.348   2.057
 8515SOL    HW126444   5.529   2.367   2.030
 8515SOL    HW226445   5.372   2.394   1.994
 8516SOL     OW26446   6.842   1.577   1.761
 8516SOL    HW126447   6.907   1.582   1.685
 8516SOL    HW226448   6.818   1.670   1.790
 8517SOL     OW26449   1.435   3.591   5.121
 8517SOL    HW126450   1.345   3.570   5.158
 8517SOL    HW226451   1.505   3.545   5.176
 8518SOL     OW26452   3.158   5.844   0.817
 8518SOL    HW126453   3.109   5.762   0.848
 8518SOL    HW226454   3.194   5.893   0.896
 8519SOL     OW26455   2.673   5.264   3.696
 8519SOL    HW126456   2.692   5.323   3.775
 8519SOL    HW226457   2.694   5.314   3.612
 8520SOL     OW26458   3.485   6.357   6.527
 8520SOL    HW126459   3.498   6.450   6.562
 8520SOL    HW226460   3.388   6.333   6.533
 8521SOL     OW26461   1.827   1.089   2.644
 8521SOL    HW126462   1.770   1.009   2.626
 8521SOL    HW226463   1.824   1.150   2.565
 8522SOL     OW26464   2.154   6.847   4.700
 8522SOL    HW126465   2.152   6.797   4.613
 8522SOL    HW226466   2.102   6.797   4.769
 8523SOL     OW26467   1.944   6.536   7.001
 8523SOL    HW126468   1.974   6.573   0.065
 8523SOL    HW226469   1.980   6.443   6.989
 8524SOL     OW26470   1.812   1.912   0.303
 8524SOL    HW126471   1.878   1.901   0.228
 8524SOL    HW226472   1.729   1.954   0.268
 8525SOL     OW26473   5.208   3.465   4.231
 8525SOL    HW126474   5.208   3.510   4.141
 8525SOL    HW226475   5.207   3.535   4.302
 8526SOL     OW26476   1.106   3.517   1.755
 8526SOL    HW126477   1.093   3.616   1.755
 8526SOL    HW226478   1.112   3.483   1.849
 8527SOL     OW26479   4.675   0.028   4.491
 8527SOL    HW126480   4.742   6.978   4.482
 8527SOL    HW226481   4.708   0.093   4.559
 8528SOL     OW26482   5.468   0.866   0.266
 8528SOL    HW126483   5.437   0.961   0.278
 8528SOL    HW226484   5.393   0.804   0.285
 8529SOL     OW26485   0.206   6.841   5.126
 8529SOL    HW126486   0.132   6.775   5.139
 8529SOL    HW226487   0.172   6.933   5.143
 8530SOL     OW26488   1.856   5.015   6.230
 8530SOL    HW126489   1.795   5.033   6.307
 8530SOL    HW226490   1.806   4.971   6.156
 8531SOL     OW26491   4.025   5.249   1.631
 8531SOL    HW126492   4.100   5.313   1.646
 8531SOL    HW226493   3.969   5.243   1.714
 8532SOL     OW26494   1.626   4.220   0.347
 8532SOL    HW126495   1.681   4.208   0.264
 8532SOL    HW226496   1.595   4.315   0.352
 8533SOL     OW26497   3.490   6.454   5.445
 8533SOL    HW126498   3.576   6.415   5.477
 8533SOL    HW226499   3.505   6.505   5.360
 8534SOL     OW26500   2.026   2.368   0.754
 8534SOL    HW126501   2.080   2.433   0.808
 8534SOL    HW226502   1.934   2.362   0.793
 8535SOL     OW26503   0.798   3.337   5.973
 8535SOL    HW126504   0.861   3.385   6.035
 8535SOL    HW226505   0.719   3.304   6.026
 8536SOL     OW26506   5.893   0.459   6.255
 8536SOL    HW126507   5.960   0.388   6.234
 8536SOL    HW226508   5.851   0.491   6.170
 8537SOL     OW26509   4.395   6.231   3.309
 8537SOL    HW126510   4.347   6.192   3.231
 8537SOL    HW226511   4.442   6.158   3.359
 8538SOL     OW26512   4.674   0.323   5.056
 8538SOL    HW126513   4.734   0.369   4.990
 8538SOL    HW226514   4.603   0.387   5.086
 8539SOL     OW26515   0.887   3.003   3.028
 8539SOL    HW126516   0.860   3.084   2.975
 8539SOL    HW226517   0.901   3.028   3.124
 8540SOL     OW26518   5.023   6.687   6.426
 8540SOL    HW126519   5.093   6.632   6.472
 8540SOL    HW226520   5.003   6.647   6.337
 8541SOL     OW26521   2.614   6.407   5.606
 8541SOL    HW126522   2.560   6.426   5.524
 8541SOL    HW226523   2.629   6.492   5.656
 8542SOL     OW26524   1.592   5.120   5.617
 8542SOL    HW126525   1.552   5.172   5.542
 8542SOL    HW226526   1.532   5.123   5.696
 8543SOL     OW26527   3.655   2.160   5.388
 8543SOL    HW126528   3.676   2.135   5.482
 8543SOL    HW226529   3.556   2.154   5.373
 8544SOL     OW26530   5.533   3.909   5.355
 8544SOL    HW126531   5.589   3.911   5.272
 8544SOL    HW226532   5.457   3.845   5.342
 8545SOL     OW26533   2.575   0.454   6.379
 8545SOL    HW126534   2.533   0.509   6.307
 8545SOL    HW226535   2.518   0.456   6.461
 8546SOL     OW26536   3.289   1.076   3.716
 8546SOL    HW126537   3.361   1.102   3.652
 8546SOL    HW226538   3.225   1.015   3.669
 8547SOL     OW26539   5.623   6.468   5.780
 8547SOL    HW126540   5.706   6.488   5.832
 8547SOL    HW226541   5.552   6.535   5.802
 8548SOL     OW26542   1.257   4.157   4.314
 8548SOL    HW126543   1.289   4.075   4.360
 8548SOL    HW226544   1.331   4.196   4.259
 8549SOL     OW26545   2.931   0.523   3.751
 8549SOL    HW126546   2.924   0.443   3.692
 8549SOL    HW226547   2.873   0.511   3.831
 8550SOL     OW26548   0.255   4.221   5.032
 8550SOL    HW126549   0.238   4.122   5.026
 8550SOL    HW226550   0.296   4.252   4.946
 8551SOL     OW26551   4.087   1.546   4.320
 8551SOL    HW126552   4.042   1.459   4.300
 8551SOL    HW226553   4.183   1.530   4.343
 8552SOL     OW26554   3.685   1.847   2.084
 8552SOL    HW126555   3.623   1.913   2.127
 8552SOL    HW226556   3.763   1.896   2.044
 8553SOL     OW26557   4.906   3.566   0.586
 8553SOL    HW126558   4.863   3.502   0.522
 8553SOL    HW226559   4.952   3.638   0.534
 8554SOL     OW26560   1.474   1.132   6.845
 8554SOL    HW126561   1.458   1.153   6.942
 8554SOL    HW226562   1.403   1.175   6.790
 8555SOL     OW26563   3.356   1.813   3.660
 8555SOL    HW126564   3.452   1.794   3.683
 8555SOL    HW226565   3.340   1.912   3.665
 8556SOL     OW26566   0.044   4.769   5.471
 8556SOL    HW126567   0.133   4.726   5.460
 8556SOL    HW226568   6.996   4.702   5.457
 8557SOL     OW26569   6.302   0.898   0.567
 8557SOL    HW126570   6.225   0.917   0.628
 8557SOL    HW226571   6.331   0.803   0.579
 8558SOL     OW26572   2.910   6.521   3.665
 8558SOL    HW126573   2.949   6.449   3.608
 8558SOL    HW226574   2.855   6.582   3.609
 8559SOL     OW26575   1.168   3.223   3.368
 8559SOL    HW126576   1.204   3.171   3.446
 8559SOL    HW226577   1.112   3.298   3.401
 8560SOL     OW26578   3.228   4.120   1.354
 8560SOL    HW126579   3.250   4.062   1.276
 8560SOL    HW226580   3.205   4.062   1.433
 8561SOL     OW26581   4.095   0.480   2.060
 8561SOL    HW126582   4.177   0.423   2.057
 8561SOL    HW226583   4.066   0.493   2.154
 8562SOL     OW26584   5.469   2.367   6.630
 8562SOL    HW126585   5.492   2.457   6.593
 8562SOL    HW226586   5.457   2.374   6.729
 8563SOL     OW26587   1.335   4.798   2.961
 8563SOL    HW126588   1.395   4.875   2.981
 8563SOL    HW226589   1.287   4.770   3.044
 8564SOL     OW26590   3.913   6.725   6.919
 8564SOL    HW126591   3.851   6.766   6.986
 8564SOL    HW226592   3.866   6.649   6.873
 8565SOL     OW26593   0.808   5.242   1.444
 8565SOL    HW126594   0.738   5.259   1.375
 8565SOL    HW226595   0.834   5.328   1.487
 8566SOL     OW26596   3.527   1.122   3.573
 8566SOL    HW126597   3.564   1.031   3.557
 8566SOL    HW226598   3.545   1.180   3.494
 8567SOL     OW26599   1.742   2.645   1.291
 8567SOL    HW126600   1.796   2.564   1.313
 8567SOL    HW226601   1.676   2.622   1.219
 8568SOL     OW26602   5.869   0.023   5.860
 8568SOL    HW126603   5.776   7.024   5.832
 8568SOL    HW226604   5.899   0.105   5.812
 8569SOL     OW26605   5.224   1.284   6.608
 8569SOL    HW126606   5.267   1.355   6.665
 8569SOL    HW226607   5.252   1.297   6.513
 8570SOL     OW26608   1.332   1.975   3.737
 8570SOL    HW126609   1.323   1.878   3.716
 8570SOL    HW226610   1.391   2.019   3.669
 8571SOL     OW26611   1.056   0.944   3.296
 8571SOL    HW126612   1.118   0.911   3.225
 8571SOL    HW226613   1.109   0.967   3.378
 8572SOL     OW26614   3.061   4.019   5.439
 8572SOL    HW126615   3.094   4.082   5.509
 8572SOL    HW226616   2.971   4.049   5.407
 8573SOL     OW26617   1.538   6.026   6.076
 8573SOL    HW126618   1.508   5.931   6.078
 8573SOL    HW226619   1.583   6.045   5.988
 8574SOL     OW26620   5.889   1.305   5.051
 8574SOL    HW126621   5.974   1.292   5.103
 8574SOL    HW226622   5.849   1.215   5.029
 8575SOL     OW26623   2.635   6.170   4.589
 8575SOL    HW126624   2.606   6.130   4.502
 8575SOL    HW226625   2.554   6.192   4.644
 8576SOL     OW26626   1.595   3.431   5.285
 8576SOL    HW126627   1.565   3.388   5.370
 8576SOL    HW226628   1.617   3.361   5.218
 8577SOL     OW26629   1.668   0.584   0.519
 8577SOL    HW126630   1.644   0.508   0.579
 8577SOL    HW226631   1.601   0.658   0.530
 8578SOL     OW26632   1.313   0.543   6.012
 8578SOL    HW126633   1.380   0.529   6.085
 8578SOL    HW226634   1.354   0.522   5.924
 8579SOL     OW26635   3.756   6.701   2.107
 8579SOL    HW126636   3.842   6.659   2.137
 8579SOL    HW226637   3.773   6.797   2.082
 8580SOL     OW26638   2.548   0.543   1.759
 8580SOL    HW126639   2.504   0.476   1.700
 8580SOL    HW226640   2.509   0.537   1.851
 8581SOL     OW26641   3.847   3.876   2.440
 8581SOL    HW126642   3.922   3.829   2.394
 8581SOL    HW226643   3.802   3.938   2.376
 8582SOL     OW26644   4.589   5.567   5.550
 8582SOL    HW126645   4.524   5.571   5.625
 8582SOL    HW226646   4.621   5.473   5.539
 8583SOL     OW26647   3.649   6.795   3.086
 8583SOL    HW126648   3.746   6.804   3.061
 8583SOL    HW226649   3.635   6.706   3.129
 8584SOL     OW26650   6.209   2.201   5.085
 8584SOL    HW126651   6.159   2.278   5.124
 8584SOL    HW226652   6.214   2.127   5.153
 8585SOL     OW26653   4.777   2.358   2.556
 8585SOL    HW126654   4.720   2.341   2.637
 8585SOL    HW226655   4.733   2.319   2.476
 8586SOL     OW26656   6.698   6.317   5.443
 8586SOL    HW126657   6.733   6.253   5.511
 8586SOL    HW226658   6.646   6.390   5.489
 8587SOL     OW26659   6.858   1.019   0.646
 8587SOL    HW126660   6.952   0.997   0.674
 8587SOL    HW226661   6.841   1.116   0.663
 8588SOL     OW26662   1.746   1.145   5.245
 8588SOL    HW126663   1.768   1.180   5.336
 8588SOL    HW226664   1.793   1.058   5.231
 8589SOL     OW26665   5.834   2.472   6.758
 8589SOL    HW126666   5.932   2.453   6.767
 8589SOL    HW226667   5.820   2.570   6.742
 8590SOL     OW26668   1.438   1.235   3.106
 8590SOL    HW126669   1.456   1.333   3.115
 8590SOL    HW226670   1.347   1.221   3.067
 8591SOL     OW26671   1.449   3.876   5.173
 8591SOL    HW126672   1.414   3.784   5.157
 8591SOL    HW226673   1.549   3.875   5.165
 8592SOL     OW26674   0.283   1.946   4.765
 8592SOL    HW126675   0.332   1.874   4.716
 8592SOL    HW226676   0.287   2.031   4.712
 8593SOL     OW26677   6.584   1.233   0.478
 8593SOL    HW126678   6.631   1.190   0.401
 8593SOL    HW226679   6.535   1.164   0.530
 8594SOL     OW26680   6.167   3.924   6.354
 8594SOL    HW126681   6.247   3.871   6.328
 8594SOL    HW226682   6.196   4.007   6.403
 8595SOL     OW26683   5.671   6.325   2.226
 8595SOL    HW126684   5.679   6.335   2.325
 8595SOL    HW226685   5.644   6.412   2.186
 8596SOL     OW26686   0.318   1.870   5.770
 8596SOL    HW126687   0.280   1.939   5.709
 8596SOL    HW226688   0.405   1.837   5.734
 8597SOL     OW26689   6.093   2.437   5.894
 8597SOL    HW126690   6.092   2.348   5.848
 8597SOL    HW226691   6.167   2.493   5.857
 8598SOL     OW26692   6.836   1.016   6.213
 8598SOL    HW126693   6.852   1.040   6.117
 8598SOL    HW226694   6.856   1.096   6.271
 8599SOL     OW26695   5.745   3.904   5.139
 8599SOL    HW126696   5.730   3.849   5.057
 8599SOL    HW226697   5.841   3.933   5.143
 8600SOL     OW26698   4.354   2.921   1.457
 8600SOL    HW126699   4.284   2.900   1.388
 8600SOL    HW226700   4.341   3.015   1.489
 8601SOL     OW26701   4.890   5.653   2.358
 8601SOL    HW126702   4.797   5.628   2.332
 8601SOL    HW226703   4.889   5.743   2.403
 8602SOL     OW26704   1.867   6.686   5.560
 8602SOL    HW126705   1.878   6.592   5.593
 8602SOL    HW226706   1.933   6.745   5.606
 8603SOL     OW26707   0.733   1.072   6.620
 8603SOL    HW126708   0.659   1.110   6.565
 8603SOL    HW226709   0.709   1.079   6.717
 8604SOL     OW26710   1.506   5.343   6.127
 8604SOL    HW126711   1.472   5.345   6.221
 8604SOL    HW226712   1.600   5.377   6.125
 8605SOL     OW26713   6.338   4.316   3.637
 8605SOL    HW126714   6.438   4.310   3.641
 8605SOL    HW226715   6.310   4.343   3.545
 8606SOL     OW26716   1.177   0.331   6.189
 8606SOL    HW126717   1.183   0.431   6.183
 8606SOL    HW226718   1.257   0.296   6.238
 8607SOL     OW26719   2.885   3.113   1.294
 8607SOL    HW126720   2.808   3.158   1.338
 8607SOL    HW226721   2.960   3.104   1.360
 8608SOL     OW26722   2.118   6.213   1.893
 8608SOL    HW126723   2.210   6.185   1.866
 8608SOL    HW226724   2.111   6.313   1.885
 8609SOL     OW26725   5.604   2.349   4.950
 8609SOL    HW126726   5.687   2.385   4.907
 8609SOL    HW226727   5.533   2.418   4.947
 8610SOL     OW26728   6.975   4.994   2.300
 8610SOL    HW126729   6.993   4.983   2.398
 8610SOL    HW226730   0.019   4.945   2.248
 8611SOL     OW26731   1.879   1.794   5.456
 8611SOL    HW126732   1.794   1.741   5.454
 8611SOL    HW226733   1.925   1.781   5.543
 8612SOL     OW26734   3.366   3.142   5.314
 8612SOL    HW126735   3.267   3.133   5.326
 8612SOL    HW226736   3.413   3.070   5.365
 8613SOL     OW26737   3.326   3.094   3.542
 8613SOL    HW126738   3.308   3.018   3.605
 8613SOL    HW226739   3.319   3.181   3.591
 8614SOL     OW26740   0.602   2.640   3.741
 8614SOL    HW126741   0.624   2.647   3.838
 8614SOL    HW226742   0.514   2.684   3.723
 8615SOL     OW26743   3.867   1.153   5.114
 8615SOL    HW126744   3.789   1.115   5.064
 8615SOL    HW226745   3.908   1.082   5.171
 8616SOL     OW26746   5.831   4.398   5.545
 8616SOL    HW126747   5.760   4.411   5.615
 8616SOL    HW226748   5.915   4.365   5.588
 8617SOL     OW26749   1.247   6.697   3.180
 8617SOL    HW126750   1.301   6.766   3.132
 8617SOL    HW226751   1.150   6.710   3.159
 8618SOL     OW26752   5.895   4.246   0.676
 8618SOL    HW126753   5.934   4.155   0.684
 8618SOL    HW226754   5.939   4.296   0.602
 8619SOL     OW26755   5.335   5.388   6.949
 8619SOL    HW126756   5.317   5.455   6.877
 8619SOL    HW226757   5.327   5.296   6.911
 8620SOL     OW26758   1.397   6.367   3.968
 8620SOL    HW126759   1.420   6.372   4.066
 8620SOL    HW226760   1.299   6.350   3.958
 8621SOL     OW26761   6.076   3.643   1.707
 8621SOL    HW126762   6.009   3.615   1.638
 8621SOL    HW226763   6.041   3.621   1.798
 8622SOL     OW26764   1.017   5.785   1.537
 8622SOL    HW126765   0.989   5.828   1.623
 8622SOL    HW226766   0.938   5.779   1.476
 8623SOL     OW26767   2.233   2.001   3.176
 8623SOL    HW126768   2.154   1.987   3.116
 8623SOL    HW226769   2.217   2.080   3.234
 8624SOL     OW26770   3.613   3.508   5.275
 8624SOL    HW126771   3.562   3.464   5.348
 8624SOL    HW226772   3.707   3.474   5.275
 8625SOL     OW26773   4.474   3.247   6.157
 8625SOL    HW126774   4.393   3.234   6.099
 8625SOL    HW226775   4.450   3.307   6.233
 8626SOL     OW26776   4.779   2.130   1.665
 8626SOL    HW126777   4.782   2.150   1.763
 8626SOL    HW226778   4.690   2.090   1.642
 8627SOL     OW26779   0.744   0.261   2.870
 8627SOL    HW126780   0.672   0.325   2.896
 8627SOL    HW226781   0.773   0.208   2.950
 8628SOL     OW26782   1.314   6.998   0.860
 8628SOL    HW126783   1.362   7.020   0.945
 8628SOL    HW226784   1.370   0.001   0.782
 8629SOL     OW26785   0.128   0.311   4.505
 8629SOL    HW126786   0.228   0.307   4.497
 8629SOL    HW226787   0.100   0.271   4.593
 8630SOL     OW26788   5.114   2.675   1.529
 8630SOL    HW126789   5.068   2.593   1.496
 8630SOL    HW226790   5.173   2.712   1.457
 8631SOL     OW26791   1.369   6.260   6.313
 8631SOL    HW126792   1.275   6.226   6.317
 8631SOL    HW226793   1.383   6.329   6.384
 8632SOL     OW26794   6.247   5.899   4.145
 8632SOL    HW126795   6.168   5.854   4.188
 8632SOL    HW226796   6.329   5.844   4.160
 8633SOL     OW26797   6.618   3.205   5.716
 8633SOL    HW126798   6.580   3.298   5.712
 8633SOL    HW226799   6.547   3.142   5.747
 8634SOL     OW26800   4.978   4.954   5.897
 8634SOL    HW126801   4.951   4.890   5.825
 8634SOL    HW226802   4.986   4.905   5.983
 8635SOL     OW26803   5.028   2.060   6.245
 8635SOL    HW126804   5.053   2.130   6.311
 8635SOL    HW226805   4.934   2.030   6.261
 8636SOL     OW26806   3.970   6.330   1.531
 8636SOL    HW126807   3.877   6.331   1.567
 8636SOL    HW226808   3.967   6.335   1.431
 8637SOL     OW26809   2.839   2.265   0.313
 8637SOL    HW126810   2.886   2.197   0.368
 8637SOL    HW226811   2.850   2.356   0.355
 8638SOL     OW26812   5.126   2.580   4.626
 8638SOL    HW126813   5.037   2.537   4.612
 8638SOL    HW226814   5.118   2.653   4.694
 8639SOL     OW26815   3.197   4.385   0.569
 8639SOL    HW126816   3.132   4.409   0.497
 8639SOL    HW226817   3.221   4.467   0.621
 8640SOL     OW26818   3.977   2.476   6.823
 8640SOL    HW126819   3.912   2.551   6.821
 8640SOL    HW226820   3.947   2.407   6.889
 8641SOL     OW26821   3.199   4.928   3.566
 8641SOL    HW126822   3.181   5.024   3.590
 8641SOL    HW226823   3.292   4.904   3.593
 8642SOL     OW26824   2.112   6.035   3.273
 8642SOL    HW126825   2.018   6.067   3.281
 8642SOL    HW226826   2.122   5.979   3.191
 8643SOL     OW26827   4.052   6.640   1.177
 8643SOL    HW126828   4.090   6.548   1.166
 8643SOL    HW226829   3.953   6.637   1.160
 8644SOL     OW26830   6.013   2.342   6.510
 8644SOL    HW126831   5.918   2.312   6.508
 8644SOL    HW226832   6.032   2.389   6.596
 8645SOL     OW26833   4.800   4.747   2.236
 8645SOL    HW126834   4.735   4.680   2.201
 8645SOL    HW226835   4.871   4.701   2.289
 8646SOL     OW26836   0.139   1.972   5.221
 8646SOL    HW126837   0.080   1.962   5.141
 8646SOL    HW226838   0.126   1.893   5.281
 8647SOL     OW26839   1.666   4.912   1.784
 8647SOL    HW126840   1.703   4.905   1.876
 8647SOL    HW226841   1.716   4.982   1.733
 8648SOL     OW26842   5.250   5.260   0.258
 8648SOL    HW126843   5.330   5.316   0.278
 8648SOL    HW226844   5.267   5.207   0.174
 8649SOL     OW26845   5.644   2.089   2.120
 8649SOL    HW126846   5.591   2.022   2.172
 8649SOL    HW226847   5.728   2.045   2.087
 8650SOL     OW26848   2.224   1.025   5.498
 8650SOL    HW126849   2.304   1.084   5.484
 8650SOL    HW226850   2.254   0.935   5.529
 8651SOL     OW26851   4.119   1.916   2.081
 8651SOL    HW126852   4.028   1.952   2.063
 8651SOL    HW226853   4.188   1.975   2.039
 8652SOL     OW26854   6.758   1.989   4.021
 8652SOL    HW126855   6.699   1.924   4.069
 8652SOL    HW226856   6.844   1.998   4.070
 8653SOL     OW26857   5.861   1.132   0.697
 8653SOL    HW126858   5.820   1.060   0.640
 8653SOL    HW226859   5.830   1.221   0.664
 8654SOL     OW26860   0.593   4.920   3.018
 8654SOL    HW126861   0.687   4.887   3.026
 8654SOL    HW226862   0.532   4.856   3.064
 8655SOL     OW26863   1.366   0.118   4.958
 8655SOL    HW126864   1.404   0.134   4.867
 8655SOL    HW226865   1.344   0.021   4.968
 8656SOL     OW26866   4.395   5.787   1.011
 8656SOL    HW126867   4.481   5.766   1.058
 8656SOL    HW226868   4.319   5.781   1.077
 8657SOL     OW26869   3.253   1.763   2.604
 8657SOL    HW126870   3.287   1.794   2.693
 8657SOL    HW226871   3.159   1.796   2.591
 8658SOL     OW26872   6.411   3.709   0.977
 8658SOL    HW126873   6.464   3.724   1.060
 8658SOL    HW226874   6.337   3.777   0.971
 8659SOL     OW26875   3.535   0.393   3.247
 8659SOL    HW126876   3.492   0.329   3.310
 8659SOL    HW226877   3.634   0.393   3.262
 8660SOL     OW26878   0.146   3.747   1.738
 8660SOL    HW126879   0.097   3.802   1.806
 8660SOL    HW226880   0.094   3.664   1.719
 8661SOL     OW26881   6.347   3.757   2.474
 8661SOL    HW126882   6.345   3.732   2.377
 8661SOL    HW226883   6.424   3.819   2.491
 8662SOL     OW26884   1.653   2.285   2.901
 8662SOL    HW126885   1.654   2.272   2.802
 8662SOL    HW226886   1.707   2.365   2.925
 8663SOL     OW26887   3.472   4.939   2.860
 8663SOL    HW126888   3.536   4.930   2.936
 8663SOL    HW226889   3.412   5.017   2.876
 8664SOL     OW26890   3.095   6.098   4.104
 8664SOL    HW126891   3.047   6.163   4.163
 8664SOL    HW226892   3.190   6.129   4.091
 8665SOL     OW26893   6.725   4.001   6.411
 8665SOL    HW126894   6.734   3.943   6.492
 8665SOL    HW226895   6.734   3.945   6.329
 8666SOL     OW26896   4.942   0.606   2.987
 8666SOL    HW126897   4.924   0.605   3.085
 8666SOL    HW226898   5.029   0.560   2.969
 8667SOL     OW26899   5.315   2.207   2.275
 8667SOL    HW126900   5.349   2.257   2.195
 8667SOL    HW226901   5.215   2.217   2.280
 8668SOL     OW26902   4.081   2.173   4.041
 8668SOL    HW126903   4.092   2.111   4.118
 8668SOL    HW226904   4.001   2.145   3.987
 8669SOL     OW26905   0.387   6.370   5.914
 8669SOL    HW126906   0.482   6.396   5.928
 8669SOL    HW226907   0.330   6.415   5.983
 8670SOL     OW26908   0.055   5.361   5.644
 8670SOL    HW126909   0.049   5.264   5.669
 8670SOL    HW226910   0.145   5.380   5.604
 8671SOL     OW26911   6.970   3.235   3.999
 8671SOL    HW126912   0.016   3.254   3.930
 8671SOL    HW226913   6.896   3.301   3.989
 8672SOL     OW26914   6.635   1.397   2.540
 8672SOL    HW126915   6.707   1.425   2.476
 8672SOL    HW226916   6.562   1.465   2.539
 8673SOL     OW26917   0.938   1.109   1.687
 8673SOL    HW126918   0.843   1.118   1.714
 8673SOL    HW226919   0.959   1.013   1.668
 8674SOL     OW26920   0.202   3.505   3.638
 8674SOL    HW126921   0.291   3.550   3.634
 8674SOL    HW226922   0.188   3.452   3.554
 8675SOL     OW26923   4.636   2.868   5.130
 8675SOL    HW126924   4.581   2.852   5.212
 8675SOL    HW226925   4.688   2.953   5.141
 8676SOL     OW26926   4.286   2.228   0.721
 8676SOL    HW126927   4.281   2.302   0.654
 8676SOL    HW226928   4.381   2.216   0.751
 8677SOL     OW26929   2.845   0.799   0.191
 8677SOL    HW126930   2.761   0.839   0.154
 8677SOL    HW226931   2.858   0.830   0.285
 8678SOL     OW26932   3.234   1.908   0.201
 8678SOL    HW126933   3.196   1.894   0.293
 8678SOL    HW226934   3.246   1.820   0.156
 8679SOL     OW26935   1.841   2.045   6.637
 8679SOL    HW126936   1.818   1.958   6.594
 8679SOL    HW226937   1.764   2.109   6.625
 8680SOL     OW26938   0.055   0.479   0.826
 8680SOL    HW126939   0.029   0.473   0.729
 8680SOL    HW226940   0.073   0.575   0.849
 8681SOL     OW26941   5.270   4.837   0.985
 8681SOL    HW126942   5.264   4.742   1.014
 8681SOL    HW226943   5.335   4.886   1.042
 8682SOL     OW26944   2.250   1.312   3.044
 8682SOL    HW126945   2.281   1.398   3.085
 8682SOL    HW226946   2.313   1.239   3.068
 8683SOL     OW26947   2.609   4.610   3.831
 8683SOL    HW126948   2.562   4.563   3.906
 8683SOL    HW226949   2.670   4.680   3.869
 8684SOL     OW26950   2.327   4.322   3.325
 8684SOL    HW126951   2.392   4.381   3.277
 8684SOL    HW226952   2.349   4.320   3.423
 8685SOL     OW26953   5.169   3.575   5.277
 8685SOL    HW126954   5.160   3.586   5.178
 8685SOL    HW226955   5.110   3.640   5.323
 8686SOL     OW26956   1.355   5.007   3.243
 8686SOL    HW126957   1.363   5.057   3.329
 8686SOL    HW226958   1.269   4.955   3.242
 8687SOL     OW26959   5.471   4.351   5.567
 8687SOL    HW126960   5.499   4.290   5.493
 8687SOL    HW226961   5.415   4.425   5.530
 8688SOL     OW26962   0.684   4.050   5.041
 8688SOL    HW126963   0.705   4.079   4.948
 8688SOL    HW226964   0.623   4.116   5.083
 8689SOL     OW26965   4.810   3.497   0.938
 8689SOL    HW126966   4.780   3.455   0.852
 8689SOL    HW226967   4.731   3.511   0.998
 8690SOL     OW26968   1.475   2.302   2.211
 8690SOL    HW126969   1.401   2.254   2.257
 8690SOL    HW226970   1.480   2.273   2.115
 8691SOL     OW26971   3.246   1.468   6.880
 8691SOL    HW126972   3.271   1.406   6.955
 8691SOL    HW226973   3.295   1.554   6.890
 8692SOL     OW26974   5.394   2.149   4.492
 8692SOL    HW126975   5.315   2.168   4.551
 8692SOL    HW226976   5.406   2.223   4.427
 8693SOL     OW26977   0.201   0.565   5.839
 8693SOL    HW126978   0.150   0.639   5.882
 8693SOL    HW226979   0.165   0.477   5.870
 8694SOL     OW26980   4.044   3.576   5.290
 8694SOL    HW126981   4.115   3.528   5.239
 8694SOL    HW226982   3.997   3.640   5.230
 8695SOL     OW26983   3.996   4.607   1.317
 8695SOL    HW126984   3.990   4.584   1.220
 8695SOL    HW226985   4.074   4.667   1.332
 8696SOL     OW26986   3.151   6.345   6.759
 8696SOL    HW126987   3.182   6.340   6.854
 8696SOL    HW226988   3.052   6.339   6.756
 8697SOL     OW26989   1.547   3.122   4.590
 8697SOL    HW126990   1.466   3.067   4.610
 8697SOL    HW226991   1.629   3.075   4.623
 8698SOL     OW26992   5.533   4.091   0.246
 8698SOL    HW126993   5.530   4.101   0.345
 8698SOL    HW226994   5.622   4.055   0.218
 8699SOL     OW26995   2.823   2.213   1.257
 8699SOL    HW126996   2.745   2.256   1.302
 8699SOL    HW226997   2.811   2.114   1.257
 8700SOL     OW26998   0.242   1.932   4.196
 8700SOL    HW126999   0.218   1.837   4.215
 8700SOL    HW227000   0.338   1.948   4.221
 8701SOL     OW27001   1.965   3.229   6.485
 8701SOL    HW127002   1.967   3.191   6.392
 8701SOL    HW227003   1.880   3.202   6.530
 8702SOL     OW27004   5.667   4.144   1.549
 8702SOL    HW127005   5.636   4.049   1.541
 8702SOL    HW227006   5.603   4.204   1.503
 8703SOL     OW27007   2.061   5.502   2.240
 8703SOL    HW127008   2.049   5.546   2.151
 8703SOL    HW227009   2.026   5.561   2.312
 8704SOL     OW27010   6.571   1.132   3.810
 8704SOL    HW127011   6.474   1.156   3.803
 8704SOL    HW227012   6.603   1.152   3.903
 8705SOL     OW27013   3.530   2.251   0.090
 8705SOL    HW127014   3.567   2.337   0.054
 8705SOL    HW227015   3.605   2.191   0.115
 8706SOL     OW27016   4.779   2.856   5.959
 8706SOL    HW127017   4.860   2.882   6.012
 8706SOL    HW227018   4.731   2.782   6.005
 8707SOL     OW27019   0.425   0.664   3.402
 8707SOL    HW127020   0.504   0.685   3.345
 8707SOL    HW227021   0.432   0.570   3.436
 8708SOL     OW27022   5.902   2.242   0.593
 8708SOL    HW127023   5.950   2.295   0.523
 8708SOL    HW227024   5.911   2.289   0.681
 8709SOL     OW27025   6.456   6.037   3.775
 8709SOL    HW127026   6.510   5.953   3.771
 8709SOL    HW227027   6.470   6.082   3.863
 8710SOL     OW27028   2.333   2.542   3.883
 8710SOL    HW127029   2.376   2.461   3.843
 8710SOL    HW227030   2.305   2.604   3.810
 8711SOL     OW27031   1.722   1.464   2.299
 8711SOL    HW127032   1.670   1.431   2.220
 8711SOL    HW227033   1.771   1.387   2.340
 8712SOL     OW27034   1.890   3.552   4.460
 8712SOL    HW127035   1.839   3.638   4.463
 8712SOL    HW227036   1.985   3.570   4.436
 8713SOL     OW27037   0.142   3.869   2.870
 8713SOL    HW127038   0.054   3.849   2.826
 8713SOL    HW227039   0.161   3.967   2.862
 8714SOL     OW27040   6.962   4.118   6.380
 8714SOL    HW127041   6.873   4.073   6.371
 8714SOL    HW227042   6.971   4.189   6.310
 8715SOL     OW27043   2.598   5.248   0.995
 8715SOL    HW127044   2.568   5.318   1.060
 8715SOL    HW227045   2.656   5.290   0.925
 8716SOL     OW27046   5.589   0.336   2.200
 8716SOL    HW127047   5.523   0.262   2.187
 8716SOL    HW227048   5.540   0.422   2.210
 8717SOL     OW27049   3.819   2.099   0.271
 8717SOL    HW127050   3.902   2.153   0.271
 8717SOL    HW227051   3.794   2.076   0.365
 8718SOL     OW27052   2.880   5.491   6.174
 8718SOL    HW127053   2.913   5.555   6.104
 8718SOL    HW227054   2.954   5.472   6.238
 8719SOL     OW27055   3.075   1.694   5.019
 8719SOL    HW127056   3.147   1.629   5.043
 8719SOL    HW227057   3.117   1.781   4.991
 8720SOL     OW27058   0.406   6.227   5.135
 8720SOL    HW127059   0.321   6.234   5.188
 8720SOL    HW227060   0.458   6.312   5.143
 8721SOL     OW27061   1.422   0.918   1.225
 8721SOL    HW127062   1.333   0.883   1.194
 8721SOL    HW227063   1.487   0.915   1.148
 8722SOL     OW27064   3.966   1.355   0.389
 8722SOL    HW127065   4.045   1.392   0.439
 8722SOL    HW227066   3.907   1.304   0.451
 8723SOL     OW27067   4.037   6.198   2.930
 8723SOL    HW127068   3.961   6.261   2.950
 8723SOL    HW227069   4.051   6.194   2.832
 8724SOL     OW27070   3.163   0.908   5.313
 8724SOL    HW127071   3.231   0.868   5.252
 8724SOL    HW227072   3.171   0.867   5.403
 8725SOL     OW27073   6.607   0.691   2.389
 8725SOL    HW127074   6.623   0.741   2.475
 8725SOL    HW227075   6.580   0.755   2.318
 8726SOL     OW27076   6.930   0.994   0.383
 8726SOL    HW127077   7.010   0.937   0.399
 8726SOL    HW227078   6.892   1.025   0.470
 8727SOL     OW27079   4.924   5.512   6.675
 8727SOL    HW127080   5.002   5.554   6.628
 8727SOL    HW227081   4.857   5.582   6.697
 8728SOL     OW27082   5.900   6.702   4.182
 8728SOL    HW127083   5.874   6.617   4.228
 8728SOL    HW227084   5.818   6.747   4.147
 8729SOL     OW27085   5.694   6.075   5.576
 8729SOL    HW127086   5.649   6.126   5.649
 8729SOL    HW227087   5.626   6.029   5.519
 8730SOL     OW27088   3.894   4.810   1.711
 8730SOL    HW127089   3.940   4.721   1.702
 8730SOL    HW227090   3.899   4.839   1.807
 8731SOL     OW27091   6.994   1.996   4.266
 8731SOL    HW127092   6.975   2.091   4.242
 8731SOL    HW227093   0.069   1.980   4.264
 8732SOL     OW27094   5.133   6.291   5.042
 8732SOL    HW127095   5.060   6.255   5.100
 8732SOL    HW227096   5.220   6.287   5.092
 8733SOL     OW27097   6.321   4.499   1.690
 8733SOL    HW127098   6.243   4.559   1.708
 8733SOL    HW227099   6.297   4.434   1.618
 8734SOL     OW27100   1.121   5.489   1.290
 8734SOL    HW127101   1.059   5.460   1.363
 8734SOL    HW227102   1.079   5.471   1.201
 8735SOL     OW27103   1.099   2.664   6.221
 8735SOL    HW127104   1.058   2.575   6.242
 8735SOL    HW227105   1.113   2.673   6.123
 8736SOL     OW27106   1.338   5.974   3.668
 8736SOL    HW127107   1.384   6.060   3.643
 8736SOL    HW227108   1.407   5.904   3.688
 8737SOL     OW27109   0.192   5.810   6.590
 8737SOL    HW127110   0.152   5.727   6.630
 8737SOL    HW227111   0.201   5.880   6.661
 8738SOL     OW27112   2.228   2.948   2.243
 8738SOL    HW127113   2.267   2.863   2.276
 8738SOL    HW227114   2.167   2.986   2.313
 8739SOL     OW27115   4.344   4.666   2.944
 8739SOL    HW127116   4.412   4.593   2.956
 8739SOL    HW227117   4.279   4.662   3.021
 8740SOL     OW27118   2.921   1.678   3.485
 8740SOL    HW127119   2.995   1.700   3.548
 8740SOL    HW227120   2.852   1.623   3.531
 8741SOL     OW27121   1.786   2.236   2.396
 8741SOL    HW127122   1.769   2.151   2.445
 8741SOL    HW227123   1.835   2.216   2.311
 8742SOL     OW27124   1.803   3.346   1.624
 8742SOL    HW127125   1.821   3.437   1.588
 8742SOL    HW227126   1.889   3.302   1.649
 8743SOL     OW27127   0.964   3.583   7.020
 8743SOL    HW127128   0.873   3.625   7.021
 8743SOL    HW227129   0.955   3.484   7.016
 8744SOL     OW27130   3.219   4.028   6.251
 8744SOL    HW127131   3.303   4.038   6.304
 8744SOL    HW227132   3.140   4.025   6.313
 8745SOL     OW27133   6.058   1.663   6.557
 8745SOL    HW127134   5.992   1.691   6.627
 8745SOL    HW227135   6.116   1.742   6.534
 8746SOL     OW27136   4.279   4.915   4.730
 8746SOL    HW127137   4.333   4.831   4.746
 8746SOL    HW227138   4.276   4.969   4.814
 8747SOL     OW27139   0.811   7.007   2.149
 8747SOL    HW127140   0.730   0.029   2.186
 8747SOL    HW227141   0.818   6.915   2.188
 8748SOL     OW27142   5.545   1.584   4.254
 8748SOL    HW127143   5.600   1.608   4.334
 8748SOL    HW227144   5.521   1.487   4.258
 8749SOL     OW27145   2.974   1.579   4.063
 8749SOL    HW127146   3.068   1.600   4.036
 8749SOL    HW227147   2.945   1.641   4.136
 8750SOL     OW27148   3.982   3.507   1.309
 8750SOL    HW127149   3.893   3.461   1.313
 8750SOL    HW227150   4.042   3.468   1.380
 8751SOL     OW27151   2.096   0.141   0.535
 8751SOL    HW127152   2.111   0.240   0.538
 8751SOL    HW227153   2.183   0.094   0.518
 8752SOL     OW27154   0.280   3.273   6.178
 8752SOL    HW127155   0.299   3.261   6.276
 8752SOL    HW227156   0.332   3.350   6.144
 8753SOL     OW27157   1.878   1.590   1.113
 8753SOL    HW127158   1.818   1.546   1.179
 8753SOL    HW227159   1.830   1.667   1.070
 8754SOL     OW27160   1.367   5.955   5.796
 8754SOL    HW127161   1.322   6.009   5.867
 8754SOL    HW227162   1.326   5.977   5.707
 8755SOL     OW27163   0.753   2.027   1.511
 8755SOL    HW127164   0.707   1.958   1.456
 8755SOL    HW227165   0.687   2.071   1.572
 8756SOL     OW27166   1.532   1.725   2.216
 8756SOL    HW127167   1.434   1.744   2.220
 8756SOL    HW227168   1.547   1.629   2.240
 8757SOL     OW27169   5.705   5.857   4.400
 8757SOL    HW127170   5.729   5.817   4.311
 8757SOL    HW227171   5.755   5.943   4.412
 8758SOL     OW27172   3.434   5.477   6.622
 8758SOL    HW127173   3.395   5.563   6.589
 8758SOL    HW227174   3.425   5.473   6.721
 8759SOL     OW27175   6.708   1.208   1.827
 8759SOL    HW127176   6.667   1.174   1.911
 8759SOL    HW227177   6.746   1.299   1.842
 8760SOL     OW27178   1.863   2.253   4.332
 8760SOL    HW127179   1.874   2.153   4.330
 8760SOL    HW227180   1.945   2.296   4.294
 8761SOL     OW27181   4.655   2.818   3.340
 8761SOL    HW127182   4.656   2.813   3.440
 8761SOL    HW227183   4.648   2.725   3.303
 8762SOL     OW27184   4.451   6.064   2.961
 8762SOL    HW127185   4.370   6.077   3.018
 8762SOL    HW227186   4.451   5.971   2.923
 8763SOL     OW27187   6.876   1.161   5.549
 8763SOL    HW127188   6.928   1.225   5.605
 8763SOL    HW227189   6.929   1.077   5.536
 8764SOL     OW27190   3.329   5.303   6.200
 8764SOL    HW127191   3.412   5.346   6.235
 8764SOL    HW227192   3.349   5.259   6.113
 8765SOL     OW27193   4.642   6.650   3.498
 8765SOL    HW127194   4.568   6.598   3.455
 8765SOL    HW227195   4.728   6.632   3.449
 8766SOL     OW27196   6.056   0.075   4.755
 8766SOL    HW127197   6.149   0.077   4.718
 8766SOL    HW227198   6.033   0.164   4.794
 8767SOL     OW27199   2.121   1.181   4.913
 8767SOL    HW127200   2.120   1.177   5.013
 8767SOL    HW227201   2.197   1.239   4.883
 8768SOL     OW27202   6.576   1.453   1.170
 8768SOL    HW127203   6.482   1.438   1.201
 8768SOL    HW227204   6.594   1.551   1.164
 8769SOL     OW27205   6.377   6.815   6.571
 8769SOL    HW127206   6.399   6.723   6.604
 8769SOL    HW227207   6.411   6.826   6.478
 8770SOL     OW27208   4.519   1.497   0.345
 8770SOL    HW127209   4.497   1.401   0.360
 8770SOL    HW227210   4.509   1.548   0.430
 8771SOL     OW27211   0.353   2.530   6.130
 8771SOL    HW127212   0.327   2.514   6.035
 8771SOL    HW227213   0.324   2.452   6.186
 8772SOL     OW27214   0.666   6.605   3.765
 8772SOL    HW127215   0.656   6.628   3.668
 8772SOL    HW227216   0.727   6.526   3.774
 8773SOL     OW27217   0.063   1.139   3.825
 8773SOL    HW127218   0.155   1.143   3.787
 8773SOL    HW227219   0.027   1.232   3.834
 8774SOL     OW27220   1.418   2.085   6.838
 8774SOL    HW127221   1.338   2.082   6.898
 8774SOL    HW227222   1.389   2.065   6.744
 8775SOL     OW27223   5.288   2.130   2.998
 8775SOL    HW127224   5.321   2.121   2.904
 8775SOL    HW227225   5.366   2.130   3.061
 8776SOL     OW27226   5.099   3.006   1.610
 8776SOL    HW127227   5.021   3.029   1.669
 8776SOL    HW227228   5.122   2.909   1.621
 8777SOL     OW27229   6.702   2.072   4.398
 8777SOL    HW127230   6.784   2.045   4.347
 8777SOL    HW227231   6.702   2.171   4.412
 8778SOL     OW27232   1.955   3.862   0.005
 8778SOL    HW127233   1.856   3.865   0.020
 8778SOL    HW227234   1.996   3.797   0.070
 8779SOL     OW27235   4.054   5.901   3.105
 8779SOL    HW127236   4.090   5.834   3.040
 8779SOL    HW227237   3.955   5.903   3.098
 8780SOL     OW27238   1.241   3.911   4.131
 8780SOL    HW127239   1.195   3.983   4.183
 8780SOL    HW227240   1.172   3.855   4.084
 8781SOL     OW27241   3.602   1.689   1.864
 8781SOL    HW127242   3.508   1.711   1.839
 8781SOL    HW227243   3.632   1.751   1.936
 8782SOL     OW27244   6.784   2.733   0.291
 8782SOL    HW127245   6.726   2.783   0.226
 8782SOL    HW227246   6.739   2.648   0.318
 8783SOL     OW27247   3.866   3.407   5.441
 8783SOL    HW127248   3.820   3.352   5.371
 8783SOL    HW227249   3.933   3.467   5.398
 8784SOL     OW27250   4.125   1.158   6.221
 8784SOL    HW127251   4.165   1.081   6.271
 8784SOL    HW227252   4.120   1.135   6.123
 8785SOL     OW27253   6.999   6.381   6.242
 8785SOL    HW127254   0.056   6.386   6.183
 8785SOL    HW227255   7.003   6.299   6.298
 8786SOL     OW27256   5.713   2.098   3.341
 8786SOL    HW127257   5.749   2.014   3.381
 8786SOL    HW227258   5.698   2.166   3.413
 8787SOL     OW27259   3.453   4.911   2.425
 8787SOL    HW127260   3.515   4.984   2.397
 8787SOL    HW227261   3.411   4.870   2.344
 8788SOL     OW27262   0.154   6.013   3.730
 8788SOL    HW127263   0.063   6.051   3.715
 8788SOL    HW227264   0.148   5.931   3.786
 8789SOL     OW27265   1.364   3.255   6.996
 8789SOL    HW127266   1.304   3.209   0.037
 8789SOL    HW227267   1.404   3.336   0.016
 8790SOL     OW27268   5.087   3.018   5.202
 8790SOL    HW127269   5.180   2.984   5.184
 8790SOL    HW227270   5.027   2.990   5.127
 8791SOL     OW27271   4.128   5.890   4.973
 8791SOL    HW127272   4.188   5.860   4.900
 8791SOL    HW227273   4.141   5.833   5.054
 8792SOL     OW27274   5.597   4.929   0.490
 8792SOL    HW127275   5.669   4.866   0.519
 8792SOL    HW227276   5.516   4.876   0.463
 8793SOL     OW27277   6.298   0.032   5.350
 8793SOL    HW127278   6.377   0.048   5.409
 8793SOL    HW227279   6.214   0.055   5.400
 8794SOL     OW27280   0.225   2.319   3.303
 8794SOL    HW127281   0.293   2.372   3.355
 8794SOL    HW227282   0.143   2.375   3.290
 8795SOL     OW27283   1.558   0.174   6.710
 8795SOL    HW127284   1.468   0.130   6.710
 8795SOL    HW227285   1.629   0.106   6.691
 8796SOL     OW27286   5.402   4.486   4.232
 8796SOL    HW127287   5.332   4.556   4.213
 8796SOL    HW227288   5.482   4.503   4.175
 8797SOL     OW27289   5.060   6.034   4.746
 8797SOL    HW127290   5.071   6.012   4.649
 8797SOL    HW227291   5.098   5.960   4.801
 8798SOL     OW27292   1.869   5.690   5.882
 8798SOL    HW127293   1.943   5.702   5.815
 8798SOL    HW227294   1.908   5.677   5.973
 8799SOL     OW27295   1.554   6.722   1.827
 8799SOL    HW127296   1.474   6.701   1.883
 8799SOL    HW227297   1.592   6.638   1.790
 8800SOL     OW27298   6.754   5.878   3.930
 8800SOL    HW127299   6.736   5.827   3.845
 8800SOL    HW227300   6.714   5.829   4.007
 8801SOL     OW27301   4.784   3.190   5.585
 8801SOL    HW127302   4.842   3.246   5.644
 8801SOL    HW227303   4.739   3.248   5.517
 8802SOL     OW27304   1.207   6.711   7.007
 8802SOL    HW127305   1.271   6.642   6.974
 8802SOL    HW227306   1.169   6.762   6.929
 8803SOL     OW27307   5.216   5.343   4.863
 8803SOL    HW127308   5.135   5.365   4.916
 8803SOL    HW227309   5.298   5.371   4.914
 8804SOL     OW27310   1.796   6.811   2.008
 8804SOL    HW127311   1.697   6.800   2.012
 8804SOL    HW227312   1.836   6.789   2.097
 8805SOL     OW27313   5.190   4.640   1.917
 8805SOL    HW127314   5.260   4.699   1.877
 8805SOL    HW227315   5.180   4.662   2.014
 8806SOL     OW27316   1.245   0.889   1.830
 8806SOL    HW127317   1.226   0.984   1.804
 8806SOL    HW227318   1.266   0.885   1.928
 8807SOL     OW27319   6.142   2.336   1.843
 8807SOL    HW127320   6.055   2.377   1.817
 8807SOL    HW227321   6.172   2.373   1.931
 8808SOL     OW27322   1.478   1.659   0.545
 8808SOL    HW127323   1.521   1.580   0.502
 8808SOL    HW227324   1.382   1.640   0.564
 8809SOL     OW27325   0.877   3.582   3.090
 8809SOL    HW127326   0.841   3.577   3.183
 8809SOL    HW227327   0.860   3.673   3.052
 8810SOL     OW27328   6.330   2.367   4.474
 8810SOL    HW127329   6.392   2.329   4.542
 8810SOL    HW227330   6.369   2.356   4.382
 8811SOL     OW27331   3.965   5.344   2.394
 8811SOL    HW127332   3.971   5.276   2.321
 8811SOL    HW227333   4.021   5.316   2.471
 8812SOL     OW27334   5.788   0.484   0.517
 8812SOL    HW127335   5.856   0.486   0.590
 8812SOL    HW227336   5.815   0.548   0.445
 8813SOL     OW27337   1.488   2.917   1.853
 8813SOL    HW127338   1.496   2.955   1.945
 8813SOL    HW227339   1.459   2.822   1.859
 8814SOL     OW27340   5.295   0.200   5.099
 8814SOL    HW127341   5.262   0.294   5.090
 8814SOL    HW227342   5.223   0.137   5.070
 8815SOL     OW27343   5.087   1.052   1.041
 8815SOL    HW127344   5.162   1.011   0.988
 8815SOL    HW227345   5.005   0.996   1.032
 8816SOL     OW27346   6.915   0.264   3.316
 8816SOL    HW127347   6.887   0.176   3.354
 8816SOL    HW227348   6.898   0.265   3.218
 8817SOL     OW27349   1.052   2.362   3.607
 8817SOL    HW127350   1.053   2.263   3.598
 8817SOL    HW227351   1.116   2.403   3.542
 8818SOL     OW27352   1.136   6.274   6.501
 8818SOL    HW127353   1.114   6.199   6.563
 8818SOL    HW227354   1.205   6.333   6.543
 8819SOL     OW27355   5.028   6.236   5.622
 8819SOL    HW127356   5.109   6.213   5.568
 8819SOL    HW227357   4.985   6.152   5.656
 8820SOL     OW27358   4.018   6.626   5.704
 8820SOL    HW127359   3.963   6.651   5.784
 8820SOL    HW227360   3.965   6.643   5.621
 8821SOL     OW27361   0.680   5.630   5.457
 8821SOL    HW127362   0.604   5.648   5.394
 8821SOL    HW227363   0.645   5.587   5.540
 8822SOL     OW27364   6.278   0.080   4.597
 8822SOL    HW127365   6.284   0.007   4.529
 8822SOL    HW227366   6.366   0.087   4.645
 8823SOL     OW27367   4.891   1.796   3.259
 8823SOL    HW127368   4.950   1.843   3.323
 8823SOL    HW227369   4.947   1.751   3.189
 8824SOL     OW27370   1.752   0.215   4.293
 8824SOL    HW127371   1.691   0.292   4.312
 8824SOL    HW227372   1.841   0.249   4.263
 8825SOL     OW27373   1.239   0.017   0.492
 8825SOL    HW127374   1.199   0.082   0.427
 8825SOL    HW227375   1.196   6.952   0.480
 8826SOL     OW27376   0.543   4.015   0.363
 8826SOL    HW127377   0.624   3.984   0.413
 8826SOL    HW227378   0.463   4.012   0.424
 8827SOL     OW27379   4.963   5.981   3.418
 8827SOL    HW127380   4.978   5.886   3.446
 8827SOL    HW227381   4.984   6.042   3.494
 8828SOL     OW27382   5.285   2.261   5.705
 8828SOL    HW127383   5.313   2.167   5.724
 8828SOL    HW227384   5.347   2.324   5.752
 8829SOL     OW27385   6.072   1.108   2.916
 8829SOL    HW127386   6.021   1.023   2.902
 8829SOL    HW227387   6.008   1.183   2.936
 8830SOL     OW27388   3.256   0.694   2.959
 8830SOL    HW127389   3.279   0.757   2.886
 8830SOL    HW227390   3.337   0.640   2.984
 8831SOL     OW27391   0.736   2.789   2.524
 8831SOL    HW127392   0.743   2.848   2.604
 8831SOL    HW227393   0.820   2.793   2.471
 8832SOL     OW27394   5.975   0.286   5.170
 8832SOL    HW127395   5.955   0.367   5.225
 8832SOL    HW227396   5.945   0.204   5.219
 8833SOL     OW27397   4.848   2.845   0.747
 8833SOL    HW127398   4.909   2.924   0.749
 8833SOL    HW227399   4.893   2.770   0.699
 8834SOL     OW27400   5.666   4.578   6.190
 8834SOL    HW127401   5.662   4.600   6.287
 8834SOL    HW227402   5.743   4.516   6.173
 8835SOL     OW27403   6.383   0.862   5.135
 8835SOL    HW127404   6.398   0.821   5.045
 8835SOL    HW227405   6.446   0.940   5.147
 8836SOL     OW27406   4.314   1.563   1.339
 8836SOL    HW127407   4.238   1.610   1.293
 8836SOL    HW227408   4.301   1.569   1.438
 8837SOL     OW27409   4.795   4.885   0.313
 8837SOL    HW127410   4.859   4.863   0.387
 8837SOL    HW227411   4.705   4.902   0.351
 8838SOL     OW27412   2.179   4.040   2.574
 8838SOL    HW127413   2.157   4.102   2.499
 8838SOL    HW227414   2.198   3.949   2.538
 8839SOL     OW27415   4.512   4.769   1.366
 8839SOL    HW127416   4.503   4.761   1.466
 8839SOL    HW227417   4.455   4.845   1.334
 8840SOL     OW27418   0.565   0.595   1.592
 8840SOL    HW127419   0.584   0.677   1.646
 8840SOL    HW227420   0.541   0.519   1.653
 8841SOL     OW27421   3.821   1.400   1.081
 8841SOL    HW127422   3.726   1.432   1.092
 8841SOL    HW227423   3.840   1.328   1.148
 8842SOL     OW27424   3.274   3.357   3.698
 8842SOL    HW127425   3.237   3.443   3.734
 8842SOL    HW227426   3.348   3.325   3.757
 8843SOL     OW27427   2.513   6.094   5.398
 8843SOL    HW127428   2.546   6.176   5.351
 8843SOL    HW227429   2.586   6.056   5.455
 8844SOL     OW27430   3.794   2.951   5.642
 8844SOL    HW127431   3.868   2.914   5.586
 8844SOL    HW227432   3.824   2.958   5.737
 8845SOL     OW27433   0.834   3.510   2.139
 8845SOL    HW127434   0.921   3.480   2.099
 8845SOL    HW227435   0.762   3.507   2.069
 8846SOL     OW27436   5.587   5.555   4.120
 8846SOL    HW127437   5.511   5.522   4.177
 8846SOL    HW227438   5.551   5.586   4.032
 8847SOL     OW27439   0.590   2.330   3.792
 8847SOL    HW127440   0.628   2.238   3.788
 8847SOL    HW227441   0.572   2.355   3.887
 8848SOL     OW27442   6.118   2.383   1.091
 8848SOL    HW127443   6.195   2.417   1.035
 8848SOL    HW227444   6.086   2.456   1.151
 8849SOL     OW27445   2.960   5.423   4.659
 8849SOL    HW127446   2.898   5.369   4.602
 8849SOL    HW227447   3.054   5.414   4.625
 8850SOL     OW27448   3.447   2.453   0.814
 8850SOL    HW127449   3.510   2.421   0.884
 8850SOL    HW227450   3.354   2.456   0.852
 8851SOL     OW27451   6.997   4.924   3.025
 8851SOL    HW127452   0.031   5.005   3.014
 8851SOL    HW227453   6.986   4.879   2.937
 8852SOL     OW27454   5.251   3.652   4.632
 8852SOL    HW127455   5.225   3.689   4.543
 8852SOL    HW227456   5.334   3.597   4.623
 8853SOL     OW27457   4.904   1.762   4.855
 8853SOL    HW127458   4.920   1.807   4.943
 8853SOL    HW227459   4.923   1.827   4.780
 8854SOL     OW27460   2.961   1.001   5.881
 8854SOL    HW127461   2.920   1.063   5.948
 8854SOL    HW227462   3.007   1.054   5.810
 8855SOL     OW27463   5.954   4.986   6.167
 8855SOL    HW127464   5.950   4.928   6.248
 8855SOL    HW227465   5.929   4.932   6.087
 8856SOL     OW27466   5.660   1.382   5.381
 8856SOL    HW127467   5.628   1.374   5.287
 8856SOL    HW227468   5.607   1.320   5.439
 8857SOL     OW27469   2.147   3.315   4.445
 8857SOL    HW127470   2.188   3.404   4.424
 8857SOL    HW227471   2.145   3.301   4.544
 8858SOL     OW27472   0.361   3.563   5.623
 8858SOL    HW127473   0.412   3.481   5.599
 8858SOL    HW227474   0.411   3.644   5.591
 8859SOL     OW27475   2.393   6.496   5.488
 8859SOL    HW127476   2.324   6.560   5.455
 8859SOL    HW227477   2.348   6.422   5.537
 8860SOL     OW27478   2.074   1.369   1.139
 8860SOL    HW127479   2.151   1.427   1.164
 8860SOL    HW227480   1.992   1.426   1.128
 8861SOL     OW27481   1.737   2.427   0.466
 8861SOL    HW127482   1.743   2.507   0.525
 8861SOL    HW227483   1.811   2.430   0.398
 8862SOL     OW27484   6.962   2.129   4.790
 8862SOL    HW127485   6.893   2.201   4.777
 8862SOL    HW227486   0.010   2.140   4.722
 8863SOL     OW27487   1.916   5.635   5.426
 8863SOL    HW127488   1.899   5.538   5.442
 8863SOL    HW227489   2.006   5.647   5.384
 8864SOL     OW27490   1.923   4.523   5.739
 8864SOL    HW127491   1.848   4.559   5.795
 8864SOL    HW227492   1.932   4.424   5.755
 8865SOL     OW27493   3.237   2.226   5.940
 8865SOL    HW127494   3.196   2.189   6.023
 8865SOL    HW227495   3.210   2.171   5.861
 8866SOL     OW27496   4.842   0.519   5.277
 8866SOL    HW127497   4.860   0.422   5.260
 8866SOL    HW227498   4.921   0.560   5.324
 8867SOL     OW27499   6.231   1.074   3.710
 8867SOL    HW127500   6.258   0.981   3.736
 8867SOL    HW227501   6.271   1.140   3.774
 8868SOL     OW27502   5.471   3.472   0.747
 8868SOL    HW127503   5.430   3.528   0.819
 8868SOL    HW227504   5.510   3.532   0.676
 8869SOL     OW27505   3.326   2.031   3.298
 8869SOL    HW127506   3.301   2.012   3.203
 8869SOL    HW227507   3.364   1.949   3.340
 8870SOL     OW27508   4.930   0.823   1.938
 8870SOL    HW127509   4.983   0.908   1.936
 8870SOL    HW227510   4.876   0.820   2.023
 8871SOL     OW27511   1.453   2.115   3.545
 8871SOL    HW127512   1.529   2.180   3.555
 8871SOL    HW227513   1.434   2.101   3.448
 8872SOL     OW27514   1.282   2.058   2.022
 8872SOL    HW127515   1.223   2.138   2.014
 8872SOL    HW227516   1.264   1.995   1.947
 8873SOL     OW27517   6.680   5.493   4.819
 8873SOL    HW127518   6.713   5.565   4.879
 8873SOL    HW227519   6.757   5.438   4.787
 8874SOL     OW27520   1.100   1.392   6.505
 8874SOL    HW127521   1.055   1.482   6.504
 8874SOL    HW227522   1.034   1.322   6.480
 8875SOL     OW27523   1.233   0.941   4.111
 8875SOL    HW127524   1.277   0.956   4.023
 8875SOL    HW227525   1.165   0.868   4.102
 8876SOL     OW27526   2.926   0.782   4.776
 8876SOL    HW127527   2.955   0.696   4.733
 8876SOL    HW227528   2.842   0.767   4.828
 8877SOL     OW27529   3.030   6.945   4.280
 8877SOL    HW127530   3.068   7.004   4.351
 8877SOL    HW227531   3.012   6.998   4.198
 8878SOL     OW27532   5.795   4.630   5.045
 8878SOL    HW127533   5.825   4.550   5.098
 8878SOL    HW227534   5.698   4.620   5.023
 8879SOL     OW27535   4.550   5.471   4.312
 8879SOL    HW127536   4.488   5.549   4.314
 8879SOL    HW227537   4.601   5.471   4.226
 8880SOL     OW27538   1.036   6.480   5.243
 8880SOL    HW127539   1.025   6.576   5.266
 8880SOL    HW227540   0.948   6.433   5.253
 8881SOL     OW27541   6.920   1.577   2.661
 8881SOL    HW127542   6.868   1.654   2.698
 8881SOL    HW227543   6.956   1.522   2.737
 8882SOL     OW27544   5.495   2.846   0.425
 8882SOL    HW127545   5.590   2.815   0.423
 8882SOL    HW227546   5.471   2.873   0.518
 8883SOL     OW27547   5.957   0.965   5.443
 8883SOL    HW127548   5.989   1.050   5.484
 8883SOL    HW227549   5.880   0.983   5.382
 8884SOL     OW27550   0.243   1.453   6.637
 8884SOL    HW127551   0.195   1.375   6.678
 8884SOL    HW227552   0.261   1.434   6.540
 8885SOL     OW27553   5.600   3.864   1.594
 8885SOL    HW127554   5.660   3.828   1.665
 8885SOL    HW227555   5.549   3.789   1.552
 8886SOL     OW27556   3.004   5.700   6.047
 8886SOL    HW127557   2.963   5.739   5.965
 8886SOL    HW227558   3.086   5.649   6.021
 8887SOL     OW27559   1.525   1.615   1.065
 8887SOL    HW127560   1.487   1.575   0.981
 8887SOL    HW227561   1.566   1.543   1.121
 8888SOL     OW27562   2.919   1.885   3.085
 8888SOL    HW127563   2.915   1.920   2.992
 8888SOL    HW227564   2.842   1.823   3.101
 8889SOL     OW27565   3.511   0.869   4.381
 8889SOL    HW127566   3.571   0.873   4.461
 8889SOL    HW227567   3.467   0.779   4.377
 8890SOL     OW27568   0.187   4.650   3.386
 8890SOL    HW127569   0.168   4.703   3.303
 8890SOL    HW227570   0.124   4.572   3.390
 8891SOL     OW27571   3.190   1.222   6.103
 8891SOL    HW127572   3.249   1.171   6.166
 8891SOL    HW227573   3.095   1.208   6.129
 8892SOL     OW27574   1.233   6.961   2.635
 8892SOL    HW127575   1.303   7.012   2.684
 8892SOL    HW227576   1.143   6.980   2.676
 8893SOL     OW27577   0.430   1.084   0.795
 8893SOL    HW127578   0.343   1.128   0.816
 8893SOL    HW227579   0.488   1.148   0.745
 8894SOL     OW27580   4.973   2.263   6.078
 8894SOL    HW127581   4.991   2.175   6.121
 8894SOL    HW227582   4.885   2.261   6.032
 8895SOL     OW27583   1.880   1.350   3.060
 8895SOL    HW127584   1.934   1.278   3.104
 8895SOL    HW227585   1.829   1.311   2.983
 8896SOL     OW27586   2.206   4.328   5.231
 8896SOL    HW127587   2.268   4.307   5.306
 8896SOL    HW227588   2.187   4.245   5.178
 8897SOL     OW27589   0.877   2.478   1.532
 8897SOL    HW127590   0.839   2.570   1.528
 8897SOL    HW227591   0.969   2.478   1.492
 8898SOL     OW27592   0.268   2.962   5.216
 8898SOL    HW127593   0.179   2.994   5.247
 8898SOL    HW227594   0.280   2.866   5.243
 8899SOL     OW27595   3.130   5.389   1.734
 8899SOL    HW127596   3.158   5.408   1.829
 8899SOL    HW227597   3.091   5.297   1.728
 8900SOL     OW27598   6.438   2.040   3.640
 8900SOL    HW127599   6.518   1.997   3.681
 8900SOL    HW227600   6.424   2.131   3.681
 8901SOL     OW27601   2.080   0.141   1.784
 8901SOL    HW127602   2.103   0.059   1.731
 8901SOL    HW227603   2.091   0.222   1.727
 8902SOL     OW27604   3.594   6.241   5.782
 8902SOL    HW127605   3.678   6.251   5.728
 8902SOL    HW227606   3.589   6.315   5.848
 8903SOL     OW27607   6.564   0.253   2.637
 8903SOL    HW127608   6.513   0.266   2.723
 8903SOL    HW227609   6.539   0.324   2.572
 8904SOL     OW27610   0.975   4.652   3.268
 8904SOL    HW127611   0.942   4.646   3.173
 8904SOL    HW227612   0.900   4.633   3.331
 8905SOL     OW27613   2.201   3.997   4.804
 8905SOL    HW127614   2.260   3.976   4.882
 8905SOL    HW227615   2.115   4.034   4.837
 8906SOL     OW27616   2.241   5.313   4.856
 8906SOL    HW127617   2.169   5.282   4.919
 8906SOL    HW227618   2.203   5.382   4.794
 8907SOL     OW27619   3.608   2.489   6.571
 8907SOL    HW127620   3.559   2.537   6.644
 8907SOL    HW227621   3.560   2.503   6.484
 8908SOL     OW27622   0.796   2.966   2.740
 8908SOL    HW127623   0.753   2.929   2.823
 8908SOL    HW227624   0.829   3.059   2.758
 8909SOL     OW27625   3.396   0.147   5.205
 8909SOL    HW127626   3.337   0.074   5.239
 8909SOL    HW227627   3.399   0.144   5.105
 8910SOL     OW27628   4.045   2.899   0.231
 8910SOL    HW127629   4.060   2.965   0.304
 8910SOL    HW227630   3.970   2.929   0.173
 8911SOL     OW27631   5.109   2.498   3.751
 8911SOL    HW127632   5.134   2.466   3.842
 8911SOL    HW227633   5.025   2.553   3.757
 8912SOL     OW27634   4.730   0.784   6.643
 8912SOL    HW127635   4.784   0.869   6.645
 8912SOL    HW227636   4.788   0.707   6.669
 8913SOL     OW27637   4.450   4.005   1.211
 8913SOL    HW127638   4.437   4.104   1.216
 8913SOL    HW227639   4.496   3.982   1.125
 8914SOL     OW27640   4.880   2.610   4.156
 8914SOL    HW127641   4.969   2.606   4.201
 8914SOL    HW227642   4.868   2.530   4.097
 8915SOL     OW27643   0.586   5.317   2.276
 8915SOL    HW127644   0.513   5.366   2.324
 8915SOL    HW227645   0.636   5.380   2.217
 8916SOL     OW27646   5.865   3.304   2.527
 8916SOL    HW127647   5.803   3.362   2.474
 8916SOL    HW227648   5.817   3.222   2.557
 8917SOL     OW27649   5.486   4.711   4.980
 8917SOL    HW127650   5.432   4.668   5.053
 8917SOL    HW227651   5.505   4.806   5.004
 8918SOL     OW27652   5.039   3.990   6.097
 8918SOL    HW127653   4.964   4.022   6.155
 8918SOL    HW227654   5.004   3.921   6.034
 8919SOL     OW27655   2.092   3.349   1.688
 8919SOL    HW127656   2.118   3.284   1.616
 8919SOL    HW227657   2.071   3.299   1.772
 8920SOL     OW27658   6.650   5.426   5.601
 8920SOL    HW127659   6.732   5.455   5.552
 8920SOL    HW227660   6.670   5.418   5.698
 8921SOL     OW27661   0.743   5.450   3.742
 8921SOL    HW127662   0.763   5.358   3.774
 8921SOL    HW227663   0.825   5.507   3.750
 8922SOL     OW27664   0.169   3.893   6.331
 8922SOL    HW127665   0.208   3.983   6.350
 8922SOL    HW227666   0.145   3.887   6.234
 8923SOL     OW27667   2.533   4.508   4.381
 8923SOL    HW127668   2.552   4.573   4.454
 8923SOL    HW227669   2.467   4.440   4.411
 8924SOL     OW27670   2.151   6.398   4.732
 8924SOL    HW127671   2.206   6.361   4.807
 8924SOL    HW227672   2.183   6.358   4.645
 8925SOL     OW27673   4.728   5.413   1.314
 8925SOL    HW127674   4.714   5.379   1.407
 8925SOL    HW227675   4.767   5.340   1.258
 8926SOL     OW27676   5.567   0.336   6.712
 8926SOL    HW127677   5.660   0.346   6.678
 8926SOL    HW227678   5.507   0.401   6.666
 8927SOL     OW27679   2.680   1.636   4.850
 8927SOL    HW127680   2.610   1.656   4.919
 8927SOL    HW227681   2.665   1.691   4.769
 8928SOL     OW27682   1.002   0.156   5.244
 8928SOL    HW127683   0.973   0.244   5.207
 8928SOL    HW227684   1.098   0.161   5.273
 8929SOL     OW27685   4.962   4.037   3.372
 8929SOL    HW127686   4.916   4.116   3.412
 8929SOL    HW227687   4.955   3.959   3.434
 8930SOL     OW27688   0.516   5.743   5.260
 8930SOL    HW127689   0.546   5.714   5.169
 8930SOL    HW227690   0.426   5.785   5.253
 8931SOL     OW27691   4.627   1.191   1.365
 8931SOL    HW127692   4.665   1.265   1.308
 8931SOL    HW227693   4.626   1.106   1.312
 8932SOL     OW27694   5.096   0.839   0.275
 8932SOL    HW127695   5.131   0.781   0.202
 8932SOL    HW227696   4.996   0.833   0.279
 8933SOL     OW27697   1.635   0.278   5.285
 8933SOL    HW127698   1.581   0.346   5.235
 8933SOL    HW227699   1.643   0.195   5.230
 8934SOL     OW27700   3.788   6.792   4.208
 8934SOL    HW127701   3.753   6.726   4.275
 8934SOL    HW227702   3.723   6.801   4.133
 8935SOL     OW27703   5.650   1.649   3.011
 8935SOL    HW127704   5.590   1.727   2.993
 8935SOL    HW227705   5.688   1.617   2.924
 8936SOL     OW27706   1.557   4.059   2.120
 8936SOL    HW127707   1.653   4.043   2.094
 8936SOL    HW227708   1.554   4.131   2.190
 8937SOL     OW27709   3.056   6.984   4.871
 8937SOL    HW127710   3.092   0.049   4.840
 8937SOL    HW227711   3.066   6.917   4.797
 8938SOL     OW27712   5.644   6.441   1.397
 8938SOL    HW127713   5.546   6.442   1.415
 8938SOL    HW227714   5.669   6.523   1.345
 8939SOL     OW27715   6.726   3.028   4.683
 8939SOL    HW127716   6.683   2.940   4.702
 8939SOL    HW227717   6.684   3.068   4.601
 8940SOL     OW27718   6.507   3.343   2.204
 8940SOL    HW127719   6.586   3.386   2.159
 8940SOL    HW227720   6.459   3.412   2.259
 8941SOL     OW27721   5.896   2.122   3.077
 8941SOL    HW127722   5.911   2.205   3.131
 8941SOL    HW227723   5.973   2.060   3.088
 8942SOL     OW27724   4.559   4.877   3.865
 8942SOL    HW127725   4.539   4.781   3.886
 8942SOL    HW227726   4.658   4.891   3.864
 8943SOL     OW27727   4.072   3.461   0.585
 8943SOL    HW127728   4.081   3.506   0.674
 8943SOL    HW227729   4.044   3.366   0.598
 8944SOL     OW27730   4.752   6.299   4.921
 8944SOL    HW127731   4.770   6.371   4.853
 8944SOL    HW227732   4.764   6.337   5.013
 8945SOL     OW27733   6.335   4.838   1.606
 8945SOL    HW127734   6.387   4.855   1.522
 8945SOL    HW227735   6.389   4.781   1.668
 8946SOL     OW27736   3.576   1.488   4.602
 8946SOL    HW127737   3.536   1.400   4.579
 8946SOL    HW227738   3.671   1.476   4.631
 8947SOL     OW27739   2.528   5.305   0.598
 8947SOL    HW127740   2.552   5.259   0.512
 8947SOL    HW227741   2.603   5.365   0.625
 8948SOL     OW27742   5.328   0.333   2.863
 8948SOL    HW127743   5.348   0.421   2.905
 8948SOL    HW227744   5.345   0.339   2.764
 8949SOL     OW27745   3.946   6.396   0.989
 8949SOL    HW127746   3.991   6.419   0.903
 8949SOL    HW227747   3.874   6.463   1.008
 8950SOL     OW27748   3.386   4.146   3.174
 8950SOL    HW127749   3.430   4.056   3.170
 8950SOL    HW227750   3.375   4.173   3.269
 8951SOL     OW27751   0.573   0.378   3.844
 8951SOL    HW127752   0.544   0.447   3.778
 8951SOL    HW227753   0.547   0.407   3.936
 8952SOL     OW27754   1.339   3.712   4.861
 8952SOL    HW127755   1.387   3.704   4.948
 8952SOL    HW227756   1.318   3.808   4.843
 8953SOL     OW27757   0.479   5.263   0.870
 8953SOL    HW127758   0.390   5.227   0.841
 8953SOL    HW227759   0.473   5.294   0.965
 8954SOL     OW27760   2.314   4.585   5.493
 8954SOL    HW127761   2.303   4.588   5.394
 8954SOL    HW227762   2.287   4.495   5.527
 8955SOL     OW27763   6.057   3.264   6.152
 8955SOL    HW127764   6.056   3.165   6.161
 8955SOL    HW227765   6.125   3.303   6.213
 8956SOL     OW27766   0.665   6.263   0.827
 8956SOL    HW127767   0.617   6.193   0.880
 8956SOL    HW227768   0.760   6.266   0.856
 8957SOL     OW27769   1.141   0.065   3.328
 8957SOL    HW127770   1.101   7.016   3.273
 8957SOL    HW227771   1.137   0.040   3.425
 8958SOL     OW27772   6.663   3.616   4.949
 8958SOL    HW127773   6.573   3.650   4.976
 8958SOL    HW227774   6.728   3.627   5.024
 8959SOL     OW27775   4.989   1.664   4.032
 8959SOL    HW127776   4.989   1.572   4.071
 8959SOL    HW227777   4.963   1.731   4.101
 8960SOL     OW27778   5.265   5.099   2.713
 8960SOL    HW127779   5.206   5.049   2.650
 8960SOL    HW227780   5.360   5.091   2.682
 8961SOL     OW27781   2.343   1.924   5.817
 8961SOL    HW127782   2.437   1.925   5.784
 8961SOL    HW227783   2.281   1.952   5.744
 8962SOL     OW27784   6.935   6.257   1.895
 8962SOL    HW127785   6.917   6.161   1.876
 8962SOL    HW227786   6.967   6.267   1.989
 8963SOL     OW27787   2.209   6.186   5.979
 8963SOL    HW127788   2.229   6.091   6.004
 8963SOL    HW227789   2.134   6.188   5.913
 8964SOL     OW27790   1.021   2.624   3.685
 8964SOL    HW127791   1.117   2.649   3.701
 8964SOL    HW227792   1.011   2.525   3.693
 8965SOL     OW27793   3.842   5.975   0.387
 8965SOL    HW127794   3.743   5.972   0.400
 8965SOL    HW227795   3.884   5.894   0.429
 8966SOL     OW27796   5.069   0.300   5.312
 8966SOL    HW127797   4.980   0.260   5.330
 8966SOL    HW227798   5.141   0.237   5.342
 8967SOL     OW27799   2.900   0.695   3.255
 8967SOL    HW127800   2.961   0.694   3.176
 8967SOL    HW227801   2.953   0.682   3.339
 8968SOL     OW27802   3.068   5.151   2.666
 8968SOL    HW127803   3.139   5.148   2.595
 8968SOL    HW227804   2.983   5.184   2.625
 8969SOL     OW27805   7.022   0.890   2.767
 8969SOL    HW127806   0.001   0.868   2.670
 8969SOL    HW227807   6.932   0.927   2.791
 8970SOL     OW27808   2.249   1.578   4.378
 8970SOL    HW127809   2.278   1.488   4.408
 8970SOL    HW227810   2.246   1.581   4.278
 8971SOL     OW27811   2.965   4.689   1.175
 8971SOL    HW127812   2.885   4.704   1.116
 8971SOL    HW227813   2.947   4.728   1.265
 8972SOL     OW27814   6.326   3.877   6.581
 8972SOL    HW127815   6.240   3.921   6.606
 8972SOL    HW227816   6.316   3.778   6.587
 8973SOL     OW27817   2.611   1.732   4.261
 8973SOL    HW127818   2.654   1.799   4.200
 8973SOL    HW227819   2.544   1.778   4.318
 8974SOL     OW27820   1.987   4.498   5.192
 8974SOL    HW127821   1.901   4.449   5.175
 8974SOL    HW227822   2.056   4.433   5.224
 8975SOL     OW27823   0.585   3.168   6.413
 8975SOL    HW127824   0.586   3.095   6.345
 8975SOL    HW227825   0.501   3.222   6.403
 8976SOL     OW27826   5.863   0.194   1.548
 8976SOL    HW127827   5.886   0.282   1.507
 8976SOL    HW227828   5.947   0.143   1.567
 8977SOL     OW27829   6.984   5.134   6.199
 8977SOL    HW127830   0.015   5.175   6.126
 8977SOL    HW227831   0.007   5.146   6.287
 8978SOL     OW27832   6.459   5.537   5.334
 8978SOL    HW127833   6.452   5.448   5.380
 8978SOL    HW227834   6.479   5.522   5.237
 8979SOL     OW27835   1.562   4.646   3.672
 8979SOL    HW127836   1.583   4.718   3.738
 8979SOL    HW227837   1.633   4.644   3.601
 8980SOL     OW27838   4.192   0.723   0.755
 8980SOL    HW127839   4.143   0.665   0.690
 8980SOL    HW227840   4.237   0.665   0.823
 8981SOL     OW27841   4.346   2.315   0.268
 8981SOL    HW127842   4.339   2.391   0.332
 8981SOL    HW227843   4.357   2.230   0.319
 8982SOL     OW27844   0.372   1.135   2.303
 8982SOL    HW127845   0.452   1.155   2.246
 8982SOL    HW227846   0.290   1.133   2.246
 8983SOL     OW27847   0.969   6.593   2.461
 8983SOL    HW127848   1.016   6.680   2.451
 8983SOL    HW227849   0.888   6.606   2.519
 8984SOL     OW27850   6.304   1.119   4.000
 8984SOL    HW127851   6.243   1.050   4.039
 8984SOL    HW227852   6.274   1.210   4.030
 8985SOL     OW27853   4.926   0.220   2.206
 8985SOL    HW127854   4.950   0.312   2.174
 8985SOL    HW227855   4.959   0.208   2.299
 8986SOL     OW27856   0.685   6.490   6.878
 8986SOL    HW127857   0.716   6.396   6.888
 8986SOL    HW227858   0.764   6.552   6.885
 8987SOL     OW27859   2.650   6.352   2.478
 8987SOL    HW127860   2.696   6.273   2.438
 8987SOL    HW227861   2.563   6.367   2.431
 8988SOL     OW27862   2.459   0.107   0.703
 8988SOL    HW127863   2.466   0.206   0.689
 8988SOL    HW227864   2.408   0.066   0.628
 8989SOL     OW27865   5.630   1.229   1.943
 8989SOL    HW127866   5.661   1.134   1.939
 8989SOL    HW227867   5.707   1.289   1.920
 8990SOL     OW27868   3.852   1.156   2.742
 8990SOL    HW127869   3.865   1.247   2.704
 8990SOL    HW227870   3.775   1.112   2.697
 8991SOL     OW27871   1.174   2.078   0.989
 8991SOL    HW127872   1.133   2.140   0.923
 8991SOL    HW227873   1.134   1.987   0.979
 8992SOL     OW27874   0.158   5.163   6.024
 8992SOL    HW127875   0.255   5.186   6.029
 8992SOL    HW227876   0.135   5.136   5.931
 8993SOL     OW27877   5.228   3.865   4.073
 8993SOL    HW127878   5.262   3.942   4.020
 8993SOL    HW227879   5.284   3.784   4.054
 8994SOL     OW27880   1.258   6.154   2.093
 8994SOL    HW127881   1.352   6.153   2.125
 8994SOL    HW227882   1.242   6.076   2.032
 8995SOL     OW27883   2.089   3.627   3.770
 8995SOL    HW127884   2.101   3.546   3.712
 8995SOL    HW227885   1.992   3.637   3.794
 8996SOL     OW27886   2.428   3.834   1.091
 8996SOL    HW127887   2.330   3.828   1.106
 8996SOL    HW227888   2.472   3.748   1.118
 8997SOL     OW27889   4.477   1.452   5.049
 8997SOL    HW127890   4.497   1.401   5.133
 8997SOL    HW227891   4.555   1.444   4.987
 8998SOL     OW27892   1.007   1.316   6.943
 8998SOL    HW127893   1.023   1.408   6.908
 8998SOL    HW227894   0.909   1.303   6.960
 8999SOL     OW27895   5.625   2.864   5.974
 8999SOL    HW127896   5.576   2.813   5.904
 8999SOL    HW227897   5.572   2.945   5.999
 9000SOL     OW27898   4.788   4.420   1.394
 9000SOL    HW127899   4.755   4.332   1.360
 9000SOL    HW227900   4.886   4.414   1.413
 9001SOL     OW27901   0.749   3.996   3.764
 9001SOL    HW127902   0.826   3.934   3.752
 9001SOL    HW227903   0.688   3.959   3.835
 9002SOL     OW27904   5.444   2.802   5.776
 9002SOL    HW127905   5.367   2.864   5.789
 9002SOL    HW227906   5.446   2.771   5.681
 9003SOL     OW27907   6.754   3.037   6.676
 9003SOL    HW127908   6.700   3.046   6.759
 9003SOL    HW227909   6.840   3.088   6.685
 9004SOL     OW27910   5.005   5.798   0.655
 9004SOL    HW127911   5.037   5.724   0.714
 9004SOL    HW227912   4.937   5.762   0.591
 9005SOL     OW27913   4.909   3.312   3.320
 9005SOL    HW127914   4.893   3.218   3.352
 9005SOL    HW227915   4.897   3.316   3.221
 9006SOL     OW27916   2.782   6.659   1.870
 9006SOL    HW127917   2.825   6.748   1.877
 9006SOL    HW227918   2.704   6.664   1.807
 9007SOL     OW27919   1.443   6.441   5.400
 9007SOL    HW127920   1.373   6.463   5.467
 9007SOL    HW227921   1.510   6.515   5.395
 9008SOL     OW27922   0.414   4.076   1.816
 9008SOL    HW127923   0.353   4.090   1.739
 9008SOL    HW227924   0.482   4.006   1.793
 9009SOL     OW27925   4.349   6.254   6.771
 9009SOL    HW127926   4.271   6.293   6.822
 9009SOL    HW227927   4.316   6.217   6.684
 9010SOL     OW27928   6.666   5.938   4.386
 9010SOL    HW127929   6.690   6.020   4.334
 9010SOL    HW227930   6.721   5.861   4.354
 9011SOL     OW27931   4.671   2.628   1.998
 9011SOL    HW127932   4.684   2.648   1.901
 9011SOL    HW227933   4.727   2.690   2.053
 9012SOL     OW27934   4.662   4.962   2.118
 9012SOL    HW127935   4.708   4.886   2.164
 9012SOL    HW227936   4.615   5.018   2.186
 9013SOL     OW27937   4.485   5.927   1.925
 9013SOL    HW127938   4.474   5.903   1.828
 9013SOL    HW227939   4.496   6.026   1.934
 9014SOL     OW27940   2.632   0.827   1.901
 9014SOL    HW127941   2.635   0.865   1.809
 9014SOL    HW227942   2.555   0.868   1.951
 9015SOL     OW27943   6.465   1.904   4.366
 9015SOL    HW127944   6.535   1.968   4.397
 9015SOL    HW227945   6.397   1.891   4.438
 9016SOL     OW27946   0.376   6.224   0.169
 9016SOL    HW127947   0.316   6.151   0.136
 9016SOL    HW227948   0.336   6.265   0.251
 9017SOL     OW27949   6.647   3.353   2.924
 9017SOL    HW127950   6.643   3.291   3.002
 9017SOL    HW227951   6.653   3.448   2.956
 9018SOL     OW27952   4.653   1.586   6.342
 9018SOL    HW127953   4.661   1.517   6.414
 9018SOL    HW227954   4.563   1.630   6.349
 9019SOL     OW27955   1.868   5.555   0.039
 9019SOL    HW127956   1.935   5.480   0.039
 9019SOL    HW227957   1.852   5.586   6.970
 9020SOL     OW27958   0.856   4.765   4.681
 9020SOL    HW127959   0.848   4.674   4.641
 9020SOL    HW227960   0.946   4.775   4.724
 9021SOL     OW27961   6.303   5.365   5.892
 9021SOL    HW127962   6.272   5.416   5.812
 9021SOL    HW227963   6.301   5.267   5.872
 9022SOL     OW27964   2.413   7.015   6.263
 9022SOL    HW127965   2.449   6.937   6.314
 9022SOL    HW227966   2.485   0.058   6.248
 9023SOL     OW27967   3.158   4.047   3.960
 9023SOL    HW127968   3.192   3.998   4.040
 9023SOL    HW227969   3.083   4.108   3.988
 9024SOL     OW27970   1.325   6.939   6.412
 9024SOL    HW127971   1.405   6.993   6.440
 9024SOL    HW227972   1.347   6.891   6.327
 9025SOL     OW27973   0.137   3.254   0.190
 9025SOL    HW127974   0.058   3.225   0.135
 9025SOL    HW227975   0.106   3.275   0.283
 9026SOL     OW27976   2.654   3.240   5.600
 9026SOL    HW127977   2.703   3.312   5.650
 9026SOL    HW227978   2.654   3.263   5.502
 9027SOL     OW27979   1.494   3.157   2.343
 9027SOL    HW127980   1.395   3.162   2.349
 9027SOL    HW227981   1.532   3.250   2.350
 9028SOL     OW27982   2.346   4.504   4.778
 9028SOL    HW127983   2.375   4.577   4.716
 9028SOL    HW227984   2.281   4.444   4.732
 9029SOL     OW27985   5.804   5.226   2.797
 9029SOL    HW127986   5.750   5.158   2.847
 9029SOL    HW227987   5.755   5.313   2.798
 9030SOL     OW27988   4.346   2.407   3.286
 9030SOL    HW127989   4.328   2.488   3.342
 9030SOL    HW227990   4.259   2.364   3.261
 9031SOL     OW27991   2.707   1.334   2.134
 9031SOL    HW127992   2.699   1.419   2.083
 9031SOL    HW227993   2.794   1.333   2.185
 9032SOL     OW27994   0.371   2.921   2.137
 9032SOL    HW127995   0.437   2.974   2.190
 9032SOL    HW227996   0.294   2.895   2.195
 9033SOL     OW27997   1.074   3.853   2.578
 9033SOL    HW127998   1.119   3.768   2.549
 9033SOL    HW227999   1.017   3.887   2.503
 9034SOL     OW28000   1.755   6.746   6.866
 9034SOL    HW128001   1.655   6.746   6.873
 9034SOL    HW228002   1.791   6.660   6.904
 9035SOL     OW28003   6.429   1.013   4.393
 9035SOL    HW128004   6.444   1.109   4.416
 9035SOL    HW228005   6.484   0.988   4.313
 9036SOL     OW28006   0.711   0.994   4.752
 9036SOL    HW128007   0.708   0.902   4.715
 9036SOL    HW228008   0.698   1.060   4.678
 9037SOL     OW28009   2.243   4.366   5.810
 9037SOL    HW128010   2.315   4.375   5.878
 9037SOL    HW228011   2.205   4.457   5.790
 9038SOL     OW28012   5.151   5.224   5.595
 9038SOL    HW128013   5.080   5.176   5.544
 9038SOL    HW228014   5.127   5.225   5.692
 9039SOL     OW28015   2.529   4.544   6.876
 9039SOL    HW128016   2.568   4.463   6.920
 9039SOL    HW228017   2.445   4.518   6.828
 9040SOL     OW28018   2.958   1.415   2.740
 9040SOL    HW128019   2.900   1.493   2.763
 9040SOL    HW228020   2.986   1.368   2.824
 9041SOL     OW28021   1.854   2.891   5.996
 9041SOL    HW128022   1.907   2.961   5.948
 9041SOL    HW228023   1.916   2.833   6.048
 9042SOL     OW28024   1.631   5.452   2.289
 9042SOL    HW128025   1.613   5.358   2.317
 9042SOL    HW228026   1.562   5.481   2.222
 9043SOL     OW28027   0.248   1.882   6.952
 9043SOL    HW128028   0.340   1.921   6.943
 9043SOL    HW228029   0.190   1.920   6.880
 9044SOL     OW28030   0.482   4.412   0.199
 9044SOL    HW128031   0.582   4.413   0.193
 9044SOL    HW228032   0.449   4.318   0.185
 9045SOL     OW28033   2.347   4.829   4.646
 9045SOL    HW128034   2.349   4.925   4.618
 9045SOL    HW228035   2.263   4.787   4.612
 9046SOL     OW28036   3.705   4.316   6.511
 9046SOL    HW128037   3.744   4.226   6.529
 9046SOL    HW228038   3.674   4.321   6.416
 9047SOL     OW28039   0.788   4.210   4.384
 9047SOL    HW128040   0.756   4.140   4.447
 9047SOL    HW228041   0.756   4.189   4.292
 9048SOL     OW28042   1.244   2.542   4.843
 9048SOL    HW128043   1.225   2.562   4.939
 9048SOL    HW228044   1.318   2.601   4.811
 9049SOL     OW28045   5.002   6.552   6.163
 9049SOL    HW128046   5.006   6.452   6.167
 9049SOL    HW228047   4.975   6.581   6.072
 9050SOL     OW28048   6.912   4.514   5.970
 9050SOL    HW128049   6.992   4.463   5.941
 9050SOL    HW228050   6.865   4.552   5.889
 9051SOL     OW28051   6.003   6.794   6.110
 9051SOL    HW128052   5.980   6.758   6.200
 9051SOL    HW228053   5.975   6.889   6.104
 9052SOL     OW28054   2.488   5.197   4.892
 9052SOL    HW128055   2.393   5.224   4.873
 9052SOL    HW228056   2.550   5.267   4.856
 9053SOL     OW28057   2.643   1.455   3.129
 9053SOL    HW128058   2.659   1.372   3.076
 9053SOL    HW228059   2.551   1.454   3.167
 9054SOL     OW28060   1.982   0.080   1.347
 9054SOL    HW128061   1.944   0.103   1.258
 9054SOL    HW228062   1.926   0.009   1.391
 9055SOL     OW28063   1.207   2.349   4.621
 9055SOL    HW128064   1.220   2.414   4.696
 9055SOL    HW228065   1.284   2.356   4.558
 9056SOL     OW28066   4.804   2.547   1.759
 9056SOL    HW128067   4.710   2.515   1.749
 9056SOL    HW228068   4.859   2.513   1.683
 9057SOL     OW28069   3.677   6.714   6.686
 9057SOL    HW128070   3.711   6.647   6.752
 9057SOL    HW228071   3.598   6.677   6.638
 9058SOL     OW28072   2.437   1.896   4.395
 9058SOL    HW128073   2.338   1.884   4.382
 9058SOL    HW228074   2.460   1.992   4.384
 9059SOL     OW28075   6.847   0.834   2.221
 9059SOL    HW128076   6.872   0.821   2.125
 9059SOL    HW228077   6.747   0.834   2.230
 9060SOL     OW28078   6.529   4.894   0.803
 9060SOL    HW128079   6.492   4.900   0.896
 9060SOL    HW228080   6.601   4.825   0.800
 9061SOL     OW28081   4.793   4.372   2.133
 9061SOL    HW128082   4.696   4.353   2.114
 9061SOL    HW228083   4.848   4.292   2.108
 9062SOL     OW28084   0.290   5.577   3.102
 9062SOL    HW128085   0.312   5.480   3.114
 9062SOL    HW228086   0.194   5.592   3.124
 9063SOL     OW28087   4.788   0.453   0.992
 9063SOL    HW128088   4.766   0.357   0.973
 9063SOL    HW228089   4.887   0.464   0.999
 9064SOL     OW28090   0.966   5.485   2.939
 9064SOL    HW128091   1.008   5.574   2.921
 9064SOL    HW228092   1.024   5.433   3.002
 9065SOL     OW28093   3.432   4.207   6.679
 9065SOL    HW128094   3.421   4.165   6.769
 9065SOL    HW228095   3.389   4.297   6.678
 9066SOL     OW28096   5.212   4.739   3.648
 9066SOL    HW128097   5.123   4.775   3.621
 9066SOL    HW228098   5.221   4.744   3.747
 9067SOL     OW28099   2.220   6.877   4.084
 9067SOL    HW128100   2.277   6.896   4.004
 9067SOL    HW228101   2.178   6.962   4.116
 9068SOL     OW28102   4.433   0.290   6.152
 9068SOL    HW128103   4.469   0.333   6.234
 9068SOL    HW228104   4.348   0.335   6.125
 9069SOL     OW28105   4.945   2.421   1.955
 9069SOL    HW128106   4.930   2.451   2.049
 9069SOL    HW228107   4.884   2.471   1.894
 9070SOL     OW28108   1.620   0.751   6.172
 9070SOL    HW128109   1.589   0.845   6.179
 9070SOL    HW228110   1.686   0.742   6.097
 9071SOL     OW28111   4.659   2.406   6.667
 9071SOL    HW128112   4.640   2.397   6.570
 9071SOL    HW228113   4.746   2.360   6.688
 9072SOL     OW28114   6.336   0.483   1.912
 9072SOL    HW128115   6.288   0.467   1.825
 9072SOL    HW228116   6.319   0.577   1.942
 9073SOL     OW28117   4.492   2.913   5.909
 9073SOL    HW128118   4.441   2.898   5.994
 9073SOL    HW228119   4.589   2.894   5.924
 9074SOL     OW28120   2.365   1.117   3.987
 9074SOL    HW128121   2.411   1.170   3.916
 9074SOL    HW228122   2.271   1.151   3.998
 9075SOL     OW28123   5.232   5.455   0.522
 9075SOL    HW128124   5.316   5.401   0.525
 9075SOL    HW228125   5.153   5.395   0.534
 9076SOL     OW28126   1.460   5.910   2.360
 9076SOL    HW128127   1.370   5.877   2.333
 9076SOL    HW228128   1.520   5.833   2.378
 9077SOL     OW28129   6.601   1.677   6.443
 9077SOL    HW128130   6.670   1.668   6.372
 9077SOL    HW228131   6.571   1.586   6.473
 9078SOL     OW28132   4.940   6.640   0.254
 9078SOL    HW128133   5.032   6.644   0.213
 9078SOL    HW228134   4.873   6.673   0.188
 9079SOL     OW28135   1.336   1.341   6.375
 9079SOL    HW128136   1.304   1.305   6.287
 9079SOL    HW228137   1.257   1.362   6.433
 9080SOL     OW28138   6.572   4.386   1.747
 9080SOL    HW128139   6.552   4.288   1.752
 9080SOL    HW228140   6.490   4.435   1.718
 9081SOL     OW28141   4.838   1.510   0.545
 9081SOL    HW128142   4.879   1.419   0.541
 9081SOL    HW228143   4.840   1.550   0.453
 9082SOL     OW28144   3.383   4.732   6.596
 9082SOL    HW128145   3.342   4.644   6.621
 9082SOL    HW228146   3.435   4.768   6.674
 9083SOL     OW28147   3.658   0.656   0.679
 9083SOL    HW128148   3.718   0.687   0.753
 9083SOL    HW228149   3.581   0.719   0.670
 9084SOL     OW28150   6.415   4.423   4.379
 9084SOL    HW128151   6.424   4.400   4.476
 9084SOL    HW228152   6.494   4.477   4.350
 9085SOL     OW28153   2.635   4.493   1.043
 9085SOL    HW128154   2.592   4.475   1.132
 9085SOL    HW228155   2.584   4.445   0.971
 9086SOL     OW28156   6.907   2.587   0.748
 9086SOL    HW128157   6.897   2.500   0.699
 9086SOL    HW228158   6.929   2.660   0.682
 9087SOL     OW28159   4.982   1.284   1.467
 9087SOL    HW128160   5.074   1.253   1.491
 9087SOL    HW228161   4.966   1.268   1.369
 9088SOL     OW28162   5.615   5.963   6.654
 9088SOL    HW128163   5.590   5.917   6.739
 9088SOL    HW228164   5.629   6.060   6.672
 9089SOL     OW28165   5.552   5.137   3.163
 9089SOL    HW128166   5.642   5.118   3.203
 9089SOL    HW228167   5.482   5.097   3.222
 9090SOL     OW28168   6.228   5.681   5.949
 9090SOL    HW128169   6.209   5.744   6.024
 9090SOL    HW228170   6.144   5.632   5.925
 9091SOL     OW28171   2.808   2.170   1.671
 9091SOL    HW128172   2.780   2.197   1.763
 9091SOL    HW228173   2.789   2.245   1.607
 9092SOL     OW28174   2.408   1.895   5.447
 9092SOL    HW128175   2.450   1.813   5.484
 9092SOL    HW228176   2.476   1.968   5.440
 9093SOL     OW28177   2.036   3.656   0.198
 9093SOL    HW128178   1.988   3.573   0.171
 9093SOL    HW228179   2.134   3.636   0.208
 9094SOL     OW28180   6.443   2.788   0.712
 9094SOL    HW128181   6.538   2.816   0.726
 9094SOL    HW228182   6.432   2.693   0.741
 9095SOL     OW28183   1.922   2.473   0.264
 9095SOL    HW128184   2.012   2.431   0.269
 9095SOL    HW228185   1.931   2.566   0.230
 9096SOL     OW28186   6.489   4.407   3.040
 9096SOL    HW128187   6.587   4.415   3.056
 9096SOL    HW228188   6.473   4.359   2.953
 9097SOL     OW28189   6.418   6.201   5.602
 9097SOL    HW128190   6.410   6.176   5.506
 9097SOL    HW228191   6.442   6.120   5.656
 9098SOL     OW28192   3.843   3.512   4.975
 9098SOL    HW128193   3.927   3.510   4.920
 9098SOL    HW228194   3.857   3.572   5.054
 9099SOL     OW28195   1.430   2.440   6.813
 9099SOL    HW128196   1.461   2.350   6.842
 9099SOL    HW228197   1.460   2.508   6.879
 9100SOL     OW28198   1.351   3.131   0.285
 9100SOL    HW128199   1.360   3.200   0.356
 9100SOL    HW228200   1.267   3.147   0.232
 9101SOL     OW28201   2.066   2.340   6.686
 9101SOL    HW128202   2.077   2.408   6.614
 9101SOL    HW228203   2.110   2.255   6.659
 9102SOL     OW28204   4.915   6.394   2.305
 9102SOL    HW128205   4.965   6.340   2.372
 9102SOL    HW228206   4.970   6.405   2.223
 9103SOL     OW28207   0.671   4.494   6.372
 9103SOL    HW128208   0.695   4.578   6.422
 9103SOL    HW228209   0.754   4.451   6.337
 9104SOL     OW28210   5.196   0.227   3.100
 9104SOL    HW128211   5.291   0.252   3.080
 9104SOL    HW228212   5.175   0.139   3.057
 9105SOL     OW28213   2.830   1.943   6.462
 9105SOL    HW128214   2.769   2.010   6.505
 9105SOL    HW228215   2.836   1.862   6.520
 9106SOL     OW28216   6.235   5.378   2.060
 9106SOL    HW128217   6.310   5.385   2.125
 9106SOL    HW228218   6.214   5.468   2.022
 9107SOL     OW28219   5.102   6.523   6.664
 9107SOL    HW128220   5.155   6.503   6.746
 9107SOL    HW228221   5.032   6.591   6.685
 9108SOL     OW28222   3.399   5.755   0.110
 9108SOL    HW128223   3.362   5.700   0.034
 9108SOL    HW228224   3.496   5.772   0.095
 9109SOL     OW28225   2.876   1.387   4.243
 9109SOL    HW128226   2.905   1.435   4.161
 9109SOL    HW228227   2.792   1.429   4.279
 9110SOL     OW28228   1.381   3.485   3.240
 9110SOL    HW128229   1.296   3.527   3.208
 9110SOL    HW228230   1.458   3.541   3.212
 9111SOL     OW28231   4.124   3.935   1.743
 9111SOL    HW128232   4.109   3.860   1.678
 9111SOL    HW228233   4.066   4.012   1.719
 9112SOL     OW28234   0.739   5.527   2.110
 9112SOL    HW128235   0.730   5.579   2.195
 9112SOL    HW228236   0.812   5.565   2.055
 9113SOL     OW28237   2.846   5.235   6.961
 9113SOL    HW128238   2.904   5.290   6.901
 9113SOL    HW228239   2.838   5.142   6.925
 9114SOL     OW28240   2.528   3.508   1.490
 9114SOL    HW128241   2.434   3.539   1.508
 9114SOL    HW228242   2.557   3.446   1.563
 9115SOL     OW28243   1.732   3.967   4.819
 9115SOL    HW128244   1.746   3.933   4.726
 9115SOL    HW228245   1.736   3.890   4.883
 9116SOL     OW28246   2.298   1.759   6.264
 9116SOL    HW128247   2.367   1.803   6.207
 9116SOL    HW228248   2.340   1.732   6.351
 9117SOL     OW28249   0.002   3.588   0.212
 9117SOL    HW128250   6.996   3.502   0.253
 9117SOL    HW228251   6.950   3.653   0.211
 9118SOL     OW28252   0.529   5.831   1.120
 9118SOL    HW128253   0.603   5.769   1.143
 9118SOL    HW228254   0.494   5.874   1.204
 9119SOL     OW28255   6.307   0.253   0.915
 9119SOL    HW128256   6.255   0.188   0.860
 9119SOL    HW228257   6.333   0.210   1.002
 9120SOL     OW28258   6.186   0.818   6.779
 9120SOL    HW128259   6.238   0.741   6.741
 9120SOL    HW228260   6.099   0.785   6.816
 9121SOL     OW28261   1.724   1.790   6.547
 9121SOL    HW128262   1.710   1.696   6.576
 9121SOL    HW228263   1.719   1.795   6.447
 9122SOL     OW28264   1.121   2.506   1.169
 9122SOL    HW128265   1.189   2.514   1.097
 9122SOL    HW228266   1.038   2.554   1.141
 9123SOL     OW28267   2.805   6.540   6.947
 9123SOL    HW128268   2.751   6.590   7.014
 9123SOL    HW228269   2.849   6.462   6.992
 9124SOL     OW28270   6.484   4.776   5.795
 9124SOL    HW128271   6.506   4.743   5.887
 9124SOL    HW228272   6.566   4.773   5.738
 9125SOL     OW28273   4.645   5.679   1.133
 9125SOL    HW128274   4.722   5.714   1.079
 9125SOL    HW228275   4.675   5.666   1.228
 9126SOL     OW28276   5.838   6.746   2.757
 9126SOL    HW128277   5.926   6.758   2.711
 9126SOL    HW228278   5.828   6.650   2.786
 9127SOL     OW28279   5.378   5.806   5.875
 9127SOL    HW128280   5.322   5.884   5.846
 9127SOL    HW228281   5.448   5.837   5.938
 9128SOL     OW28282   5.108   2.668   5.454
 9128SOL    HW128283   5.019   2.700   5.419
 9128SOL    HW228284   5.111   2.682   5.553
 9129SOL     OW28285   2.201   1.983   0.108
 9129SOL    HW128286   2.249   2.066   0.078
 9129SOL    HW228287   2.104   1.990   0.085
 9130SOL     OW28288   6.148   6.024   0.854
 9130SOL    HW128289   6.214   5.954   0.825
 9130SOL    HW228290   6.194   6.112   0.860
 9131SOL     OW28291   1.021   4.685   4.088
 9131SOL    HW128292   0.937   4.703   4.037
 9131SOL    HW228293   1.011   4.601   4.141
 9132SOL     OW28294   1.935   2.940   4.238
 9132SOL    HW128295   1.922   2.933   4.139
 9132SOL    HW228296   2.016   2.995   4.258
 9133SOL     OW28297   1.204   5.097   1.520
 9133SOL    HW128298   1.192   5.005   1.485
 9133SOL    HW228299   1.114   5.139   1.535
 9134SOL     OW28300   2.936   4.838   5.974
 9134SOL    HW128301   3.035   4.851   5.977
 9134SOL    HW228302   2.891   4.913   6.024
 9135SOL     OW28303   0.770   6.504   4.147
 9135SOL    HW128304   0.817   6.429   4.100
 9135SOL    HW228305   0.836   6.573   4.174
 9136SOL     OW28306   3.806   5.494   5.562
 9136SOL    HW128307   3.707   5.499   5.554
 9136SOL    HW228308   3.834   5.526   5.652
 9137SOL     OW28309   4.077   0.377   1.771
 9137SOL    HW128310   4.055   0.419   1.859
 9137SOL    HW228311   4.038   0.285   1.768
 9138SOL     OW28312   3.082   4.100   0.988
 9138SOL    HW128313   3.113   4.155   1.065
 9138SOL    HW228314   3.049   4.160   0.915
 9139SOL     OW28315   3.292   1.157   5.867
 9139SOL    HW128316   3.215   1.172   5.805
 9139SOL    HW228317   3.261   1.167   5.962
 9140SOL     OW28318   6.757   2.438   3.777
 9140SOL    HW128319   6.771   2.401   3.685
 9140SOL    HW228320   6.714   2.369   3.835
 9141SOL     OW28321   5.572   0.585   5.894
 9141SOL    HW128322   5.487   0.604   5.944
 9141SOL    HW228323   5.562   0.616   5.799
 9142SOL     OW28324   1.232   4.251   6.361
 9142SOL    HW128325   1.151   4.271   6.418
 9142SOL    HW228326   1.295   4.194   6.413
 9143SOL     OW28327   5.630   4.007   0.950
 9143SOL    HW128328   5.649   3.914   0.918
 9143SOL    HW228329   5.547   4.007   1.006
 9144SOL     OW28330   1.454   4.874   4.941
 9144SOL    HW128331   1.362   4.858   4.905
 9144SOL    HW228332   1.520   4.875   4.866
 9145SOL     OW28333   0.189   3.615   6.329
 9145SOL    HW128334   0.178   3.714   6.340
 9145SOL    HW228335   0.214   3.575   6.417
 9146SOL     OW28336   0.258   1.833   1.286
 9146SOL    HW128337   0.350   1.798   1.303
 9146SOL    HW228338   0.238   1.906   1.350
 9147SOL     OW28339   4.966   6.259   6.122
 9147SOL    HW128340   4.945   6.175   6.073
 9147SOL    HW228341   4.979   6.239   6.219
 9148SOL     OW28342   3.434   5.291   3.054
 9148SOL    HW128343   3.492   5.338   2.988
 9148SOL    HW228344   3.364   5.238   3.005
 9149SOL     OW28345   6.047   2.987   4.748
 9149SOL    HW128346   6.093   2.911   4.703
 9149SOL    HW228347   6.092   3.073   4.722
 9150SOL     OW28348   4.385   1.417   2.904
 9150SOL    HW128349   4.402   1.355   2.981
 9150SOL    HW228350   4.338   1.499   2.937
 9151SOL     OW28351   1.082   3.407   2.058
 9151SOL    HW128352   1.070   3.314   2.021
 9151SOL    HW228353   1.147   3.404   2.134
 9152SOL     OW28354   2.014   5.257   3.433
 9152SOL    HW128355   2.016   5.188   3.360
 9152SOL    HW228356   2.104   5.299   3.441
 9153SOL     OW28357   1.026   3.139   6.552
 9153SOL    HW128358   0.960   3.194   6.500
 9153SOL    HW228359   0.977   3.075   6.611
 9154SOL     OW28360   1.639   5.614   0.184
 9154SOL    HW128361   1.722   5.588   0.135
 9154SOL    HW228362   1.561   5.566   0.146
 9155SOL     OW28363   1.362   4.062   0.347
 9155SOL    HW128364   1.350   4.063   0.248
 9155SOL    HW228365   1.444   4.114   0.371
 9156SOL     OW28366   5.238   2.472   1.906
 9156SOL    HW128367   5.151   2.425   1.893
 9156SOL    HW228368   5.265   2.517   1.821
 9157SOL     OW28369   5.202   3.729   5.850
 9157SOL    HW128370   5.155   3.815   5.829
 9157SOL    HW228371   5.282   3.749   5.907
 9158SOL     OW28372   0.475   3.971   3.237
 9158SOL    HW128373   0.458   4.036   3.163
 9158SOL    HW228374   0.407   3.898   3.233
 9159SOL     OW28375   6.711   4.729   2.422
 9159SOL    HW128376   6.685   4.775   2.507
 9159SOL    HW228377   6.661   4.768   2.346
 9160SOL     OW28378   0.031   0.038   0.418
 9160SOL    HW128379   0.046   6.972   0.378
 9160SOL    HW228380   0.040   0.108   0.347
 9161SOL     OW28381   5.484   3.885   2.756
 9161SOL    HW128382   5.433   3.968   2.777
 9161SOL    HW228383   5.464   3.816   2.826
 9162SOL     OW28384   5.004   2.117   2.424
 9162SOL    HW128385   5.063   2.046   2.463
 9162SOL    HW228386   4.914   2.111   2.466
 9163SOL     OW28387   3.020   1.053   4.771
 9163SOL    HW128388   3.087   1.028   4.701
 9163SOL    HW228389   2.975   0.971   4.805
 9164SOL     OW28390   2.681   0.196   0.489
 9164SOL    HW128391   2.739   0.121   0.521
 9164SOL    HW228392   2.626   0.166   0.411
 9165SOL     OW28393   4.879   5.957   0.294
 9165SOL    HW128394   4.860   5.864   0.264
 9165SOL    HW228395   4.973   5.962   0.328
 9166SOL     OW28396   2.741   5.625   1.532
 9166SOL    HW128397   2.667   5.693   1.529
 9166SOL    HW228398   2.716   5.546   1.475
 9167SOL     OW28399   0.280   4.373   4.770
 9167SOL    HW128400   0.206   4.433   4.740
 9167SOL    HW228401   0.361   4.390   4.713
 9168SOL     OW28402   2.859   0.632   7.024
 9168SOL    HW128403   2.844   0.689   0.081
 9168SOL    HW228404   2.781   0.641   6.962
 9169SOL     OW28405   0.391   0.048   2.801
 9169SOL    HW128406   0.420   0.048   2.897
 9169SOL    HW228407   0.340   0.131   2.781
 9170SOL     OW28408   6.309   6.243   6.964
 9170SOL    HW128409   6.247   6.321   6.963
 9170SOL    HW228410   6.395   6.270   7.008
 9171SOL     OW28411   2.729   5.658   5.617
 9171SOL    HW128412   2.652   5.633   5.675
 9171SOL    HW228413   2.751   5.582   5.556
 9172SOL     OW28414   2.639   2.216   4.173
 9172SOL    HW128415   2.617   2.313   4.168
 9172SOL    HW228416   2.731   2.201   4.138
 9173SOL     OW28417   0.496   5.219   5.114
 9173SOL    HW128418   0.441   5.265   5.045
 9173SOL    HW228419   0.593   5.237   5.097
 9174SOL     OW28420   6.951   5.768   0.172
 9174SOL    HW128421   6.989   5.677   0.192
 9174SOL    HW228422   6.931   5.815   0.258
 9175SOL     OW28423   1.573   6.526   5.720
 9175SOL    HW128424   1.548   6.435   5.688
 9175SOL    HW228425   1.537   6.594   5.656
 9176SOL     OW28426   1.316   1.909   5.375
 9176SOL    HW128427   1.362   1.867   5.296
 9176SOL    HW228428   1.329   2.008   5.372
 9177SOL     OW28429   1.386   4.740   3.467
 9177SOL    HW128430   1.315   4.810   3.478
 9177SOL    HW228431   1.424   4.716   3.556
 9178SOL     OW28432   2.114   4.492   0.456
 9178SOL    HW128433   2.160   4.531   0.536
 9178SOL    HW228434   2.022   4.462   0.482
 9179SOL     OW28435   2.377   4.941   4.912
 9179SOL    HW128436   2.371   4.904   4.819
 9179SOL    HW228437   2.415   5.034   4.907
 9180SOL     OW28438   5.519   1.880   2.942
 9180SOL    HW128439   5.594   1.915   2.885
 9180SOL    HW228440   5.518   1.929   3.029
 9181SOL     OW28441   3.852   1.466   2.186
 9181SOL    HW128442   3.841   1.379   2.139
 9181SOL    HW228443   3.862   1.539   2.118
 9182SOL     OW28444   1.862   0.175   2.396
 9182SOL    HW128445   1.950   0.127   2.390
 9182SOL    HW228446   1.869   0.263   2.349
 9183SOL     OW28447   5.070   5.713   6.019
 9183SOL    HW128448   5.142   5.652   5.987
 9183SOL    HW228449   5.086   5.737   6.115
 9184SOL     OW28450   4.758   6.972   6.908
 9184SOL    HW128451   4.674   6.981   6.854
 9184SOL    HW228452   4.832   7.020   6.861
 9185SOL     OW28453   4.705   1.140   5.038
 9185SOL    HW128454   4.676   1.204   5.109
 9185SOL    HW228455   4.788   1.175   4.994
 9186SOL     OW28456   5.071   6.936   6.786
 9186SOL    HW128457   5.101   6.953   6.692
 9186SOL    HW228458   5.025   7.017   6.822
 9187SOL     OW28459   2.657   6.873   2.623
 9187SOL    HW128460   2.563   6.853   2.593
 9187SOL    HW228461   2.720   6.810   2.578
 9188SOL     OW28462   2.362   6.174   0.990
 9188SOL    HW128463   2.438   6.222   0.948
 9188SOL    HW228464   2.334   6.222   1.073
 9189SOL     OW28465   5.544   4.909   2.141
 9189SOL    HW128466   5.461   4.860   2.166
 9189SOL    HW228467   5.520   4.995   2.096
 9190SOL     OW28468   1.036   5.298   0.724
 9190SOL    HW128469   0.993   5.294   0.814
 9190SOL    HW228470   0.969   5.332   0.657
 9191SOL     OW28471   6.917   0.641   6.313
 9191SOL    HW128472   6.840   0.702   6.295
 9191SOL    HW228473   6.995   0.694   6.346
 9192SOL     OW28474   1.099   4.160   4.727
 9192SOL    HW128475   1.090   4.237   4.664
 9192SOL    HW228476   1.082   4.074   4.677
 9193SOL     OW28477   2.597   3.290   0.120
 9193SOL    HW128478   2.663   3.359   0.148
 9193SOL    HW228479   2.643   3.216   0.070
 9194SOL     OW28480   3.030   0.320   4.319
 9194SOL    HW128481   3.028   0.420   4.316
 9194SOL    HW228482   2.996   0.283   4.233
 9195SOL     OW28483   1.720   0.681   3.686
 9195SOL    HW128484   1.632   0.658   3.728
 9195SOL    HW228485   1.711   0.767   3.637
 9196SOL     OW28486   5.106   1.660   6.064
 9196SOL    HW128487   5.173   1.727   6.032
 9196SOL    HW228488   5.014   1.695   6.048
 9197SOL     OW28489   2.518   3.789   0.640
 9197SOL    HW128490   2.567   3.875   0.626
 9197SOL    HW228491   2.581   3.712   0.627
 9198SOL     OW28492   0.777   4.796   3.977
 9198SOL    HW128493   0.755   4.714   4.029
 9198SOL    HW228494   0.706   4.813   3.909
 9199SOL     OW28495   6.188   4.296   5.145
 9199SOL    HW128496   6.209   4.260   5.236
 9199SOL    HW228497   6.120   4.237   5.101
 9200SOL     OW28498   3.228   0.676   0.224
 9200SOL    HW128499   3.155   0.616   0.191
 9200SOL    HW228500   3.316   0.643   0.189
 9201SOL     OW28501   1.974   4.215   0.671
 9201SOL    HW128502   1.992   4.148   0.598
 9201SOL    HW228503   1.880   4.247   0.663
 9202SOL     OW28504   2.519   0.889   3.976
 9202SOL    HW128505   2.470   0.974   3.996
 9202SOL    HW228506   2.550   0.890   3.881
 9203SOL     OW28507   6.831   6.653   0.451
 9203SOL    HW128508   6.861   6.562   0.422
 9203SOL    HW228509   6.828   6.714   0.372
 9204SOL     OW28510   5.574   0.186   5.060
 9204SOL    HW128511   5.495   0.233   5.099
 9204SOL    HW228512   5.589   0.100   5.109
 9205SOL     OW28513   6.680   4.936   1.432
 9205SOL    HW128514   6.740   5.016   1.421
 9205SOL    HW228515   6.590   4.957   1.395
 9206SOL     OW28516   3.693   6.639   0.445
 9206SOL    HW128517   3.618   6.603   0.390
 9206SOL    HW228518   3.766   6.672   0.385
 9207SOL     OW28519   5.563   5.508   6.429
 9207SOL    HW128520   5.481   5.539   6.382
 9207SOL    HW228521   5.629   5.583   6.434
 9208SOL     OW28522   1.436   3.670   2.468
 9208SOL    HW128523   1.339   3.651   2.484
 9208SOL    HW228524   1.447   3.717   2.380
 9209SOL     OW28525   2.508   0.207   6.608
 9209SOL    HW128526   2.490   0.164   6.696
 9209SOL    HW228527   2.427   0.258   6.578
 9210SOL     OW28528   6.603   0.462   3.492
 9210SOL    HW128529   6.665   0.473   3.569
 9210SOL    HW228530   6.579   0.365   3.483
 9211SOL     OW28531   0.287   1.570   2.370
 9211SOL    HW128532   0.383   1.541   2.366
 9211SOL    HW228533   0.266   1.603   2.462
 9212SOL     OW28534   3.270   5.291   4.563
 9212SOL    HW128535   3.242   5.261   4.654
 9212SOL    HW228536   3.369   5.279   4.553
 9213SOL     OW28537   5.946   4.601   6.559
 9213SOL    HW128538   5.873   4.534   6.570
 9213SOL    HW228539   6.035   4.555   6.563
 9214SOL     OW28540   0.206   5.086   0.078
 9214SOL    HW128541   0.211   4.987   0.083
 9214SOL    HW228542   0.297   5.125   0.095
 9215SOL     OW28543   1.344   1.506   0.855
 9215SOL    HW128544   1.397   1.423   0.840
 9215SOL    HW228545   1.293   1.528   0.772
 9216SOL     OW28546   1.898   0.012   3.529
 9216SOL    HW128547   1.842   0.054   3.601
 9216SOL    HW228548   1.839   7.002   3.456
 9217SOL     OW28549   0.402   2.824   0.314
 9217SOL    HW128550   0.417   2.794   0.408
 9217SOL    HW228551   0.424   2.921   0.305
 9218SOL     OW28552   1.984   1.070   0.483
 9218SOL    HW128553   2.002   1.112   0.571
 9218SOL    HW228554   1.891   1.092   0.453
 9219SOL     OW28555   6.981   1.331   0.468
 9219SOL    HW128556   6.906   1.378   0.513
 9219SOL    HW228557   0.022   1.298   0.536
 9220SOL     OW28558   3.361   6.028   1.211
 9220SOL    HW128559   3.420   6.005   1.288
 9220SOL    HW228560   3.387   6.117   1.174
 9221SOL     OW28561   2.787   4.761   4.760
 9221SOL    HW128562   2.820   4.725   4.847
 9221SOL    HW228563   2.863   4.804   4.711
 9222SOL     OW28564   2.555   2.074   6.473
 9222SOL    HW128565   2.568   2.009   6.398
 9222SOL    HW228566   2.464   2.114   6.467
 9223SOL     OW28567   2.684   3.031   5.380
 9223SOL    HW128568   2.674   3.005   5.284
 9223SOL    HW228569   2.594   3.037   5.422
 9224SOL     OW28570   2.064   4.784   5.207
 9224SOL    HW128571   2.096   4.878   5.211
 9224SOL    HW228572   2.020   4.760   5.294
 9225SOL     OW28573   2.254   6.717   0.002
 9225SOL    HW128574   2.339   6.691   0.048
 9225SOL    HW228575   2.222   6.642   6.968
 9226SOL     OW28576   4.139   6.524   0.771
 9226SOL    HW128577   4.059   6.505   0.715
 9226SOL    HW228578   4.200   6.587   0.722
 9227SOL     OW28579   1.797   6.935   1.465
 9227SOL    HW128580   1.718   6.974   1.512
 9227SOL    HW228581   1.807   6.839   1.491
 9228SOL     OW28582   0.918   6.940   6.962
 9228SOL    HW128583   1.013   6.960   6.986
 9228SOL    HW228584   0.909   6.843   6.938
 9229SOL     OW28585   0.688   5.805   5.894
 9229SOL    HW128586   0.669   5.902   5.876
 9229SOL    HW228587   0.700   5.757   5.807
 9230SOL     OW28588   4.995   0.814   3.803
 9230SOL    HW128589   5.052   0.746   3.850
 9230SOL    HW228590   4.935   0.768   3.738
 9231SOL     OW28591   2.109   3.245   3.398
 9231SOL    HW128592   2.015   3.244   3.365
 9231SOL    HW228593   2.154   3.160   3.372
 9232SOL     OW28594   4.640   5.058   1.095
 9232SOL    HW128595   4.647   4.984   1.028
 9232SOL    HW228596   4.548   5.059   1.133
 9233SOL     OW28597   4.903   4.506   0.896
 9233SOL    HW128598   4.811   4.465   0.898
 9233SOL    HW228599   4.916   4.563   0.977
 9234SOL     OW28600   1.757   5.932   3.823
 9234SOL    HW128601   1.661   5.919   3.847
 9234SOL    HW228602   1.791   5.850   3.777
 9235SOL     OW28603   0.707   2.383   3.556
 9235SOL    HW128604   0.791   2.436   3.565
 9235SOL    HW228605   0.668   2.368   3.647
 9236SOL     OW28606   4.117   2.808   5.800
 9236SOL    HW128607   4.095   2.719   5.761
 9236SOL    HW228608   4.051   2.830   5.872
 9237SOL     OW28609   1.837   3.644   3.851
 9237SOL    HW128610   1.789   3.713   3.905
 9237SOL    HW228611   1.879   3.577   3.913
 9238SOL     OW28612   4.362   3.435   6.363
 9238SOL    HW128613   4.266   3.405   6.365
 9238SOL    HW228614   4.385   3.477   6.451
 9239SOL     OW28615   1.341   3.621   6.505
 9239SOL    HW128616   1.387   3.672   6.432
 9239SOL    HW228617   1.401   3.547   6.536
 9240SOL     OW28618   5.029   1.076   1.906
 9240SOL    HW128619   4.949   1.132   1.889
 9240SOL    HW228620   5.069   1.048   1.819
 9241SOL     OW28621   0.710   5.404   6.731
 9241SOL    HW128622   0.692   5.307   6.745
 9241SOL    HW228623   0.628   5.457   6.754
 9242SOL     OW28624   6.205   5.854   1.525
 9242SOL    HW128625   6.210   5.948   1.558
 9242SOL    HW228626   6.205   5.854   1.425
 9243SOL     OW28627   5.809   6.303   4.890
 9243SOL    HW128628   5.901   6.296   4.928
 9243SOL    HW228629   5.776   6.397   4.900
 9244SOL     OW28630   3.551   5.392   0.370
 9244SOL    HW128631   3.542   5.376   0.468
 9244SOL    HW228632   3.581   5.486   0.353
 9245SOL     OW28633   0.706   6.497   1.370
 9245SOL    HW128634   0.740   6.590   1.384
 9245SOL    HW228635   0.725   6.468   1.276
 9246SOL     OW28636   6.717   4.822   4.268
 9246SOL    HW128637   6.778   4.901   4.269
 9246SOL    HW228638   6.643   4.838   4.203
 9247SOL     OW28639   1.818   6.754   3.278
 9247SOL    HW128640   1.829   6.853   3.278
 9247SOL    HW228641   1.720   6.732   3.285
 9248SOL     OW28642   3.850   2.081   6.213
 9248SOL    HW128643   3.750   2.077   6.209
 9248SOL    HW228644   3.886   1.991   6.238
 9249SOL     OW28645   4.098   6.244   3.439
 9249SOL    HW128646   4.015   6.218   3.389
 9249SOL    HW228647   4.178   6.229   3.381
 9250SOL     OW28648   5.604   3.529   3.345
 9250SOL    HW128649   5.600   3.554   3.249
 9250SOL    HW228650   5.530   3.574   3.395
 9251SOL     OW28651   4.112   2.277   2.926
 9251SOL    HW128652   4.173   2.201   2.946
 9251SOL    HW228653   4.020   2.256   2.960
 9252SOL     OW28654   1.578   6.659   4.349
 9252SOL    HW128655   1.500   6.713   4.382
 9252SOL    HW228656   1.649   6.720   4.315
 9253SOL     OW28657   1.415   6.867   5.662
 9253SOL    HW128658   1.473   6.787   5.644
 9253SOL    HW228659   1.465   6.931   5.721
 9254SOL     OW28660   5.693   2.578   1.690
 9254SOL    HW128661   5.633   2.550   1.615
 9254SOL    HW228662   5.657   2.661   1.732
 9255SOL     OW28663   0.008   4.974   0.636
 9255SOL    HW128664   0.083   4.934   0.584
 9255SOL    HW228665   6.975   5.029   0.575
 9256SOL     OW28666   4.106   5.028   1.838
 9256SOL    HW128667   4.164   4.947   1.826
 9256SOL    HW228668   4.136   5.100   1.775
 9257SOL     OW28669   0.745   3.587   0.506
 9257SOL    HW128670   0.820   3.604   0.570
 9257SOL    HW228671   0.743   3.490   0.481
 9258SOL     OW28672   3.589   2.921   3.997
 9258SOL    HW128673   3.613   3.006   4.044
 9258SOL    HW228674   3.490   2.909   3.996
 9259SOL     OW28675   1.171   2.208   0.479
 9259SOL    HW128676   1.074   2.183   0.481
 9259SOL    HW228677   1.226   2.127   0.500
 9260SOL     OW28678   6.597   3.771   7.000
 9260SOL    HW128679   6.584   3.839   6.929
 9260SOL    HW228680   6.522   3.704   6.996
 9261SOL     OW28681   3.703   6.989   6.741
 9261SOL    HW128682   3.689   6.890   6.748
 9261SOL    HW228683   3.619   0.012   6.768
 9262SOL     OW28684   5.013   0.605   5.735
 9262SOL    HW128685   4.922   0.644   5.718
 9262SOL    HW228686   5.025   0.591   5.833
 9263SOL     OW28687   6.032   3.909   1.981
 9263SOL    HW128688   6.039   3.832   2.044
 9263SOL    HW228689   5.936   3.925   1.958
 9264SOL     OW28690   6.217   2.472   0.189
 9264SOL    HW128691   6.127   2.440   0.218
 9264SOL    HW228692   6.278   2.478   0.268
 9265SOL     OW28693   1.399   1.790   5.136
 9265SOL    HW128694   1.496   1.789   5.114
 9265SOL    HW228695   1.347   1.817   5.055
 9266SOL     OW28696   2.452   6.205   2.202
 9266SOL    HW128697   2.353   6.190   2.198
 9266SOL    HW228698   2.499   6.122   2.170
 9267SOL     OW28699   2.817   5.083   5.607
 9267SOL    HW128700   2.848   5.127   5.691
 9267SOL    HW228701   2.832   4.984   5.614
 9268SOL     OW28702   0.767   1.148   2.413
 9268SOL    HW128703   0.700   1.074   2.418
 9268SOL    HW228704   0.742   1.209   2.338
 9269SOL     OW28705   4.488   1.909   5.747
 9269SOL    HW128706   4.394   1.935   5.766
 9269SOL    HW228707   4.534   1.887   5.834
 9270SOL     OW28708   1.231   0.383   5.680
 9270SOL    HW128709   1.230   0.482   5.687
 9270SOL    HW228710   1.216   0.342   5.770
 9271SOL     OW28711   0.843   5.005   6.293
 9271SOL    HW128712   0.794   5.074   6.241
 9271SOL    HW228713   0.781   4.930   6.316
 9272SOL     OW28714   2.386   4.830   6.769
 9272SOL    HW128715   2.368   4.915   6.817
 9272SOL    HW228716   2.485   4.812   6.770
 9273SOL     OW28717   4.286   6.250   5.586
 9273SOL    HW128718   4.305   6.331   5.643
 9273SOL    HW228719   4.351   6.247   5.510
 9274SOL     OW28720   5.893   2.405   1.705
 9274SOL    HW128721   5.818   2.466   1.680
 9274SOL    HW228722   5.863   2.344   1.778
 9275SOL     OW28723   0.223   0.665   6.461
 9275SOL    HW128724   0.308   0.689   6.507
 9275SOL    HW228725   0.211   0.566   6.460
 9276SOL     OW28726   5.010   6.673   4.387
 9276SOL    HW128727   4.920   6.714   4.401
 9276SOL    HW228728   5.031   6.610   4.462
 9277SOL     OW28729   3.188   2.539   0.219
 9277SOL    HW128730   3.102   2.555   0.171
 9277SOL    HW228731   3.256   2.503   0.155
 9278SOL     OW28732   1.555   2.674   1.494
 9278SOL    HW128733   1.601   2.726   1.566
 9278SOL    HW228734   1.619   2.659   1.418
 9279SOL     OW28735   2.687   6.570   0.966
 9279SOL    HW128736   2.660   6.546   1.060
 9279SOL    HW228737   2.785   6.585   0.962
 9280SOL     OW28738   2.226   0.809   3.023
 9280SOL    HW128739   2.205   0.758   3.106
 9280SOL    HW228740   2.297   0.762   2.971
 9281SOL     OW28741   1.904   2.849   0.505
 9281SOL    HW128742   1.884   2.883   0.597
 9281SOL    HW228743   1.823   2.804   0.468
 9282SOL     OW28744   4.389   1.697   6.532
 9282SOL    HW128745   4.345   1.781   6.501
 9282SOL    HW228746   4.414   1.706   6.629
 9283SOL     OW28747   5.372   2.468   2.963
 9283SOL    HW128748   5.320   2.427   2.888
 9283SOL    HW228749   5.422   2.548   2.930
 9284SOL     OW28750   3.235   3.697   2.050
 9284SOL    HW128751   3.316   3.700   1.991
 9284SOL    HW228752   3.244   3.621   2.115
 9285SOL     OW28753   6.421   2.396   6.550
 9285SOL    HW128754   6.504   2.441   6.517
 9285SOL    HW228755   6.388   2.443   6.631
 9286SOL     OW28756   5.542   5.727   4.994
 9286SOL    HW128757   5.531   5.774   5.082
 9286SOL    HW228758   5.614   5.658   5.002
 9287SOL     OW28759   2.690   6.866   2.102
 9287SOL    HW128760   2.790   6.867   2.093
 9287SOL    HW228761   2.654   6.957   2.079
 9288SOL     OW28762   4.728   2.198   5.934
 9288SOL    HW128763   4.735   2.130   5.861
 9288SOL    HW228764   4.632   2.210   5.959
 9289SOL     OW28765   5.355   3.478   2.486
 9289SOL    HW128766   5.360   3.569   2.447
 9289SOL    HW228767   5.295   3.479   2.566
 9290SOL     OW28768   4.447   2.065   4.394
 9290SOL    HW128769   4.422   1.998   4.465
 9290SOL    HW228770   4.407   2.153   4.417
 9291SOL     OW28771   1.003   1.642   4.675
 9291SOL    HW128772   0.957   1.620   4.588
 9291SOL    HW228773   1.064   1.720   4.661
 9292SOL     OW28774   6.689   3.315   0.123
 9292SOL    HW128775   6.768   3.269   0.083
 9292SOL    HW228776   6.611   3.252   0.125
 9293SOL     OW28777   6.459   3.924   6.337
 9293SOL    HW128778   6.406   3.910   6.421
 9293SOL    HW228779   6.556   3.927   6.359
 9294SOL     OW28780   5.399   5.905   6.322
 9294SOL    HW128781   5.433   5.997   6.303
 9294SOL    HW228782   5.448   5.838   6.266
 9295SOL     OW28783   4.425   2.053   4.055
 9295SOL    HW128784   4.460   2.137   4.099
 9295SOL    HW228785   4.363   2.006   4.117
 9296SOL     OW28786   6.908   6.698   5.443
 9296SOL    HW128787   6.892   6.790   5.478
 9296SOL    HW228788   6.861   6.687   5.355
 9297SOL     OW28789   0.287   0.666   1.107
 9297SOL    HW128790   0.290   0.653   1.206
 9297SOL    HW228791   0.379   0.657   1.070
 9298SOL     OW28792   0.593   6.438   4.863
 9298SOL    HW128793   0.502   6.404   4.839
 9298SOL    HW228794   0.637   6.475   4.782
 9299SOL     OW28795   1.738   2.659   3.966
 9299SOL    HW128796   1.768   2.750   3.939
 9299SOL    HW228797   1.639   2.659   3.979
 9300SOL     OW28798   5.622   3.989   3.943
 9300SOL    HW128799   5.538   3.969   3.893
 9300SOL    HW228800   5.604   4.060   4.011
 9301SOL     OW28801   6.117   4.151   2.051
 9301SOL    HW128802   6.145   4.128   2.144
 9301SOL    HW228803   6.069   4.073   2.010
 9302SOL     OW28804   2.246   2.373   2.681
 9302SOL    HW128805   2.169   2.428   2.650
 9302SOL    HW228806   2.325   2.432   2.699
 9303SOL     OW28807   4.144   4.249   0.826
 9303SOL    HW128808   4.103   4.286   0.742
 9303SOL    HW228809   4.079   4.186   0.869
 9304SOL     OW28810   4.004   3.249   0.196
 9304SOL    HW128811   4.056   3.311   0.256
 9304SOL    HW228812   3.920   3.294   0.166
 9305SOL     OW28813   4.973   3.422   2.151
 9305SOL    HW128814   4.900   3.395   2.088
 9305SOL    HW228815   4.933   3.472   2.228
 9306SOL     OW28816   6.213   4.692   3.715
 9306SOL    HW128817   6.143   4.674   3.646
 9306SOL    HW228818   6.239   4.607   3.760
 9307SOL     OW28819   2.220   0.819   6.243
 9307SOL    HW128820   2.296   0.819   6.178
 9307SOL    HW228821   2.253   0.791   6.332
 9308SOL     OW28822   6.465   1.963   0.730
 9308SOL    HW128823   6.432   2.040   0.786
 9308SOL    HW228824   6.519   1.902   0.787
 9309SOL     OW28825   4.829   3.129   6.446
 9309SOL    HW128826   4.745   3.118   6.498
 9309SOL    HW228827   4.814   3.194   6.371
 9310SOL     OW28828   4.081   5.974   0.968
 9310SOL    HW128829   4.052   5.997   0.875
 9310SOL    HW228830   4.173   6.011   0.984
 9311SOL     OW28831   6.498   3.355   1.688
 9311SOL    HW128832   6.448   3.427   1.641
 9311SOL    HW228833   6.483   3.267   1.642
 9312SOL     OW28834   1.487   4.521   4.909
 9312SOL    HW128835   1.505   4.567   4.996
 9312SOL    HW228836   1.391   4.493   4.905
 9313SOL     OW28837   6.328   6.661   2.322
 9313SOL    HW128838   6.307   6.648   2.225
 9313SOL    HW228839   6.261   6.723   2.362
 9314SOL     OW28840   5.212   4.736   6.830
 9314SOL    HW128841   5.288   4.777   6.780
 9314SOL    HW228842   5.154   4.809   6.868
 9315SOL     OW28843   0.570   6.834   6.615
 9315SOL    HW128844   0.592   6.754   6.559
 9315SOL    HW228845   0.575   6.809   6.712
 9316SOL     OW28846   3.408   5.839   4.548
 9316SOL    HW128847   3.378   5.885   4.465
 9316SOL    HW228848   3.502   5.867   4.570
 9317SOL     OW28849   5.330   4.539   5.443
 9317SOL    HW128850   5.257   4.516   5.378
 9317SOL    HW228851   5.376   4.623   5.414
 9318SOL     OW28852   6.243   6.684   6.113
 9318SOL    HW128853   6.152   6.722   6.094
 9318SOL    HW228854   6.313   6.753   6.092
 9319SOL     OW28855   6.630   2.759   4.768
 9319SOL    HW128856   6.679   2.692   4.711
 9319SOL    HW228857   6.657   2.748   4.864
 9320SOL     OW28858   4.046   2.907   6.367
 9320SOL    HW128859   4.139   2.904   6.331
 9320SOL    HW228860   3.993   2.831   6.330
 9321SOL     OW28861   6.191   6.138   3.863
 9321SOL    HW128862   6.253   6.089   3.802
 9321SOL    HW228863   6.109   6.165   3.813
 9322SOL     OW28864   0.925   6.628   0.296
 9322SOL    HW128865   0.914   6.615   0.395
 9322SOL    HW228866   0.928   6.726   0.275
 9323SOL     OW28867   0.255   1.405   6.324
 9323SOL    HW128868   0.334   1.349   6.348
 9323SOL    HW228869   0.197   1.357   6.258
 9324SOL     OW28870   1.809   5.423   6.765
 9324SOL    HW128871   1.888   5.482   6.752
 9324SOL    HW228872   1.729   5.478   6.789
 9325SOL     OW28873   0.327   3.113   0.350
 9325SOL    HW128874   0.279   3.187   0.302
 9325SOL    HW228875   0.298   3.112   0.446
 9326SOL     OW28876   1.906   5.462   1.166
 9326SOL    HW128877   1.987   5.507   1.205
 9326SOL    HW228878   1.934   5.404   1.090
 9327SOL     OW28879   3.995   0.728   3.570
 9327SOL    HW128880   3.964   0.703   3.478
 9327SOL    HW228881   3.934   0.798   3.608
 9328SOL     OW28882   3.722   0.645   2.252
 9328SOL    HW128883   3.721   0.728   2.195
 9328SOL    HW228884   3.749   0.567   2.196
 9329SOL     OW28885   1.032   4.137   1.770
 9329SOL    HW128886   1.067   4.134   1.864
 9329SOL    HW228887   0.934   4.117   1.770
 9330SOL     OW28888   5.689   6.718   6.624
 9330SOL    HW128889   5.667   6.815   6.631
 9330SOL    HW228890   5.764   6.705   6.559
 9331SOL     OW28891   0.689   1.556   0.261
 9331SOL    HW128892   0.768   1.587   0.313
 9331SOL    HW228893   0.617   1.626   0.264
 9332SOL     OW28894   3.750   3.832   4.884
 9332SOL    HW128895   3.692   3.909   4.910
 9332SOL    HW228896   3.692   3.757   4.852
 9333SOL     OW28897   5.618   5.676   1.228
 9333SOL    HW128898   5.633   5.595   1.172
 9333SOL    HW228899   5.571   5.746   1.174
 9334SOL     OW28900   2.719   6.941   4.732
 9334SOL    HW128901   2.628   6.898   4.732
 9334SOL    HW228902   2.785   6.879   4.773
 9335SOL     OW28903   0.665   1.110   1.767
 9335SOL    HW128904   0.606   1.191   1.773
 9335SOL    HW228905   0.624   1.043   1.705
 9336SOL     OW28906   3.399   0.145   4.903
 9336SOL    HW128907   3.354   0.235   4.903
 9336SOL    HW228908   3.366   0.092   4.825
 9337SOL     OW28909   4.786   6.648   2.970
 9337SOL    HW128910   4.784   6.747   2.951
 9337SOL    HW228911   4.725   6.601   2.906
 9338SOL     OW28912   3.629   6.891   1.716
 9338SOL    HW128913   3.538   6.931   1.704
 9338SOL    HW228914   3.697   6.947   1.668
 9339SOL     OW28915   3.962   5.605   1.370
 9339SOL    HW128916   4.037   5.578   1.430
 9339SOL    HW228917   3.889   5.537   1.376
 9340SOL     OW28918   6.077   3.136   1.047
 9340SOL    HW128919   6.050   3.045   1.079
 9340SOL    HW228920   5.996   3.194   1.040
 9341SOL     OW28921   6.724   4.774   5.632
 9341SOL    HW128922   6.759   4.688   5.595
 9341SOL    HW228923   6.791   4.815   5.693
 9342SOL     OW28924   1.212   0.198   5.975
 9342SOL    HW128925   1.126   0.149   5.960
 9342SOL    HW228926   1.200   0.267   6.046
 9343SOL     OW28927   6.173   6.185   4.197
 9343SOL    HW128928   6.156   6.234   4.282
 9343SOL    HW228929   6.184   6.087   4.217
 9344SOL     OW28930   4.524   6.505   0.951
 9344SOL    HW128931   4.512   6.587   1.008
 9344SOL    HW228932   4.608   6.458   0.978
 9345SOL     OW28933   0.335   3.113   0.868
 9345SOL    HW128934   0.324   3.205   0.905
 9345SOL    HW228935   0.404   3.063   0.922
 9346SOL     OW28936   5.891   0.246   0.679
 9346SOL    HW128937   5.910   0.338   0.714
 9346SOL    HW228938   5.803   0.214   0.714
 9347SOL     OW28939   1.956   6.603   1.825
 9347SOL    HW128940   2.027   6.547   1.869
 9347SOL    HW228941   1.946   6.689   1.875
 9348SOL     OW28942   2.536   4.925   0.718
 9348SOL    HW128943   2.461   4.882   0.768
 9348SOL    HW228944   2.499   4.980   0.643
 9349SOL     OW28945   1.987   5.812   2.325
 9349SOL    HW128946   1.932   5.838   2.405
 9349SOL    HW228947   2.015   5.895   2.276
 9350SOL     OW28948   0.181   2.937   5.553
 9350SOL    HW128949   0.092   2.931   5.599
 9350SOL    HW228950   0.236   2.857   5.577
 9351SOL     OW28951   2.989   1.009   6.422
 9351SOL    HW128952   2.975   1.100   6.461
 9351SOL    HW228953   2.992   0.941   6.496
 9352SOL     OW28954   2.362   4.985   5.724
 9352SOL    HW128955   2.344   5.042   5.644
 9352SOL    HW228956   2.449   4.937   5.713
 9353SOL     OW28957   5.750   1.201   0.964
 9353SOL    HW128958   5.659   1.233   0.935
 9353SOL    HW228959   5.811   1.199   0.884
 9354SOL     OW28960   1.135   1.663   6.579
 9354SOL    HW128961   1.187   1.628   6.501
 9354SOL    HW228962   1.164   1.756   6.599
 9355SOL     OW28963   0.870   1.346   4.679
 9355SOL    HW128964   0.836   1.325   4.770
 9355SOL    HW228965   0.872   1.445   4.665
 9356SOL     OW28966   4.982   0.185   3.794
 9356SOL    HW128967   5.007   0.088   3.786
 9356SOL    HW228968   4.901   0.203   3.739
 9357SOL     OW28969   0.915   2.142   0.492
 9357SOL    HW128970   0.906   2.123   0.590
 9357SOL    HW228971   0.831   2.185   0.459
 9358SOL     OW28972   1.272   2.679   1.582
 9358SOL    HW128973   1.365   2.659   1.551
 9358SOL    HW228974   1.256   2.632   1.669
 9359SOL     OW28975   1.299   0.230   5.258
 9359SOL    HW128976   1.357   0.180   5.193
 9359SOL    HW228977   1.262   0.312   5.213
 9360SOL     OW28978   0.785   0.561   6.005
 9360SOL    HW128979   0.785   0.461   6.005
 9360SOL    HW228980   0.697   0.595   6.039
 9361SOL     OW28981   2.433   5.791   4.657
 9361SOL    HW128982   2.440   5.819   4.561
 9361SOL    HW228983   2.520   5.809   4.703
 9362SOL     OW28984   2.356   0.780   2.361
 9362SOL    HW128985   2.410   0.863   2.354
 9362SOL    HW228986   2.265   0.802   2.397
 9363SOL     OW28987   1.858   4.168   2.519
 9363SOL    HW128988   1.891   4.141   2.429
 9363SOL    HW228989   1.916   4.242   2.554
 9364SOL     OW28990   0.123   2.659   0.361
 9364SOL    HW128991   0.176   2.576   0.374
 9364SOL    HW228992   0.144   2.724   0.434
 9365SOL     OW28993   2.618   0.893   4.872
 9365SOL    HW128994   2.616   0.883   4.773
 9365SOL    HW228995   2.563   0.820   4.913
 9366SOL     OW28996   3.962   6.449   2.482
 9366SOL    HW128997   3.989   6.389   2.407
 9366SOL    HW228998   3.865   6.472   2.474
 9367SOL     OW28999   6.421   0.557   1.416
 9367SOL    HW129000   6.338   0.584   1.367
 9367SOL    HW229001   6.494   0.539   1.351
 9368SOL     OW29002   2.678   0.510   2.928
 9368SOL    HW129003   2.657   0.423   2.884
 9368SOL    HW229004   2.665   0.502   3.027
 9369SOL     OW29005   3.728   5.380   0.916
 9369SOL    HW129006   3.757   5.434   0.995
 9369SOL    HW229007   3.646   5.327   0.940
 9370SOL     OW29008   4.319   1.904   5.075
 9370SOL    HW129009   4.253   1.980   5.077
 9370SOL    HW229010   4.403   1.932   5.122
 9371SOL     OW29011   4.122   4.730   0.565
 9371SOL    HW129012   4.034   4.761   0.527
 9371SOL    HW229013   4.187   4.806   0.564
 9372SOL     OW29014   4.214   5.944   1.514
 9372SOL    HW129015   4.135   5.924   1.573
 9372SOL    HW229016   4.206   6.037   1.478
 9373SOL     OW29017   6.783   2.777   1.227
 9373SOL    HW129018   6.799   2.862   1.277
 9373SOL    HW229019   6.822   2.786   1.135
 9374SOL     OW29020   6.941   5.408   6.335
 9374SOL    HW129021   6.910   5.499   6.364
 9374SOL    HW229022   6.871   5.368   6.276
 9375SOL     OW29023   1.408   1.150   0.115
 9375SOL    HW129024   1.378   1.245   0.124
 9375SOL    HW229025   1.487   1.135   0.175
 9376SOL     OW29026   2.668   3.537   0.589
 9376SOL    HW129027   2.690   3.581   0.502
 9376SOL    HW229028   2.731   3.461   0.605
 9377SOL     OW29029   1.924   0.580   3.533
 9377SOL    HW129030   1.983   0.660   3.520
 9377SOL    HW229031   1.855   0.601   3.602
 9378SOL     OW29032   3.680   1.072   4.929
 9378SOL    HW129033   3.648   1.018   4.851
 9378SOL    HW229034   3.659   1.169   4.913
 9379SOL     OW29035   4.231   0.349   4.477
 9379SOL    HW129036   4.221   0.281   4.404
 9379SOL    HW229037   4.282   0.308   4.553
 9380SOL     OW29038   5.083   5.574   0.325
 9380SOL    HW129039   4.997   5.608   0.361
 9380SOL    HW229040   5.141   5.543   0.400
 9381SOL     OW29041   5.621   0.875   5.356
 9381SOL    HW129042   5.693   0.907   5.293
 9381SOL    HW229043   5.649   0.789   5.397
 9382SOL     OW29044   3.392   5.643   6.169
 9382SOL    HW129045   3.349   5.663   6.258
 9382SOL    HW229046   3.410   5.729   6.121
 9383SOL     OW29047   5.473   3.608   1.819
 9383SOL    HW129048   5.391   3.552   1.825
 9383SOL    HW229049   5.447   3.705   1.819
 9384SOL     OW29050   3.735   0.170   1.221
 9384SOL    HW129051   3.699   0.149   1.312
 9384SOL    HW229052   3.680   0.244   1.181
 9385SOL     OW29053   4.036   2.159   4.495
 9385SOL    HW129054   3.951   2.122   4.532
 9385SOL    HW229055   4.104   2.165   4.568
 9386SOL     OW29056   5.378   0.056   1.814
 9386SOL    HW129057   5.421   0.115   1.745
 9386SOL    HW229058   5.279   0.053   1.798
 9387SOL     OW29059   2.105   1.912   6.392
 9387SOL    HW129060   2.046   1.926   6.312
 9387SOL    HW229061   2.180   1.850   6.369
 9388SOL     OW29062   2.531   0.120   4.743
 9388SOL    HW129063   2.500   0.162   4.658
 9388SOL    HW229064   2.602   0.053   4.724
 9389SOL     OW29065   2.234   3.999   1.868
 9389SOL    HW129066   2.279   4.081   1.901
 9389SOL    HW229067   2.234   3.929   1.939
 9390SOL     OW29068   5.217   5.113   3.988
 9390SOL    HW129069   5.226   5.195   4.043
 9390SOL    HW229070   5.295   5.105   3.926
 9391SOL     OW29071   1.893   3.871   4.600
 9391SOL    HW129072   1.921   3.951   4.547
 9391SOL    HW229073   1.973   3.823   4.634
 9392SOL     OW29074   4.919   4.481   2.373
 9392SOL    HW129075   5.008   4.445   2.344
 9392SOL    HW229076   4.848   4.449   2.309
 9393SOL     OW29077   1.764   5.729   6.253
 9393SOL    HW129078   1.762   5.828   6.239
 9393SOL    HW229079   1.715   5.706   6.337
 9394SOL     OW29080   4.032   0.526   0.620
 9394SOL    HW129081   3.982   0.526   0.534
 9394SOL    HW229082   3.969   0.539   0.696
 9395SOL     OW29083   1.339   1.249   1.330
 9395SOL    HW129084   1.322   1.248   1.428
 9395SOL    HW229085   1.428   1.207   1.311
 9396SOL     OW29086   0.864   1.037   6.176
 9396SOL    HW129087   0.856   1.060   6.273
 9396SOL    HW229088   0.959   1.018   6.154
 9397SOL     OW29089   3.540   0.925   4.696
 9397SOL    HW129090   3.462   0.974   4.656
 9397SOL    HW229091   3.620   0.937   4.637
 9398SOL     OW29092   0.398   2.177   0.355
 9398SOL    HW129093   0.497   2.174   0.349
 9398SOL    HW229094   0.359   2.100   0.304
 9399SOL     OW29095   1.035   2.149   4.698
 9399SOL    HW129096   1.125   2.193   4.699
 9399SOL    HW229097   1.031   2.078   4.768
 9400SOL     OW29098   5.701   1.875   1.168
 9400SOL    HW129099   5.621   1.901   1.221
 9400SOL    HW229100   5.679   1.876   1.071
 9401SOL     OW29101   0.370   2.453   3.695
 9401SOL    HW129102   0.457   2.410   3.721
 9401SOL    HW229103   0.383   2.552   3.687
 9402SOL     OW29104   2.976   6.231   5.185
 9402SOL    HW129105   2.982   6.170   5.106
 9402SOL    HW229106   2.927   6.185   5.259
 9403SOL     OW29107   5.759   2.172   1.043
 9403SOL    HW129108   5.728   2.115   0.967
 9403SOL    HW229109   5.755   2.119   1.128
 9404SOL     OW29110   1.923   2.445   1.100
 9404SOL    HW129111   1.985   2.373   1.069
 9404SOL    HW229112   1.901   2.431   1.197
 9405SOL     OW29113   6.443   6.025   5.311
 9405SOL    HW129114   6.356   6.047   5.267
 9405SOL    HW229115   6.435   5.939   5.361
 9406SOL     OW29116   1.394   2.040   0.656
 9406SOL    HW129117   1.442   2.126   0.670
 9406SOL    HW229118   1.459   1.970   0.627
 9407SOL     OW29119   1.275   4.398   4.641
 9407SOL    HW129120   1.362   4.348   4.638
 9407SOL    HW229121   1.217   4.367   4.566
 9408SOL     OW29122   5.512   4.259   4.037
 9408SOL    HW129123   5.421   4.266   4.078
 9408SOL    HW229124   5.554   4.350   4.032
 9409SOL     OW29125   6.003   5.542   1.377
 9409SOL    HW129126   5.921   5.536   1.433
 9409SOL    HW229127   6.044   5.633   1.388
 9410SOL     OW29128   4.284   0.653   1.070
 9410SOL    HW129129   4.334   0.713   1.132
 9410SOL    HW229130   4.339   0.571   1.052
 9411SOL     OW29131   3.158   4.049   3.039
 9411SOL    HW129132   3.254   4.061   3.066
 9411SOL    HW229133   3.118   4.138   3.016
 9412SOL     OW29134   4.538   6.896   1.394
 9412SOL    HW129135   4.444   6.923   1.376
 9412SOL    HW229136   4.598   6.976   1.385
 9413SOL     OW29137   4.209   4.698   3.172
 9413SOL    HW129138   4.142   4.740   3.234
 9413SOL    HW229139   4.291   4.674   3.224
 9414SOL     OW29140   2.309   2.032   2.324
 9414SOL    HW129141   2.281   2.062   2.233
 9414SOL    HW229142   2.349   2.109   2.374
 9415SOL     OW29143   5.346   0.531   1.392
 9415SOL    HW129144   5.269   0.572   1.341
 9415SOL    HW229145   5.418   0.506   1.327
 9416SOL     OW29146   6.173   5.312   5.622
 9416SOL    HW129147   6.141   5.218   5.624
 9416SOL    HW229148   6.096   5.373   5.607
 9417SOL     OW29149   3.816   5.558   2.364
 9417SOL    HW129150   3.729   5.571   2.411
 9417SOL    HW229151   3.862   5.477   2.400
 9418SOL     OW29152   3.252   2.011   4.943
 9418SOL    HW129153   3.314   1.988   5.018
 9418SOL    HW229154   3.224   2.107   4.950
 9419SOL     OW29155   2.089   2.539   6.516
 9419SOL    HW129156   2.165   2.604   6.509
 9419SOL    HW229157   2.017   2.565   6.451
 9420SOL     OW29158   5.549   3.655   5.728
 9420SOL    HW129159   5.502   3.743   5.738
 9420SOL    HW229160   5.623   3.650   5.795
 9421SOL     OW29161   4.295   6.125   6.517
 9421SOL    HW129162   4.223   6.059   6.493
 9421SOL    HW229163   4.342   6.155   6.434
 9422SOL     OW29164   2.646   6.564   5.350
 9422SOL    HW129165   2.713   6.590   5.419
 9422SOL    HW229166   2.555   6.597   5.378
 9423SOL     OW29167   4.587   5.556   1.707
 9423SOL    HW129168   4.676   5.560   1.751
 9423SOL    HW229169   4.521   5.608   1.761
 9424SOL     OW29170   0.108   0.338   4.033
 9424SOL    HW129171   0.053   0.357   3.952
 9424SOL    HW229172   0.055   0.359   4.115
 9425SOL     OW29173   6.924   4.553   0.704
 9425SOL    HW129174   6.927   4.504   0.617
 9425SOL    HW229175   7.012   4.599   0.719
 9426SOL     OW29176   4.300   2.609   5.905
 9426SOL    HW129177   4.370   2.594   5.974
 9426SOL    HW229178   4.269   2.704   5.909
 9427SOL     OW29179   3.863   5.060   1.938
 9427SOL    HW129180   3.954   5.056   1.897
 9427SOL    HW229181   3.870   5.052   2.037
 9428SOL     OW29182   0.932   6.329   5.639
 9428SOL    HW129183   1.016   6.318   5.587
 9428SOL    HW229184   0.953   6.332   5.737
 9429SOL     OW29185   3.045   2.094   4.319
 9429SOL    HW129186   3.074   2.135   4.406
 9429SOL    HW229187   3.082   2.001   4.312
 9430SOL     OW29188   1.629   0.696   4.466
 9430SOL    HW129189   1.663   0.712   4.559
 9430SOL    HW229190   1.609   0.783   4.423
 9431SOL     OW29191   1.212   4.428   4.947
 9431SOL    HW129192   1.203   4.405   4.850
 9431SOL    HW229193   1.215   4.344   5.002
 9432SOL     OW29194   0.085   1.614   3.517
 9432SOL    HW129195   0.034   1.632   3.434
 9432SOL    HW229196   0.103   1.700   3.565
 9433SOL     OW29197   4.384   5.663   1.861
 9433SOL    HW129198   4.305   5.627   1.910
 9433SOL    HW229199   4.418   5.745   1.906
 9434SOL     OW29200   3.975   5.831   4.479
 9434SOL    HW129201   4.067   5.859   4.451
 9434SOL    HW229202   3.982   5.754   4.543
 9435SOL     OW29203   5.822   4.194   0.366
 9435SOL    HW129204   5.771   4.108   0.366
 9435SOL    HW229205   5.915   4.178   0.398
 9436SOL     OW29206   3.283   1.124   3.152
 9436SOL    HW129207   3.199   1.177   3.146
 9436SOL    HW229208   3.362   1.186   3.153
 9437SOL     OW29209   5.124   1.126   4.324
 9437SOL    HW129210   5.187   1.048   4.323
 9437SOL    HW229211   5.174   1.209   4.298
 9438SOL     OW29212   4.938   0.281   2.974
 9438SOL    HW129213   4.844   0.315   2.966
 9438SOL    HW229214   4.971   0.298   3.067
 9439SOL     OW29215   2.157   3.822   1.105
 9439SOL    HW129216   2.123   3.913   1.127
 9439SOL    HW229217   2.137   3.760   1.182
 9440SOL     OW29218   1.580   6.046   4.856
 9440SOL    HW129219   1.640   6.122   4.831
 9440SOL    HW229220   1.618   5.961   4.820
 9441SOL     OW29221   0.476   6.166   4.341
 9441SOL    HW129222   0.405   6.156   4.411
 9441SOL    HW229223   0.538   6.240   4.368
 9442SOL     OW29224   5.794   3.132   1.233
 9442SOL    HW129225   5.837   3.054   1.278
 9442SOL    HW229226   5.716   3.101   1.179
 9443SOL     OW29227   2.796   4.357   1.436
 9443SOL    HW129228   2.806   4.260   1.414
 9443SOL    HW229229   2.884   4.403   1.424
 9444SOL     OW29230   1.929   5.826   6.666
 9444SOL    HW129231   1.850   5.797   6.720
 9444SOL    HW229232   1.972   5.745   6.625
 9445SOL     OW29233   0.295   0.836   4.102
 9445SOL    HW129234   0.392   0.819   4.089
 9445SOL    HW229235   0.247   0.825   4.015
 9446SOL     OW29236   6.270   4.677   4.457
 9446SOL    HW129237   6.294   4.581   4.466
 9446SOL    HW229238   6.278   4.705   4.362
 9447SOL     OW29239   5.212   5.131   2.303
 9447SOL    HW129240   5.283   5.143   2.371
 9447SOL    HW229241   5.163   5.217   2.289
 9448SOL     OW29242   5.402   1.887   6.879
 9448SOL    HW129243   5.444   1.972   6.846
 9448SOL    HW229244   5.361   1.838   6.802
 9449SOL     OW29245   4.918   6.788   2.550
 9449SOL    HW129246   4.825   6.754   2.562
 9449SOL    HW229247   4.961   6.743   2.472
 9450SOL     OW29248   1.112   0.315   2.932
 9450SOL    HW129249   1.171   0.353   3.003
 9450SOL    HW229250   1.119   0.371   2.849
 9451SOL     OW29251   3.909   5.312   0.715
 9451SOL    HW129252   3.847   5.336   0.790
 9451SOL    HW229253   3.878   5.356   0.631
 9452SOL     OW29254   6.110   4.224   6.457
 9452SOL    HW129255   6.154   4.309   6.430
 9452SOL    HW229256   6.013   4.227   6.433
 9453SOL     OW29257   6.565   4.884   2.234
 9453SOL    HW129258   6.549   4.869   2.137
 9453SOL    HW229259   6.614   4.971   2.247
 9454SOL     OW29260   5.445   5.291   0.563
 9454SOL    HW129261   5.415   5.204   0.603
 9454SOL    HW229262   5.492   5.345   0.633
 9455SOL     OW29263   4.648   0.158   1.303
 9455SOL    HW129264   4.602   0.220   1.239
 9455SOL    HW229265   4.691   0.084   1.252
 9456SOL     OW29266   0.053   2.313   2.710
 9456SOL    HW129267   0.139   2.315   2.660
 9456SOL    HW229268   0.051   2.387   2.777
 9457SOL     OW29269   6.448   6.113   4.050
 9457SOL    HW129270   6.350   6.115   4.069
 9457SOL    HW229271   6.494   6.185   4.102
 9458SOL     OW29272   6.247   3.844   0.293
 9458SOL    HW129273   6.235   3.778   0.218
 9458SOL    HW229274   6.325   3.816   0.349
 9459SOL     OW29275   5.224   4.832   4.810
 9459SOL    HW129276   5.300   4.821   4.873
 9459SOL    HW229277   5.221   4.926   4.777
 9460SOL     OW29278   1.714   2.550   2.604
 9460SOL    HW129279   1.735   2.580   2.511
 9460SOL    HW229280   1.623   2.581   2.629
 9461SOL     OW29281   2.428   1.926   1.977
 9461SOL    HW129282   2.388   1.846   2.023
 9461SOL    HW229283   2.497   1.895   1.911
 9462SOL     OW29284   7.014   1.328   5.753
 9462SOL    HW129285   0.003   1.392   5.828
 9462SOL    HW229286   0.056   1.253   5.760
 9463SOL     OW29287   6.426   4.883   0.552
 9463SOL    HW129288   6.332   4.851   0.563
 9463SOL    HW229289   6.478   4.863   0.635
 9464SOL     OW29290   1.054   0.110   1.466
 9464SOL    HW129291   0.993   0.175   1.512
 9464SOL    HW229292   1.004   0.027   1.443
 9465SOL     OW29293   6.518   5.975   0.235
 9465SOL    HW129294   6.588   5.977   0.307
 9465SOL    HW229295   6.538   5.901   0.171
 9466SOL     OW29296   4.415   3.962   5.326
 9466SOL    HW129297   4.440   3.927   5.417
 9466SOL    HW229298   4.346   3.902   5.285
 9467SOL     OW29299   1.180   4.074   0.741
 9467SOL    HW129300   1.154   4.113   0.829
 9467SOL    HW229301   1.249   4.002   0.756
 9468SOL     OW29302   6.102   0.992   1.043
 9468SOL    HW129303   6.188   1.031   1.076
 9468SOL    HW229304   6.069   0.923   1.107
 9469SOL     OW29305   6.922   6.911   1.597
 9469SOL    HW129306   7.002   6.903   1.537
 9469SOL    HW229307   6.945   6.967   1.677
 9470SOL     OW29308   3.359   2.978   0.803
 9470SOL    HW129309   3.372   2.910   0.731
 9470SOL    HW229310   3.389   2.939   0.891
 9471SOL     OW29311   6.409   3.065   4.848
 9471SOL    HW129312   6.492   3.104   4.889
 9471SOL    HW229313   6.406   3.087   4.751
 9472SOL     OW29314   1.849   3.500   6.147
 9472SOL    HW129315   1.917   3.559   6.191
 9472SOL    HW229316   1.893   3.415   6.117
 9473SOL     OW29317   3.323   3.853   1.225
 9473SOL    HW129318   3.285   3.762   1.206
 9473SOL    HW229319   3.321   3.908   1.142
 9474SOL     OW29320   5.583   4.484   0.952
 9474SOL    HW129321   5.563   4.524   0.863
 9474SOL    HW229322   5.643   4.404   0.940
 9475SOL     OW29323   5.659   3.493   6.748
 9475SOL    HW129324   5.595   3.570   6.753
 9475SOL    HW229325   5.666   3.450   6.838
 9476SOL     OW29326   4.147   4.032   1.187
 9476SOL    HW129327   4.244   4.009   1.181
 9476SOL    HW229328   4.135   4.129   1.166
 9477SOL     OW29329   1.613   4.938   0.979
 9477SOL    HW129330   1.594   4.858   0.922
 9477SOL    HW229331   1.592   4.916   1.074
 9478SOL     OW29332   6.701   4.096   6.018
 9478SOL    HW129333   6.673   4.079   5.923
 9478SOL    HW229334   6.619   4.102   6.075
 9479SOL     OW29335   4.563   1.055   2.097
 9479SOL    HW129336   4.508   0.997   2.156
 9479SOL    HW229337   4.656   1.062   2.133
 9480SOL     OW29338   5.599   0.257   0.839
 9480SOL    HW129339   5.610   0.339   0.782
 9480SOL    HW229340   5.548   0.281   0.922
 9481SOL     OW29341   4.736   6.869   3.235
 9481SOL    HW129342   4.770   6.776   3.252
 9481SOL    HW229343   4.761   6.896   3.142
 9482SOL     OW29344   6.056   5.019   5.127
 9482SOL    HW129345   6.102   4.942   5.083
 9482SOL    HW229346   6.064   5.010   5.227
 9483SOL     OW29347   6.220   4.972   6.782
 9483SOL    HW129348   6.207   4.915   6.863
 9483SOL    HW229349   6.264   5.057   6.808
 9484SOL     OW29350   1.986   6.499   4.356
 9484SOL    HW129351   2.068   6.548   4.325
 9484SOL    HW229352   2.010   6.404   4.375
 9485SOL     OW29353   0.611   1.160   4.969
 9485SOL    HW129354   0.668   1.098   4.914
 9485SOL    HW229355   0.670   1.220   5.023
 9486SOL     OW29356   6.757   6.025   6.531
 9486SOL    HW129357   6.674   6.068   6.567
 9486SOL    HW229358   6.732   5.962   6.457
 9487SOL     OW29359   3.064   3.833   3.209
 9487SOL    HW129360   3.091   3.921   3.170
 9487SOL    HW229361   3.061   3.841   3.309
 9488SOL     OW29362   1.958   0.972   1.538
 9488SOL    HW129363   2.037   0.974   1.600
 9488SOL    HW229364   1.880   0.931   1.584
 9489SOL     OW29365   6.368   4.431   0.281
 9489SOL    HW129366   6.407   4.464   0.367
 9489SOL    HW229367   6.436   4.377   0.232
 9490SOL     OW29368   5.592   3.606   4.843
 9490SOL    HW129369   5.692   3.609   4.835
 9490SOL    HW229370   5.551   3.670   4.778
 9491SOL     OW29371   5.429   0.075   2.907
 9491SOL    HW129372   5.424   0.156   2.850
 9491SOL    HW229373   5.415   0.100   3.002
 9492SOL     OW29374   4.563   2.465   4.380
 9492SOL    HW129375   4.557   2.558   4.344
 9492SOL    HW229376   4.496   2.453   4.453
 9493SOL     OW29377   2.755   6.116   2.373
 9493SOL    HW129378   2.826   6.047   2.359
 9493SOL    HW229379   2.685   6.107   2.302
 9494SOL     OW29380   5.001   2.545   2.598
 9494SOL    HW129381   5.048   2.586   2.676
 9494SOL    HW229382   4.902   2.558   2.607
 9495SOL     OW29383   5.198   2.838   1.323
 9495SOL    HW129384   5.223   2.855   1.228
 9495SOL    HW229385   5.098   2.835   1.330
 9496SOL     OW29386   5.859   2.713   1.473
 9496SOL    HW129387   5.901   2.662   1.549
 9496SOL    HW229388   5.760   2.701   1.477
 9497SOL     OW29389   5.369   4.981   5.022
 9497SOL    HW129390   5.426   5.023   5.093
 9497SOL    HW229391   5.273   4.996   5.044
 9498SOL     OW29392   0.886   5.532   5.853
 9498SOL    HW129393   0.914   5.461   5.788
 9498SOL    HW229394   0.936   5.520   5.939
 9499SOL     OW29395   5.324   6.140   4.518
 9499SOL    HW129396   5.343   6.042   4.515
 9499SOL    HW229397   5.410   6.190   4.534
 9500SOL     OW29398   3.018   1.530   0.851
 9500SOL    HW129399   2.958   1.593   0.901
 9500SOL    HW229400   3.015   1.551   0.753
 9501SOL     OW29401   1.927   3.983   5.316
 9501SOL    HW129402   1.973   3.948   5.398
 9501SOL    HW229403   1.994   3.994   5.242
 9502SOL     OW29404   5.604   3.997   3.452
 9502SOL    HW129405   5.670   3.933   3.412
 9502SOL    HW229406   5.648   4.085   3.468
 9503SOL     OW29407   5.751   1.378   0.607
 9503SOL    HW129408   5.729   1.432   0.526
 9503SOL    HW229409   5.673   1.321   0.632
 9504SOL     OW29410   6.510   5.864   2.342
 9504SOL    HW129411   6.428   5.920   2.356
 9504SOL    HW229412   6.558   5.896   2.260
 9505SOL     OW29413   4.768   3.539   6.326
 9505SOL    HW129414   4.686   3.589   6.354
 9505SOL    HW229415   4.744   3.445   6.305
 9506SOL     OW29416   3.462   1.134   1.764
 9506SOL    HW129417   3.444   1.130   1.862
 9506SOL    HW229418   3.377   1.153   1.715
 9507SOL     OW29419   6.404   6.389   1.687
 9507SOL    HW129420   6.316   6.416   1.649
 9507SOL    HW229421   6.407   6.289   1.696
 9508SOL     OW29422   5.159   0.992   1.672
 9508SOL    HW129423   5.142   0.901   1.635
 9508SOL    HW229424   5.257   1.002   1.692
 9509SOL     OW29425   5.712   1.605   3.844
 9509SOL    HW129426   5.752   1.675   3.785
 9509SOL    HW229427   5.675   1.647   3.927
 9510SOL     OW29428   1.388   3.186   2.802
 9510SOL    HW129429   1.386   3.146   2.893
 9510SOL    HW229430   1.322   3.261   2.797
 9511SOL     OW29431   1.020   1.866   1.215
 9511SOL    HW129432   1.045   1.953   1.258
 9511SOL    HW229433   1.097   1.803   1.219
 9512SOL     OW29434   6.467   2.126   1.940
 9512SOL    HW129435   6.395   2.192   1.960
 9512SOL    HW229436   6.553   2.175   1.922
 9513SOL     OW29437   4.877   3.950   5.229
 9513SOL    HW129438   4.824   4.030   5.256
 9513SOL    HW229439   4.939   3.975   5.154
 9514SOL     OW29440   3.620   3.147   1.026
 9514SOL    HW129441   3.572   3.075   1.077
 9514SOL    HW229442   3.555   3.220   1.005
 9515SOL     OW29443   0.140   5.830   3.281
 9515SOL    HW129444   0.221   5.809   3.225
 9515SOL    HW229445   0.082   5.896   3.233
 9516SOL     OW29446   0.772   4.154   6.273
 9516SOL    HW129447   0.813   4.217   6.208
 9516SOL    HW229448   0.803   4.061   6.253
 9517SOL     OW29449   0.510   6.447   1.793
 9517SOL    HW129450   0.563   6.399   1.724
 9517SOL    HW229451   0.413   6.428   1.779
 9518SOL     OW29452   0.890   0.932   1.022
 9518SOL    HW129453   0.803   0.902   0.982
 9518SOL    HW229454   0.913   0.872   1.099
 9519SOL     OW29455   1.760   2.346   5.207
 9519SOL    HW129456   1.849   2.381   5.236
 9519SOL    HW229457   1.710   2.314   5.288
 9520SOL     OW29458   4.559   6.583   1.462
 9520SOL    HW129459   4.565   6.682   1.457
 9520SOL    HW229460   4.464   6.556   1.479
 9521SOL     OW29461   5.325   4.286   3.398
 9521SOL    HW129462   5.266   4.225   3.345
 9521SOL    HW229463   5.349   4.366   3.343
 9522SOL     OW29464   3.217   4.910   5.968
 9522SOL    HW129465   3.226   4.892   6.065
 9522SOL    HW229466   3.306   4.936   5.930
 9523SOL     OW29467   2.247   0.481   5.164
 9523SOL    HW129468   2.224   0.557   5.225
 9523SOL    HW229469   2.169   0.420   5.155
 9524SOL     OW29470   5.349   3.364   0.382
 9524SOL    HW129471   5.318   3.458   0.368
 9524SOL    HW229472   5.314   3.329   0.469
 9525SOL     OW29473   4.084   0.012   4.780
 9525SOL    HW129474   4.140   6.973   4.728
 9525SOL    HW229475   4.100   0.106   4.748
 9526SOL     OW29476   4.852   5.678   0.477
 9526SOL    HW129477   4.812   5.677   0.386
 9526SOL    HW229478   4.792   5.629   0.541
 9527SOL     OW29479   0.237   2.443   0.540
 9527SOL    HW129480   0.173   2.370   0.515
 9527SOL    HW229481   0.201   2.494   0.618
 9528SOL     OW29482   6.457   0.926   1.905
 9528SOL    HW129483   6.548   0.927   1.864
 9528SOL    HW229484   6.402   0.998   1.864
 9529SOL     OW29485   1.713   2.652   4.946
 9529SOL    HW129486   1.689   2.646   5.043
 9529SOL    HW229487   1.795   2.708   4.935
 9530SOL     OW29488   2.678   1.265   3.947
 9530SOL    HW129489   2.624   1.244   3.866
 9530SOL    HW229490   2.752   1.198   3.957
 9531SOL     OW29491   2.922   6.807   3.891
 9531SOL    HW129492   3.016   6.840   3.886
 9531SOL    HW229493   2.913   6.722   3.839
 9532SOL     OW29494   3.168   1.535   2.070
 9532SOL    HW129495   3.226   1.484   2.008
 9532SOL    HW229496   3.072   1.526   2.042
 9533SOL     OW29497   0.815   1.657   4.470
 9533SOL    HW129498   0.751   1.583   4.448
 9533SOL    HW229499   0.866   1.682   4.388
 9534SOL     OW29500   5.945   1.764   4.587
 9534SOL    HW129501   5.904   1.847   4.624
 9534SOL    HW229502   6.043   1.779   4.573
 9535SOL     OW29503   2.974   1.768   4.760
 9535SOL    HW129504   2.897   1.725   4.807
 9535SOL    HW229505   3.059   1.719   4.782
 9536SOL     OW29506   2.175   6.845   6.349
 9536SOL    HW129507   2.231   6.923   6.320
 9536SOL    HW229508   2.083   6.877   6.371
 9537SOL     OW29509   2.166   0.389   0.363
 9537SOL    HW129510   2.118   0.413   0.448
 9537SOL    HW229511   2.205   0.471   0.322
 9538SOL     OW29512   6.216   3.681   2.689
 9538SOL    HW129513   6.260   3.701   2.602
 9538SOL    HW229514   6.117   3.678   2.677
 9539SOL     OW29515   6.965   3.814   6.566
 9539SOL    HW129516   0.010   3.853   6.506
 9539SOL    HW229517   7.001   3.810   6.660
 9540SOL     OW29518   5.763   3.581   5.905
 9540SOL    HW129519   5.814   3.622   5.981
 9540SOL    HW229520   5.780   3.483   5.902
 9541SOL     OW29521   6.757   2.243   3.568
 9541SOL    HW129522   6.840   2.207   3.527
 9541SOL    HW229523   6.686   2.250   3.499
 9542SOL     OW29524   4.865   4.245   4.794
 9542SOL    HW129525   4.865   4.339   4.759
 9542SOL    HW229526   4.807   4.240   4.875
 9543SOL     OW29527   3.762   2.692   0.646
 9543SOL    HW129528   3.662   2.695   0.641
 9543SOL    HW229529   3.794   2.751   0.720
 9544SOL     OW29530   4.494   0.462   0.990
 9544SOL    HW129531   4.573   0.511   1.027
 9544SOL    HW229532   4.515   0.431   0.897
 9545SOL     OW29533   1.473   6.872   4.502
 9545SOL    HW129534   1.482   6.948   4.438
 9545SOL    HW229535   1.538   6.884   4.577
 9546SOL     OW29536   2.611   4.677   1.973
 9546SOL    HW129537   2.597   4.740   1.897
 9546SOL    HW229538   2.706   4.648   1.976
 9547SOL     OW29539   5.218   6.023   3.690
 9547SOL    HW129540   5.309   6.060   3.675
 9547SOL    HW229541   5.167   6.083   3.751
 9548SOL     OW29542   5.732   6.946   2.608
 9548SOL    HW129543   5.746   6.875   2.677
 9548SOL    HW229544   5.691   6.905   2.526
 9549SOL     OW29545   2.261   6.028   6.947
 9549SOL    HW129546   2.180   6.026   7.005
 9549SOL    HW229547   2.234   6.040   6.851
 9550SOL     OW29548   1.820   1.084   0.089
 9550SOL    HW129549   1.758   1.146   0.042
 9550SOL    HW229550   1.780   1.056   0.176
 9551SOL     OW29551   1.523   5.722   5.129
 9551SOL    HW129552   1.604   5.775   5.104
 9551SOL    HW229553   1.541   5.671   5.213
 9552SOL     OW29554   0.167   5.232   2.636
 9552SOL    HW129555   0.195   5.315   2.685
 9552SOL    HW229556   0.149   5.255   2.540
 9553SOL     OW29557   5.375   4.964   6.381
 9553SOL    HW129558   5.317   4.885   6.401
 9553SOL    HW229559   5.469   4.945   6.410
 9554SOL     OW29560   2.323   1.786   2.430
 9554SOL    HW129561   2.328   1.873   2.382
 9554SOL    HW229562   2.241   1.785   2.488
 9555SOL     OW29563   6.817   2.356   6.309
 9555SOL    HW129564   6.738   2.411   6.336
 9555SOL    HW229565   6.817   2.270   6.360
 9556SOL     OW29566   6.683   0.837   0.802
 9556SOL    HW129567   6.649   0.844   0.895
 9556SOL    HW229568   6.690   0.928   0.762
 9557SOL     OW29569   4.994   1.543   1.558
 9557SOL    HW129570   5.038   1.552   1.647
 9557SOL    HW229571   4.977   1.446   1.539
 9558SOL     OW29572   6.943   3.660   1.178
 9558SOL    HW129573   6.861   3.710   1.207
 9558SOL    HW229574   6.970   3.596   1.249
 9559SOL     OW29575   0.727   4.267   2.780
 9559SOL    HW129576   0.824   4.271   2.801
 9559SOL    HW229577   0.705   4.331   2.707
 9560SOL     OW29578   3.685   2.129   5.652
 9560SOL    HW129579   3.654   2.222   5.673
 9560SOL    HW229580   3.724   2.088   5.734
 9561SOL     OW29581   3.597   5.279   0.111
 9561SOL    HW129582   3.590   5.291   0.210
 9561SOL    HW229583   3.629   5.186   0.091
 9562SOL     OW29584   6.461   5.241   4.041
 9562SOL    HW129585   6.424   5.149   4.029
 9562SOL    HW229586   6.443   5.273   4.134
 9563SOL     OW29587   0.684   0.010   6.477
 9563SOL    HW129588   0.757   0.025   6.545
 9563SOL    HW229589   0.626   6.959   6.507
 9564SOL     OW29590   1.142   0.925   6.150
 9564SOL    HW129591   1.176   0.844   6.198
 9564SOL    HW229592   1.104   0.897   6.061
 9565SOL     OW29593   2.832   6.180   5.865
 9565SOL    HW129594   2.834   6.211   5.770
 9565SOL    HW229595   2.762   6.108   5.875
 9566SOL     OW29596   2.814   5.179   5.330
 9566SOL    HW129597   2.757   5.136   5.260
 9566SOL    HW229598   2.807   5.128   5.415
 9567SOL     OW29599   5.655   4.613   4.389
 9567SOL    HW129600   5.691   4.638   4.479
 9567SOL    HW229601   5.599   4.687   4.353
 9568SOL     OW29602   5.807   3.295   5.788
 9568SOL    HW129603   5.799   3.275   5.886
 9568SOL    HW229604   5.761   3.224   5.735
 9569SOL     OW29605   5.679   0.226   1.314
 9569SOL    HW129606   5.704   0.179   1.399
 9569SOL    HW229607   5.739   0.196   1.241
 9570SOL     OW29608   0.762   2.208   6.709
 9570SOL    HW129609   0.784   2.304   6.722
 9570SOL    HW229610   0.813   2.173   6.630
 9571SOL     OW29611   3.572   2.082   0.513
 9571SOL    HW129612   3.602   2.059   0.606
 9571SOL    HW229613   3.537   2.000   0.468
 9572SOL     OW29614   0.488   4.057   0.786
 9572SOL    HW129615   0.532   4.115   0.718
 9572SOL    HW229616   0.405   4.102   0.820
 9573SOL     OW29617   5.093   1.795   2.231
 9573SOL    HW129618   5.092   1.789   2.331
 9573SOL    HW229619   5.037   1.722   2.192
 9574SOL     OW29620   3.302   2.072   3.734
 9574SOL    HW129621   3.315   2.131   3.654
 9574SOL    HW229622   3.281   2.128   3.814
 9575SOL     OW29623   3.781   1.274   3.141
 9575SOL    HW129624   3.736   1.189   3.168
 9575SOL    HW229625   3.880   1.264   3.149
 9576SOL     OW29626   3.280   3.367   5.666
 9576SOL    HW129627   3.189   3.333   5.643
 9576SOL    HW229628   3.332   3.297   5.715
 9577SOL     OW29629   0.413   5.021   3.941
 9577SOL    HW129630   0.322   4.981   3.946
 9577SOL    HW229631   0.408   5.111   3.897
 9578SOL     OW29632   0.051   4.092   1.150
 9578SOL    HW129633   0.022   4.187   1.138
 9578SOL    HW229634   0.072   4.053   1.060
 9579SOL     OW29635   1.542   4.817   3.203
 9579SOL    HW129636   1.486   4.899   3.208
 9579SOL    HW229637   1.522   4.758   3.282
 9580SOL     OW29638   4.199   3.514   5.054
 9580SOL    HW129639   4.157   3.527   4.964
 9580SOL    HW229640   4.213   3.416   5.070
 9581SOL     OW29641   1.130   5.961   6.145
 9581SOL    HW129642   1.082   5.908   6.076
 9581SOL    HW229643   1.216   5.915   6.169
 9582SOL     OW29644   3.779   5.798   3.094
 9582SOL    HW129645   3.798   5.732   3.167
 9582SOL    HW229646   3.693   5.845   3.114
 9583SOL     OW29647   1.327   4.998   1.997
 9583SOL    HW129648   1.291   4.906   1.982
 9583SOL    HW229649   1.354   5.038   1.909
 9584SOL     OW29650   5.152   4.032   6.999
 9584SOL    HW129651   5.150   4.071   6.907
 9584SOL    HW229652   5.205   4.092   0.035
 9585SOL     OW29653   6.190   1.230   3.229
 9585SOL    HW129654   6.260   1.176   3.181
 9585SOL    HW229655   6.209   1.229   3.327
 9586SOL     OW29656   4.899   3.930   2.377
 9586SOL    HW129657   4.967   3.865   2.343
 9586SOL    HW229658   4.884   3.916   2.475
 9587SOL     OW29659   4.675   6.075   1.612
 9587SOL    HW129660   4.600   6.009   1.616
 9587SOL    HW229661   4.645   6.162   1.653
 9588SOL     OW29662   6.024   1.052   3.521
 9588SOL    HW129663   6.005   1.128   3.459
 9588SOL    HW229664   6.116   1.061   3.558
 9589SOL     OW29665   3.928   1.738   5.468
 9589SOL    HW129666   3.934   1.687   5.382
 9589SOL    HW229667   3.837   1.724   5.509
 9590SOL     OW29668   7.003   4.701   4.697
 9590SOL    HW129669   7.020   4.673   4.602
 9590SOL    HW229670   0.056   4.676   4.754
 9591SOL     OW29671   0.178   4.215   2.129
 9591SOL    HW129672   0.149   4.120   2.138
 9591SOL    HW229673   0.102   4.270   2.096
 9592SOL     OW29674   4.205   5.892   0.202
 9592SOL    HW129675   4.258   5.920   0.122
 9592SOL    HW229676   4.209   5.963   0.271
 9593SOL     OW29677   2.177   1.871   3.427
 9593SOL    HW129678   2.231   1.921   3.496
 9593SOL    HW229679   2.215   1.889   3.336
 9594SOL     OW29680   5.501   0.114   1.139
 9594SOL    HW129681   5.563   0.169   1.195
 9594SOL    HW229682   5.455   0.173   1.072
 9595SOL     OW29683   2.229   5.358   5.721
 9595SOL    HW129684   2.189   5.402   5.801
 9595SOL    HW229685   2.325   5.385   5.712
 9596SOL     OW29686   5.456   5.439   2.608
 9596SOL    HW129687   5.392   5.489   2.550
 9596SOL    HW229688   5.437   5.460   2.704
 9597SOL     OW29689   2.212   5.263   1.521
 9597SOL    HW129690   2.171   5.218   1.442
 9597SOL    HW229691   2.300   5.304   1.495
 9598SOL     OW29692   0.844   6.071   6.027
 9598SOL    HW129693   0.906   5.995   6.005
 9598SOL    HW229694   0.760   6.061   5.974
 9599SOL     OW29695   3.934   2.018   5.449
 9599SOL    HW129696   3.928   1.919   5.450
 9599SOL    HW229697   3.855   2.056   5.400
 9600SOL     OW29698   1.343   6.429   6.614
 9600SOL    HW129699   1.380   6.378   6.692
 9600SOL    HW229700   1.367   6.526   6.624
 9601SOL     OW29701   1.294   6.873   4.996
 9601SOL    HW129702   1.334   6.810   4.930
 9601SOL    HW229703   1.295   6.832   5.087
 9602SOL     OW29704   1.038   5.570   6.086
 9602SOL    HW129705   1.005   5.652   6.133
 9602SOL    HW229706   1.046   5.495   6.152
 9603SOL     OW29707   0.965   5.502   1.495
 9603SOL    HW129708   1.020   5.585   1.487
 9603SOL    HW229709   0.895   5.516   1.566
 9604SOL     OW29710   0.042   0.840   6.427
 9604SOL    HW129711   0.058   0.939   6.431
 9604SOL    HW229712   0.128   0.791   6.440
 9605SOL     OW29713   3.419   4.718   1.257
 9605SOL    HW129714   3.348   4.775   1.215
 9605SOL    HW229715   3.468   4.668   1.185
 9606SOL     OW29716   0.295   0.986   5.255
 9606SOL    HW129717   0.392   1.006   5.271
 9606SOL    HW229718   0.280   0.887   5.259
 9607SOL     OW29719   6.907   2.947   4.001
 9607SOL    HW129720   6.926   3.045   4.009
 9607SOL    HW229721   6.970   2.896   4.060
 9608SOL     OW29722   6.030   0.833   1.261
 9608SOL    HW129723   5.956   0.799   1.319
 9608SOL    HW229724   6.084   0.899   1.312
 9609SOL     OW29725   1.519   1.759   4.208
 9609SOL    HW129726   1.517   1.741   4.110
 9609SOL    HW229727   1.547   1.854   4.224
 9610SOL     OW29728   4.719   1.211   5.597
 9610SOL    HW129729   4.639   1.162   5.633
 9610SOL    HW229730   4.794   1.145   5.582
 9611SOL     OW29731   4.650   5.589   0.671
 9611SOL    HW129732   4.668   5.585   0.769
 9611SOL    HW229733   4.571   5.647   0.653
 9612SOL     OW29734   5.789   3.493   3.720
 9612SOL    HW129735   5.788   3.586   3.684
 9612SOL    HW229736   5.843   3.489   3.804
 9613SOL     OW29737   5.698   0.677   4.799
 9613SOL    HW129738   5.743   0.758   4.837
 9613SOL    HW229739   5.602   0.699   4.779
 9614SOL     OW29740   2.578   2.913   0.435
 9614SOL    HW129741   2.544   2.959   0.517
 9614SOL    HW229742   2.504   2.900   0.370
 9615SOL     OW29743   6.823   5.418   3.878
 9615SOL    HW129744   6.739   5.471   3.890
 9615SOL    HW229745   6.886   5.439   3.953
 9616SOL     OW29746   1.045   2.228   1.180
 9616SOL    HW129747   1.085   2.319   1.174
 9616SOL    HW229748   1.094   2.166   1.119
 9617SOL     OW29749   0.534   2.982   3.803
 9617SOL    HW129750   0.503   2.926   3.879
 9617SOL    HW229751   0.633   2.969   3.790
 9618SOL     OW29752   4.832   3.493   1.684
 9618SOL    HW129753   4.910   3.493   1.621
 9618SOL    HW229754   4.852   3.433   1.762
 9619SOL     OW29755   0.948   0.428   0.547
 9619SOL    HW129756   0.886   0.435   0.625
 9619SOL    HW229757   0.970   0.520   0.513
 9620SOL     OW29758   4.134   1.054   5.890
 9620SOL    HW129759   4.136   1.151   5.867
 9620SOL    HW229760   4.070   1.007   5.829
 9621SOL     OW29761   0.004   0.807   1.347
 9621SOL    HW129762   0.049   0.792   1.259
 9621SOL    HW229763   0.066   0.854   1.409
 9622SOL     OW29764   6.650   6.844   4.744
 9622SOL    HW129765   6.627   6.747   4.747
 9622SOL    HW229766   6.695   6.871   4.829
 9623SOL     OW29767   2.438   6.380   6.066
 9623SOL    HW129768   2.506   6.309   6.084
 9623SOL    HW229769   2.360   6.340   6.018
 9624SOL     OW29770   4.811   5.272   6.619
 9624SOL    HW129771   4.714   5.290   6.636
 9624SOL    HW229772   4.862   5.358   6.622
 9625SOL     OW29773   4.885   4.775   5.731
 9625SOL    HW129774   4.897   4.737   5.639
 9625SOL    HW229775   4.861   4.702   5.794
 9626SOL     OW29776   2.485   3.132   6.440
 9626SOL    HW129777   2.479   3.051   6.498
 9626SOL    HW229778   2.573   3.133   6.393
 9627SOL     OW29779   6.924   6.257   0.544
 9627SOL    HW129780   6.961   6.349   0.535
 9627SOL    HW229781   6.941   6.205   0.460
 9628SOL     OW29782   5.699   1.104   5.606
 9628SOL    HW129783   5.673   1.128   5.699
 9628SOL    HW229784   5.784   1.051   5.607
 9629SOL     OW29785   0.397   5.233   3.771
 9629SOL    HW129786   0.350   5.299   3.712
 9629SOL    HW229787   0.481   5.273   3.806
 9630SOL     OW29788   5.927   0.361   6.903
 9630SOL    HW129789   5.936   0.400   6.811
 9630SOL    HW229790   6.016   0.327   6.933
 9631SOL     OW29791   4.664   5.879   0.834
 9631SOL    HW129792   4.637   5.856   0.740
 9631SOL    HW229793   4.582   5.900   0.888
 9632SOL     OW29794   2.666   4.932   3.014
 9632SOL    HW129795   2.706   4.930   2.922
 9632SOL    HW229796   2.603   5.009   3.021
 9633SOL     OW29797   3.131   3.012   5.381
 9633SOL    HW129798   3.044   3.060   5.369
 9633SOL    HW229799   3.120   2.917   5.355
 9634SOL     OW29800   6.100   4.467   2.716
 9634SOL    HW129801   6.030   4.418   2.664
 9634SOL    HW229802   6.072   4.475   2.811
 9635SOL     OW29803   0.534   5.565   4.624
 9635SOL    HW129804   0.579   5.519   4.701
 9635SOL    HW229805   0.522   5.501   4.548
 9636SOL     OW29806   5.181   3.568   3.981
 9636SOL    HW129807   5.104   3.534   3.927
 9636SOL    HW229808   5.265   3.562   3.926
 9637SOL     OW29809   2.318   3.035   6.763
 9637SOL    HW129810   2.277   3.103   6.702
 9637SOL    HW229811   2.417   3.047   6.766
 9638SOL     OW29812   0.257   4.366   5.400
 9638SOL    HW129813   0.306   4.399   5.318
 9638SOL    HW229814   0.193   4.295   5.373
 9639SOL     OW29815   4.789   2.747   1.550
 9639SOL    HW129816   4.828   2.702   1.630
 9639SOL    HW229817   4.706   2.796   1.576
 9640SOL     OW29818   3.398   6.953   3.215
 9640SOL    HW129819   3.422   0.016   3.259
 9640SOL    HW229820   3.470   6.930   3.148
 9641SOL     OW29821   0.349   3.449   4.481
 9641SOL    HW129822   0.331   3.511   4.557
 9641SOL    HW229823   0.265   3.399   4.459
 9642SOL     OW29824   0.502   3.393   4.756
 9642SOL    HW129825   0.564   3.315   4.765
 9642SOL    HW229826   0.496   3.421   4.660
 9643SOL     OW29827   5.346   5.333   4.127
 9643SOL    HW129828   5.415   5.270   4.161
 9643SOL    HW229829   5.369   5.359   4.033
 9644SOL     OW29830   0.981   4.785   3.624
 9644SOL    HW129831   1.012   4.690   3.620
 9644SOL    HW229832   0.903   4.798   3.564
 9645SOL     OW29833   1.291   4.521   6.946
 9645SOL    HW129834   1.195   4.493   6.953
 9645SOL    HW229835   1.297   4.620   6.952
 9646SOL     OW29836   2.914   5.232   1.150
 9646SOL    HW129837   2.842   5.302   1.149
 9646SOL    HW229838   2.995   5.269   1.195
 9647SOL     OW29839   6.097   6.757   3.138
 9647SOL    HW129840   6.084   6.797   3.229
 9647SOL    HW229841   6.016   6.704   3.113
 9648SOL     OW29842   3.668   1.792   1.129
 9648SOL    HW129843   3.758   1.775   1.171
 9648SOL    HW229844   3.643   1.888   1.144
 9649SOL     OW29845   6.800   6.295   1.147
 9649SOL    HW129846   6.819   6.254   1.058
 9649SOL    HW229847   6.867   6.367   1.165
 9650SOL     OW29848   0.707   5.226   4.701
 9650SOL    HW129849   0.753   5.286   4.636
 9650SOL    HW229850   0.764   5.147   4.720
 9651SOL     OW29851   4.035   1.463   6.950
 9651SOL    HW129852   4.020   1.378   6.900
 9651SOL    HW229853   4.121   1.459   6.999
 9652SOL     OW29854   0.197   3.586   0.719
 9652SOL    HW129855   0.287   3.564   0.682
 9652SOL    HW229856   0.203   3.600   0.818
 9653SOL     OW29857   5.295   4.197   5.296
 9653SOL    HW129858   5.232   4.274   5.308
 9653SOL    HW229859   5.388   4.227   5.319
 9654SOL     OW29860   4.119   3.755   3.887
 9654SOL    HW129861   4.104   3.670   3.836
 9654SOL    HW229862   4.214   3.785   3.874
 9655SOL     OW29863   4.810   0.868   0.693
 9655SOL    HW129864   4.896   0.918   0.687
 9655SOL    HW229865   4.806   0.798   0.622
 9656SOL     OW29866   5.200   4.631   6.115
 9656SOL    HW129867   5.210   4.646   6.017
 9656SOL    HW229868   5.151   4.708   6.155
 9657SOL     OW29869   4.857   4.947   2.639
 9657SOL    HW129870   4.903   4.859   2.640
 9657SOL    HW229871   4.858   4.986   2.731
 9658SOL     OW29872   5.483   0.893   2.341
 9658SOL    HW129873   5.436   0.977   2.313
 9658SOL    HW229874   5.580   0.912   2.353
 9659SOL     OW29875   2.941   2.888   0.098
 9659SOL    HW129876   2.921   2.929   0.187
 9659SOL    HW229877   3.033   2.915   0.069
 9660SOL     OW29878   2.440   0.079   1.554
 9660SOL    HW129879   2.383   0.097   1.474
 9660SOL    HW229880   2.517   0.021   1.528
 9661SOL     OW29881   4.000   3.408   2.107
 9661SOL    HW129882   4.028   3.444   2.196
 9661SOL    HW229883   4.075   3.416   2.042
 9662SOL     OW29884   4.529   0.280   5.571
 9662SOL    HW129885   4.439   0.235   5.568
 9662SOL    HW229886   4.567   0.273   5.663
 9663SOL     OW29887   1.006   5.845   2.607
 9663SOL    HW129888   0.925   5.797   2.641
 9663SOL    HW229889   0.978   5.910   2.536
 9664SOL     OW29890   1.984   4.754   3.362
 9664SOL    HW129891   2.025   4.663   3.351
 9664SOL    HW229892   2.033   4.804   3.433
 9665SOL     OW29893   6.633   4.647   6.430
 9665SOL    HW129894   6.704   4.640   6.501
 9665SOL    HW229895   6.676   4.641   6.340
 9666SOL     OW29896   5.258   3.241   0.984
 9666SOL    HW129897   5.306   3.233   0.897
 9666SOL    HW229898   5.313   3.295   1.048
 9667SOL     OW29899   5.637   6.269   6.466
 9667SOL    HW129900   5.557   6.326   6.487
 9667SOL    HW229901   5.711   6.291   6.529
 9668SOL     OW29902   2.273   0.619   0.273
 9668SOL    HW129903   2.222   0.644   0.191
 9668SOL    HW229904   2.275   0.697   0.336
 9669SOL     OW29905   3.716   0.319   6.879
 9669SOL    HW129906   3.790   0.255   6.898
 9669SOL    HW229907   3.753   0.402   6.837
 9670SOL     OW29908   1.007   0.817   1.706
 9670SOL    HW129909   1.089   0.804   1.761
 9670SOL    HW229910   1.026   0.791   1.611
 9671SOL     OW29911   0.803   6.246   6.888
 9671SOL    HW129912   0.815   6.184   6.810
 9671SOL    HW229913   0.791   6.193   6.972
 9672SOL     OW29914   0.593   3.702   4.548
 9672SOL    HW129915   0.549   3.689   4.459
 9672SOL    HW229916   0.523   3.702   4.619
 9673SOL     OW29917   2.686   3.102   6.206
 9673SOL    HW129918   2.731   3.030   6.258
 9673SOL    HW229919   2.738   3.121   6.123
 9674SOL     OW29920   2.428   6.896   4.258
 9674SOL    HW129921   2.332   6.873   4.242
 9674SOL    HW229922   2.446   6.896   4.356
 9675SOL     OW29923   5.889   4.095   5.946
 9675SOL    HW129924   5.923   4.056   6.031
 9675SOL    HW229925   5.847   4.022   5.891
 9676SOL     OW29926   1.231   3.273   5.840
 9676SOL    HW129927   1.209   3.370   5.848
 9676SOL    HW229928   1.204   3.240   5.750
 9677SOL     OW29929   0.340   4.699   2.482
 9677SOL    HW129930   0.287   4.713   2.398
 9677SOL    HW229931   0.400   4.620   2.471
 9678SOL     OW29932   4.308   2.954   5.695
 9678SOL    HW129933   4.249   2.911   5.765
 9678SOL    HW229934   4.404   2.937   5.718
 9679SOL     OW29935   1.006   0.995   3.732
 9679SOL    HW129936   0.942   1.057   3.777
 9679SOL    HW229937   1.072   1.048   3.679
 9680SOL     OW29938   4.775   0.533   2.167
 9680SOL    HW129939   4.818   0.498   2.083
 9680SOL    HW229940   4.676   0.538   2.153
 9681SOL     OW29941   0.868   3.716   0.869
 9681SOL    HW129942   0.924   3.678   0.943
 9681SOL    HW229943   0.777   3.736   0.903
 9682SOL     OW29944   4.371   6.516   5.488
 9682SOL    HW129945   4.288   6.479   5.445
 9682SOL    HW229946   4.443   6.526   5.419
 9683SOL     OW29947   3.349   5.907   4.284
 9683SOL    HW129948   3.415   5.853   4.232
 9683SOL    HW229949   3.263   5.857   4.291
 9684SOL     OW29950   0.550   2.970   6.260
 9684SOL    HW129951   0.579   2.919   6.179
 9684SOL    HW229952   0.507   2.907   6.325
 9685SOL     OW29953   3.602   4.444   1.688
 9685SOL    HW129954   3.580   4.509   1.761
 9685SOL    HW229955   3.599   4.351   1.724
 9686SOL     OW29956   0.575   1.949   5.691
 9686SOL    HW129957   0.625   1.927   5.776
 9686SOL    HW229958   0.517   2.028   5.706
 9687SOL     OW29959   5.370   1.866   4.024
 9687SOL    HW129960   5.313   1.815   4.088
 9687SOL    HW229961   5.313   1.902   3.950
 9688SOL     OW29962   6.829   5.137   1.717
 9688SOL    HW129963   6.807   5.051   1.762
 9688SOL    HW229964   6.744   5.185   1.696
 9689SOL     OW29965   1.560   5.198   1.515
 9689SOL    HW129966   1.469   5.232   1.538
 9689SOL    HW229967   1.598   5.253   1.440
 9690SOL     OW29968   6.012   4.619   4.840
 9690SOL    HW129969   5.941   4.576   4.896
 9690SOL    HW229970   6.081   4.551   4.814
 9691SOL     OW29971   3.788   3.277   2.186
 9691SOL    HW129972   3.779   3.177   2.192
 9691SOL    HW229973   3.877   3.299   2.146
 9692SOL     OW29974   5.103   4.158   0.621
 9692SOL    HW129975   5.151   4.187   0.538
 9692SOL    HW229976   5.005   4.167   0.607
 9693SOL     OW29977   4.345   2.881   6.396
 9693SOL    HW129978   4.381   2.921   6.481
 9693SOL    HW229979   4.306   2.954   6.340
 9694SOL     OW29980   2.288   6.543   1.246
 9694SOL    HW129981   2.229   6.609   1.200
 9694SOL    HW229982   2.266   6.539   1.343
 9695SOL     OW29983   1.853   2.135   3.723
 9695SOL    HW129984   1.802   2.188   3.656
 9695SOL    HW229985   1.940   2.180   3.744
 9696SOL     OW29986   4.928   3.042   3.005
 9696SOL    HW129987   4.895   3.010   3.093
 9696SOL    HW229988   4.886   2.988   2.932
 9697SOL     OW29989   0.169   6.852   1.425
 9697SOL    HW129990   0.182   6.778   1.491
 9697SOL    HW229991   0.239   6.922   1.440
 9698SOL     OW29992   6.747   3.447   1.761
 9698SOL    HW129993   6.759   3.447   1.860
 9698SOL    HW229994   6.665   3.394   1.738
 9699SOL     OW29995   1.059   6.354   2.100
 9699SOL    HW129996   1.093   6.438   2.143
 9699SOL    HW229997   1.136   6.298   2.072
 9700SOL     OW29998   6.322   0.457   6.223
 9700SOL    HW129999   6.292   0.488   6.133
 9700SOL    HW230000   6.247   0.466   6.288
 9701SOL     OW30001   5.322   3.806   0.010
 9701SOL    HW130002   5.271   3.891   7.022
 9701SOL    HW230003   5.262   3.728   7.016
 9702SOL     OW30004   3.125   3.959   1.575
 9702SOL    HW130005   3.072   3.989   1.654
 9702SOL    HW230006   3.212   3.919   1.605
 9703SOL     OW30007   6.467   5.351   2.844
 9703SOL    HW130008   6.526   5.395   2.777
 9703SOL    HW230009   6.401   5.292   2.796
 9704SOL     OW30010   0.765   4.552   1.988
 9704SOL    HW130011   0.864   4.540   1.991
 9704SOL    HW230012   0.738   4.583   1.896
 9705SOL     OW30013   0.445   3.499   6.186
 9705SOL    HW130014   0.380   3.563   6.227
 9705SOL    HW230015   0.476   3.536   6.098
 9706SOL     OW30016   1.329   6.710   2.015
 9706SOL    HW130017   1.231   6.690   2.011
 9706SOL    HW230018   1.342   6.809   2.023
 9707SOL     OW30019   0.937   5.053   2.319
 9707SOL    HW130020   0.921   5.068   2.417
 9707SOL    HW230021   1.006   5.117   2.286
 9708SOL     OW30022   2.951   1.294   2.285
 9708SOL    HW130023   2.949   1.237   2.367
 9708SOL    HW230024   3.046   1.316   2.262
 9709SOL     OW30025   4.515   1.645   1.704
 9709SOL    HW130026   4.504   1.687   1.794
 9709SOL    HW230027   4.463   1.560   1.699
 9710SOL     OW30028   4.633   4.526   4.403
 9710SOL    HW130029   4.642   4.428   4.384
 9710SOL    HW230030   4.552   4.562   4.356
 9711SOL     OW30031   3.027   0.996   6.826
 9711SOL    HW130032   3.015   0.902   6.793
 9711SOL    HW230033   3.104   1.038   6.778
 9712SOL     OW30034   5.291   6.803   4.931
 9712SOL    HW130035   5.286   6.743   4.852
 9712SOL    HW230036   5.230   6.882   4.918
 9713SOL     OW30037   1.694   0.655   2.749
 9713SOL    HW130038   1.619   0.716   2.722
 9713SOL    HW230039   1.771   0.710   2.780
 9714SOL     OW30040   2.396   2.738   4.053
 9714SOL    HW130041   2.384   2.834   4.027
 9714SOL    HW230042   2.361   2.679   3.980
 9715SOL     OW30043   0.021   2.076   5.995
 9715SOL    HW130044   0.107   2.105   5.953
 9715SOL    HW230045   6.969   2.121   5.947
 9716SOL     OW30046   2.117   6.732   1.138
 9716SOL    HW130047   2.128   6.714   1.041
 9716SOL    HW230048   2.028   6.776   1.154
 9717SOL     OW30049   3.724   2.678   5.880
 9717SOL    HW130050   3.658   2.658   5.952
 9717SOL    HW230051   3.679   2.672   5.791
 9718SOL     OW30052   3.300   2.345   6.969
 9718SOL    HW130053   3.373   2.301   7.021
 9718SOL    HW230054   3.307   2.316   6.873
 9719SOL     OW30055   4.258   0.145   5.651
 9719SOL    HW130056   4.191   0.130   5.578
 9719SOL    HW230057   4.216   0.128   5.740
 9720SOL     OW30058   2.114   2.858   2.651
 9720SOL    HW130059   2.078   2.903   2.570
 9720SOL    HW230060   2.051   2.786   2.681
 9721SOL     OW30061   1.401   1.888   1.499
 9721SOL    HW130062   1.346   1.963   1.535
 9721SOL    HW230063   1.459   1.851   1.572
 9722SOL     OW30064   3.919   2.721   5.285
 9722SOL    HW130065   3.993   2.665   5.248
 9722SOL    HW230066   3.949   2.764   5.370
 9723SOL     OW30067   5.803   0.409   4.728
 9723SOL    HW130068   5.807   0.504   4.760
 9723SOL    HW230069   5.720   0.366   4.761
 9724SOL     OW30070   2.061   5.140   1.327
 9724SOL    HW130071   1.968   5.136   1.290
 9724SOL    HW230072   2.126   5.144   1.252
 9725SOL     OW30073   5.356   5.786   3.742
 9725SOL    HW130074   5.435   5.786   3.680
 9725SOL    HW230075   5.295   5.861   3.717
 9726SOL     OW30076   6.839   7.022   3.399
 9726SOL    HW130077   6.815   0.015   3.494
 9726SOL    HW230078   6.756   7.019   3.343
 9727SOL     OW30079   6.144   2.577   1.524
 9727SOL    HW130080   6.120   2.483   1.498
 9727SOL    HW230081   6.237   2.597   1.493
 9728SOL     OW30082   5.774   1.943   4.784
 9728SOL    HW130083   5.800   1.859   4.831
 9728SOL    HW230084   5.811   2.022   4.833
 9729SOL     OW30085   0.600   3.504   2.478
 9729SOL    HW130086   0.698   3.497   2.459
 9729SOL    HW230087   0.572   3.600   2.473
 9730SOL     OW30088   0.994   5.414   3.362
 9730SOL    HW130089   1.002   5.339   3.429
 9730SOL    HW230090   0.986   5.501   3.411
 9731SOL     OW30091   6.967   2.362   1.580
 9731SOL    HW130092   6.953   2.294   1.508
 9731SOL    HW230093   6.923   2.448   1.554
 9732SOL     OW30094   0.904   3.098   3.269
 9732SOL    HW130095   0.839   3.170   3.291
 9732SOL    HW230096   0.994   3.122   3.306
 9733SOL     OW30097   6.187   5.262   1.196
 9733SOL    HW130098   6.223   5.328   1.262
 9733SOL    HW230099   6.100   5.226   1.229
 9734SOL     OW30100   4.106   4.307   6.848
 9734SOL    HW130101   4.047   4.386   6.863
 9734SOL    HW230102   4.088   4.269   6.757
 9735SOL     OW30103   1.243   1.513   0.342
 9735SOL    HW130104   1.166   1.469   0.295
 9735SOL    HW230105   1.289   1.576   0.280
 9736SOL     OW30106   5.142   2.002   5.443
 9736SOL    HW130107   5.072   2.056   5.492
 9736SOL    HW230108   5.207   2.065   5.400
 9737SOL     OW30109   5.326   3.006   5.038
 9737SOL    HW130110   5.402   2.952   5.000
 9737SOL    HW230111   5.301   3.078   4.973
 9738SOL     OW30112   2.259   6.552   1.513
 9738SOL    HW130113   2.352   6.547   1.550
 9738SOL    HW230114   2.209   6.627   1.556
 9739SOL     OW30115   5.580   6.898   0.123
 9739SOL    HW130116   5.645   6.944   0.063
 9739SOL    HW230117   5.629   6.833   0.182
 9740SOL     OW30118   6.635   0.637   1.149
 9740SOL    HW130119   6.711   0.578   1.122
 9740SOL    HW230120   6.657   0.682   1.236
 9741SOL     OW30121   2.462   2.388   3.515
 9741SOL    HW130122   2.546   2.338   3.536
 9741SOL    HW230123   2.464   2.417   3.419
 9742SOL     OW30124   4.140   1.372   6.700
 9742SOL    HW130125   4.192   1.375   6.615
 9742SOL    HW230126   4.203   1.381   6.777
 9743SOL     OW30127   6.633   3.395   4.788
 9743SOL    HW130128   6.641   3.474   4.848
 9743SOL    HW230129   6.724   3.355   4.772
 9744SOL     OW30130   1.550   2.769   2.668
 9744SOL    HW130131   1.574   2.753   2.763
 9744SOL    HW230132   1.521   2.864   2.656
 9745SOL     OW30133   1.087   6.435   6.289
 9745SOL    HW130134   1.164   6.499   6.283
 9745SOL    HW230135   1.095   6.381   6.372
 9746SOL     OW30136   3.123   6.530   6.022
 9746SOL    HW130137   3.066   6.453   6.048
 9746SOL    HW230138   3.078   6.616   6.049
 9747SOL     OW30139   3.804   1.561   3.263
 9747SOL    HW130140   3.745   1.495   3.218
 9747SOL    HW230141   3.750   1.639   3.293
 9748SOL     OW30142   0.775   2.100   3.042
 9748SOL    HW130143   0.757   2.196   3.064
 9748SOL    HW230144   0.735   2.042   3.113
 9749SOL     OW30145   6.765   0.085   1.228
 9749SOL    HW130146   6.810   7.020   1.229
 9749SOL    HW230147   6.766   0.124   1.320
 9750SOL     OW30148   5.476   2.529   5.342
 9750SOL    HW130149   5.433   2.508   5.254
 9750SOL    HW230150   5.472   2.449   5.402
 9751SOL     OW30151   3.258   6.246   0.777
 9751SOL    HW130152   3.347   6.206   0.756
 9751SOL    HW230153   3.244   6.329   0.721
 9752SOL     OW30154   3.780   3.685   0.536
 9752SOL    HW130155   3.763   3.740   0.618
 9752SOL    HW230156   3.761   3.589   0.557
 9753SOL     OW30157   6.692   5.676   3.363
 9753SOL    HW130158   6.744   5.759   3.385
 9753SOL    HW230159   6.636   5.650   3.442
 9754SOL     OW30160   3.667   1.164   2.154
 9754SOL    HW130161   3.702   1.179   2.247
 9754SOL    HW230162   3.686   1.244   2.098
 9755SOL     OW30163   3.266   3.884   0.915
 9755SOL    HW130164   3.206   3.961   0.935
 9755SOL    HW230165   3.275   3.874   0.816
 9756SOL     OW30166   5.256   0.136   6.581
 9756SOL    HW130167   5.181   0.071   6.567
 9756SOL    HW230168   5.316   0.134   6.502
 9757SOL     OW30169   5.615   3.660   4.367
 9757SOL    HW130170   5.691   3.703   4.318
 9757SOL    HW230171   5.572   3.591   4.309
 9758SOL     OW30172   3.034   0.921   2.455
 9758SOL    HW130173   2.968   0.901   2.383
 9758SOL    HW230174   3.127   0.901   2.422
 9759SOL     OW30175   0.150   2.277   0.954
 9759SOL    HW130176   0.156   2.223   0.870
 9759SOL    HW230177   0.209   2.236   1.024
 9760SOL     OW30178   4.824   0.363   6.100
 9760SOL    HW130179   4.765   0.288   6.071
 9760SOL    HW230180   4.791   0.400   6.187
 9761SOL     OW30181   1.157   1.766   1.600
 9761SOL    HW130182   1.067   1.796   1.571
 9761SOL    HW230183   1.222   1.775   1.525
 9762SOL     OW30184   3.711   0.891   6.402
 9762SOL    HW130185   3.784   0.828   6.376
 9762SOL    HW230186   3.623   0.843   6.398
 9763SOL     OW30187   6.114   1.943   1.156
 9763SOL    HW130188   6.032   1.900   1.117
 9763SOL    HW230189   6.089   2.029   1.199
 9764SOL     OW30190   0.591   2.599   2.680
 9764SOL    HW130191   0.505   2.588   2.631
 9764SOL    HW230192   0.658   2.643   2.620
 9765SOL     OW30193   6.932   2.132   1.428
 9765SOL    HW130194   6.898   2.163   1.339
 9765SOL    HW230195   6.867   2.068   1.468
 9766SOL     OW30196   0.220   2.850   2.962
 9766SOL    HW130197   0.152   2.818   2.897
 9766SOL    HW230198   0.309   2.857   2.917
 9767SOL     OW30199   3.708   1.589   4.922
 9767SOL    HW130200   3.803   1.590   4.889
 9767SOL    HW230201   3.708   1.574   5.021
 9768SOL     OW30202   4.917   2.068   6.889
 9768SOL    HW130203   4.907   2.164   6.917
 9768SOL    HW230204   4.849   2.047   6.818
 9769SOL     OW30205   3.768   1.569   5.205
 9769SOL    HW130206   3.859   1.529   5.217
 9769SOL    HW230207   3.700   1.496   5.202
 9770SOL     OW30208   1.912   3.376   5.042
 9770SOL    HW130209   1.982   3.448   5.044
 9770SOL    HW230210   1.831   3.411   4.996
 9771SOL     OW30211   3.207   0.899   2.158
 9771SOL    HW130212   3.241   0.985   2.196
 9771SOL    HW230213   3.229   0.824   2.221
 9772SOL     OW30214   0.477   0.655   1.916
 9772SOL    HW130215   0.534   0.734   1.939
 9772SOL    HW230216   0.383   0.686   1.903
 9773SOL     OW30217   5.999   6.459   2.085
 9773SOL    HW130218   6.027   6.518   2.161
 9773SOL    HW230219   5.940   6.385   2.119
 9774SOL     OW30220   2.080   5.536   4.220
 9774SOL    HW130221   2.043   5.621   4.184
 9774SOL    HW230222   2.005   5.477   4.251
 9775SOL     OW30223   1.222   1.496   2.744
 9775SOL    HW130224   1.129   1.533   2.744
 9775SOL    HW230225   1.259   1.500   2.652
 9776SOL     OW30226   1.930   5.450   1.481
 9776SOL    HW130227   1.908   5.539   1.440
 9776SOL    HW230228   1.973   5.391   1.413
 9777SOL     OW30229   4.382   2.053   5.493
 9777SOL    HW130230   4.381   1.955   5.470
 9777SOL    HW230231   4.417   2.065   5.586
 9778SOL     OW30232   1.658   3.420   2.847
 9778SOL    HW130233   1.643   3.487   2.775
 9778SOL    HW230234   1.725   3.352   2.817
 9779SOL     OW30235   2.968   0.688   3.532
 9779SOL    HW130236   2.902   0.629   3.579
 9779SOL    HW230237   3.060   0.649   3.541
 9780SOL     OW30238   0.781   1.430   0.561
 9780SOL    HW130239   0.797   1.529   0.570
 9780SOL    HW230240   0.689   1.408   0.594
 9781SOL     OW30241   1.363   1.462   1.991
 9781SOL    HW130242   1.363   1.398   1.915
 9781SOL    HW230243   1.456   1.472   2.026
 9782SOL     OW30244   0.094   2.914   0.482
 9782SOL    HW130245   0.113   2.932   0.386
 9782SOL    HW230246   0.130   2.989   0.538
 9783SOL     OW30247   5.168   1.853   2.519
 9783SOL    HW130248   5.266   1.868   2.505
 9783SOL    HW230249   5.151   1.827   2.614
 9784SOL     OW30250   1.822   1.384   0.408
 9784SOL    HW130251   1.725   1.398   0.391
 9784SOL    HW230252   1.865   1.472   0.431
 9785SOL     OW30253   1.624   3.247   5.101
 9785SOL    HW130254   1.608   3.302   5.019
 9785SOL    HW230255   1.660   3.158   5.074
 9786SOL     OW30256   2.678   4.845   6.755
 9786SOL    HW130257   2.721   4.768   6.708
 9786SOL    HW230258   2.737   4.925   6.748
 9787SOL     OW30259   2.897   3.532   1.337
 9787SOL    HW130260   2.977   3.504   1.390
 9787SOL    HW230261   2.832   3.578   1.398
 9788SOL     OW30262   2.760   0.061   3.066
 9788SOL    HW130263   2.745   0.049   3.164
 9788SOL    HW230264   2.789   6.999   3.025
 9789SOL     OW30265   4.478   1.565   0.895
 9789SOL    HW130266   4.565   1.516   0.904
 9789SOL    HW230267   4.402   1.501   0.910
 9790SOL     OW30268   4.574   5.868   4.721
 9790SOL    HW130269   4.620   5.945   4.766
 9790SOL    HW230270   4.620   5.783   4.747
 9791SOL     OW30271   0.280   0.658   1.404
 9791SOL    HW130272   0.330   0.573   1.420
 9791SOL    HW230273   0.244   0.693   1.491
 9792SOL     OW30274   3.627   4.231   0.823
 9792SOL    HW130275   3.631   4.163   0.750
 9792SOL    HW230276   3.533   4.264   0.833
 9793SOL     OW30277   5.873   1.121   2.435
 9793SOL    HW130278   5.928   1.162   2.362
 9793SOL    HW230279   5.824   1.042   2.399
 9794SOL     OW30280   3.575   5.482   4.803
 9794SOL    HW130281   3.644   5.422   4.762
 9794SOL    HW230282   3.519   5.523   4.731
 9795SOL     OW30283   1.626   3.642   3.164
 9795SOL    HW130284   1.698   3.590   3.119
 9795SOL    HW230285   1.667   3.710   3.224
 9796SOL     OW30286   3.187   4.100   4.434
 9796SOL    HW130287   3.177   4.126   4.531
 9796SOL    HW230288   3.278   4.125   4.403
 9797SOL     OW30289   3.196   5.682   0.287
 9797SOL    HW130290   3.180   5.584   0.278
 9797SOL    HW230291   3.269   5.710   0.225
 9798SOL     OW30292   6.767   4.340   6.580
 9798SOL    HW130293   6.780   4.439   6.575
 9798SOL    HW230294   6.854   4.297   6.601
 9799SOL     OW30295   4.103   6.462   6.542
 9799SOL    HW130296   4.052   6.388   6.587
 9799SOL    HW230297   4.041   6.537   6.522
 9800SOL     OW30298   6.129   4.774   5.030
 9800SOL    HW130299   6.097   4.715   4.956
 9800SOL    HW230300   6.146   4.718   5.112
 9801SOL     OW30301   4.476   6.803   0.887
 9801SOL    HW130302   4.410   6.877   0.873
 9801SOL    HW230303   4.431   6.727   0.933
 9802SOL     OW30304   3.813   3.418   0.153
 9802SOL    HW130305   3.715   3.418   0.133
 9802SOL    HW230306   3.862   3.469   0.082
 9803SOL     OW30307   1.739   3.671   6.528
 9803SOL    HW130308   1.730   3.571   6.531
 9803SOL    HW230309   1.715   3.709   6.617
 9804SOL     OW30310   1.082   4.710   2.879
 9804SOL    HW130311   1.087   4.625   2.827
 9804SOL    HW230312   1.174   4.745   2.896
 9805SOL     OW30313   0.125   5.734   4.679
 9805SOL    HW130314   0.170   5.645   4.674
 9805SOL    HW230315   0.027   5.722   4.667
 9806SOL     OW30316   3.532   1.519   0.017
 9806SOL    HW130317   3.548   1.439   0.075
 9806SOL    HW230318   3.612   1.534   6.984
 9807SOL     OW30319   3.831   3.155   3.678
 9807SOL    HW130320   3.854   3.118   3.588
 9807SOL    HW230321   3.800   3.081   3.738
 9808SOL     OW30322   3.100   5.709   2.217
 9808SOL    HW130323   3.141   5.622   2.246
 9808SOL    HW230324   3.012   5.690   2.172
 9809SOL     OW30325   5.877   2.349   0.848
 9809SOL    HW130326   5.851   2.441   0.876
 9809SOL    HW230327   5.868   2.286   0.925
 9810SOL     OW30328   2.652   3.177   1.045
 9810SOL    HW130329   2.615   3.148   1.133
 9810SOL    HW230330   2.586   3.158   0.972
 9811SOL     OW30331   5.491   3.443   4.277
 9811SOL    HW130332   5.397   3.425   4.250
 9811SOL    HW230333   5.546   3.461   4.195
 9812SOL     OW30334   3.486   5.920   6.552
 9812SOL    HW130335   3.533   5.965   6.628
 9812SOL    HW230336   3.508   5.968   6.467
 9813SOL     OW30337   3.899   0.646   1.979
 9813SOL    HW130338   3.971   0.591   2.022
 9813SOL    HW230339   3.941   0.720   1.926
 9814SOL     OW30340   6.722   1.708   6.165
 9814SOL    HW130341   6.696   1.804   6.180
 9814SOL    HW230342   6.700   1.682   6.072
 9815SOL     OW30343   4.537   2.550   4.723
 9815SOL    HW130344   4.571   2.613   4.794
 9815SOL    HW230345   4.569   2.581   4.633
 9816SOL     OW30346   3.021   0.994   0.085
 9816SOL    HW130347   3.027   0.999   7.009
 9816SOL    HW230348   2.951   0.927   0.111
 9817SOL     OW30349   6.764   0.636   1.633
 9817SOL    HW130350   6.770   0.657   1.730
 9817SOL    HW230351   6.692   0.568   1.618
 9818SOL     OW30352   3.668   2.661   5.355
 9818SOL    HW130353   3.632   2.753   5.373
 9818SOL    HW230354   3.761   2.668   5.320
 9819SOL     OW30355   2.983   0.673   1.973
 9819SOL    HW130356   3.063   0.620   1.942
 9819SOL    HW230357   2.990   0.766   1.937
 9820SOL     OW30358   3.783   2.686   6.946
 9820SOL    HW130359   3.719   2.668   7.021
 9820SOL    HW230360   3.807   2.783   6.945
 9821SOL     OW30361   6.821   5.320   0.047
 9821SOL    HW130362   6.872   5.309   6.986
 9821SOL    HW230363   6.744   5.381   0.033
 9822SOL     OW30364   0.052   0.608   2.558
 9822SOL    HW130365   0.086   0.588   2.650
 9822SOL    HW230366   0.114   0.672   2.513
 9823SOL     OW30367   3.198   6.616   1.854
 9823SOL    HW130368   3.197   6.590   1.951
 9823SOL    HW230369   3.136   6.555   1.803
 9824SOL     OW30370   1.474   4.278   6.002
 9824SOL    HW130371   1.376   4.292   6.009
 9824SOL    HW230372   1.516   4.279   6.093
 9825SOL     OW30373   4.596   5.423   5.293
 9825SOL    HW130374   4.517   5.439   5.233
 9825SOL    HW230375   4.571   5.356   5.362
 9826SOL     OW30376   5.653   6.564   5.149
 9826SOL    HW130377   5.644   6.558   5.049
 9826SOL    HW230378   5.748   6.547   5.175
 9827SOL     OW30379   0.816   5.000   4.842
 9827SOL    HW130380   0.915   4.999   4.852
 9827SOL    HW230381   0.787   4.919   4.791
 9828SOL     OW30382   2.261   2.263   0.047
 9828SOL    HW130383   2.360   2.277   0.050
 9828SOL    HW230384   2.220   2.327   7.007
 9829SOL     OW30385   2.555   4.426   1.306
 9829SOL    HW130386   2.491   4.493   1.343
 9829SOL    HW230387   2.638   4.425   1.361
 9830SOL     OW30388   6.850   1.294   0.792
 9830SOL    HW130389   6.770   1.355   0.791
 9830SOL    HW230390   6.921   1.332   0.734
 9831SOL     OW30391   5.968   6.838   1.452
 9831SOL    HW130392   6.035   6.896   1.499
 9831SOL    HW230393   5.885   6.831   1.507
 9832SOL     OW30394   3.890   4.355   1.158
 9832SOL    HW130395   3.970   4.408   1.129
 9832SOL    HW230396   3.807   4.407   1.141
 9833SOL     OW30397   4.271   4.468   6.169
 9833SOL    HW130398   4.344   4.400   6.178
 9833SOL    HW230399   4.234   4.490   6.259
 9834SOL     OW30400   2.138   2.081   4.093
 9834SOL    HW130401   2.134   2.139   4.012
 9834SOL    HW230402   2.168   2.135   4.172
 9835SOL     OW30403   5.800   1.222   4.732
 9835SOL    HW130404   5.739   1.238   4.654
 9835SOL    HW230405   5.891   1.256   4.710
 9836SOL     OW30406   4.913   5.185   1.586
 9836SOL    HW130407   4.905   5.285   1.589
 9836SOL    HW230408   4.835   5.144   1.633
 9837SOL     OW30409   2.209   6.320   5.579
 9837SOL    HW130410   2.117   6.358   5.584
 9837SOL    HW230411   2.221   6.273   5.491
 9838SOL     OW30412   6.654   5.770   4.934
 9838SOL    HW130413   6.703   5.800   4.852
 9838SOL    HW230414   6.684   5.824   5.012
 9839SOL     OW30415   6.124   2.804   2.719
 9839SOL    HW130416   6.143   2.805   2.621
 9839SOL    HW230417   6.155   2.890   2.760
 9840SOL     OW30418   5.705   0.203   0.368
 9840SOL    HW130419   5.656   0.225   0.284
 9840SOL    HW230420   5.752   0.285   0.402
 9841SOL     OW30421   2.267   2.970   3.938
 9841SOL    HW130422   2.274   3.068   3.916
 9841SOL    HW230423   2.192   2.955   4.001
 9842SOL     OW30424   2.863   3.476   3.831
 9842SOL    HW130425   2.823   3.459   3.921
 9842SOL    HW230426   2.895   3.390   3.791
 9843SOL     OW30427   6.199   4.428   3.393
 9843SOL    HW130428   6.102   4.406   3.407
 9843SOL    HW230429   6.218   4.432   3.295
 9844SOL     OW30430   5.108   0.385   2.368
 9844SOL    HW130431   5.122   0.480   2.394
 9844SOL    HW230432   5.145   0.369   2.276
 9845SOL     OW30433   1.319   1.686   2.982
 9845SOL    HW130434   1.242   1.749   2.977
 9845SOL    HW230435   1.303   1.609   2.921
 9846SOL     OW30436   2.926   3.313   3.506
 9846SOL    HW130437   2.895   3.395   3.459
 9846SOL    HW230438   2.964   3.248   3.440
 9847SOL     OW30439   1.786   4.470   4.873
 9847SOL    HW130440   1.700   4.425   4.849
 9847SOL    HW230441   1.766   4.563   4.905
 9848SOL     OW30442   5.707   3.573   0.319
 9848SOL    HW130443   5.681   3.478   0.333
 9848SOL    HW230444   5.634   3.621   0.271
 9849SOL     OW30445   0.351   6.446   5.401
 9849SOL    HW130446   0.256   6.462   5.375
 9849SOL    HW230447   0.363   6.468   5.498
 9850SOL     OW30448   4.521   0.038   2.889
 9850SOL    HW130449   4.478   0.067   2.974
 9850SOL    HW230450   4.529   0.117   2.827
 9851SOL     OW30451   5.669   3.356   5.317
 9851SOL    HW130452   5.730   3.426   5.354
 9851SOL    HW230453   5.622   3.392   5.237
 9852SOL     OW30454   5.683   1.976   4.306
 9852SOL    HW130455   5.720   2.005   4.395
 9852SOL    HW230456   5.596   1.930   4.320
 9853SOL     OW30457   0.497   4.621   1.069
 9853SOL    HW130458   0.578   4.679   1.073
 9853SOL    HW230459   0.477   4.598   0.973
 9854SOL     OW30460   4.008   6.067   4.042
 9854SOL    HW130461   3.979   5.973   4.059
 9854SOL    HW230462   4.081   6.068   3.975
 9855SOL     OW30463   1.785   3.540   0.816
 9855SOL    HW130464   1.864   3.587   0.857
 9855SOL    HW230465   1.817   3.460   0.765
 9856SOL     OW30466   3.491   2.682   0.654
 9856SOL    HW130467   3.436   2.648   0.577
 9856SOL    HW230468   3.475   2.623   0.733
 9857SOL     OW30469   6.372   4.148   3.169
 9857SOL    HW130470   6.320   4.090   3.106
 9857SOL    HW230471   6.376   4.241   3.133
 9858SOL     OW30472   4.060   1.389   1.414
 9858SOL    HW130473   4.075   1.426   1.323
 9858SOL    HW230474   4.126   1.316   1.431
 9859SOL     OW30475   0.159   0.188   1.189
 9859SOL    HW130476   0.180   0.226   1.099
 9859SOL    HW230477   0.138   0.262   1.253
 9860SOL     OW30478   0.553   0.883   2.221
 9860SOL    HW130479   0.606   0.854   2.142
 9860SOL    HW230480   0.455   0.877   2.200
 9861SOL     OW30481   3.019   6.476   4.650
 9861SOL    HW130482   2.921   6.465   4.666
 9861SOL    HW230483   3.059   6.386   4.631
 9862SOL     OW30484   0.276   2.540   0.985
 9862SOL    HW130485   0.234   2.481   1.054
 9862SOL    HW230486   0.219   2.543   0.903
 9863SOL     OW30487   3.127   0.214   0.569
 9863SOL    HW130488   3.145   0.221   0.668
 9863SOL    HW230489   3.194   0.153   0.527
 9864SOL     OW30490   4.708   6.132   3.032
 9864SOL    HW130491   4.733   6.207   2.971
 9864SOL    HW230492   4.620   6.093   3.003
 9865SOL     OW30493   1.624   2.271   4.206
 9865SOL    HW130494   1.695   2.252   4.274
 9865SOL    HW230495   1.593   2.366   4.216
 9866SOL     OW30496   3.359   5.240   3.664
 9866SOL    HW130497   3.264   5.206   3.661
 9866SOL    HW230498   3.403   5.207   3.748
 9867SOL     OW30499   3.955   0.475   6.478
 9867SOL    HW130500   3.918   0.531   6.404
 9867SOL    HW230501   4.053   0.493   6.487
 9868SOL     OW30502   0.437   5.270   6.039
 9868SOL    HW130503   0.497   5.202   5.995
 9868SOL    HW230504   0.468   5.285   6.133
 9869SOL     OW30505   1.497   4.047   2.912
 9869SOL    HW130506   1.552   4.092   2.841
 9869SOL    HW230507   1.533   3.955   2.929
 9870SOL     OW30508   4.659   4.496   1.881
 9870SOL    HW130509   4.628   4.405   1.908
 9870SOL    HW230510   4.642   4.509   1.783
 9871SOL     OW30511   1.450   1.910   5.642
 9871SOL    HW130512   1.548   1.916   5.619
 9871SOL    HW230513   1.397   1.900   5.558
 9872SOL     OW30514   1.367   4.198   3.723
 9872SOL    HW130515   1.310   4.271   3.760
 9872SOL    HW230516   1.434   4.235   3.659
 9873SOL     OW30517   1.587   2.017   0.200
 9873SOL    HW130518   1.584   1.975   0.109
 9873SOL    HW230519   1.549   2.109   0.196
 9874SOL     OW30520   0.986   3.577   4.360
 9874SOL    HW130521   1.074   3.571   4.406
 9874SOL    HW230522   0.917   3.524   4.410
 9875SOL     OW30523   1.119   0.981   2.618
 9875SOL    HW130524   1.081   1.056   2.565
 9875SOL    HW230525   1.152   1.015   2.706
 9876SOL     OW30526   6.717   5.105   2.251
 9876SOL    HW130527   6.805   5.057   2.256
 9876SOL    HW230528   6.730   5.193   2.206
 9877SOL     OW30529   3.662   6.783   1.424
 9877SOL    HW130530   3.581   6.816   1.376
 9877SOL    HW230531   3.671   6.831   1.511
 9878SOL     OW30532   0.696   0.247   5.268
 9878SOL    HW130533   0.767   0.311   5.239
 9878SOL    HW230534   0.661   0.197   5.189
 9879SOL     OW30535   5.500   5.847   5.518
 9879SOL    HW130536   5.405   5.825   5.540
 9879SOL    HW230537   5.561   5.786   5.568
 9880SOL     OW30538   1.660   1.364   3.995
 9880SOL    HW130539   1.723   1.394   3.923
 9880SOL    HW230540   1.663   1.265   4.003
 9881SOL     OW30541   6.917   1.472   6.108
 9881SOL    HW130542   6.832   1.522   6.097
 9881SOL    HW230543   6.975   1.486   6.027
 9882SOL     OW30544   1.786   1.790   2.809
 9882SOL    HW130545   1.774   1.880   2.767
 9882SOL    HW230546   1.811   1.724   2.738
 9883SOL     OW30547   2.667   1.276   2.421
 9883SOL    HW130548   2.711   1.216   2.488
 9883SOL    HW230549   2.734   1.339   2.383
 9884SOL     OW30550   3.288   0.593   4.111
 9884SOL    HW130551   3.384   0.608   4.085
 9884SOL    HW230552   3.236   0.566   4.030
 9885SOL     OW30553   6.274   4.466   3.866
 9885SOL    HW130554   6.204   4.451   3.936
 9885SOL    HW230555   6.260   4.401   3.792
 9886SOL     OW30556   1.057   3.317   1.554
 9886SOL    HW130557   1.071   3.398   1.611
 9886SOL    HW230558   0.972   3.272   1.580
 9887SOL     OW30559   4.396   6.731   6.197
 9887SOL    HW130560   4.384   6.639   6.236
 9887SOL    HW230561   4.344   6.738   6.111
 9888SOL     OW30562   6.349   5.298   0.169
 9888SOL    HW130563   6.359   5.199   0.176
 9888SOL    HW230564   6.438   5.341   0.185
 9889SOL     OW30565   0.400   5.151   0.577
 9889SOL    HW130566   0.318   5.177   0.628
 9889SOL    HW230567   0.431   5.061   0.609
 9890SOL     OW30568   1.272   3.264   0.536
 9890SOL    HW130569   1.180   3.265   0.574
 9890SOL    HW230570   1.329   3.331   0.584
 9891SOL     OW30571   4.749   1.871   1.973
 9891SOL    HW130572   4.769   1.791   1.917
 9891SOL    HW230573   4.817   1.942   1.953
 9892SOL     OW30574   1.036   6.441   0.124
 9892SOL    HW130575   1.039   6.346   0.156
 9892SOL    HW230576   1.006   6.500   0.198
 9893SOL     OW30577   2.598   1.956   0.880
 9893SOL    HW130578   2.554   1.945   0.791
 9893SOL    HW230579   2.535   2.001   0.943
 9894SOL     OW30580   2.125   1.303   1.433
 9894SOL    HW130581   2.223   1.309   1.415
 9894SOL    HW230582   2.076   1.297   1.346
 9895SOL     OW30583   4.366   3.241   5.384
 9895SOL    HW130584   4.323   3.216   5.471
 9895SOL    HW230585   4.297   3.240   5.311
 9896SOL     OW30586   6.982   6.657   6.308
 9896SOL    HW130587   6.987   6.564   6.273
 9896SOL    HW230588   0.049   6.690   6.331
 9897SOL     OW30589   5.513   5.035   4.109
 9897SOL    HW130590   5.546   4.972   4.180
 9897SOL    HW230591   5.590   5.088   4.074
 9898SOL     OW30592   2.968   6.794   5.708
 9898SOL    HW130593   2.984   6.855   5.786
 9898SOL    HW230594   2.870   6.792   5.687
 9899SOL     OW30595   0.154   5.257   6.908
 9899SOL    HW130596   0.070   5.229   6.861
 9899SOL    HW230597   0.173   5.193   6.982
 9900SOL     OW30598   2.235   4.118   3.624
 9900SOL    HW130599   2.213   4.199   3.570
 9900SOL    HW230600   2.220   4.036   3.568
 9901SOL     OW30601   2.319   2.804   5.462
 9901SOL    HW130602   2.395   2.811   5.398
 9901SOL    HW230603   2.240   2.853   5.424
 9902SOL     OW30604   2.634   4.364   0.025
 9902SOL    HW130605   2.711   4.399   0.078
 9902SOL    HW230606   2.548   4.383   0.074
 9903SOL     OW30607   5.491   0.755   4.199
 9903SOL    HW130608   5.565   0.808   4.158
 9903SOL    HW230609   5.444   0.702   4.127
 9904SOL     OW30610   6.437   2.521   0.795
 9904SOL    HW130611   6.377   2.466   0.737
 9904SOL    HW230612   6.394   2.533   0.885
 9905SOL     OW30613   5.149   0.461   0.273
 9905SOL    HW130614   5.064   0.410   0.259
 9905SOL    HW230615   5.224   0.414   0.226
 9906SOL     OW30616   3.350   2.843   4.987
 9906SOL    HW130617   3.305   2.754   4.991
 9906SOL    HW230618   3.314   2.895   4.910
 9907SOL     OW30619   1.309   6.986   2.033
 9907SOL    HW130620   1.329   0.060   2.024
 9907SOL    HW230621   1.248   6.958   1.959
 9908SOL     OW30622   4.911   3.617   2.319
 9908SOL    HW130623   4.852   3.685   2.275
 9908SOL    HW230624   4.881   3.603   2.413
 9909SOL     OW30625   2.271   0.472   4.894
 9909SOL    HW130626   2.270   0.374   4.873
 9909SOL    HW230627   2.268   0.485   4.993
 9910SOL     OW30628   0.084   5.174   3.554
 9910SOL    HW130629   0.019   5.206   3.485
 9910SOL    HW230630   0.084   5.237   3.632
 9911SOL     OW30631   2.510   5.637   2.683
 9911SOL    HW130632   2.596   5.648   2.733
 9911SOL    HW230633   2.496   5.540   2.664
 9912SOL     OW30634   5.064   0.740   6.456
 9912SOL    HW130635   5.144   0.750   6.515
 9912SOL    HW230636   5.081   0.671   6.386
 9913SOL     OW30637   4.349   3.067   6.660
 9913SOL    HW130638   4.369   2.970   6.672
 9913SOL    HW230639   4.250   3.081   6.662
 9914SOL     OW30640   0.016   4.088   4.246
 9914SOL    HW130641   6.957   4.042   4.215
 9914SOL    HW230642   0.086   4.081   4.175
 9915SOL     OW30643   5.416   1.570   3.668
 9915SOL    HW130644   5.484   1.502   3.640
 9915SOL    HW230645   5.392   1.555   3.764
 9916SOL     OW30646   1.842   2.681   2.079
 9916SOL    HW130647   1.752   2.665   2.040
 9916SOL    HW230648   1.890   2.594   2.089
 9917SOL     OW30649   6.043   4.372   4.700
 9917SOL    HW130650   6.118   4.314   4.729
 9917SOL    HW230651   6.007   4.338   4.612
 9918SOL     OW30652   4.747   2.606   2.362
 9918SOL    HW130653   4.754   2.550   2.445
 9918SOL    HW230654   4.669   2.575   2.308
 9919SOL     OW30655   6.056   6.356   0.663
 9919SOL    HW130656   6.081   6.452   0.659
 9919SOL    HW230657   6.005   6.338   0.747
 9920SOL     OW30658   4.670   1.545   2.936
 9920SOL    HW130659   4.699   1.566   3.030
 9920SOL    HW230660   4.582   1.498   2.939
 9921SOL     OW30661   3.710   4.669   6.191
 9921SOL    HW130662   3.717   4.769   6.195
 9921SOL    HW230663   3.615   4.642   6.205
 9922SOL     OW30664   0.165   5.227   0.710
 9922SOL    HW130665   0.096   5.190   0.648
 9922SOL    HW230666   0.123   5.295   0.770
 9923SOL     OW30667   5.515   4.865   1.363
 9923SOL    HW130668   5.572   4.810   1.302
 9923SOL    HW230669   5.452   4.804   1.412
 9924SOL     OW30670   1.099   3.662   4.703
 9924SOL    HW130671   1.032   3.596   4.737
 9924SOL    HW230672   1.173   3.673   4.769
 9925SOL     OW30673   5.504   2.064   3.182
 9925SOL    HW130674   5.425   2.039   3.239
 9925SOL    HW230675   5.586   2.068   3.239
 9926SOL     OW30676   2.878   4.933   0.051
 9926SOL    HW130677   2.920   4.943   6.985
 9926SOL    HW230678   2.792   4.882   0.042
 9927SOL     OW30679   5.500   0.202   3.584
 9927SOL    HW130680   5.448   0.154   3.654
 9927SOL    HW230681   5.528   0.136   3.513
 9928SOL     OW30682   4.855   4.972   1.882
 9928SOL    HW130683   4.890   4.880   1.864
 9928SOL    HW230684   4.796   4.970   1.963
 9929SOL     OW30685   1.164   4.700   2.444
 9929SOL    HW130686   1.178   4.653   2.357
 9929SOL    HW230687   1.240   4.761   2.462
 9930SOL     OW30688   6.170   0.751   3.202
 9930SOL    HW130689   6.257   0.713   3.235
 9930SOL    HW230690   6.100   0.679   3.204
 9931SOL     OW30691   0.683   5.216   6.175
 9931SOL    HW130692   0.716   5.185   6.086
 9931SOL    HW230693   0.715   5.309   6.192
 9932SOL     OW30694   0.683   6.673   5.187
 9932SOL    HW130695   0.765   6.684   5.245
 9932SOL    HW230696   0.626   6.755   5.196
 9933SOL     OW30697   0.243   6.118   2.049
 9933SOL    HW130698   0.250   6.139   2.147
 9933SOL    HW230699   0.274   6.025   2.033
 9934SOL     OW30700   6.844   1.744   5.762
 9934SOL    HW130701   6.767   1.804   5.740
 9934SOL    HW230702   6.929   1.796   5.756
 9935SOL     OW30703   3.086   0.226   6.080
 9935SOL    HW130704   3.131   0.182   6.003
 9935SOL    HW230705   2.992   0.192   6.088
 9936SOL     OW30706   0.981   3.865   4.363
 9936SOL    HW130707   0.980   3.765   4.361
 9936SOL    HW230708   0.892   3.900   4.335
 9937SOL     OW30709   6.343   2.547   6.057
 9937SOL    HW130710   6.440   2.547   6.035
 9937SOL    HW230711   6.328   2.592   6.145
 9938SOL     OW30712   6.913   6.467   2.637
 9938SOL    HW130713   6.934   6.371   2.656
 9938SOL    HW230714   6.964   6.496   2.556
 9939SOL     OW30715   3.495   3.189   2.659
 9939SOL    HW130716   3.577   3.212   2.606
 9939SOL    HW230717   3.415   3.233   2.617
 9940SOL     OW30718   0.136   0.844   0.424
 9940SOL    HW130719   0.220   0.881   0.463
 9940SOL    HW230720   0.100   0.772   0.485
 9941SOL     OW30721   3.222   5.410   5.344
 9941SOL    HW130722   3.267   5.332   5.301
 9941SOL    HW230723   3.195   5.386   5.437
 9942SOL     OW30724   2.885   5.680   3.745
 9942SOL    HW130725   2.833   5.629   3.677
 9942SOL    HW230726   2.826   5.748   3.788
 9943SOL     OW30727   0.891   0.146   4.822
 9943SOL    HW130728   0.956   0.077   4.853
 9943SOL    HW230729   0.805   0.101   4.797
 9944SOL     OW30730   1.398   4.433   0.279
 9944SOL    HW130731   1.465   4.464   0.212
 9944SOL    HW230732   1.306   4.435   0.238
 9945SOL     OW30733   6.594   5.949   6.892
 9945SOL    HW130734   6.516   5.906   6.847
 9945SOL    HW230735   6.620   5.895   6.973
 9946SOL     OW30736   5.760   1.705   4.920
 9946SOL    HW130737   5.850   1.661   4.924
 9946SOL    HW230738   5.704   1.661   4.850
 9947SOL     OW30739   5.971   4.585   3.584
 9947SOL    HW130740   5.929   4.548   3.501
 9947SOL    HW230741   5.934   4.537   3.664
 9948SOL     OW30742   5.420   3.840   4.290
 9948SOL    HW130743   5.415   3.816   4.193
 9948SOL    HW230744   5.511   3.818   4.325
 9949SOL     OW30745   5.951   4.816   1.912
 9949SOL    HW130746   5.879   4.750   1.934
 9949SOL    HW230747   5.909   4.902   1.881
 9950SOL     OW30748   3.039   5.957   6.539
 9950SOL    HW130749   3.034   5.936   6.441
 9950SOL    HW230750   2.949   5.940   6.581
 9951SOL     OW30751   6.017   2.410   3.083
 9951SOL    HW130752   6.019   2.390   2.985
 9951SOL    HW230753   6.110   2.425   3.116
 9952SOL     OW30754   0.060   5.133   6.505
 9952SOL    HW130755   0.133   5.196   6.534
 9952SOL    HW230756   6.995   5.174   6.525
 9953SOL     OW30757   5.856   2.730   4.068
 9953SOL    HW130758   5.799   2.689   4.139
 9953SOL    HW230759   5.820   2.705   3.978
 9954SOL     OW30760   3.989   0.364   4.903
 9954SOL    HW130761   4.075   0.358   4.955
 9954SOL    HW230762   3.927   0.291   4.933
 9955SOL     OW30763   0.678   4.862   4.342
 9955SOL    HW130764   0.671   4.874   4.243
 9955SOL    HW230765   0.718   4.773   4.362
 9956SOL     OW30766   1.010   6.165   0.182
 9956SOL    HW130767   0.976   6.087   0.131
 9956SOL    HW230768   0.936   6.206   0.235
 9957SOL     OW30769   5.754   5.526   2.409
 9957SOL    HW130770   5.721   5.455   2.347
 9957SOL    HW230771   5.681   5.549   2.474
 9958SOL     OW30772   2.524   4.299   0.592
 9958SOL    HW130773   2.536   4.340   0.683
 9958SOL    HW230774   2.563   4.207   0.592
 9959SOL     OW30775   3.517   3.624   1.378
 9959SOL    HW130776   3.503   3.691   1.306
 9959SOL    HW230777   3.434   3.569   1.390
 9960SOL     OW30778   0.523   1.417   2.371
 9960SOL    HW130779   0.509   1.333   2.423
 9960SOL    HW230780   0.620   1.428   2.349
 9961SOL     OW30781   2.147   3.808   4.607
 9961SOL    HW130782   2.170   3.860   4.690
 9961SOL    HW230783   2.151   3.869   4.528
 9962SOL     OW30784   4.924   6.621   4.109
 9962SOL    HW130785   4.993   6.614   4.181
 9962SOL    HW230786   4.857   6.547   4.119
 9963SOL     OW30787   3.440   0.836   0.955
 9963SOL    HW130788   3.377   0.877   1.021
 9963SOL    HW230789   3.508   0.904   0.927
 9964SOL     OW30790   5.044   6.469   4.553
 9964SOL    HW130791   5.127   6.452   4.499
 9964SOL    HW230792   5.065   6.457   4.650
 9965SOL     OW30793   4.291   6.693   0.608
 9965SOL    HW130794   4.379   6.739   0.600
 9965SOL    HW230795   4.269   6.648   0.521
 9966SOL     OW30796   6.664   0.876   3.380
 9966SOL    HW130797   6.585   0.937   3.375
 9966SOL    HW230798   6.655   0.804   3.312
 9967SOL     OW30799   1.211   5.101   0.631
 9967SOL    HW130800   1.210   5.028   0.564
 9967SOL    HW230801   1.118   5.133   0.648
 9968SOL     OW30802   2.952   3.673   2.969
 9968SOL    HW130803   2.951   3.710   2.876
 9968SOL    HW230804   2.991   3.742   3.031
 9969SOL     OW30805   1.740   3.449   1.172
 9969SOL    HW130806   1.676   3.498   1.113
 9969SOL    HW230807   1.806   3.399   1.115
 9970SOL     OW30808   5.984   4.423   1.717
 9970SOL    HW130809   6.034   4.508   1.733
 9970SOL    HW230810   5.981   4.404   1.619
 9971SOL     OW30811   2.803   6.837   6.886
 9971SOL    HW130812   2.791   6.769   6.958
 9971SOL    HW230813   2.888   6.887   6.901
 9972SOL     OW30814   6.412   4.883   1.316
 9972SOL    HW130815   6.353   4.920   1.245
 9972SOL    HW230816   6.401   4.784   1.321
 9973SOL     OW30817   6.011   0.237   3.492
 9973SOL    HW130818   5.924   0.249   3.444
 9973SOL    HW230819   6.022   0.309   3.561
 9974SOL     OW30820   2.265   0.023   4.568
 9974SOL    HW130821   2.207   6.995   4.631
 9974SOL    HW230822   2.357   7.009   4.568
 9975SOL     OW30823   6.713   4.312   0.664
 9975SOL    HW130824   6.662   4.226   0.669
 9975SOL    HW230825   6.669   4.380   0.722
 9976SOL     OW30826   2.762   6.609   5.113
 9976SOL    HW130827   2.858   6.618   5.139
 9976SOL    HW230828   2.708   6.584   5.193
 9977SOL     OW30829   6.768   4.529   3.771
 9977SOL    HW130830   6.720   4.609   3.734
 9977SOL    HW230831   6.846   4.560   3.826
 9978SOL     OW30832   0.480   2.295   5.102
 9978SOL    HW130833   0.455   2.213   5.051
 9978SOL    HW230834   0.399   2.348   5.123
 9979SOL     OW30835   0.540   3.879   4.868
 9979SOL    HW130836   0.523   3.795   4.919
 9979SOL    HW230837   0.582   3.947   4.929
 9980SOL     OW30838   2.976   6.463   5.423
 9980SOL    HW130839   2.926   6.426   5.502
 9980SOL    HW230840   2.952   6.411   5.341
 9981SOL     OW30841   4.273   2.392   4.076
 9981SOL    HW130842   4.211   2.330   4.029
 9981SOL    HW230843   4.272   2.373   4.174
 9982SOL     OW30844   6.602   6.271   2.975
 9982SOL    HW130845   6.676   6.207   2.993
 9982SOL    HW230846   6.626   6.362   3.009
 9983SOL     OW30847   6.603   0.880   1.049
 9983SOL    HW130848   6.587   0.795   1.098
 9983SOL    HW230849   6.609   0.956   1.114
 9984SOL     OW30850   2.726   1.399   6.420
 9984SOL    HW130851   2.763   1.468   6.482
 9984SOL    HW230852   2.639   1.431   6.383
 9985SOL     OW30853   2.226   1.536   1.594
 9985SOL    HW130854   2.269   1.577   1.514
 9985SOL    HW230855   2.174   1.455   1.566
 9986SOL     OW30856   5.000   4.042   5.000
 9986SOL    HW130857   5.092   4.081   4.996
 9986SOL    HW230858   4.953   4.058   4.913
 9987SOL     OW30859   0.645   4.201   5.574
 9987SOL    HW130860   0.650   4.288   5.524
 9987SOL    HW230861   0.642   4.125   5.509
 9988SOL     OW30862   6.751   0.167   4.244
 9988SOL    HW130863   6.760   0.267   4.250
 9988SOL    HW230864   6.712   0.132   4.329
 9989SOL     OW30865   1.332   2.968   4.597
 9989SOL    HW130866   1.287   2.912   4.666
 9989SOL    HW230867   1.263   3.021   4.547
 9990SOL     OW30868   1.333   5.335   1.547
 9990SOL    HW130869   1.279   5.251   1.538
 9990SOL    HW230870   1.298   5.389   1.624
 9991SOL     OW30871   4.480   1.958   3.141
 9991SOL    HW130872   4.445   1.994   3.054
 9991SOL    HW230873   4.487   2.032   3.208
 9992SOL     OW30874   6.779   5.533   6.064
 9992SOL    HW130875   6.696   5.550   6.012
 9992SOL    HW230876   6.781   5.437   6.092
 9993SOL     OW30877   1.399   0.856   2.118
 9993SOL    HW130878   1.496   0.879   2.128
 9993SOL    HW230879   1.344   0.921   2.171
 9994SOL     OW30880   6.286   5.106   3.358
 9994SOL    HW130881   6.282   5.190   3.412
 9994SOL    HW230882   6.303   5.129   3.262
 9995SOL     OW30883   4.921   1.293   4.842
 9995SOL    HW130884   4.883   1.252   4.759
 9995SOL    HW230885   5.016   1.264   4.853
 9996SOL     OW30886   2.598   3.422   6.765
 9996SOL    HW130887   2.528   3.413   6.695
 9996SOL    HW230888   2.555   3.439   6.853
 9997SOL     OW30889   1.952   0.339   4.174
 9997SOL    HW130890   2.023   0.379   4.116
 9997SOL    HW230891   1.920   0.408   4.240
 9998SOL     OW30892   5.862   6.080   5.181
 9998SOL    HW130893   5.933   6.148   5.201
 9998SOL    HW230894   5.857   6.014   5.256
 9999SOL     OW30895   0.110   0.984   4.954
 9999SOL    HW130896   0.105   0.944   5.045
 9999SOL    HW230897   0.202   1.020   4.938
10000SOL     OW30898   6.899   4.664   0.058
10000SOL    HW130899   6.970   4.677   7.013
10000SOL    HW230900   6.812   4.644   0.014
10001SOL     OW30901   3.697   6.984   3.356
10001SOL    HW130902   3.724   0.016   3.279
10001SOL    HW230903   3.743   6.895   3.351
10002SOL     OW30904   1.784   1.939   1.589
10002SOL    HW130905   1.793   1.853   1.540
10002SOL    HW230906   1.771   1.921   1.687
10003SOL     OW30907   4.998   3.709   3.064
10003SOL    HW130908   5.047   3.761   2.995
10003SOL    HW230909   5.060   3.681   3.137
10004SOL     OW30910   6.996   2.806   3.721
10004SOL    HW130911   6.916   2.810   3.781
10004SOL    HW230912   6.991   2.723   3.665
10005SOL     OW30913   4.760   0.408   4.412
10005SOL    HW130914   4.695   0.412   4.336
10005SOL    HW230915   4.745   0.485   4.473
10006SOL     OW30916   4.763   1.791   4.466
10006SOL    HW130917   4.686   1.731   4.446
10006SOL    HW230918   4.793   1.777   4.561
10007SOL     OW30919   5.890   3.999   4.102
10007SOL    HW130920   5.939   3.937   4.163
10007SOL    HW230921   5.935   4.002   4.013
10008SOL     OW30922   3.281   0.061   3.789
10008SOL    HW130923   3.244   0.061   3.696
10008SOL    HW230924   3.381   0.060   3.785
10009SOL     OW30925   2.255   4.263   1.103
10009SOL    HW130926   2.202   4.285   1.021
10009SOL    HW230927   2.273   4.347   1.154
10010SOL     OW30928   5.843   1.021   6.416
10010SOL    HW130929   5.920   0.976   6.462
10010SOL    HW230930   5.810   0.963   6.342
10011SOL     OW30931   6.969   6.482   3.734
10011SOL    HW130932   6.945   6.462   3.829
10011SOL    HW230933   6.924   6.567   3.706
10012SOL     OW30934   5.724   0.403   4.219
10012SOL    HW130935   5.627   0.392   4.239
10012SOL    HW230936   5.778   0.374   4.298
10013SOL     OW30937   1.647   0.931   2.104
10013SOL    HW130938   1.688   0.956   2.192
10013SOL    HW230939   1.643   1.012   2.046
10014SOL     OW30940   1.653   4.881   5.515
10014SOL    HW130941   1.631   4.974   5.545
10014SOL    HW230942   1.623   4.815   5.584
10015SOL     OW30943   2.427   6.227   6.617
10015SOL    HW130944   2.355   6.291   6.645
10015SOL    HW230945   2.426   6.217   6.517
10016SOL     OW30946   2.433   1.336   5.188
10016SOL    HW130947   2.423   1.264   5.120
10016SOL    HW230948   2.530   1.357   5.200
10017SOL     OW30949   0.104   1.858   3.611
10017SOL    HW130950   0.150   1.943   3.587
10017SOL    HW230951   0.149   1.818   3.691
10018SOL     OW30952   4.938   6.609   5.779
10018SOL    HW130953   4.975   6.521   5.810
10018SOL    HW230954   4.899   6.598   5.688
10019SOL     OW30955   1.384   1.158   2.808
10019SOL    HW130956   1.339   1.222   2.870
10019SOL    HW230957   1.456   1.206   2.757
10020SOL     OW30958   0.100   2.911   0.216
10020SOL    HW130959   0.129   2.818   0.240
10020SOL    HW230960   0.118   2.928   0.120
10021SOL     OW30961   4.935   2.912   1.376
10021SOL    HW130962   4.960   2.963   1.458
10021SOL    HW230963   4.870   2.839   1.400
10022SOL     OW30964   1.955   0.894   6.339
10022SOL    HW130965   1.930   0.856   6.429
10022SOL    HW230966   2.054   0.899   6.332
10023SOL     OW30967   0.527   3.342   0.997
10023SOL    HW130968   0.554   3.271   1.061
10023SOL    HW230969   0.434   3.372   1.018
10024SOL     OW30970   1.169   3.598   3.117
10024SOL    HW130971   1.162   3.696   3.100
10024SOL    HW230972   1.081   3.555   3.100
10025SOL     OW30973   0.579   1.107   1.026
10025SOL    HW130974   0.648   1.070   0.963
10025SOL    HW230975   0.494   1.123   0.977
10026SOL     OW30976   6.544   0.569   4.409
10026SOL    HW130977   6.573   0.647   4.464
10026SOL    HW230978   6.499   0.501   4.467
10027SOL     OW30979   6.122   2.878   5.861
10027SOL    HW130980   6.140   2.882   5.763
10027SOL    HW230981   6.117   2.783   5.891
10028SOL     OW30982   2.003   1.082   1.953
10028SOL    HW130983   2.059   1.081   2.036
10028SOL    HW230984   1.971   0.989   1.935
10029SOL     OW30985   3.814   1.192   4.022
10029SOL    HW130986   3.748   1.187   3.947
10029SOL    HW230987   3.884   1.122   4.010
10030SOL     OW30988   1.213   1.321   2.952
10030SOL    HW130989   1.116   1.316   2.976
10030SOL    HW230990   1.227   1.394   2.886
10031SOL     OW30991   6.313   4.969   3.705
10031SOL    HW130992   6.265   4.886   3.737
10031SOL    HW230993   6.302   4.977   3.606
10032SOL     OW30994   4.004   1.805   5.136
10032SOL    HW130995   4.067   1.882   5.128
10032SOL    HW230996   4.037   1.729   5.081
10033SOL     OW30997   5.366   3.225   3.871
10033SOL    HW130998   5.457   3.243   3.908
10033SOL    HW230999   5.306   3.191   3.944
10034SOL     OW31000   4.249   6.819   5.993
10034SOL    HW131001   4.287   6.770   5.915
10034SOL    HW231002   4.166   6.773   6.025
10035SOL     OW31003   0.750   6.956   3.641
10035SOL    HW131004   0.696   7.001   3.712
10035SOL    HW231005   0.828   7.013   3.617
10036SOL     OW31006   6.408   0.572   0.141
10036SOL    HW131007   6.409   0.661   0.096
10036SOL    HW231008   6.493   0.559   0.191
10037SOL     OW31009   6.699   6.821   1.459
10037SOL    HW131010   6.737   6.892   1.518
10037SOL    HW231011   6.762   6.744   1.454
10038SOL     OW31012   6.379   0.099   1.144
10038SOL    HW131013   6.475   0.087   1.118
10038SOL    HW231014   6.341   0.011   1.173
10039SOL     OW31015   4.338   0.370   3.158
10039SOL    HW131016   4.317   0.359   3.061
10039SOL    HW231017   4.424   0.420   3.168
10040SOL     OW31018   0.466   2.672   0.824
10040SOL    HW131019   0.388   2.619   0.859
10040SOL    HW231020   0.491   2.742   0.891
10041SOL     OW31021   1.248   6.654   0.669
10041SOL    HW131022   1.215   6.742   0.635
10041SOL    HW231023   1.251   6.656   0.769
10042SOL     OW31024   5.937   1.963   3.431
10042SOL    HW131025   5.988   2.004   3.506
10042SOL    HW231026   5.997   1.949   3.353
10043SOL     OW31027   1.670   2.599   5.231
10043SOL    HW131028   1.653   2.610   5.329
10043SOL    HW231029   1.665   2.502   5.207
10044SOL     OW31030   4.803   1.128   6.537
10044SOL    HW131031   4.706   1.119   6.514
10044SOL    HW231032   4.827   1.059   6.606
10045SOL     OW31033   2.412   1.024   0.961
10045SOL    HW131034   2.465   1.102   0.926
10045SOL    HW231035   2.422   1.018   1.060
10046SOL     OW31036   0.311   5.422   1.176
10046SOL    HW131037   0.364   5.427   1.261
10046SOL    HW231038   0.316   5.509   1.128
10047SOL     OW31039   1.848   3.307   0.685
10047SOL    HW131040   1.837   3.246   0.764
10047SOL    HW231041   1.945   3.325   0.670
10048SOL     OW31042   5.796   4.029   1.969
10048SOL    HW131043   5.776   4.118   1.929
10048SOL    HW231044   5.714   3.994   2.014
10049SOL     OW31045   6.353   1.250   5.078
10049SOL    HW131046   6.410   1.211   5.151
10049SOL    HW231047   6.357   1.191   4.997
10050SOL     OW31048   6.594   2.506   6.034
10050SOL    HW131049   6.604   2.410   6.060
10050SOL    HW231050   6.668   2.559   6.074
10051SOL     OW31051   2.191   1.317   3.974
10051SOL    HW131052   2.104   1.356   4.003
10051SOL    HW231053   2.266   1.373   4.010
10052SOL     OW31054   0.897   0.392   4.064
10052SOL    HW131055   0.887   0.295   4.041
10052SOL    HW231056   0.985   0.425   4.029
10053SOL     OW31057   6.059   5.141   2.788
10053SOL    HW131058   6.037   5.046   2.766
10053SOL    HW231059   5.975   5.195   2.794
10054SOL     OW31060   6.217   3.923   4.220
10054SOL    HW131061   6.136   3.874   4.252
10054SOL    HW231062   6.299   3.879   4.257
10055SOL     OW31063   1.917   1.913   6.877
10055SOL    HW131064   1.903   1.965   6.792
10055SOL    HW231065   1.977   1.835   6.858
10056SOL     OW31066   5.534   2.374   4.295
10056SOL    HW131067   5.507   2.290   4.249
10056SOL    HW231068   5.585   2.432   4.231
10057SOL     OW31069   6.145   4.570   5.238
10057SOL    HW131070   6.231   4.598   5.281
10057SOL    HW231071   6.157   4.483   5.192
10058SOL     OW31072   6.478   4.104   4.320
10058SOL    HW131073   6.446   4.174   4.256
10058SOL    HW231074   6.471   4.014   4.278
10059SOL     OW31075   5.094   6.041   6.512
10059SOL    HW131076   5.151   5.983   6.454
10059SOL    HW231077   5.138   6.056   6.600
10060SOL     OW31078   2.832   1.897   1.942
10060SOL    HW131079   2.912   1.945   1.977
10060SOL    HW231080   2.788   1.847   2.016
10061SOL     OW31081   3.854   6.397   2.970
10061SOL    HW131082   3.878   6.457   2.895
10061SOL    HW231083   3.755   6.384   2.972
10062SOL     OW31084   6.748   0.092   4.518
10062SOL    HW131085   6.838   0.096   4.562
10062SOL    HW231086   6.736   0.001   4.477
10063SOL     OW31087   3.273   1.956   4.688
10063SOL    HW131088   3.251   1.964   4.785
10063SOL    HW231089   3.247   1.865   4.655
10064SOL     OW31090   2.886   6.628   2.621
10064SOL    HW131091   2.830   6.628   2.539
10064SOL    HW231092   2.983   6.631   2.595
10065SOL     OW31093   6.976   1.731   2.089
10065SOL    HW131094   6.924   1.647   2.079
10065SOL    HW231095   6.913   1.807   2.108
10066SOL     OW31096   6.207   3.756   3.727
10066SOL    HW131097   6.289   3.790   3.680
10066SOL    HW231098   6.149   3.708   3.662
10067SOL     OW31099   6.178   3.656   5.451
10067SOL    HW131100   6.128   3.598   5.515
10067SOL    HW231101   6.206   3.741   5.498
10068SOL     OW31102   1.798   3.359   2.237
10068SOL    HW131103   1.862   3.414   2.184
10068SOL    HW231104   1.802   3.264   2.205
10069SOL     OW31105   2.938   5.118   1.870
10069SOL    HW131106   2.863   5.052   1.864
10069SOL    HW231107   2.943   5.153   1.964
10070SOL     OW31108   4.533   6.741   0.282
10070SOL    HW131109   4.508   6.816   0.343
10070SOL    HW231110   4.570   6.666   0.336
10071SOL     OW31111   5.429   0.646   5.641
10071SOL    HW131112   5.371   0.567   5.623
10071SOL    HW231113   5.374   0.729   5.636
10072SOL     OW31114   5.895   2.490   2.424
10072SOL    HW131115   5.825   2.420   2.405
10072SOL    HW231116   5.870   2.575   2.379
10073SOL     OW31117   5.405   6.369   5.209
10073SOL    HW131118   5.473   6.441   5.222
10073SOL    HW231119   5.450   6.288   5.170
10074SOL     OW31120   2.002   4.631   0.896
10074SOL    HW131121   1.947   4.678   0.827
10074SOL    HW231122   1.979   4.667   0.986
10075SOL     OW31123   1.297   3.415   2.216
10075SOL    HW131124   1.340   3.427   2.305
10075SOL    HW231125   1.354   3.457   2.145
10076SOL     OW31126   5.765   3.712   3.584
10076SOL    HW131127   5.765   3.795   3.640
10076SOL    HW231128   5.747   3.737   3.489
10077SOL     OW31129   4.114   3.599   6.459
10077SOL    HW131130   4.099   3.658   6.380
10077SOL    HW231131   4.142   3.654   6.537
10078SOL     OW31132   5.700   5.260   4.127
10078SOL    HW131133   5.685   5.358   4.125
10078SOL    HW231134   5.716   5.230   4.221
10079SOL     OW31135   5.065   4.702   2.751
10079SOL    HW131136   5.016   4.719   2.836
10079SOL    HW231137   5.014   4.638   2.694
10080SOL     OW31138   5.375   1.983   5.691
10080SOL    HW131139   5.318   1.989   5.609
10080SOL    HW231140   5.469   1.962   5.666
10081SOL     OW31141   2.010   4.985   0.091
10081SOL    HW131142   1.960   4.996   0.177
10081SOL    HW231143   2.019   4.887   0.070
10082SOL     OW31144   0.998   5.270   1.008
10082SOL    HW131145   1.096   5.272   1.025
10082SOL    HW231146   0.956   5.198   1.064
10083SOL     OW31147   2.695   6.149   2.675
10083SOL    HW131148   2.658   6.063   2.640
10083SOL    HW231149   2.671   6.223   2.612
10084SOL     OW31150   1.638   2.996   4.988
10084SOL    HW131151   1.700   2.978   4.912
10084SOL    HW231152   1.582   2.915   5.005
10085SOL     OW31153   4.123   6.754   1.562
10085SOL    HW131154   4.102   6.804   1.646
10085SOL    HW231155   4.048   6.764   1.497
10086SOL     OW31156   3.165   0.182   2.769
10086SOL    HW131157   3.221   0.206   2.848
10086SOL    HW231158   3.213   0.210   2.685
10087SOL     OW31159   1.824   5.169   5.791
10087SOL    HW131160   1.769   5.119   5.723
10087SOL    HW231161   1.881   5.105   5.841
10088SOL     OW31162   6.338   1.841   1.040
10088SOL    HW131163   6.415   1.887   1.085
10088SOL    HW231164   6.253   1.864   1.088
10089SOL     OW31165   3.947   6.603   1.855
10089SOL    HW131166   3.986   6.692   1.882
10089SOL    HW231167   3.856   6.618   1.816
10090SOL     OW31168   2.416   5.678   2.197
10090SOL    HW131169   2.347   5.728   2.249
10090SOL    HW231170   2.426   5.720   2.107
10091SOL     OW31171   5.368   5.061   3.356
10091SOL    HW131172   5.440   5.058   3.425
10091SOL    HW231173   5.281   5.033   3.396
10092SOL     OW31174   0.429   1.111   2.579
10092SOL    HW131175   0.398   1.110   2.484
10092SOL    HW231176   0.395   1.194   2.624
10093SOL     OW31177   4.894   4.122   6.315
10093SOL    HW131178   4.830   4.053   6.347
10093SOL    HW231179   4.913   4.187   6.389
10094SOL     OW31180   3.274   2.526   0.492
10094SOL    HW131181   3.210   2.527   0.415
10094SOL    HW231182   3.336   2.448   0.483
10095SOL     OW31183   4.810   2.471   5.383
10095SOL    HW131184   4.819   2.568   5.363
10095SOL    HW231185   4.806   2.457   5.482
10096SOL     OW31186   6.704   4.292   2.061
10096SOL    HW131187   6.690   4.194   2.080
10096SOL    HW231188   6.663   4.315   1.973
10097SOL     OW31189   1.169   1.146   1.125
10097SOL    HW131190   1.223   1.189   1.198
10097SOL    HW231191   1.150   1.214   1.054
10098SOL     OW31192   3.871   5.393   0.027
10098SOL    HW131193   3.901   5.474   7.001
10098SOL    HW231194   3.799   5.419   0.091
10099SOL     OW31195   0.310   6.063   3.513
10099SOL    HW131196   0.343   5.970   3.500
10099SOL    HW231197   0.259   6.069   3.599
10100SOL     OW31198   4.809   4.940   3.925
10100SOL    HW131199   4.765   4.986   4.003
10100SOL    HW231200   4.906   4.927   3.945
10101SOL     OW31201   0.154   2.425   0.056
10101SOL    HW131202   0.220   2.398   0.126
10101SOL    HW231203   0.070   2.458   0.100
10102SOL     OW31204   0.012   4.810   2.790
10102SOL    HW131205   6.952   4.756   2.788
10102SOL    HW231206   0.091   4.749   2.784
10103SOL     OW31207   7.017   0.142   6.700
10103SOL    HW131208   0.074   0.186   6.739
10103SOL    HW231209   6.992   0.188   6.615
10104SOL     OW31210   2.841   1.252   4.830
10104SOL    HW131211   2.892   1.333   4.858
10104SOL    HW231212   2.904   1.185   4.790
10105SOL     OW31213   3.139   1.444   4.598
10105SOL    HW131214   3.051   1.399   4.586
10105SOL    HW231215   3.181   1.459   4.508
10106SOL     OW31216   5.954   4.045   1.042
10106SOL    HW131217   5.863   4.062   1.003
10106SOL    HW231218   6.008   4.128   1.038
10107SOL     OW31219   5.528   6.141   6.255
10107SOL    HW131220   5.445   6.194   6.236
10107SOL    HW231221   5.576   6.181   6.333
10108SOL     OW31222   2.426   2.308   5.189
10108SOL    HW131223   2.362   2.383   5.173
10108SOL    HW231224   2.510   2.324   5.137
10109SOL     OW31225   1.108   3.419   0.777
10109SOL    HW131226   1.062   3.478   0.710
10109SOL    HW231227   1.094   3.323   0.752
10110SOL     OW31228   6.187   6.231   2.219
10110SOL    HW131229   6.206   6.291   2.141
10110SOL    HW231230   6.245   6.149   2.213
10111SOL     OW31231   6.733   2.805   1.736
10111SOL    HW131232   6.702   2.732   1.675
10111SOL    HW231233   6.833   2.803   1.742
10112SOL     OW31234   0.037   2.790   4.187
10112SOL    HW131235   0.064   2.846   4.266
10112SOL    HW231236   0.071   2.697   4.198
10113SOL     OW31237   6.860   6.050   6.150
10113SOL    HW131238   6.927   6.003   6.092
10113SOL    HW231239   6.803   6.110   6.094
10114SOL     OW31240   5.237   3.844   1.524
10114SOL    HW131241   5.247   3.929   1.472
10114SOL    HW231242   5.188   3.863   1.609
10115SOL     OW31243   3.334   2.001   6.356
10115SOL    HW131244   3.245   1.973   6.393
10115SOL    HW231245   3.333   2.100   6.340
10116SOL     OW31246   0.380   0.074   6.569
10116SOL    HW131247   0.431   0.015   6.632
10116SOL    HW231248   0.319   0.018   6.513
10117SOL     OW31249   0.201   4.362   1.293
10117SOL    HW131250   0.112   4.328   1.325
10117SOL    HW231251   0.273   4.328   1.353
10118SOL     OW31252   4.006   5.275   3.523
10118SOL    HW131253   4.089   5.254   3.575
10118SOL    HW231254   3.956   5.190   3.506
10119SOL     OW31255   5.936   6.088   6.775
10119SOL    HW131256   5.976   6.113   6.863
10119SOL    HW231257   5.920   5.989   6.772
10120SOL     OW31258   2.567   2.202   3.090
10120SOL    HW131259   2.543   2.193   3.186
10120SOL    HW231260   2.665   2.221   3.082
10121SOL     OW31261   6.390   5.421   1.679
10121SOL    HW131262   6.408   5.505   1.628
10121SOL    HW231263   6.462   5.354   1.659
10122SOL     OW31264   1.834   0.369   3.371
10122SOL    HW131265   1.861   0.443   3.433
10122SOL    HW231266   1.741   0.339   3.393
10123SOL     OW31267   6.091   6.046   6.497
10123SOL    HW131268   6.172   6.103   6.504
10123SOL    HW231269   6.048   6.038   6.588
10124SOL     OW31270   1.450   4.570   3.121
10124SOL    HW131271   1.499   4.656   3.136
10124SOL    HW231272   1.375   4.563   3.187
10125SOL     OW31273   2.009   1.556   4.760
10125SOL    HW131274   1.944   1.620   4.720
10125SOL    HW231275   1.962   1.499   4.828
10126SOL     OW31276   6.667   6.206   4.313
10126SOL    HW131277   6.615   6.269   4.255
10126SOL    HW231278   6.763   6.207   4.286
10127SOL     OW31279   2.370   0.742   4.905
10127SOL    HW131280   2.318   0.809   4.853
10127SOL    HW231281   2.355   0.651   4.867
10128SOL     OW31282   3.021   1.645   0.614
10128SOL    HW131283   3.033   1.694   0.528
10128SOL    HW231284   2.940   1.586   0.608
10129SOL     OW31285   6.504   1.854   5.317
10129SOL    HW131286   6.521   1.946   5.282
10129SOL    HW231287   6.431   1.811   5.264
10130SOL     OW31288   1.661   2.280   3.564
10130SOL    HW131289   1.728   2.300   3.493
10130SOL    HW231290   1.659   2.356   3.629
10131SOL     OW31291   1.902   0.575   5.321
10131SOL    HW131292   1.995   0.602   5.343
10131SOL    HW231293   1.841   0.654   5.328
10132SOL     OW31294   6.030   0.482   2.568
10132SOL    HW131295   6.071   0.522   2.650
10132SOL    HW231296   5.951   0.536   2.541
10133SOL     OW31297   4.758   5.312   1.007
10133SOL    HW131298   4.738   5.215   1.025
10133SOL    HW231299   4.676   5.367   1.024
10134SOL     OW31300   6.844   6.661   3.447
10134SOL    HW131301   6.755   6.621   3.422
10134SOL    HW231302   6.834   6.714   3.531
10135SOL     OW31303   5.986   6.685   3.620
10135SOL    HW131304   5.908   6.623   3.607
10135SOL    HW231305   5.959   6.760   3.681
10136SOL     OW31306   4.913   0.866   3.184
10136SOL    HW131307   5.012   0.850   3.182
10136SOL    HW231308   4.888   0.928   3.109
10137SOL     OW31309   6.644   5.844   2.965
10137SOL    HW131310   6.548   5.852   2.991
10137SOL    HW231311   6.660   5.891   2.879
10138SOL     OW31312   0.241   1.751   2.166
10138SOL    HW131313   0.254   1.675   2.229
10138SOL    HW231314   0.144   1.773   2.160
10139SOL     OW31315   3.215   2.807   0.586
10139SOL    HW131316   3.220   2.710   0.563
10139SOL    HW231317   3.281   2.857   0.531
10140SOL     OW31318   6.137   6.365   4.406
10140SOL    HW131319   6.188   6.435   4.357
10140SOL    HW231320   6.123   6.394   4.501
10141SOL     OW31321   0.873   1.930   4.553
10141SOL    HW131322   0.972   1.945   4.559
10141SOL    HW231323   0.855   1.850   4.496
10142SOL     OW31324   4.009   5.960   1.719
10142SOL    HW131325   4.057   5.917   1.795
10142SOL    HW231326   3.910   5.948   1.731
10143SOL     OW31327   6.310   3.372   6.739
10143SOL    HW131328   6.243   3.343   6.671
10143SOL    HW231329   6.401   3.341   6.712
10144SOL     OW31330   4.114   0.890   1.175
10144SOL    HW131331   4.129   0.826   1.251
10144SOL    HW231332   4.077   0.840   1.097
10145SOL     OW31333   6.554   0.433   4.975
10145SOL    HW131334   6.455   0.421   4.977
10145SOL    HW231335   6.577   0.509   4.913
10146SOL     OW31336   1.636   2.241   5.427
10146SOL    HW131337   1.697   2.168   5.399
10146SOL    HW231338   1.650   2.262   5.523
10147SOL     OW31339   3.640   5.102   0.429
10147SOL    HW131340   3.724   5.145   0.396
10147SOL    HW231341   3.654   5.004   0.437
10148SOL     OW31342   0.460   5.406   6.374
10148SOL    HW131343   0.497   5.476   6.435
10148SOL    HW231344   0.369   5.434   6.342
10149SOL     OW31345   3.024   3.274   3.757
10149SOL    HW131346   3.120   3.265   3.732
10149SOL    HW231347   2.968   3.276   3.674
10150SOL     OW31348   5.385   4.126   0.751
10150SOL    HW131349   5.356   4.167   0.665
10150SOL    HW231350   5.376   4.193   0.825
10151SOL     OW31351   0.414   0.769   0.274
10151SOL    HW131352   0.506   0.756   0.238
10151SOL    HW231353   0.365   0.835   0.218
10152SOL     OW31354   3.414   6.165   3.928
10152SOL    HW131355   3.489   6.106   3.897
10152SOL    HW231356   3.343   6.167   3.857
10153SOL     OW31357   4.743   3.715   1.330
10153SOL    HW131358   4.731   3.792   1.394
10153SOL    HW231359   4.801   3.646   1.373
10154SOL     OW31360   4.519   5.274   5.531
10154SOL    HW131361   4.560   5.274   5.622
10154SOL    HW231362   4.420   5.274   5.539
10155SOL     OW31363   4.376   2.399   4.553
10155SOL    HW131364   4.317   2.322   4.577
10155SOL    HW231365   4.413   2.441   4.637
10156SOL     OW31366   3.301   1.772   6.567
10156SOL    HW131367   3.387   1.818   6.589
10156SOL    HW231368   3.231   1.841   6.547
10157SOL     OW31369   1.143   4.932   1.174
10157SOL    HW131370   1.207   4.967   1.107
10157SOL    HW231371   1.104   5.008   1.226
10158SOL     OW31372   5.813   4.757   6.754
10158SOL    HW131373   5.870   4.839   6.759
10158SOL    HW231374   5.864   4.683   6.711
10159SOL     OW31375   3.521   3.049   1.589
10159SOL    HW131376   3.488   2.969   1.537
10159SOL    HW231377   3.490   3.042   1.684
10160SOL     OW31378   6.968   4.022   2.267
10160SOL    HW131379   6.937   3.933   2.233
10160SOL    HW231380   0.034   4.011   2.310
10161SOL     OW31381   6.323   2.703   0.021
10161SOL    HW131382   6.258   2.653   0.078
10161SOL    HW231383   6.377   2.765   0.077
10162SOL     OW31384   2.383   2.719   2.350
10162SOL    HW131385   2.420   2.630   2.323
10162SOL    HW231386   2.432   2.753   2.431
10163SOL     OW31387   3.533   5.227   5.241
10163SOL    HW131388   3.482   5.158   5.293
10163SOL    HW231389   3.489   5.243   5.153
10164SOL     OW31390   7.021   0.366   4.270
10164SOL    HW131391   0.049   0.318   4.341
10164SOL    HW231392   6.962   0.435   4.312
10165SOL     OW31393   2.076   3.363   3.673
10165SOL    HW131394   2.106   3.314   3.591
10165SOL    HW231395   1.977   3.355   3.683
10166SOL     OW31396   2.995   6.346   3.088
10166SOL    HW131397   3.083   6.315   3.053
10166SOL    HW231398   2.921   6.294   3.044
10167SOL     OW31399   3.776   1.541   6.902
10167SOL    HW131400   3.742   1.514   6.812
10167SOL    HW231401   3.862   1.493   6.921
10168SOL     OW31402   0.943   1.133   6.441
10168SOL    HW131403   0.867   1.110   6.502
10168SOL    HW231404   1.026   1.088   6.473
10169SOL     OW31405   4.446   5.008   2.407
10169SOL    HW131406   4.399   4.935   2.457
10169SOL    HW231407   4.542   4.983   2.392
10170SOL     OW31408   4.614   6.292   0.305
10170SOL    HW131409   4.700   6.247   0.280
10170SOL    HW231410   4.588   6.355   0.232
10171SOL     OW31411   1.187   4.096   3.350
10171SOL    HW131412   1.153   4.154   3.276
10171SOL    HW231413   1.287   4.098   3.351
10172SOL     OW31414   0.686   1.486   2.965
10172SOL    HW131415   0.774   1.514   2.925
10172SOL    HW231416   0.702   1.427   3.044
10173SOL     OW31417   4.469   2.974   5.365
10173SOL    HW131418   4.507   2.934   5.449
10173SOL    HW231419   4.470   3.074   5.372
10174SOL     OW31420   5.091   4.867   1.384
10174SOL    HW131421   5.080   4.905   1.292
10174SOL    HW231422   5.006   4.880   1.435
10175SOL     OW31423   6.812   0.023   3.669
10175SOL    HW131424   6.735   0.015   3.734
10175SOL    HW231425   6.898   0.012   3.719
10176SOL     OW31426   6.947   1.357   5.190
10176SOL    HW131427   6.874   1.304   5.147
10176SOL    HW231428   7.017   1.295   5.225
10177SOL     OW31429   3.273   1.035   4.526
10177SOL    HW131430   3.352   1.006   4.472
10177SOL    HW231431   3.189   1.008   4.479
10178SOL     OW31432   6.663   1.619   2.243
10178SOL    HW131433   6.623   1.709   2.258
10178SOL    HW231434   6.715   1.592   2.324
10179SOL     OW31435   0.295   6.015   0.662
10179SOL    HW131436   0.252   6.070   0.733
10179SOL    HW231437   0.268   5.919   0.673
10180SOL     OW31438   2.585   0.195   6.221
10180SOL    HW131439   2.565   0.266   6.289
10180SOL    HW231440   2.672   0.215   6.177
10181SOL     OW31441   6.633   4.037   2.178
10181SOL    HW131442   6.669   4.089   2.256
10181SOL    HW231443   6.706   3.981   2.140
10182SOL     OW31444   3.892   0.086   6.916
10182SOL    HW131445   3.822   0.046   6.856
10182SOL    HW231446   3.972   0.027   6.917
10183SOL     OW31447   3.902   6.303   6.038
10183SOL    HW131448   3.950   6.353   5.966
10183SOL    HW231449   3.965   6.283   6.113
10184SOL     OW31450   5.258   2.345   4.704
10184SOL    HW131451   5.358   2.342   4.713
10184SOL    HW231452   5.230   2.436   4.674
10185SOL     OW31453   3.038   4.820   2.027
10185SOL    HW131454   2.990   4.741   1.987
10185SOL    HW231455   3.066   4.882   1.954
10186SOL     OW31456   3.509   2.957   1.208
10186SOL    HW131457   3.424   2.953   1.157
10186SOL    HW231458   3.498   2.910   1.296
10187SOL     OW31459   1.792   3.961   5.719
10187SOL    HW131460   1.851   3.990   5.644
10187SOL    HW231461   1.819   3.870   5.750
10188SOL     OW31462   2.073   0.259   6.739
10188SOL    HW131463   1.992   0.272   6.681
10188SOL    HW231464   2.054   0.189   6.807
10189SOL     OW31465   2.179   2.138   5.320
10189SOL    HW131466   2.270   2.176   5.302
10189SOL    HW231467   2.109   2.202   5.288
10190SOL     OW31468   3.715   3.959   0.329
10190SOL    HW131469   3.690   3.955   0.426
10190SOL    HW231470   3.634   3.938   0.273
10191SOL     OW31471   5.699   0.720   0.291
10191SOL    HW131472   5.781   0.770   0.263
10191SOL    HW231473   5.619   0.781   0.285
10192SOL     OW31474   2.462   0.464   4.183
10192SOL    HW131475   2.554   0.435   4.207
10192SOL    HW231476   2.397   0.391   4.206
10193SOL     OW31477   3.852   3.813   3.706
10193SOL    HW131478   3.832   3.769   3.619
10193SOL    HW231479   3.939   3.777   3.742
10194SOL     OW31480   3.026   5.644   3.442
10194SOL    HW131481   3.012   5.646   3.343
10194SOL    HW231482   2.991   5.728   3.482
10195SOL     OW31483   5.056   0.362   2.727
10195SOL    HW131484   5.155   0.357   2.719
10195SOL    HW231485   5.028   0.329   2.817
10196SOL     OW31486   4.801   4.531   3.904
10196SOL    HW131487   4.802   4.432   3.894
10196SOL    HW231488   4.877   4.560   3.962
10197SOL     OW31489   5.126   1.921   3.061
10197SOL    HW131490   5.186   1.997   3.034
10197SOL    HW231491   5.031   1.950   3.056
10198SOL     OW31492   2.863   1.660   1.714
10198SOL    HW131493   2.903   1.743   1.753
10198SOL    HW231494   2.892   1.580   1.765
10199SOL     OW31495   1.176   2.049   6.997
10199SOL    HW131496   1.183   2.086   0.065
10199SOL    HW231497   1.085   2.064   6.960
10200SOL     OW31498   6.064   6.906   3.364
10200SOL    HW131499   6.118   6.974   3.414
10200SOL    HW231500   5.970   6.907   3.399
10201SOL     OW31501   1.371   4.900   2.479
10201SOL    HW131502   1.436   4.881   2.405
10201SOL    HW231503   1.354   4.998   2.483
10202SOL     OW31504   1.224   2.458   3.412
10202SOL    HW131505   1.175   2.462   3.325
10202SOL    HW231506   1.283   2.538   3.421
10203SOL     OW31507   6.962   2.464   0.984
10203SOL    HW131508   6.923   2.504   0.902
10203SOL    HW231509   7.024   2.389   0.960
10204SOL     OW31510   1.929   6.083   4.255
10204SOL    HW131511   1.996   6.156   4.269
10204SOL    HW231512   1.859   6.113   4.191
10205SOL     OW31513   3.399   0.095   1.117
10205SOL    HW131514   3.433   0.189   1.119
10205SOL    HW231515   3.299   0.095   1.124
10206SOL     OW31516   5.886   6.362   0.149
10206SOL    HW131517   5.825   6.407   0.084
10206SOL    HW231518   5.866   6.264   0.150
10207SOL     OW31519   3.530   1.434   2.454
10207SOL    HW131520   3.479   1.470   2.377
10207SOL    HW231521   3.576   1.509   2.502
10208SOL     OW31522   6.798   2.658   6.174
10208SOL    HW131523   6.826   2.753   6.156
10208SOL    HW231524   6.778   2.648   6.272
10209SOL     OW31525   3.737   6.491   6.861
10209SOL    HW131526   3.716   6.482   6.959
10209SOL    HW231527   3.771   6.404   6.826
10210SOL     OW31528   4.871   6.028   6.325
10210SOL    HW131529   4.960   6.039   6.370
10210SOL    HW231530   4.810   5.976   6.385
10211SOL     OW31531   3.159   5.247   5.564
10211SOL    HW131532   3.132   5.151   5.574
10211SOL    HW231533   3.112   5.302   5.633
10212SOL     OW31534   6.249   6.231   5.871
10212SOL    HW131535   6.305   6.233   5.789
10212SOL    HW231536   6.163   6.182   5.852
10213SOL     OW31537   4.045   6.767   4.478
10213SOL    HW131538   4.106   6.804   4.548
10213SOL    HW231539   4.065   6.670   4.465
10214SOL     OW31540   0.271   0.573   0.047
10214SOL    HW131541   0.361   0.616   0.050
10214SOL    HW231542   0.206   0.626   0.101
10215SOL     OW31543   4.335   2.527   0.475
10215SOL    HW131544   4.258   2.557   0.532
10215SOL    HW231545   4.403   2.481   0.532
10216SOL     OW31546   4.941   0.591   2.628
10216SOL    HW131547   4.994   0.515   2.666
10216SOL    HW231548   4.868   0.554   2.571
10217SOL     OW31549   3.518   2.316   5.805
10217SOL    HW131550   3.544   2.412   5.794
10217SOL    HW231551   3.419   2.306   5.797
10218SOL     OW31552   4.023   0.856   6.554
10218SOL    HW131553   4.021   0.949   6.592
10218SOL    HW231554   3.977   0.794   6.617
10219SOL     OW31555   0.563   4.985   0.208
10219SOL    HW131556   0.515   4.898   0.219
10219SOL    HW231557   0.561   5.035   0.294
10220SOL     OW31558   4.251   2.268   6.927
10220SOL    HW131559   4.295   2.352   6.958
10220SOL    HW231560   4.155   2.287   6.904
10221SOL     OW31561   2.086   0.824   4.207
10221SOL    HW131562   2.109   0.904   4.263
10221SOL    HW231563   1.994   0.835   4.168
10222SOL     OW31564   2.255   4.584   5.246
10222SOL    HW131565   2.172   4.637   5.227
10222SOL    HW231566   2.240   4.488   5.222
10223SOL     OW31567   1.020   4.915   6.071
10223SOL    HW131568   0.979   4.833   6.032
10223SOL    HW231569   1.034   4.902   6.169
10224SOL     OW31570   2.800   6.124   5.363
10224SOL    HW131571   2.784   6.026   5.372
10224SOL    HW231572   2.732   6.164   5.302
10225SOL     OW31573   5.190   0.024   4.403
10225SOL    HW131574   5.239   6.961   4.399
10225SOL    HW231575   5.155   0.038   4.496
10226SOL     OW31576   0.035   2.652   6.124
10226SOL    HW131577   6.963   2.651   6.152
10226SOL    HW231578   0.091   2.606   6.193
10227SOL     OW31579   4.867   4.387   5.228
10227SOL    HW131580   4.820   4.320   5.285
10227SOL    HW231581   4.811   4.469   5.219
10228SOL     OW31582   0.686   3.262   1.836
10228SOL    HW131583   0.621   3.186   1.829
10228SOL    HW231584   0.689   3.294   1.931
10229SOL     OW31585   3.004   0.952   1.928
10229SOL    HW131586   3.076   0.936   1.996
10229SOL    HW231587   2.921   0.982   1.974
10230SOL     OW31588   5.380   6.540   3.510
10230SOL    HW131589   5.287   6.576   3.522
10230SOL    HW231590   5.434   6.604   3.457
10231SOL     OW31591   4.450   6.080   4.285
10231SOL    HW131592   4.393   6.132   4.222
10231SOL    HW231593   4.476   6.138   4.362
10232SOL     OW31594   4.118   2.279   3.244
10232SOL    HW131595   4.136   2.224   3.326
10232SOL    HW231596   4.064   2.225   3.179
10233SOL     OW31597   4.518   6.232   5.415
10233SOL    HW131598   4.553   6.303   5.477
10233SOL    HW231599   4.589   6.209   5.348
10234SOL     OW31600   4.163   4.816   1.275
10234SOL    HW131601   4.204   4.830   1.185
10234SOL    HW231602   4.111   4.897   1.301
10235SOL     OW31603   4.942   0.378   0.145
10235SOL    HW131604   4.877   0.418   0.080
10235SOL    HW231605   5.009   0.323   0.095
10236SOL     OW31606   1.735   5.889   1.159
10236SOL    HW131607   1.813   5.942   1.125
10236SOL    HW231608   1.677   5.861   1.082
10237SOL     OW31609   5.554   2.578   2.715
10237SOL    HW131610   5.518   2.652   2.773
10237SOL    HW231611   5.635   2.539   2.759
10238SOL     OW31612   4.799   5.552   6.359
10238SOL    HW131613   4.794   5.621   6.286
10238SOL    HW231614   4.733   5.480   6.340
10239SOL     OW31615   5.557   3.337   4.523
10239SOL    HW131616   5.512   3.345   4.434
10239SOL    HW231617   5.649   3.375   4.517
10240SOL     OW31618   4.841   3.931   3.168
10240SOL    HW131619   4.898   3.854   3.139
10240SOL    HW231620   4.891   3.987   3.235
10241SOL     OW31621   1.171   2.617   2.330
10241SOL    HW131622   1.229   2.637   2.409
10241SOL    HW231623   1.114   2.538   2.350
10242SOL     OW31624   1.624   5.301   6.409
10242SOL    HW131625   1.680   5.310   6.327
10242SOL    HW231626   1.683   5.296   6.489
10243SOL     OW31627   0.406   5.822   3.450
10243SOL    HW131628   0.349   5.766   3.510
10243SOL    HW231629   0.487   5.770   3.424
10244SOL     OW31630   2.168   6.095   6.707
10244SOL    HW131631   2.079   6.131   6.679
10244SOL    HW231632   2.239   6.130   6.646
10245SOL     OW31633   2.785   2.973   0.761
10245SOL    HW131634   2.696   2.973   0.716
10245SOL    HW231635   2.828   2.883   0.750
10246SOL     OW31636   3.210   4.122   4.731
10246SOL    HW131637   3.205   4.022   4.735
10246SOL    HW231638   3.145   4.161   4.796
10247SOL     OW31639   0.980   6.015   6.408
10247SOL    HW131640   1.044   5.990   6.481
10247SOL    HW231641   1.030   6.025   6.322
10248SOL     OW31642   6.001   0.949   3.278
10248SOL    HW131643   6.001   0.980   3.373
10248SOL    HW231644   6.070   0.878   3.267
10249SOL     OW31645   4.564   0.857   5.936
10249SOL    HW131646   4.632   0.785   5.923
10249SOL    HW231647   4.596   0.920   6.007
10250SOL     OW31648   4.261   5.787   0.758
10250SOL    HW131649   4.335   5.806   0.693
10250SOL    HW231650   4.295   5.799   0.851
10251SOL     OW31651   3.889   4.531   1.724
10251SOL    HW131652   3.906   4.489   1.635
10251SOL    HW231653   3.799   4.503   1.757
10252SOL     OW31654   0.156   3.667   0.962
10252SOL    HW131655   0.076   3.631   1.010
10252SOL    HW231656   0.234   3.669   1.024
10253SOL     OW31657   4.057   4.437   0.323
10253SOL    HW131658   4.078   4.341   0.305
10253SOL    HW231659   4.124   4.495   0.277
10254SOL     OW31660   2.538   2.039   4.960
10254SOL    HW131661   2.467   2.041   5.031
10254SOL    HW231662   2.627   2.019   5.002
10255SOL     OW31663   3.058   4.828   3.984
10255SOL    HW131664   3.039   4.866   4.075
10255SOL    HW231665   3.155   4.838   3.964
10256SOL     OW31666   5.179   6.238   0.644
10256SOL    HW131667   5.120   6.313   0.675
10256SOL    HW231668   5.145   6.152   0.681
10257SOL     OW31669   1.884   4.883   5.678
10257SOL    HW131670   1.908   4.792   5.711
10257SOL    HW231671   1.818   4.875   5.603
10258SOL     OW31672   4.282   0.773   2.715
10258SOL    HW131673   4.358   0.831   2.745
10258SOL    HW231674   4.196   0.824   2.724
10259SOL     OW31675   6.890   3.116   4.313
10259SOL    HW131676   6.950   3.181   4.359
10259SOL    HW231677   6.946   3.048   4.265
10260SOL     OW31678   0.054   5.465   2.012
10260SOL    HW131679   0.027   5.444   1.918
10260SOL    HW231680   0.011   5.400   2.074
10261SOL     OW31681   2.223   0.610   1.874
10261SOL    HW131682   2.237   0.519   1.912
10261SOL    HW231683   2.256   0.613   1.780
10262SOL     OW31684   0.706   6.239   4.051
10262SOL    HW131685   0.691   6.193   3.964
10262SOL    HW231686   0.635   6.308   4.065
10263SOL     OW31687   6.663   3.159   4.946
10263SOL    HW131688   6.694   3.076   4.899
10263SOL    HW231689   6.659   3.234   4.881
10264SOL     OW31690   0.708   0.247   0.418
10264SOL    HW131691   0.793   0.213   0.458
10264SOL    HW231692   0.641   0.172   0.413
10265SOL     OW31693   5.156   2.637   4.284
10265SOL    HW131694   5.210   2.710   4.242
10265SOL    HW231695   5.183   2.627   4.380
10266SOL     OW31696   3.540   3.623   6.881
10266SOL    HW131697   3.458   3.644   6.828
10266SOL    HW231698   3.578   3.536   6.851
10267SOL     OW31699   6.542   1.073   6.530
10267SOL    HW131700   6.613   1.005   6.546
10267SOL    HW231701   6.531   1.089   6.432
10268SOL     OW31702   6.738   3.905   0.403
10268SOL    HW131703   6.833   3.925   0.428
10268SOL    HW231704   6.689   3.990   0.387
10269SOL     OW31705   3.918   1.302   6.326
10269SOL    HW131706   3.841   1.241   6.310
10269SOL    HW231707   4.003   1.256   6.298
10270SOL     OW31708   3.460   5.667   2.692
10270SOL    HW131709   3.426   5.748   2.739
10270SOL    HW231710   3.459   5.589   2.755
10271SOL     OW31711   1.953   4.632   1.389
10271SOL    HW131712   1.974   4.666   1.481
10271SOL    HW231713   1.866   4.582   1.391
10272SOL     OW31714   1.560   2.019   4.321
10272SOL    HW131715   1.653   1.982   4.326
10272SOL    HW231716   1.564   2.116   4.297
10273SOL     OW31717   4.252   6.245   3.679
10273SOL    HW131718   4.198   6.254   3.595
10273SOL    HW231719   4.346   6.273   3.661
10274SOL     OW31720   2.481   4.508   6.509
10274SOL    HW131721   2.490   4.409   6.519
10274SOL    HW231722   2.568   4.553   6.532
10275SOL     OW31723   0.730   6.080   1.942
10275SOL    HW131724   0.703   6.000   1.996
10275SOL    HW231725   0.659   6.101   1.875
10276SOL     OW31726   1.048   6.828   0.562
10276SOL    HW131727   0.997   6.897   0.613
10276SOL    HW231728   0.995   6.743   0.559
10277SOL     OW31729   0.019   6.046   2.394
10277SOL    HW131730   6.953   6.032   2.434
10277SOL    HW231731   0.021   6.136   2.349
10278SOL     OW31732   6.341   0.939   5.583
10278SOL    HW131733   6.302   0.892   5.663
10278SOL    HW231734   6.378   0.871   5.519
10279SOL     OW31735   3.497   6.265   4.578
10279SOL    HW131736   3.433   6.240   4.505
10279SOL    HW231737   3.591   6.255   4.544
10280SOL     OW31738   2.354   2.588   6.978
10280SOL    HW131739   2.302   2.646   0.016
10280SOL    HW231740   2.383   2.506   0.003
10281SOL     OW31741   4.733   0.750   4.508
10281SOL    HW131742   4.830   0.766   4.488
10281SOL    HW231743   4.691   0.699   4.432
10282SOL     OW31744   1.439   2.988   4.152
10282SOL    HW131745   1.466   3.072   4.105
10282SOL    HW231746   1.499   2.972   4.230
10283SOL     OW31747   1.506   5.122   5.937
10283SOL    HW131748   1.415   5.084   5.920
10283SOL    HW231749   1.504   5.178   6.020
10284SOL     OW31750   5.252   3.069   6.894
10284SOL    HW131751   5.339   3.101   6.933
10284SOL    HW231752   5.223   3.130   6.821
10285SOL     OW31753   5.164   1.623   1.364
10285SOL    HW131754   5.083   1.597   1.416
10285SOL    HW231755   5.150   1.715   1.326
10286SOL     OW31756   4.019   0.138   4.042
10286SOL    HW131757   4.100   0.152   3.986
10286SOL    HW231758   4.008   0.041   4.063
10287SOL     OW31759   2.075   4.334   1.890
10287SOL    HW131760   2.041   4.261   1.830
10287SOL    HW231761   2.150   4.299   1.945
10288SOL     OW31762   3.797   5.789   4.267
10288SOL    HW131763   3.758   5.877   4.241
10288SOL    HW231764   3.837   5.796   4.359
10289SOL     OW31765   3.002   1.673   1.471
10289SOL    HW131766   3.004   1.768   1.440
10289SOL    HW231767   2.936   1.663   1.545
10290SOL     OW31768   3.128   3.025   3.300
10290SOL    HW131769   3.213   3.044   3.348
10290SOL    HW231770   3.109   2.927   3.302
10291SOL     OW31771   3.636   0.290   4.260
10291SOL    HW131772   3.712   0.247   4.308
10291SOL    HW231773   3.646   0.275   4.161
10292SOL     OW31774   6.770   2.486   4.159
10292SOL    HW131775   6.828   2.499   4.079
10292SOL    HW231776   6.688   2.543   4.151
10293SOL     OW31777   2.133   4.762   2.819
10293SOL    HW131778   2.203   4.712   2.870
10293SOL    HW231779   2.165   4.779   2.726
10294SOL     OW31780   5.867   0.774   3.114
10294SOL    HW131781   5.900   0.827   3.192
10294SOL    HW231782   5.867   0.677   3.136
10295SOL     OW31783   1.707   3.997   4.250
10295SOL    HW131784   1.667   4.020   4.339
10295SOL    HW231785   1.786   4.057   4.233
10296SOL     OW31786   6.107   3.189   1.671
10296SOL    HW131787   6.024   3.235   1.639
10296SOL    HW231788   6.093   3.090   1.672
10297SOL     OW31789   3.524   5.037   5.526
10297SOL    HW131790   3.492   5.125   5.560
10297SOL    HW231791   3.615   5.048   5.485
10298SOL     OW31792   6.264   3.028   2.787
10298SOL    HW131793   6.364   3.029   2.799
10298SOL    HW231794   6.221   3.060   2.871
10299SOL     OW31795   4.186   4.718   2.101
10299SOL    HW131796   4.264   4.659   2.081
10299SOL    HW231797   4.206   4.811   2.067
10300SOL     OW31798   0.588   5.917   2.087
10300SOL    HW131799   0.529   5.839   2.066
10300SOL    HW231800   0.570   5.949   2.180
10301SOL     OW31801   4.506   0.283   1.880
10301SOL    HW131802   4.593   0.260   1.924
10301SOL    HW231803   4.513   0.264   1.782
10302SOL     OW31804   1.330   3.931   3.688
10302SOL    HW131805   1.360   4.025   3.708
10302SOL    HW231806   1.250   3.934   3.628
10303SOL     OW31807   4.623   3.118   1.414
10303SOL    HW131808   4.605   3.038   1.357
10303SOL    HW231809   4.550   3.185   1.401
10304SOL     OW31810   5.731   5.928   3.431
10304SOL    HW131811   5.745   5.875   3.346
10304SOL    HW231812   5.699   5.866   3.503
10305SOL     OW31813   2.158   5.539   1.275
10305SOL    HW131814   2.228   5.473   1.305
10305SOL    HW231815   2.183   5.630   1.306
10306SOL     OW31816   4.250   4.312   0.061
10306SOL    HW131817   4.202   4.291   7.000
10306SOL    HW231818   4.216   4.251   0.133
10307SOL     OW31819   2.438   1.967   6.088
10307SOL    HW131820   2.475   2.054   6.120
10307SOL    HW231821   2.401   1.978   5.996
10308SOL     OW31822   2.638   4.986   4.344
10308SOL    HW131823   2.630   5.017   4.439
10308SOL    HW231824   2.652   4.887   4.343
10309SOL     OW31825   0.444   6.827   3.519
10309SOL    HW131826   0.513   6.900   3.520
10309SOL    HW231827   0.362   6.859   3.566
10310SOL     OW31828   3.450   4.207   4.613
10310SOL    HW131829   3.445   4.178   4.518
10310SOL    HW231830   3.358   4.209   4.653
10311SOL     OW31831   0.918   0.473   1.207
10311SOL    HW131832   0.853   0.433   1.272
10311SOL    HW231833   0.953   0.402   1.147
10312SOL     OW31834   2.795   4.970   0.766
10312SOL    HW131835   2.699   4.944   0.759
10312SOL    HW231836   2.851   4.902   0.719
10313SOL     OW31837   6.538   5.834   4.139
10313SOL    HW131838   6.541   5.924   4.095
10313SOL    HW231839   6.540   5.846   4.238
10314SOL     OW31840   0.002   5.690   5.399
10314SOL    HW131841   0.054   5.668   5.481
10314SOL    HW231842   6.986   5.780   5.408
10315SOL     OW31843   4.647   6.350   5.644
10315SOL    HW131844   4.720   6.412   5.613
10315SOL    HW231845   4.595   6.394   5.717
10316SOL     OW31846   0.567   4.189   3.669
10316SOL    HW131847   0.609   4.264   3.618
10316SOL    HW231848   0.638   4.126   3.700
10317SOL     OW31849   5.463   4.119   6.681
10317SOL    HW131850   5.414   4.186   6.624
10317SOL    HW231851   5.446   4.027   6.645
10318SOL     OW31852   5.535   4.686   2.988
10318SOL    HW131853   5.466   4.667   2.918
10318SOL    HW231854   5.496   4.668   3.078
10319SOL     OW31855   4.859   6.867   3.548
10319SOL    HW131856   4.880   6.770   3.560
10319SOL    HW231857   4.838   6.885   3.452
10320SOL     OW31858   4.052   6.371   1.781
10320SOL    HW131859   4.004   6.453   1.811
10320SOL    HW231860   4.028   6.350   1.686
10321SOL     OW31861   4.887   6.287   4.379
10321SOL    HW131862   4.937   6.374   4.386
10321SOL    HW231863   4.881   6.245   4.470
10322SOL     OW31864   6.929   1.403   0.225
10322SOL    HW131865   6.970   1.369   0.310
10322SOL    HW231866   6.875   1.484   0.244
10323SOL     OW31867   0.797   2.181   5.085
10323SOL    HW131868   0.761   2.274   5.086
10323SOL    HW231869   0.744   2.125   5.021
10324SOL     OW31870   3.230   2.953   4.309
10324SOL    HW131871   3.151   2.894   4.321
10324SOL    HW231872   3.207   3.046   4.338
10325SOL     OW31873   0.708   3.266   3.648
10325SOL    HW131874   0.630   3.238   3.704
10325SOL    HW231875   0.733   3.360   3.670
10326SOL     OW31876   5.655   1.885   1.767
10326SOL    HW131877   5.687   1.826   1.692
10326SOL    HW231878   5.673   1.980   1.743
10327SOL     OW31879   6.140   1.704   3.502
10327SOL    HW131880   6.050   1.708   3.459
10327SOL    HW231881   6.144   1.626   3.565
10328SOL     OW31882   6.517   3.961   2.559
10328SOL    HW131883   6.548   3.940   2.652
10328SOL    HW231884   6.589   4.010   2.510
10329SOL     OW31885   3.241   5.460   3.192
10329SOL    HW131886   3.302   5.392   3.151
10329SOL    HW231887   3.295   5.524   3.247
10330SOL     OW31888   2.799   4.007   0.940
10330SOL    HW131889   2.871   4.053   0.993
10330SOL    HW231890   2.711   4.019   0.986
10331SOL     OW31891   5.026   1.572   4.363
10331SOL    HW131892   4.995   1.512   4.289
10331SOL    HW231893   4.951   1.589   4.426
10332SOL     OW31894   1.255   2.387   6.604
10332SOL    HW131895   1.331   2.405   6.666
10332SOL    HW231896   1.243   2.288   6.593
10333SOL     OW31897   6.809   4.628   5.407
10333SOL    HW131898   6.869   4.549   5.400
10333SOL    HW231899   6.748   4.632   5.328
10334SOL     OW31900   0.397   5.114   5.343
10334SOL    HW131901   0.452   5.161   5.273
10334SOL    HW231902   0.370   5.024   5.309
10335SOL     OW31903   3.093   5.184   3.574
10335SOL    HW131904   3.010   5.137   3.603
10335SOL    HW231905   3.094   5.192   3.474
10336SOL     OW31906   4.755   6.910   2.946
10336SOL    HW131907   4.835   6.924   2.887
10336SOL    HW231908   4.695   6.989   2.940
10337SOL     OW31909   1.430   3.785   6.313
10337SOL    HW131910   1.405   3.875   6.347
10337SOL    HW231911   1.525   3.786   6.281
10338SOL     OW31912   2.713   4.721   2.620
10338SOL    HW131913   2.671   4.707   2.530
10338SOL    HW231914   2.801   4.767   2.610
10339SOL     OW31915   3.036   5.777   6.923
10339SOL    HW131916   3.116   5.730   6.885
10339SOL    HW231917   3.019   5.861   6.871
10340SOL     OW31918   1.703   6.459   0.855
10340SOL    HW131919   1.638   6.468   0.930
10340SOL    HW231920   1.679   6.379   0.799
10341SOL     OW31921   0.505   3.026   1.809
10341SOL    HW131922   0.584   2.995   1.861
10341SOL    HW231923   0.421   2.987   1.848
10342SOL     OW31924   2.936   5.326   4.243
10342SOL    HW131925   2.894   5.247   4.198
10342SOL    HW231926   2.885   5.409   4.219
10343SOL     OW31927   2.549   2.529   4.682
10343SOL    HW131928   2.641   2.507   4.716
10343SOL    HW231929   2.485   2.459   4.713
10344SOL     OW31930   4.418   3.531   1.393
10344SOL    HW131931   4.415   3.630   1.377
10344SOL    HW231932   4.482   3.511   1.467
10345SOL     OW31933   3.678   1.477   6.639
10345SOL    HW131934   3.669   1.571   6.607
10345SOL    HW231935   3.726   1.423   6.570
10346SOL     OW31936   6.239   5.693   0.522
10346SOL    HW131937   6.244   5.792   0.511
10346SOL    HW231938   6.148   5.661   0.497
10347SOL     OW31939   4.404   0.058   1.964
10347SOL    HW131940   4.444   0.147   1.943
10347SOL    HW231941   4.432   0.030   2.055
10348SOL     OW31942   6.869   4.293   5.740
10348SOL    HW131943   6.924   4.216   5.710
10348SOL    HW231944   6.840   4.278   5.835
10349SOL     OW31945   6.179   1.935   0.198
10349SOL    HW131946   6.189   1.920   0.297
10349SOL    HW231947   6.169   1.847   0.152
10350SOL     OW31948   1.926   4.902   4.158
10350SOL    HW131949   1.849   4.843   4.133
10350SOL    HW231950   1.992   4.905   4.083
10351SOL     OW31951   3.714   5.200   4.920
10351SOL    HW131952   3.619   5.200   4.949
10351SOL    HW231953   3.742   5.107   4.895
10352SOL     OW31954   0.244   1.041   1.259
10352SOL    HW131955   0.256   1.103   1.182
10352SOL    HW231956   0.332   0.999   1.282
10353SOL     OW31957   5.924   3.189   3.620
10353SOL    HW131958   5.883   3.106   3.583
10353SOL    HW231959   5.934   3.256   3.546
10354SOL     OW31960   6.903   3.033   1.337
10354SOL    HW131961   6.971   2.992   1.397
10354SOL    HW231962   6.922   3.131   1.327
10355SOL     OW31963   0.331   1.892   0.709
10355SOL    HW131964   0.312   1.867   0.804
10355SOL    HW231965   0.319   1.812   0.650
10356SOL     OW31966   6.064   2.213   6.962
10356SOL    HW131967   6.149   2.167   6.937
10356SOL    HW231968   5.986   2.153   6.945
10357SOL     OW31969   0.569   0.507   6.380
10357SOL    HW131970   0.530   0.425   6.421
10357SOL    HW231971   0.668   0.507   6.393
10358SOL     OW31972   0.663   2.619   3.999
10358SOL    HW131973   0.662   2.681   4.077
10358SOL    HW231974   0.757   2.587   3.983
10359SOL     OW31975   0.447   2.731   2.326
10359SOL    HW131976   0.518   2.801   2.329
10359SOL    HW231977   0.419   2.716   2.231
10360SOL     OW31978   5.745   4.258   0.903
10360SOL    HW131979   5.691   4.180   0.933
10360SOL    HW231980   5.783   4.241   0.813
10361SOL     OW31981   5.729   1.832   2.657
10361SOL    HW131982   5.738   1.914   2.713
10361SOL    HW231983   5.793   1.762   2.690
10362SOL     OW31984   0.500   6.137   1.489
10362SOL    HW131985   0.547   6.217   1.526
10362SOL    HW231986   0.562   6.086   1.430
10363SOL     OW31987   5.653   4.841   6.100
10363SOL    HW131988   5.642   4.746   6.126
10363SOL    HW231989   5.621   4.854   6.006
10364SOL     OW31990   5.796   5.051   1.814
10364SOL    HW131991   5.730   5.040   1.740
10364SOL    HW231992   5.859   5.125   1.793
10365SOL     OW31993   6.184   5.733   6.909
10365SOL    HW131994   6.176   5.674   6.989
10365SOL    HW231995   6.200   5.827   6.938
10366SOL     OW31996   3.104   0.215   3.375
10366SOL    HW131997   3.093   0.119   3.352
10366SOL    HW231998   3.033   0.269   3.329
10367SOL     OW31999   5.870   6.205   2.025
10367SOL    HW132000   5.791   6.206   1.963
10367SOL    HW232001   5.837   6.196   2.119
10368SOL     OW32002   0.979   5.946   1.791
10368SOL    HW132003   0.920   6.005   1.846
10368SOL    HW232004   1.074   5.963   1.815
10369SOL     OW32005   2.331   0.804   5.592
10369SOL    HW132006   2.319   0.842   5.683
10369SOL    HW232007   2.308   0.706   5.593
10370SOL     OW32008   1.598   2.034   5.906
10370SOL    HW132009   1.663   1.992   5.843
10370SOL    HW232010   1.530   1.966   5.934
10371SOL     OW32011   3.589   5.463   3.295
10371SOL    HW132012   3.622   5.413   3.215
10371SOL    HW232013   3.581   5.401   3.373
10372SOL     OW32014   1.931   6.123   0.339
10372SOL    HW132015   2.013   6.068   0.323
10372SOL    HW232016   1.952   6.193   0.407
10373SOL     OW32017   6.484   0.548   6.575
10373SOL    HW132018   6.532   0.585   6.654
10373SOL    HW232019   6.508   0.601   6.494
10374SOL     OW32020   2.825   4.751   3.339
10374SOL    HW132021   2.768   4.826   3.372
10374SOL    HW232022   2.777   4.701   3.268
10375SOL     OW32023   2.451   5.649   6.790
10375SOL    HW132024   2.428   5.557   6.762
10375SOL    HW232025   2.438   5.712   6.714
10376SOL     OW32026   2.208   4.811   4.276
10376SOL    HW132027   2.202   4.728   4.332
10376SOL    HW232028   2.116   4.844   4.255
10377SOL     OW32029   2.431   0.713   3.553
10377SOL    HW132030   2.413   0.658   3.472
10377SOL    HW232031   2.401   0.663   3.634
10378SOL     OW32032   0.772   6.780   5.800
10378SOL    HW132033   0.687   6.733   5.775
10378SOL    HW232034   0.778   6.866   5.750
10379SOL     OW32035   1.131   6.310   3.897
10379SOL    HW132036   1.153   6.374   3.824
10379SOL    HW232037   1.040   6.272   3.883
10380SOL     OW32038   2.912   1.123   3.931
10380SOL    HW132039   2.913   1.042   3.873
10380SOL    HW232040   3.006   1.144   3.960
10381SOL     OW32041   3.384   0.293   2.513
10381SOL    HW132042   3.304   0.352   2.499
10381SOL    HW232043   3.423   0.310   2.603
10382SOL     OW32044   4.072   5.600   1.944
10382SOL    HW132045   3.983   5.576   1.980
10382SOL    HW232046   4.083   5.699   1.944
10383SOL     OW32047   0.641   6.803   6.900
10383SOL    HW132048   0.702   6.839   6.971
10383SOL    HW232049   0.588   6.726   6.937
10384SOL     OW32050   4.855   5.143   0.571
10384SOL    HW132051   4.790   5.072   0.600
10384SOL    HW232052   4.913   5.169   0.648
10385SOL     OW32053   3.932   4.510   6.926
10385SOL    HW132054   3.940   4.602   6.887
10385SOL    HW232055   3.906   4.516   7.022
10386SOL     OW32056   0.196   0.473   2.046
10386SOL    HW132057   0.200   0.474   1.946
10386SOL    HW232058   0.187   0.379   2.078
10387SOL     OW32059   5.431   2.105   1.683
10387SOL    HW132060   5.410   2.014   1.648
10387SOL    HW232061   5.402   2.112   1.779
10388SOL     OW32062   1.398   0.464   4.942
10388SOL    HW132063   1.433   0.402   4.872
10388SOL    HW232064   1.305   0.492   4.919
10389SOL     OW32065   0.222   3.806   6.983
10389SOL    HW132066   0.301   3.798   0.019
10389SOL    HW232067   0.161   3.877   7.017
10390SOL     OW32068   2.065   1.803   2.037
10390SOL    HW132069   2.048   1.753   1.952
10390SOL    HW232070   2.146   1.764   2.082
10391SOL     OW32071   6.445   6.989   3.559
10391SOL    HW132072   6.444   6.908   3.618
10391SOL    HW232073   6.352   0.001   3.550
10392SOL     OW32074   6.748   3.488   4.316
10392SOL    HW132075   6.690   3.423   4.365
10392SOL    HW232076   6.729   3.483   4.218
10393SOL     OW32077   2.151   2.518   2.369
10393SOL    HW132078   2.064   2.494   2.412
10393SOL    HW232079   2.192   2.595   2.418
10394SOL     OW32080   3.295   6.195   3.665
10394SOL    HW132081   3.249   6.107   3.652
10394SOL    HW232082   3.372   6.201   3.601
10395SOL     OW32083   0.913   0.735   1.233
10395SOL    HW132084   0.918   0.635   1.241
10395SOL    HW232085   1.004   0.774   1.243
10396SOL     OW32086   3.381   2.169   5.289
10396SOL    HW132087   3.298   2.214   5.255
10396SOL    HW232088   3.400   2.089   5.233
10397SOL     OW32089   5.088   1.552   3.789
10397SOL    HW132090   5.041   1.616   3.850
10397SOL    HW232091   5.021   1.503   3.733
10398SOL     OW32092   5.381   2.278   2.535
10398SOL    HW132093   5.433   2.359   2.509
10398SOL    HW232094   5.347   2.232   2.453
10399SOL     OW32095   0.491   3.757   2.200
10399SOL    HW132096   0.429   3.695   2.248
10399SOL    HW232097   0.439   3.823   2.147
10400SOL     OW32098   1.979   6.516   0.909
10400SOL    HW132099   1.984   6.615   0.918
10400SOL    HW232100   1.884   6.488   0.894
10401SOL     OW32101   0.005   0.263   5.821
10401SOL    HW132102   7.009   0.268   5.723
10401SOL    HW232103   6.962   0.317   5.872
10402SOL     OW32104   6.922   4.440   4.883
10402SOL    HW132105   6.964   4.424   4.794
10402SOL    HW232106   6.836   4.490   4.871
10403SOL     OW32107   3.112   0.093   1.089
10403SOL    HW132108   3.090   0.079   1.186
10403SOL    HW232109   3.035   0.137   1.043
10404SOL     OW32110   0.241   6.178   5.803
10404SOL    HW132111   0.305   6.248   5.835
10404SOL    HW232112   0.288   6.116   5.740
10405SOL     OW32113   0.175   2.086   6.689
10405SOL    HW132114   0.154   2.103   6.785
10405SOL    HW232115   0.092   2.094   6.634
10406SOL     OW32116   1.715   5.552   0.966
10406SOL    HW132117   1.664   5.483   0.914
10406SOL    HW232118   1.780   5.507   1.026
10407SOL     OW32119   1.977   6.507   6.237
10407SOL    HW132120   1.878   6.516   6.247
10407SOL    HW232121   1.999   6.485   6.142
10408SOL     OW32122   4.602   0.811   0.347
10408SOL    HW132123   4.556   0.722   0.350
10408SOL    HW232124   4.537   0.884   0.365
10409SOL     OW32125   6.055   4.036   0.718
10409SOL    HW132126   6.018   3.947   0.743
10409SOL    HW232127   6.151   4.027   0.693
10410SOL     OW32128   4.414   0.044   0.575
10410SOL    HW132129   4.439   6.972   0.565
10410SOL    HW232130   4.459   0.098   0.504
10411SOL     OW32131   2.055   4.982   4.492
10411SOL    HW132132   2.119   4.984   4.414
10411SOL    HW232133   1.989   4.909   4.479
10412SOL     OW32134   5.233   6.751   1.609
10412SOL    HW132135   5.181   6.679   1.655
10412SOL    HW232136   5.207   6.840   1.647
10413SOL     OW32137   6.143   3.224   2.581
10413SOL    HW132138   6.047   3.238   2.608
10413SOL    HW232139   6.195   3.189   2.659
10414SOL     OW32140   5.391   3.040   4.593
10414SOL    HW132141   5.313   2.990   4.631
10414SOL    HW232142   5.403   3.125   4.643
10415SOL     OW32143   0.831   0.780   6.511
10415SOL    HW132144   0.855   0.727   6.593
10415SOL    HW232145   0.801   0.871   6.537
10416SOL     OW32146   5.252   2.951   3.660
10416SOL    HW132147   5.210   2.971   3.748
10416SOL    HW232148   5.290   3.036   3.622
10417SOL     OW32149   1.644   4.081   3.154
10417SOL    HW132150   1.712   4.140   3.110
10417SOL    HW232151   1.553   4.107   3.123
10418SOL     OW32152   1.590   5.626   5.842
10418SOL    HW132153   1.559   5.538   5.880
10418SOL    HW232154   1.690   5.630   5.846
10419SOL     OW32155   1.162   0.740   0.260
10419SOL    HW132156   1.089   0.733   0.329
10419SOL    HW232157   1.188   0.836   0.249
10420SOL     OW32158   0.328   2.576   2.601
10420SOL    HW132159   0.251   2.635   2.577
10420SOL    HW232160   0.306   2.481   2.578
10421SOL     OW32161   0.442   1.996   2.692
10421SOL    HW132162   0.379   2.049   2.748
10421SOL    HW232163   0.449   1.903   2.728
10422SOL     OW32164   5.432   3.407   6.410
10422SOL    HW132165   5.478   3.341   6.470
10422SOL    HW232166   5.495   3.434   6.336
10423SOL     OW32167   4.850   4.571   2.609
10423SOL    HW132168   4.888   4.546   2.520
10423SOL    HW232169   4.756   4.604   2.596
10424SOL     OW32170   4.954   1.322   6.692
10424SOL    HW132171   5.035   1.308   6.635
10424SOL    HW232172   4.881   1.260   6.663
10425SOL     OW32173   1.828   0.011   1.840
10425SOL    HW132174   1.914   0.060   1.855
10425SOL    HW232175   1.813   6.971   1.915
10426SOL     OW32176   6.083   4.064   0.419
10426SOL    HW132177   6.084   4.055   0.518
10426SOL    HW232178   6.120   3.981   0.378
10427SOL     OW32179   4.721   0.697   0.904
10427SOL    HW132180   4.741   0.740   0.816
10427SOL    HW232181   4.792   0.628   0.924
10428SOL     OW32182   4.521   0.985   3.636
10428SOL    HW132183   4.520   0.952   3.730
10428SOL    HW232184   4.594   1.052   3.625
10429SOL     OW32185   5.859   5.502   1.855
10429SOL    HW132186   5.928   5.572   1.838
10429SOL    HW232187   5.884   5.450   1.936
10430SOL     OW32188   4.236   6.104   3.118
10430SOL    HW132189   4.193   6.016   3.137
10430SOL    HW232190   4.173   6.161   3.065
10431SOL     OW32191   2.557   1.590   5.336
10431SOL    HW132192   2.584   1.680   5.302
10431SOL    HW232193   2.542   1.594   5.435
10432SOL     OW32194   4.565   0.914   4.973
10432SOL    HW132195   4.530   0.890   5.064
10432SOL    HW232196   4.611   1.003   4.978
10433SOL     OW32197   2.980   6.859   0.752
10433SOL    HW132198   3.076   6.832   0.766
10433SOL    HW232199   2.928   6.842   0.836
10434SOL     OW32200   2.801   1.988   5.047
10434SOL    HW132201   2.839   1.997   4.955
10434SOL    HW232202   2.846   2.053   5.108
10435SOL     OW32203   5.687   5.294   6.526
10435SOL    HW132204   5.778   5.287   6.485
10435SOL    HW232205   5.644   5.380   6.497
10436SOL     OW32206   1.009   0.743   2.643
10436SOL    HW132207   1.047   0.836   2.648
10436SOL    HW232208   0.910   0.749   2.630
10437SOL     OW32209   0.501   4.058   6.022
10437SOL    HW132210   0.536   4.142   5.980
10437SOL    HW232211   0.447   4.081   6.102
10438SOL     OW32212   3.488   6.852   5.735
10438SOL    HW132213   3.564   6.868   5.671
10438SOL    HW232214   3.461   6.756   5.732
10439SOL     OW32215   3.647   0.857   5.124
10439SOL    HW132216   3.666   0.903   5.037
10439SOL    HW232217   3.702   0.773   5.129
10440SOL     OW32218   1.477   5.636   0.553
10440SOL    HW132219   1.423   5.553   0.565
10440SOL    HW232220   1.567   5.612   0.517
10441SOL     OW32221   4.079   6.889   0.595
10441SOL    HW132222   4.154   6.823   0.583
10441SOL    HW232223   4.047   6.887   0.689
10442SOL     OW32224   4.565   6.000   5.140
10442SOL    HW132225   4.612   6.022   5.055
10442SOL    HW232226   4.599   5.913   5.176
10443SOL     OW32227   6.093   2.502   4.509
10443SOL    HW132228   6.181   2.456   4.518
10443SOL    HW232229   6.067   2.507   4.412
10444SOL     OW32230   3.429   4.912   4.912
10444SOL    HW132231   3.334   4.886   4.897
10444SOL    HW232232   3.458   4.881   5.003
10445SOL     OW32233   6.285   5.987   2.469
10445SOL    HW132234   6.224   5.972   2.547
10445SOL    HW232235   6.368   6.034   2.501
10446SOL     OW32236   1.033   6.398   6.873
10446SOL    HW132237   0.956   6.336   6.861
10446SOL    HW232238   1.044   6.419   6.970
10447SOL     OW32239   5.701   1.559   0.413
10447SOL    HW132240   5.612   1.566   0.457
10447SOL    HW232241   5.697   1.599   0.321
10448SOL     OW32242   3.330   3.792   2.495
10448SOL    HW132243   3.321   3.886   2.529
10448SOL    HW232244   3.365   3.794   2.401
10449SOL     OW32245   1.773   5.402   5.117
10449SOL    HW132246   1.702   5.382   5.049
10449SOL    HW232247   1.784   5.502   5.125
10450SOL     OW32248   7.016   3.312   0.991
10450SOL    HW132249   6.935   3.356   1.029
10450SOL    HW232250   7.008   3.213   1.002
10451SOL     OW32251   2.426   4.507   2.108
10451SOL    HW132252   2.356   4.574   2.086
10451SOL    HW232253   2.513   4.534   2.066
10452SOL     OW32254   1.494   2.835   5.507
10452SOL    HW132255   1.541   2.794   5.586
10452SOL    HW232256   1.548   2.912   5.472
10453SOL     OW32257   4.858   0.688   1.466
10453SOL    HW132258   4.922   0.700   1.542
10453SOL    HW232259   4.853   0.592   1.441
10454SOL     OW32260   5.225   3.209   1.830
10454SOL    HW132261   5.240   3.295   1.781
10454SOL    HW232262   5.127   3.189   1.833
10455SOL     OW32263   0.764   4.591   3.002
10455SOL    HW132264   0.710   4.627   3.078
10455SOL    HW232265   0.803   4.667   2.950
10456SOL     OW32266   3.416   6.238   1.450
10456SOL    HW132267   3.456   6.146   1.446
10456SOL    HW232268   3.343   6.239   1.519
10457SOL     OW32269   3.838   3.413   3.741
10457SOL    HW132270   3.820   3.319   3.711
10457SOL    HW232271   3.759   3.447   3.792
10458SOL     OW32272   0.071   6.307   1.675
10458SOL    HW132273   0.039   6.269   1.588
10458SOL    HW232274   0.012   6.275   1.749
10459SOL     OW32275   6.939   4.583   1.957
10459SOL    HW132276   6.846   4.569   1.993
10459SOL    HW232277   6.945   4.544   1.865
10460SOL     OW32278   1.466   4.356   1.629
10460SOL    HW132279   1.479   4.349   1.530
10460SOL    HW232280   1.537   4.415   1.668
10461SOL     OW32281   3.232   0.723   6.410
10461SOL    HW132282   3.176   0.644   6.434
10461SOL    HW232283   3.198   0.765   6.326
10462SOL     OW32284   5.413   6.719   1.045
10462SOL    HW132285   5.463   6.792   1.091
10462SOL    HW232286   5.428   6.724   0.947
10463SOL     OW32287   3.196   3.606   1.199
10463SOL    HW132288   3.148   3.623   1.285
10463SOL    HW232289   3.240   3.516   1.204
10464SOL     OW32290   5.576   6.440   1.717
10464SOL    HW132291   5.626   6.525   1.705
10464SOL    HW232292   5.547   6.406   1.627
10465SOL     OW32293   0.198   5.203   4.669
10465SOL    HW132294   0.144   5.165   4.744
10465SOL    HW232295   0.291   5.166   4.673
10466SOL     OW32296   5.185   6.542   5.406
10466SOL    HW132297   5.240   6.459   5.402
10466SOL    HW232298   5.184   6.587   5.317
10467SOL     OW32299   4.761   1.131   3.873
10467SOL    HW132300   4.820   1.134   3.792
10467SOL    HW232301   4.682   1.192   3.859
10468SOL     OW32302   2.843   5.058   3.632
10468SOL    HW132303   2.813   4.965   3.611
10468SOL    HW232304   2.766   5.109   3.670
10469SOL     OW32305   1.056   4.907   6.753
10469SOL    HW132306   0.993   4.983   6.764
10469SOL    HW232307   1.005   4.821   6.748
10470SOL     OW32308   2.837   2.007   4.720
10470SOL    HW132309   2.759   1.946   4.704
10470SOL    HW232310   2.922   1.957   4.709
10471SOL     OW32311   4.199   4.159   0.267
10471SOL    HW132312   4.118   4.113   0.302
10471SOL    HW232313   4.280   4.105   0.291
10472SOL     OW32314   4.155   1.201   3.413
10472SOL    HW132315   4.186   1.289   3.447
10472SOL    HW232316   4.128   1.143   3.490
10473SOL     OW32317   4.526   5.140   6.939
10473SOL    HW132318   4.592   5.068   6.916
10473SOL    HW232319   4.567   5.204   7.004
10474SOL     OW32320   5.205   1.229   3.383
10474SOL    HW132321   5.244   1.156   3.439
10474SOL    HW232322   5.230   1.318   3.422
10475SOL     OW32323   4.603   6.348   1.726
10475SOL    HW132324   4.511   6.387   1.723
10475SOL    HW232325   4.664   6.402   1.668
10476SOL     OW32326   0.261   4.923   6.552
10476SOL    HW132327   0.202   5.001   6.531
10476SOL    HW232328   0.298   4.934   6.644
10477SOL     OW32329   4.575   4.534   4.976
10477SOL    HW132330   4.585   4.549   4.878
10477SOL    HW232331   4.503   4.594   5.012
10478SOL     OW32332   0.295   6.219   3.034
10478SOL    HW132333   0.351   6.297   3.006
10478SOL    HW232334   0.332   6.180   3.118
10479SOL     OW32335   0.626   4.363   2.148
10479SOL    HW132336   0.544   4.358   2.091
10479SOL    HW232337   0.684   4.439   2.117
10480SOL     OW32338   5.295   0.942   0.845
10480SOL    HW132339   5.390   0.946   0.815
10480SOL    HW232340   5.257   0.852   0.823
10481SOL     OW32341   2.543   1.161   4.636
10481SOL    HW132342   2.614   1.104   4.594
10481SOL    HW232343   2.573   1.256   4.640
10482SOL     OW32344   0.841   6.054   6.696
10482SOL    HW132345   0.855   6.058   6.597
10482SOL    HW232346   0.776   5.982   6.718
10483SOL     OW32347   6.795   5.679   0.651
10483SOL    HW132348   6.800   5.779   0.658
10483SOL    HW232349   6.722   5.646   0.711
10484SOL     OW32350   6.604   1.798   1.839
10484SOL    HW132351   6.556   1.712   1.821
10484SOL    HW232352   6.573   1.837   1.925
10485SOL     OW32353   3.456   4.110   4.370
10485SOL    HW132354   3.489   4.018   4.350
10485SOL    HW232355   3.479   4.171   4.295
10486SOL     OW32356   6.532   5.523   5.925
10486SOL    HW132357   6.435   5.512   5.905
10486SOL    HW232358   6.575   5.578   5.852
10487SOL     OW32359   5.591   3.526   2.776
10487SOL    HW132360   5.558   3.573   2.694
10487SOL    HW232361   5.581   3.427   2.764
10488SOL     OW32362   0.355   2.027   5.030
10488SOL    HW132363   0.290   2.031   5.106
10488SOL    HW232364   0.308   1.996   4.948
10489SOL     OW32365   5.903   4.391   3.375
10489SOL    HW132366   5.848   4.314   3.408
10489SOL    HW232367   5.889   4.403   3.276
10490SOL     OW32368   5.409   6.390   6.527
10490SOL    HW132369   5.314   6.363   6.509
10490SOL    HW232370   5.433   6.468   6.469
10491SOL     OW32371   2.112   2.639   5.866
10491SOL    HW132372   2.123   2.544   5.837
10491SOL    HW232373   2.113   2.699   5.786
10492SOL     OW32374   2.838   6.265   0.587
10492SOL    HW132375   2.786   6.179   0.596
10492SOL    HW232376   2.890   6.264   0.502
10493SOL     OW32377   3.766   5.737   0.885
10493SOL    HW132378   3.847   5.703   0.837
10493SOL    HW232379   3.790   5.764   0.978
10494SOL     OW32380   0.377   4.912   4.248
10494SOL    HW132381   0.280   4.935   4.234
10494SOL    HW232382   0.402   4.836   4.189
10495SOL     OW32383   6.677   6.757   0.620
10495SOL    HW132384   6.754   6.730   0.562
10495SOL    HW232385   6.691   6.723   0.713
10496SOL     OW32386   0.473   4.850   5.989
10496SOL    HW132387   0.403   4.853   6.060
10496SOL    HW232388   0.558   4.813   6.028
10497SOL     OW32389   3.412   6.276   1.108
10497SOL    HW132390   3.427   6.262   1.010
10497SOL    HW232391   3.370   6.366   1.122
10498SOL     OW32392   3.878   3.422   6.879
10498SOL    HW132393   3.826   3.442   6.796
10498SOL    HW232394   3.920   3.506   6.913
10499SOL     OW32395   4.359   4.583   2.652
10499SOL    HW132396   4.280   4.581   2.591
10499SOL    HW232397   4.331   4.614   2.743
10500SOL     OW32398   1.568   2.725   4.569
10500SOL    HW132399   1.566   2.775   4.482
10500SOL    HW232400   1.613   2.637   4.555
10501SOL     OW32401   3.689   4.880   3.363
10501SOL    HW132402   3.698   4.971   3.322
10501SOL    HW232403   3.620   4.828   3.313
10502SOL     OW32404   2.859   3.533   2.580
10502SOL    HW132405   2.878   3.466   2.652
10502SOL    HW232406   2.839   3.486   2.494
10503SOL     OW32407   6.596   0.565   0.382
10503SOL    HW132408   6.680   0.510   0.387
10503SOL    HW232409   6.551   0.564   0.471
10504SOL     OW32410   1.288   3.483   5.478
10504SOL    HW132411   1.253   3.481   5.385
10504SOL    HW232412   1.331   3.572   5.495
10505SOL     OW32413   6.115   6.622   0.753
10505SOL    HW132414   6.042   6.656   0.813
10505SOL    HW232415   6.202   6.624   0.801
10506SOL     OW32416   1.347   4.741   5.373
10506SOL    HW132417   1.305   4.688   5.298
10506SOL    HW232418   1.438   4.704   5.392
10507SOL     OW32419   1.710   6.201   5.826
10507SOL    HW132420   1.629   6.232   5.777
10507SOL    HW232421   1.714   6.101   5.823
10508SOL     OW32422   1.802   5.933   0.739
10508SOL    HW132423   1.767   5.994   0.668
10508SOL    HW232424   1.728   5.875   0.773
10509SOL     OW32425   4.887   3.489   2.849
10509SOL    HW132426   4.938   3.435   2.916
10509SOL    HW232427   4.876   3.582   2.884
10510SOL     OW32428   5.558   5.769   3.058
10510SOL    HW132429   5.560   5.757   2.959
10510SOL    HW232430   5.472   5.731   3.094
10511SOL     OW32431   3.820   1.634   0.834
10511SOL    HW132432   3.889   1.705   0.821
10511SOL    HW232433   3.787   1.637   0.928
10512SOL     OW32434   4.186   1.282   5.399
10512SOL    HW132435   4.208   1.356   5.463
10512SOL    HW232436   4.269   1.255   5.350
10513SOL     OW32437   3.668   4.045   0.615
10513SOL    HW132438   3.690   3.958   0.661
10513SOL    HW232439   3.569   4.052   0.604
10514SOL     OW32440   1.385   5.543   1.381
10514SOL    HW132441   1.377   5.476   1.454
10514SOL    HW232442   1.303   5.539   1.323
10515SOL     OW32443   2.141   3.573   4.765
10515SOL    HW132444   2.165   3.480   4.738
10515SOL    HW232445   2.174   3.637   4.696
10516SOL     OW32446   5.551   1.762   2.229
10516SOL    HW132447   5.470   1.804   2.190
10516SOL    HW232448   5.537   1.746   2.327
10517SOL     OW32449   0.863   1.820   1.686
10517SOL    HW132450   0.846   1.879   1.606
10517SOL    HW232451   0.895   1.877   1.762
10518SOL     OW32452   0.782   6.200   2.344
10518SOL    HW132453   0.813   6.258   2.269
10518SOL    HW232454   0.861   6.169   2.397
10519SOL     OW32455   2.900   6.495   0.713
10519SOL    HW132456   2.872   6.402   0.689
10519SOL    HW232457   2.900   6.505   0.812
10520SOL     OW32458   1.915   2.641   6.324
10520SOL    HW132459   1.976   2.656   6.246
10520SOL    HW232460   1.822   2.623   6.290
10521SOL     OW32461   6.284   2.328   2.860
10521SOL    HW132462   6.204   2.305   2.804
10521SOL    HW232463   6.302   2.255   2.925
10522SOL     OW32464   5.165   1.876   3.843
10522SOL    HW132465   5.065   1.870   3.842
10522SOL    HW232466   5.202   1.830   3.762
10523SOL     OW32467   0.782   4.041   1.804
10523SOL    HW132468   0.803   4.038   1.902
10523SOL    HW232469   0.698   3.991   1.787
10524SOL     OW32470   6.432   6.166   5.031
10524SOL    HW132471   6.438   6.209   5.121
10524SOL    HW232472   6.524   6.152   4.995
10525SOL     OW32473   4.551   1.263   3.727
10525SOL    HW132474   4.558   1.334   3.657
10525SOL    HW232475   4.463   1.271   3.774
10526SOL     OW32476   1.221   5.955   5.528
10526SOL    HW132477   1.282   5.928   5.453
10526SOL    HW232478   1.126   5.949   5.498
10527SOL     OW32479   0.036   6.549   5.605
10527SOL    HW132480   0.011   6.568   5.700
10527SOL    HW232481   6.997   6.598   5.544
10528SOL     OW32482   2.054   5.173   5.595
10528SOL    HW132483   2.141   5.222   5.585
10528SOL    HW232484   2.052   5.127   5.684
10529SOL     OW32485   6.951   5.239   0.501
10529SOL    HW132486   6.868   5.296   0.508
10529SOL    HW232487   6.984   5.241   0.407
10530SOL     OW32488   6.816   0.482   1.034
10530SOL    HW132489   6.906   0.479   0.992
10530SOL    HW232490   6.775   0.390   1.032
10531SOL     OW32491   3.248   2.268   6.309
10531SOL    HW132492   3.255   2.296   6.405
10531SOL    HW232493   3.183   2.328   6.262
10532SOL     OW32494   4.762   5.753   5.602
10532SOL    HW132495   4.693   5.685   5.580
10532SOL    HW232496   4.777   5.813   5.523
10533SOL     OW32497   4.126   6.641   3.282
10533SOL    HW132498   4.206   6.656   3.223
10533SOL    HW232499   4.156   6.603   3.369
10534SOL     OW32500   1.169   6.522   3.720
10534SOL    HW132501   1.199   6.598   3.777
10534SOL    HW232502   1.215   6.526   3.631
10535SOL     OW32503   4.307   1.947   2.384
10535SOL    HW132504   4.381   2.006   2.417
10535SOL    HW232505   4.221   1.997   2.388
10536SOL     OW32506   6.354   3.772   4.674
10536SOL    HW132507   6.435   3.718   4.649
10536SOL    HW232508   6.366   3.866   4.643
10537SOL     OW32509   3.733   0.736   3.261
10537SOL    HW132510   3.796   0.667   3.297
10537SOL    HW232511   3.739   0.737   3.162
10538SOL     OW32512   6.010   2.821   3.766
10538SOL    HW132513   5.945   2.752   3.798
10538SOL    HW232514   6.086   2.827   3.831
10539SOL     OW32515   6.744   6.464   3.105
10539SOL    HW132516   6.693   6.548   3.124
10539SOL    HW232517   6.806   6.479   3.028
10540SOL     OW32518   1.353   3.764   6.738
10540SOL    HW132519   1.345   3.720   6.649
10540SOL    HW232520   1.277   3.735   6.796
10541SOL     OW32521   3.223   2.502   5.875
10541SOL    HW132522   3.195   2.421   5.926
10541SOL    HW232523   3.213   2.485   5.777
10542SOL     OW32524   4.403   6.334   2.148
10542SOL    HW132525   4.352   6.415   2.120
10542SOL    HW232526   4.482   6.361   2.203
10543SOL     OW32527   2.159   2.477   4.175
10543SOL    HW132528   2.120   2.486   4.083
10543SOL    HW232529   2.188   2.566   4.208
10544SOL     OW32530   2.819   2.007   2.462
10544SOL    HW132531   2.746   1.939   2.469
10544SOL    HW232532   2.822   2.042   2.368
10545SOL     OW32533   1.664   3.444   1.886
10545SOL    HW132534   1.757   3.424   1.919
10545SOL    HW232535   1.655   3.414   1.791
10546SOL     OW32536   2.405   0.272   5.654
10546SOL    HW132537   2.429   0.345   5.718
10546SOL    HW232538   2.455   0.189   5.680
10547SOL     OW32539   3.550   6.496   5.912
10547SOL    HW132540   3.495   6.490   5.996
10547SOL    HW232541   3.493   6.528   5.837
10548SOL     OW32542   0.837   5.656   3.124
10548SOL    HW132543   0.924   5.696   3.152
10548SOL    HW232544   0.854   5.579   3.062
10549SOL     OW32545   6.646   1.153   2.704
10549SOL    HW132546   6.554   1.153   2.742
10549SOL    HW232547   6.660   1.236   2.650
10550SOL     OW32548   5.546   6.047   3.057
10550SOL    HW132549   5.547   5.950   3.084
10550SOL    HW232550   5.623   6.067   2.997
10551SOL     OW32551   4.384   0.550   4.900
10551SOL    HW132552   4.342   0.640   4.914
10551SOL    HW232553   4.471   0.561   4.853
10552SOL     OW32554   2.654   6.417   3.803
10552SOL    HW132555   2.675   6.337   3.859
10552SOL    HW232556   2.737   6.447   3.755
10553SOL     OW32557   5.413   5.508   1.350
10553SOL    HW132558   5.379   5.597   1.381
10553SOL    HW232559   5.455   5.518   1.260
10554SOL     OW32560   6.050   5.753   1.759
10554SOL    HW132561   6.123   5.795   1.706
10554SOL    HW232562   5.964   5.801   1.741
10555SOL     OW32563   3.561   3.313   1.571
10555SOL    HW132564   3.551   3.213   1.571
10555SOL    HW232565   3.563   3.345   1.666
10556SOL     OW32566   2.734   2.192   1.941
10556SOL    HW132567   2.745   2.094   1.926
10556SOL    HW232568   2.823   2.234   1.957
10557SOL     OW32569   0.884   3.813   2.943
10557SOL    HW132570   0.828   3.883   2.986
10557SOL    HW232571   0.941   3.855   2.872
10558SOL     OW32572   4.390   4.634   4.231
10558SOL    HW132573   4.362   4.656   4.324
10558SOL    HW232574   4.348   4.699   4.167
10559SOL     OW32575   3.513   5.993   1.439
10559SOL    HW132576   3.591   6.014   1.498
10559SOL    HW232577   3.525   5.903   1.398
10560SOL     OW32578   5.788   6.922   3.454
10560SOL    HW132579   5.716   6.939   3.387
10560SOL    HW232580   5.791   6.997   3.520
10561SOL     OW32581   1.044   5.352   6.255
10561SOL    HW132582   1.015   5.310   6.341
10561SOL    HW232583   1.011   5.298   6.178
10562SOL     OW32584   3.719   6.326   2.390
10562SOL    HW132585   3.751   6.307   2.297
10562SOL    HW232586   3.649   6.259   2.415
10563SOL     OW32587   1.772   6.323   2.363
10563SOL    HW132588   1.724   6.280   2.287
10563SOL    HW232589   1.779   6.258   2.439
10564SOL     OW32590   5.193   4.424   3.620
10564SOL    HW132591   5.216   4.375   3.536
10564SOL    HW232592   5.161   4.516   3.597
10565SOL     OW32593   0.450   1.376   4.895
10565SOL    HW132594   0.477   1.463   4.937
10565SOL    HW232595   0.509   1.303   4.929
10566SOL     OW32596   3.840   2.183   1.167
10566SOL    HW132597   3.870   2.103   1.220
10566SOL    HW232598   3.773   2.154   1.099
10567SOL     OW32599   2.544   2.844   6.607
10567SOL    HW132600   2.599   2.790   6.542
10567SOL    HW232601   2.572   2.822   6.700
10568SOL     OW32602   5.518   2.230   5.998
10568SOL    HW132603   5.480   2.288   5.926
10568SOL    HW232604   5.567   2.287   6.064
10569SOL     OW32605   5.379   0.316   0.996
10569SOL    HW132606   5.336   0.337   0.908
10569SOL    HW232607   5.312   0.329   1.069
10570SOL     OW32608   1.583   3.776   2.928
10570SOL    HW132609   1.584   3.723   3.013
10570SOL    HW232610   1.598   3.715   2.850
10571SOL     OW32611   0.127   3.848   5.747
10571SOL    HW132612   0.216   3.828   5.789
10571SOL    HW232613   0.059   3.782   5.780
10572SOL     OW32614   6.093   4.461   0.830
10572SOL    HW132615   5.998   4.430   0.819
10572SOL    HW232616   6.123   4.507   0.746
10573SOL     OW32617   6.761   2.564   3.341
10573SOL    HW132618   6.694   2.495   3.369
10573SOL    HW232619   6.715   2.653   3.333
10574SOL     OW32620   5.653   2.250   2.696
10574SOL    HW132621   5.681   2.322   2.760
10574SOL    HW232622   5.597   2.289   2.623
10575SOL     OW32623   5.433   6.597   2.998
10575SOL    HW132624   5.348   6.582   2.948
10575SOL    HW232625   5.504   6.535   2.963
10576SOL     OW32626   1.727   2.930   4.676
10576SOL    HW132627   1.775   2.960   4.593
10576SOL    HW232628   1.677   2.846   4.656
10577SOL     OW32629   3.657   4.686   0.033
10577SOL    HW132630   3.710   4.614   0.077
10577SOL    HW232631   3.617   4.745   0.103
10578SOL     OW32632   1.142   3.599   2.485
10578SOL    HW132633   1.167   3.502   2.491
10578SOL    HW232634   1.119   3.621   2.390
10579SOL     OW32635   6.911   3.185   0.047
10579SOL    HW132636   6.943   3.141   6.987
10579SOL    HW232637   6.888   3.115   0.114
10580SOL     OW32638   5.571   6.094   0.054
10580SOL    HW132639   5.575   6.103   6.979
10580SOL    HW232640   5.663   6.099   0.092
10581SOL     OW32641   3.963   0.729   2.525
10581SOL    HW132642   3.949   0.693   2.618
10581SOL    HW232643   4.011   0.817   2.531
10582SOL     OW32644   6.685   3.330   6.721
10582SOL    HW132645   6.774   3.286   6.717
10582SOL    HW232646   6.694   3.421   6.762
10583SOL     OW32647   4.335   2.286   5.655
10583SOL    HW132648   4.238   2.305   5.669
10583SOL    HW232649   4.370   2.344   5.582
10584SOL     OW32650   6.803   0.995   3.771
10584SOL    HW132651   6.719   1.049   3.779
10584SOL    HW232652   6.881   1.057   3.767
10585SOL     OW32653   1.344   1.507   5.416
10585SOL    HW132654   1.335   1.410   5.391
10585SOL    HW232655   1.411   1.551   5.357
10586SOL     OW32656   4.445   3.832   5.880
10586SOL    HW132657   4.455   3.740   5.918
10586SOL    HW232658   4.445   3.900   5.954
10587SOL     OW32659   2.182   5.045   5.175
10587SOL    HW132660   2.277   5.023   5.196
10587SOL    HW232661   2.178   5.125   5.116
10588SOL     OW32662   1.447   3.920   3.929
10588SOL    HW132663   1.392   3.950   4.007
10588SOL    HW232664   1.387   3.903   3.851
10589SOL     OW32665   6.205   0.057   3.531
10589SOL    HW132666   6.147   0.136   3.509
10589SOL    HW232667   6.195   0.035   3.628
10590SOL     OW32668   0.714   5.661   2.351
10590SOL    HW132669   0.674   5.751   2.366
10590SOL    HW232670   0.764   5.633   2.433
10591SOL     OW32671   6.751   4.101   2.430
10591SOL    HW132672   6.831   4.059   2.386
10591SOL    HW232673   6.755   4.200   2.419
10592SOL     OW32674   6.992   3.098   4.646
10592SOL    HW132675   0.020   3.013   4.647
10592SOL    HW232676   6.894   3.078   4.652
10593SOL     OW32677   3.559   5.841   3.484
10593SOL    HW132678   3.569   5.800   3.393
10593SOL    HW232679   3.521   5.933   3.475
10594SOL     OW32680   3.472   5.638   3.697
10594SOL    HW132681   3.393   5.593   3.656
10594SOL    HW232682   3.517   5.695   3.629
10595SOL     OW32683   5.034   6.455   0.721
10595SOL    HW132684   4.938   6.438   0.698
10595SOL    HW232685   5.040   6.528   0.789
10596SOL     OW32686   5.503   3.693   0.175
10596SOL    HW132687   5.434   3.636   0.219
10596SOL    HW232688   5.459   3.767   0.125
10597SOL     OW32689   1.707   6.836   5.110
10597SOL    HW132690   1.712   6.739   5.088
10597SOL    HW232691   1.772   6.887   5.053
10598SOL     OW32692   3.604   0.997   0.826
10598SOL    HW132693   3.630   0.953   0.740
10598SOL    HW232694   3.546   1.075   0.808
10599SOL     OW32695   0.633   2.416   0.773
10599SOL    HW132696   0.603   2.402   0.678
10599SOL    HW232697   0.604   2.506   0.805
10600SOL     OW32698   4.327   1.456   1.687
10600SOL    HW132699   4.283   1.431   1.773
10600SOL    HW232700   4.370   1.375   1.646
10601SOL     OW32701   1.926   1.569   5.088
10601SOL    HW132702   2.019   1.588   5.120
10601SOL    HW232703   1.911   1.471   5.084
10602SOL     OW32704   6.703   6.493   1.634
10602SOL    HW132705   6.734   6.495   1.729
10602SOL    HW232706   6.607   6.464   1.630
10603SOL     OW32707   5.898   0.482   2.909
10603SOL    HW132708   5.929   0.406   2.852
10603SOL    HW232709   5.808   0.512   2.878
10604SOL     OW32710   5.516   2.004   5.347
10604SOL    HW132711   5.477   1.915   5.368
10604SOL    HW232712   5.552   2.004   5.253
10605SOL     OW32713   4.090   2.223   1.516
10605SOL    HW132714   4.055   2.307   1.474
10605SOL    HW232715   4.082   2.230   1.616
10606SOL     OW32716   6.196   1.640   0.765
10606SOL    HW132717   6.251   1.603   0.690
10606SOL    HW232718   6.133   1.570   0.797
10607SOL     OW32719   2.706   4.812   1.036
10607SOL    HW132720   2.771   4.881   1.005
10607SOL    HW232721   2.716   4.729   0.981
10608SOL     OW32722   5.646   4.059   2.988
10608SOL    HW132723   5.593   4.032   3.069
10608SOL    HW232724   5.698   3.981   2.955
10609SOL     OW32725   6.031   6.793   6.454
10609SOL    HW132726   6.064   6.719   6.396
10609SOL    HW232727   5.941   6.824   6.422
10610SOL     OW32728   0.394   1.639   2.990
10610SOL    HW132729   0.462   1.583   2.944
10610SOL    HW232730   0.406   1.632   3.089
10611SOL     OW32731   4.369   5.095   5.147
10611SOL    HW132732   4.333   5.137   5.064
10611SOL    HW232733   4.294   5.075   5.210
10612SOL     OW32734   5.798   2.650   3.791
10612SOL    HW132735   5.738   2.700   3.729
10612SOL    HW232736   5.764   2.556   3.802
10613SOL     OW32737   4.905   5.466   4.655
10613SOL    HW132738   4.880   5.554   4.614
10613SOL    HW232739   4.910   5.396   4.583
10614SOL     OW32740   3.957   2.276   6.630
10614SOL    HW132741   3.961   2.358   6.688
10614SOL    HW232742   4.034   2.276   6.568
10615SOL     OW32743   2.547   2.544   5.075
10615SOL    HW132744   2.454   2.555   5.040
10615SOL    HW232745   2.603   2.496   5.007
10616SOL     OW32746   1.337   5.723   0.245
10616SOL    HW132747   1.312   5.631   0.277
10616SOL    HW232748   1.381   5.773   0.319
10617SOL     OW32749   1.485   2.826   0.599
10617SOL    HW132750   1.518   2.897   0.538
10617SOL    HW232751   1.460   2.745   0.546
10618SOL     OW32752   0.405   5.120   4.428
10618SOL    HW132753   0.405   5.084   4.521
10618SOL    HW232754   0.383   5.047   4.363
10619SOL     OW32755   1.409   3.115   0.735
10619SOL    HW132756   1.390   3.017   0.729
10619SOL    HW232757   1.358   3.163   0.663
10620SOL     OW32758   3.495   0.822   5.443
10620SOL    HW132759   3.477   0.868   5.356
10620SOL    HW232760   3.425   0.848   5.510
10621SOL     OW32761   0.746   3.877   4.209
10621SOL    HW132762   0.716   3.972   4.216
10621SOL    HW232763   0.668   3.817   4.226
10622SOL     OW32764   4.239   2.226   6.054
10622SOL    HW132765   4.252   2.142   6.107
10622SOL    HW232766   4.155   2.218   6.000
10623SOL     OW32767   5.582   5.099   5.403
10623SOL    HW132768   5.571   5.194   5.376
10623SOL    HW232769   5.656   5.092   5.471
10624SOL     OW32770   0.213   1.734   6.615
10624SOL    HW132771   0.134   1.779   6.657
10624SOL    HW232772   0.212   1.637   6.639
10625SOL     OW32773   5.613   5.294   6.993
10625SOL    HW132774   5.530   5.348   6.984
10625SOL    HW232775   5.649   5.304   0.062
10626SOL     OW32776   5.689   3.178   2.274
10626SOL    HW132777   5.602   3.210   2.312
10626SOL    HW232778   5.743   3.136   2.347
10627SOL     OW32779   5.983   4.804   5.638
10627SOL    HW132780   5.977   4.771   5.544
10627SOL    HW232781   5.941   4.737   5.700
10628SOL     OW32782   2.513   5.748   1.218
10628SOL    HW132783   2.516   5.780   1.313
10628SOL    HW232784   2.465   5.815   1.161
10629SOL     OW32785   4.374   4.996   4.026
10629SOL    HW132786   4.442   4.947   3.970
10629SOL    HW232787   4.419   5.069   4.077
10630SOL     OW32788   3.985   0.690   1.411
10630SOL    HW132789   3.930   0.772   1.424
10630SOL    HW232790   4.077   0.706   1.446
10631SOL     OW32791   3.528   5.873   1.772
10631SOL    HW132792   3.569   5.854   1.862
10631SOL    HW232793   3.599   5.909   1.711
10632SOL     OW32794   5.530   0.043   4.267
10632SOL    HW132795   5.503   6.971   4.268
10632SOL    HW232796   5.454   0.100   4.297
10633SOL     OW32797   2.489   2.732   0.193
10633SOL    HW132798   2.493   2.828   0.165
10633SOL    HW232799   2.396   2.698   0.179
10634SOL     OW32800   1.075   4.745   0.154
10634SOL    HW132801   1.127   4.792   0.083
10634SOL    HW232802   1.099   4.782   0.243
10635SOL     OW32803   2.930   4.855   6.512
10635SOL    HW132804   3.023   4.855   6.477
10635SOL    HW232805   2.872   4.913   6.454
10636SOL     OW32806   6.123   3.215   0.796
10636SOL    HW132807   6.199   3.170   0.749
10636SOL    HW232808   6.127   3.193   0.893
10637SOL     OW32809   2.760   0.873   6.288
10637SOL    HW132810   2.835   0.924   6.330
10637SOL    HW232811   2.682   0.933   6.275
10638SOL     OW32812   5.289   5.091   0.028
10638SOL    HW132813   5.354   5.022   0.060
10638SOL    HW232814   5.204   5.047   0.001
10639SOL     OW32815   6.354   5.021   0.219
10639SOL    HW132816   6.274   4.968   0.245
10639SOL    HW232817   6.415   4.965   0.163
10640SOL     OW32818   3.600   6.365   4.046
10640SOL    HW132819   3.695   6.347   4.022
10640SOL    HW232820   3.541   6.301   3.997
10641SOL     OW32821   1.180   1.395   3.414
10641SOL    HW132822   1.106   1.329   3.405
10641SOL    HW232823   1.169   1.467   3.346
10642SOL     OW32824   0.268   2.271   6.242
10642SOL    HW132825   0.307   2.207   6.308
10642SOL    HW232826   0.181   2.306   6.277
10643SOL     OW32827   2.870   5.305   5.819
10643SOL    HW132828   2.833   5.328   5.909
10643SOL    HW232829   2.941   5.372   5.795
10644SOL     OW32830   0.120   3.587   3.205
10644SOL    HW132831   0.073   3.539   3.131
10644SOL    HW232832   0.204   3.629   3.170
10645SOL     OW32833   2.389   2.748   3.200
10645SOL    HW132834   2.357   2.742   3.294
10645SOL    HW232835   2.333   2.815   3.150
10646SOL     OW32836   4.931   0.530   3.279
10646SOL    HW132837   4.869   0.599   3.316
10646SOL    HW232838   4.997   0.504   3.349
10647SOL     OW32839   3.842   5.452   4.898
10647SOL    HW132840   3.763   5.507   4.870
10647SOL    HW232841   3.810   5.365   4.936
10648SOL     OW32842   4.750   4.195   5.375
10648SOL    HW132843   4.738   4.265   5.446
10648SOL    HW232844   4.665   4.144   5.364
10649SOL     OW32845   6.313   3.461   3.438
10649SOL    HW132846   6.387   3.525   3.459
10649SOL    HW232847   6.329   3.375   3.486
10650SOL     OW32848   0.609   6.824   2.817
10650SOL    HW132849   0.542   6.897   2.806
10650SOL    HW232850   0.611   6.767   2.735
10651SOL     OW32851   2.156   6.306   6.239
10651SOL    HW132852   2.103   6.389   6.258
10651SOL    HW232853   2.163   6.293   6.140
10652SOL     OW32854   2.425   0.783   6.992
10652SOL    HW132855   2.418   0.807   0.065
10652SOL    HW232856   2.334   0.771   6.954
10653SOL     OW32857   5.324   6.296   4.778
10653SOL    HW132858   5.233   6.336   4.770
10653SOL    HW232859   5.329   6.212   4.724
10654SOL     OW32860   6.566   1.488   3.998
10654SOL    HW132861   6.641   1.446   4.050
10654SOL    HW232862   6.521   1.557   4.055
10655SOL     OW32863   6.661   5.410   0.677
10655SOL    HW132864   6.625   5.324   0.712
10655SOL    HW232865   6.611   5.486   0.718
10656SOL     OW32866   6.075   1.262   5.766
10656SOL    HW132867   6.064   1.278   5.668
10656SOL    HW232868   5.995   1.296   5.815
10657SOL     OW32869   4.902   6.748   5.439
10657SOL    HW132870   4.830   6.806   5.477
10657SOL    HW232871   4.969   6.806   5.391
10658SOL     OW32872   0.646   1.425   5.796
10658SOL    HW132873   0.695   1.368   5.731
10658SOL    HW232874   0.573   1.474   5.749
10659SOL     OW32875   7.015   5.821   6.925
10659SOL    HW132876   6.993   5.809   7.021
10659SOL    HW232877   6.981   5.742   6.873
10660SOL     OW32878   5.912   2.841   6.500
10660SOL    HW132879   5.936   2.749   6.469
10660SOL    HW232880   5.820   2.839   6.540
10661SOL     OW32881   3.616   5.838   6.000
10661SOL    HW132882   3.627   5.827   6.099
10661SOL    HW232883   3.684   5.904   5.967
10662SOL     OW32884   2.852   1.143   0.932
10662SOL    HW132885   2.893   1.204   0.999
10662SOL    HW232886   2.883   1.049   0.948
10663SOL     OW32887   0.314   3.379   4.034
10663SOL    HW132888   0.248   3.443   3.996
10663SOL    HW232889   0.376   3.349   3.961
10664SOL     OW32890   1.020   6.487   4.650
10664SOL    HW132891   1.036   6.531   4.738
10664SOL    HW232892   1.056   6.393   4.652
10665SOL     OW32893   3.367   3.697   0.465
10665SOL    HW132894   3.351   3.616   0.522
10665SOL    HW232895   3.460   3.694   0.428
10666SOL     OW32896   4.139   3.368   1.083
10666SOL    HW132897   4.139   3.388   1.181
10666SOL    HW232898   4.219   3.313   1.060
10667SOL     OW32899   5.650   2.632   4.233
10667SOL    HW132900   5.620   2.655   4.326
10667SOL    HW232901   5.585   2.670   4.167
10668SOL     OW32902   3.254   3.337   6.112
10668SOL    HW132903   3.193   3.416   6.113
10668SOL    HW232904   3.333   3.357   6.055
10669SOL     OW32905   6.188   1.948   1.801
10669SOL    HW132906   6.102   1.896   1.802
10669SOL    HW232907   6.235   1.935   1.888
10670SOL     OW32908   4.746   4.607   3.619
10670SOL    HW132909   4.750   4.560   3.708
10670SOL    HW232910   4.715   4.701   3.632
10671SOL     OW32911   2.044   2.927   4.661
10671SOL    HW132912   1.955   2.970   4.674
10671SOL    HW232913   2.114   2.981   4.707
10672SOL     OW32914   6.372   4.171   1.485
10672SOL    HW132915   6.311   4.105   1.528
10672SOL    HW232916   6.465   4.157   1.519
10673SOL     OW32917   3.007   1.348   1.060
10673SOL    HW132918   2.956   1.401   1.127
10673SOL    HW232919   3.013   1.399   0.974
10674SOL     OW32920   3.859   3.425   4.371
10674SOL    HW132921   3.923   3.451   4.443
10674SOL    HW232922   3.909   3.391   4.292
10675SOL     OW32923   3.776   6.382   5.545
10675SOL    HW132924   3.857   6.377   5.603
10675SOL    HW232925   3.797   6.341   5.456
10676SOL     OW32926   1.808   0.784   5.041
10676SOL    HW132927   1.797   0.813   5.136
10676SOL    HW232928   1.877   0.712   5.035
10677SOL     OW32929   0.350   2.178   6.966
10677SOL    HW132930   0.367   2.275   6.981
10677SOL    HW232931   0.252   2.162   6.957
10678SOL     OW32932   3.970   5.218   2.659
10678SOL    HW132933   3.877   5.249   2.640
10678SOL    HW232934   3.995   5.245   2.752
10679SOL     OW32935   4.655   3.650   0.656
10679SOL    HW132936   4.746   3.610   0.648
10679SOL    HW232937   4.657   3.725   0.722
10680SOL     OW32938   4.511   1.119   5.727
10680SOL    HW132939   4.522   1.027   5.765
10680SOL    HW232940   4.425   1.124   5.677
10681SOL     OW32941   2.421   3.140   5.373
10681SOL    HW132942   2.484   3.215   5.352
10681SOL    HW232943   2.434   3.067   5.306
10682SOL     OW32944   4.876   3.576   6.075
10682SOL    HW132945   4.830   3.649   6.024
10682SOL    HW232946   4.843   3.576   6.170
10683SOL     OW32947   2.574   0.901   2.965
10683SOL    HW132948   2.560   0.808   2.929
10683SOL    HW232949   2.586   0.896   3.064
10684SOL     OW32950   4.994   4.600   1.494
10684SOL    HW132951   4.987   4.616   1.395
10684SOL    HW232952   5.009   4.687   1.541
10685SOL     OW32953   1.066   6.837   2.449
10685SOL    HW132954   1.152   6.861   2.495
10685SOL    HW232955   1.000   6.911   2.461
10686SOL     OW32956   2.435   1.231   6.899
10686SOL    HW132957   2.410   1.245   6.803
10686SOL    HW232958   2.381   1.156   6.936
10687SOL     OW32959   0.801   3.596   3.595
10687SOL    HW132960   0.738   3.575   3.670
10687SOL    HW232961   0.856   3.676   3.619
10688SOL     OW32962   4.931   1.211   3.669
10688SOL    HW132963   4.905   1.291   3.614
10688SOL    HW232964   5.029   1.195   3.661
10689SOL     OW32965   0.988   1.273   2.658
10689SOL    HW132966   1.000   1.251   2.755
10689SOL    HW232967   0.891   1.268   2.635
10690SOL     OW32968   1.266   6.771   4.663
10690SOL    HW132969   1.341   6.797   4.603
10690SOL    HW232970   1.192   6.837   4.654
10691SOL     OW32971   3.285   6.430   1.306
10691SOL    HW132972   3.351   6.364   1.342
10691SOL    HW232973   3.251   6.486   1.381
10692SOL     OW32974   2.662   1.465   4.373
10692SOL    HW132975   2.624   1.527   4.305
10692SOL    HW232976   2.594   1.449   4.445
10693SOL     OW32977   0.992   5.198   0.423
10693SOL    HW132978   0.920   5.263   0.398
10693SOL    HW232979   1.051   5.182   0.344
10694SOL     OW32980   4.383   0.573   5.246
10694SOL    HW132981   4.299   0.518   5.240
10694SOL    HW232982   4.445   0.531   5.313
10695SOL     OW32983   5.138   4.279   1.880
10695SOL    HW132984   5.213   4.252   1.940
10695SOL    HW232985   5.167   4.356   1.824
10696SOL     OW32986   6.295   4.278   4.195
10696SOL    HW132987   6.196   4.276   4.211
10696SOL    HW232988   6.337   4.343   4.259
10697SOL     OW32989   3.214   5.243   5.091
10697SOL    HW132990   3.189   5.340   5.092
10697SOL    HW232991   3.141   5.190   5.135
10698SOL     OW32992   3.937   3.885   0.017
10698SOL    HW132993   3.972   3.977   0.032
10698SOL    HW232994   3.846   3.876   0.058
10699SOL     OW32995   3.453   3.336   0.952
10699SOL    HW132996   3.412   3.314   0.864
10699SOL    HW232997   3.391   3.395   1.004
10700SOL     OW32998   4.884   0.412   1.508
10700SOL    HW132999   4.979   0.382   1.499
10700SOL    HW233000   4.838   0.355   1.576
10701SOL     OW33001   3.154   6.437   6.318
10701SOL    HW133002   3.172   6.421   6.415
10701SOL    HW233003   3.071   6.491   6.308
10702SOL     OW33004   5.967   1.539   2.108
10702SOL    HW133005   5.897   1.605   2.135
10702SOL    HW233006   6.018   1.509   2.189
10703SOL     OW33007   0.485   1.823   5.183
10703SOL    HW133008   0.429   1.898   5.148
10703SOL    HW233009   0.528   1.851   5.269
10704SOL     OW33010   5.453   6.563   2.358
10704SOL    HW133011   5.454   6.543   2.260
10704SOL    HW233012   5.372   6.617   2.380
10705SOL     OW33013   4.839   3.101   0.457
10705SOL    HW133014   4.881   3.031   0.400
10705SOL    HW233015   4.879   3.190   0.436
10706SOL     OW33016   3.565   0.828   1.506
10706SOL    HW133017   3.640   0.852   1.445
10706SOL    HW233018   3.602   0.787   1.590
10707SOL     OW33019   4.884   6.546   3.475
10707SOL    HW133020   4.833   6.506   3.399
10707SOL    HW233021   4.925   6.474   3.530
10708SOL     OW33022   4.240   0.762   1.971
10708SOL    HW133023   4.175   0.813   1.915
10708SOL    HW233024   4.212   0.765   2.067
10709SOL     OW33025   6.231   4.492   3.126
10709SOL    HW133026   6.300   4.479   3.055
10709SOL    HW233027   6.140   4.486   3.085
10710SOL     OW33028   4.487   1.849   3.858
10710SOL    HW133029   4.406   1.790   3.850
10710SOL    HW233030   4.475   1.913   3.933
10711SOL     OW33031   3.150   6.676   2.519
10711SOL    HW133032   3.244   6.643   2.512
10711SOL    HW233033   3.142   6.764   2.473
10712SOL     OW33034   5.185   0.366   3.676
10712SOL    HW133035   5.122   0.297   3.711
10712SOL    HW233036   5.239   0.403   3.751
10713SOL     OW33037   1.770   3.999   1.584
10713SOL    HW133038   1.721   3.979   1.669
10713SOL    HW233039   1.710   3.983   1.506
10714SOL     OW33040   2.925   3.894   4.983
10714SOL    HW133041   2.844   3.894   5.042
10714SOL    HW233042   2.902   3.855   4.894
10715SOL     OW33043   5.656   0.949   1.879
10715SOL    HW133044   5.612   0.888   1.945
10715SOL    HW233045   5.745   0.912   1.854
10716SOL     OW33046   5.174   0.875   3.222
10716SOL    HW133047   5.254   0.925   3.188
10716SOL    HW233048   5.188   0.853   3.319
10717SOL     OW33049   1.986   3.161   6.816
10717SOL    HW133050   1.988   3.261   6.810
10717SOL    HW233051   1.965   3.133   6.909
10718SOL     OW33052   1.696   4.929   6.035
10718SOL    HW133053   1.620   4.977   5.991
10718SOL    HW233054   1.689   4.831   6.016
10719SOL     OW33055   0.421   5.799   4.741
10719SOL    HW133056   0.458   5.723   4.687
10719SOL    HW233057   0.322   5.801   4.733
10720SOL     OW33058   0.221   5.056   3.226
10720SOL    HW133059   0.173   5.087   3.144
10720SOL    HW233060   0.161   4.996   3.279
10721SOL     OW33061   5.160   3.503   6.003
10721SOL    HW133062   5.096   3.535   6.072
10721SOL    HW233063   5.176   3.576   5.936
10722SOL     OW33064   6.954   3.541   5.391
10722SOL    HW133065   6.871   3.543   5.447
10722SOL    HW233066   7.007   3.459   5.413
10723SOL     OW33067   5.399   6.717   0.776
10723SOL    HW133068   5.459   6.770   0.716
10723SOL    HW233069   5.433   6.624   0.783
10724SOL     OW33070   0.180   6.332   6.650
10724SOL    HW133071   0.214   6.309   6.559
10724SOL    HW233072   0.256   6.367   6.705
10725SOL     OW33073   1.993   6.172   5.774
10725SOL    HW133074   2.011   6.118   5.692
10725SOL    HW233075   1.895   6.176   5.792
10726SOL     OW33076   4.501   1.180   4.198
10726SOL    HW133077   4.507   1.119   4.277
10726SOL    HW233078   4.594   1.203   4.168
10727SOL     OW33079   2.162   6.588   6.438
10727SOL    HW133080   2.179   6.687   6.444
10727SOL    HW233081   2.090   6.571   6.370
10728SOL     OW33082   5.366   5.657   0.713
10728SOL    HW133083   5.326   5.732   0.661
10728SOL    HW233084   5.312   5.575   0.700
10729SOL     OW33085   6.029   2.165   1.277
10729SOL    HW133086   6.020   2.205   1.368
10729SOL    HW233087   6.015   2.236   1.208
10730SOL     OW33088   4.497   0.226   2.704
10730SOL    HW133089   4.449   0.313   2.704
10730SOL    HW233090   4.454   0.164   2.638
10731SOL     OW33091   4.545   6.983   1.074
10731SOL    HW133092   4.592   6.907   1.028
10731SOL    HW233093   4.471   6.946   1.130
10732SOL     OW33094   0.953   3.386   5.737
10732SOL    HW133095   1.023   3.439   5.785
10732SOL    HW233096   0.881   3.361   5.802
10733SOL     OW33097   6.155   1.821   0.490
10733SOL    HW133098   6.117   1.866   0.570
10733SOL    HW233099   6.196   1.734   0.517
10734SOL     OW33100   6.606   3.056   1.619
10734SOL    HW133101   6.698   3.068   1.657
10734SOL    HW233102   6.559   2.983   1.668
10735SOL     OW33103   0.345   4.720   2.929
10735SOL    HW133104   0.282   4.720   3.007
10735SOL    HW233105   0.308   4.661   2.857
10736SOL     OW33106   2.257   0.597   3.707
10736SOL    HW133107   2.205   0.663   3.761
10736SOL    HW233108   2.294   0.527   3.767
10737SOL     OW33109   6.716   2.130   1.043
10737SOL    HW133110   6.796   2.097   0.994
10737SOL    HW233111   6.706   2.228   1.028
10738SOL     OW33112   4.342   6.699   3.757
10738SOL    HW133113   4.287   6.738   3.683
10738SOL    HW233114   4.431   6.743   3.760
10739SOL     OW33115   2.671   1.904   1.699
10739SOL    HW133116   2.744   1.869   1.757
10739SOL    HW233117   2.697   1.993   1.662
10740SOL     OW33118   4.518   5.129   3.167
10740SOL    HW133119   4.551   5.088   3.082
10740SOL    HW233120   4.518   5.229   3.158
10741SOL     OW33121   3.883   0.589   2.769
10741SOL    HW133122   3.841   0.526   2.703
10741SOL    HW233123   3.944   0.538   2.830
10742SOL     OW33124   6.731   5.426   0.405
10742SOL    HW133125   6.685   5.504   0.363
10742SOL    HW233126   6.712   5.425   0.504
10743SOL     OW33127   2.241   2.492   5.144
10743SOL    HW133128   2.271   2.584   5.119
10743SOL    HW233129   2.152   2.497   5.191
10744SOL     OW33130   4.998   1.808   0.654
10744SOL    HW133131   4.962   1.852   0.571
10744SOL    HW233132   5.093   1.781   0.639
10745SOL     OW33133   6.757   5.818   6.314
10745SOL    HW133134   6.826   5.837   6.244
10745SOL    HW233135   6.668   5.808   6.270
10746SOL     OW33136   0.908   4.400   6.220
10746SOL    HW133137   0.971   4.474   6.243
10746SOL    HW233138   0.961   4.318   6.197
10747SOL     OW33139   3.136   2.152   4.578
10747SOL    HW133140   3.062   2.168   4.643
10747SOL    HW233141   3.205   2.093   4.620
10748SOL     OW33142   4.920   1.632   2.097
10748SOL    HW133143   4.874   1.631   2.009
10748SOL    HW233144   4.947   1.538   2.122
10749SOL     OW33145   2.463   0.574   6.625
10749SOL    HW133146   2.554   0.615   6.638
10749SOL    HW233147   2.436   0.528   6.709
10750SOL     OW33148   3.993   0.007   6.311
10750SOL    HW133149   3.931   0.061   6.368
10750SOL    HW233150   4.087   0.037   6.326
10751SOL     OW33151   1.986   5.409   3.846
10751SOL    HW133152   1.932   5.386   3.765
10751SOL    HW233153   1.958   5.499   3.881
10752SOL     OW33154   5.250   4.781   3.929
10752SOL    HW133155   5.178   4.731   3.978
10752SOL    HW233156   5.227   4.879   3.928
10753SOL     OW33157   6.581   3.387   4.509
10753SOL    HW133158   6.608   3.432   4.594
10753SOL    HW233159   6.516   3.313   4.530
10754SOL     OW33160   1.450   0.230   2.510
10754SOL    HW133161   1.526   0.199   2.452
10754SOL    HW233162   1.450   0.178   2.595
10755SOL     OW33163   5.918   5.400   2.125
10755SOL    HW133164   5.844   5.335   2.142
10755SOL    HW233165   6.002   5.367   2.169
10756SOL     OW33166   0.815   6.974   5.146
10756SOL    HW133167   0.717   6.994   5.136
10756SOL    HW233168   0.859   0.025   5.193
10757SOL     OW33169   2.788   3.412   1.109
10757SOL    HW133170   2.759   3.317   1.101
10757SOL    HW233171   2.842   3.424   1.192
10758SOL     OW33172   0.601   5.240   4.151
10758SOL    HW133173   0.527   5.199   4.205
10758SOL    HW233174   0.665   5.168   4.122
10759SOL     OW33175   7.012   1.844   6.764
10759SOL    HW133176   7.013   1.754   6.807
10759SOL    HW233177   6.918   1.879   6.761
10760SOL     OW33178   5.726   1.312   4.461
10760SOL    HW133179   5.646   1.321   4.402
10760SOL    HW233180   5.759   1.403   4.486
10761SOL     OW33181   2.593   4.864   5.678
10761SOL    HW133182   2.571   4.836   5.584
10761SOL    HW233183   2.687   4.896   5.682
10762SOL     OW33184   3.375   1.244   5.008
10762SOL    HW133185   3.321   1.248   4.924
10762SOL    HW233186   3.374   1.151   5.044
10763SOL     OW33187   4.095   6.368   3.883
10763SOL    HW133188   4.151   6.337   3.960
10763SOL    HW233189   4.123   6.320   3.800
10764SOL     OW33190   4.609   0.154   4.864
10764SOL    HW133191   4.601   0.214   4.784
10764SOL    HW233192   4.631   0.209   4.945
10765SOL     OW33193   5.596   3.662   0.572
10765SOL    HW133194   5.656   3.616   0.507
10765SOL    HW233195   5.536   3.726   0.524
10766SOL     OW33196   3.731   3.679   1.575
10766SOL    HW133197   3.806   3.613   1.579
10766SOL    HW233198   3.664   3.650   1.507
10767SOL     OW33199   4.695   1.662   2.290
10767SOL    HW133200   4.614   1.721   2.279
10767SOL    HW233201   4.768   1.695   2.231
10768SOL     OW33202   6.014   4.505   0.071
10768SOL    HW133203   5.983   4.559   7.017
10768SOL    HW233204   5.973   4.414   0.068
10769SOL     OW33205   1.698   4.121   5.378
10769SOL    HW133206   1.762   4.056   5.336
10769SOL    HW233207   1.675   4.193   5.313
10770SOL     OW33208   3.661   6.115   3.769
10770SOL    HW133209   3.717   6.170   3.832
10770SOL    HW233210   3.708   6.029   3.750
10771SOL     OW33211   2.258   1.606   4.095
10771SOL    HW133212   2.205   1.601   4.011
10771SOL    HW233213   2.342   1.553   4.085
10772SOL     OW33214   5.437   5.473   3.505
10772SOL    HW133215   5.343   5.452   3.532
10772SOL    HW233216   5.446   5.465   3.406
10773SOL     OW33217   5.706   4.238   3.533
10773SOL    HW133218   5.679   4.334   3.535
10773SOL    HW233219   5.774   4.221   3.604
10774SOL     OW33220   0.423   0.219   3.020
10774SOL    HW133221   0.481   0.300   3.032
10774SOL    HW233222   0.329   0.241   3.046
10775SOL     OW33223   0.460   3.404   1.736
10775SOL    HW133224   0.559   3.397   1.722
10775SOL    HW233225   0.441   3.419   1.833
10776SOL     OW33226   1.533   0.484   6.160
10776SOL    HW133227   1.572   0.412   6.218
10776SOL    HW233228   1.580   0.571   6.179
10777SOL     OW33229   2.494   5.511   1.097
10777SOL    HW133230   2.508   5.609   1.105
10777SOL    HW233231   2.408   5.494   1.048
10778SOL     OW33232   5.929   5.459   2.669
10778SOL    HW133233   5.844   5.463   2.721
10778SOL    HW233234   5.909   5.445   2.572
10779SOL     OW33235   4.970   2.820   4.006
10779SOL    HW133236   4.939   2.730   4.036
10779SOL    HW233237   4.963   2.826   3.906
10780SOL     OW33238   6.288   0.144   2.562
10780SOL    HW133239   6.252   0.149   2.469
10780SOL    HW233240   6.388   0.145   2.559
10781SOL     OW33241   3.766   0.218   4.019
10781SOL    HW133242   3.865   0.212   4.012
10781SOL    HW233243   3.725   0.134   3.984
10782SOL     OW33244   6.149   5.399   3.987
10782SOL    HW133245   6.068   5.444   3.949
10782SOL    HW233246   6.225   5.464   3.991
10783SOL     OW33247   6.885   1.930   3.541
10783SOL    HW133248   6.974   1.889   3.564
10783SOL    HW233249   6.829   1.937   3.623
10784SOL     OW33250   2.901   1.339   4.538
10784SOL    HW133251   2.866   1.246   4.548
10784SOL    HW233252   2.826   1.400   4.510
10785SOL     OW33253   1.366   3.706   6.069
10785SOL    HW133254   1.380   3.755   6.155
10785SOL    HW233255   1.343   3.611   6.089
10786SOL     OW33256   0.328   4.760   3.600
10786SOL    HW133257   0.295   4.713   3.518
10786SOL    HW233258   0.310   4.858   3.592
10787SOL     OW33259   1.701   2.235   6.502
10787SOL    HW133260   1.634   2.225   6.429
10787SOL    HW233261   1.686   2.322   6.549
10788SOL     OW33262   5.963   3.729   6.042
10788SOL    HW133263   5.945   3.823   6.071
10788SOL    HW233264   6.022   3.729   5.961
10789SOL     OW33265   5.684   1.953   0.873
10789SOL    HW133266   5.593   1.992   0.858
10789SOL    HW233267   5.693   1.868   0.821
10790SOL     OW33268   0.054   6.072   3.111
10790SOL    HW133269   0.143   6.056   3.067
10790SOL    HW233270   0.068   6.120   3.198
10791SOL     OW33271   0.668   6.605   2.981
10791SOL    HW133272   0.672   6.693   2.932
10791SOL    HW233273   0.757   6.585   3.021
10792SOL     OW33274   3.985   3.982   5.562
10792SOL    HW133275   3.920   4.036   5.507
10792SOL    HW233276   4.070   3.971   5.511
10793SOL     OW33277   6.073   3.731   4.717
10793SOL    HW133278   6.026   3.819   4.727
10793SOL    HW233279   6.172   3.747   4.714
10794SOL     OW33280   3.251   4.106   3.672
10794SOL    HW133281   3.245   4.119   3.771
10794SOL    HW233282   3.231   4.011   3.650
10795SOL     OW33283   6.995   4.926   3.291
10795SOL    HW133284   6.911   4.883   3.324
10795SOL    HW233285   6.992   4.932   3.191
10796SOL     OW33286   1.301   6.173   5.154
10796SOL    HW133287   1.327   6.266   5.131
10796SOL    HW233288   1.220   6.175   5.214
10797SOL     OW33289   3.535   2.552   0.089
10797SOL    HW133290   3.526   2.568   7.015
10797SOL    HW233291   3.473   2.613   0.139
10798SOL     OW33292   6.789   1.290   1.150
10798SOL    HW133293   6.834   1.310   1.237
10798SOL    HW233294   6.709   1.348   1.140
10799SOL     OW33295   4.772   2.202   1.396
10799SOL    HW133296   4.673   2.214   1.388
10799SOL    HW233297   4.793   2.165   1.487
10800SOL     OW33298   0.438   0.111   1.874
10800SOL    HW133299   0.375   0.143   1.803
10800SOL    HW233300   0.455   0.013   1.860
10801SOL     OW33301   1.691   0.426   1.165
10801SOL    HW133302   1.673   0.383   1.254
10801SOL    HW233303   1.775   0.388   1.127
10802SOL     OW33304   6.329   1.216   3.473
10802SOL    HW133305   6.299   1.182   3.562
10802SOL    HW233306   6.324   1.316   3.471
10803SOL     OW33307   2.082   5.634   6.078
10803SOL    HW133308   2.082   5.673   6.170
10803SOL    HW233309   2.090   5.535   6.083
10804SOL     OW33310   0.174   2.984   4.346
10804SOL    HW133311   0.201   3.051   4.277
10804SOL    HW233312   0.255   2.953   4.396
10805SOL     OW33313   6.491   1.454   6.563
10805SOL    HW133314   6.493   1.382   6.632
10805SOL    HW233315   6.436   1.423   6.485
10806SOL     OW33316   1.812   5.180   0.001
10806SOL    HW133317   1.877   5.249   6.993
10806SOL    HW233318   1.861   5.099   0.032
10807SOL     OW33319   2.767   5.833   5.395
10807SOL    HW133320   2.797   5.765   5.327
10807SOL    HW233321   2.762   5.789   5.485
10808SOL     OW33322   0.821   3.279   6.479
10808SOL    HW133323   0.739   3.242   6.435
10808SOL    HW233324   0.795   3.355   6.539
10809SOL     OW33325   2.001   0.280   4.637
10809SOL    HW133326   2.000   0.234   4.548
10809SOL    HW233327   1.930   0.349   4.640
10810SOL     OW33328   6.482   0.166   3.850
10810SOL    HW133329   6.522   0.232   3.914
10810SOL    HW233330   6.383   0.181   3.845
10811SOL     OW33331   5.323   5.101   4.500
10811SOL    HW133332   5.367   5.078   4.587
10811SOL    HW233333   5.264   5.181   4.514
10812SOL     OW33334   6.217   2.937   0.335
10812SOL    HW133335   6.149   2.952   0.263
10812SOL    HW233336   6.241   3.025   0.377
10813SOL     OW33337   0.578   3.165   6.043
10813SOL    HW133338   0.545   3.110   6.119
10813SOL    HW233339   0.510   3.166   5.970
10814SOL     OW33340   3.272   1.256   1.155
10814SOL    HW133341   3.185   1.281   1.112
10814SOL    HW233342   3.285   1.311   1.237
10815SOL     OW33343   5.568   0.952   4.468
10815SOL    HW133344   5.600   1.036   4.426
10815SOL    HW233345   5.620   0.874   4.431
10816SOL     OW33346   3.526   2.834   4.684
10816SOL    HW133347   3.510   2.857   4.588
10816SOL    HW233348   3.477   2.750   4.707
10817SOL     OW33349   1.447   6.239   3.698
10817SOL    HW133350   1.547   6.230   3.694
10817SOL    HW233351   1.421   6.275   3.788
10818SOL     OW33352   3.841   4.473   6.668
10818SOL    HW133353   3.853   4.429   6.757
10818SOL    HW233354   3.786   4.414   6.609
10819SOL     OW33355   6.402   6.597   5.263
10819SOL    HW133356   6.367   6.648   5.185
10819SOL    HW233357   6.326   6.559   5.315
10820SOL     OW33358   2.677   4.371   5.861
10820SOL    HW133359   2.674   4.459   5.908
10820SOL    HW233360   2.629   4.303   5.914
10821SOL     OW33361   4.879   5.315   2.802
10821SOL    HW133362   4.842   5.398   2.844
10821SOL    HW233363   4.968   5.336   2.760
10822SOL     OW33364   5.400   1.070   1.764
10822SOL    HW133365   5.368   1.070   1.859
10822SOL    HW233366   5.488   1.119   1.759
10823SOL     OW33367   5.731   6.635   1.231
10823SOL    HW133368   5.661   6.687   1.182
10823SOL    HW233369   5.821   6.665   1.202
10824SOL     OW33370   1.051   2.982   3.864
10824SOL    HW133371   1.059   2.905   3.928
10824SOL    HW233372   1.091   3.064   3.906
10825SOL     OW33373   0.519   2.757   0.567
10825SOL    HW133374   0.477   2.737   0.655
10825SOL    HW233375   0.569   2.843   0.573
10826SOL     OW33376   0.247   3.420   2.812
10826SOL    HW133377   0.330   3.472   2.794
10826SOL    HW233378   0.169   3.481   2.814
10827SOL     OW33379   0.069   3.999   4.707
10827SOL    HW133380   0.162   3.968   4.687
10827SOL    HW233381   0.037   3.955   4.792
10828SOL     OW33382   6.470   4.500   5.125
10828SOL    HW133383   6.422   4.549   5.198
10828SOL    HW233384   6.539   4.440   5.165
10829SOL     OW33385   3.584   2.896   5.126
10829SOL    HW133386   3.518   2.836   5.080
10829SOL    HW233387   3.554   2.913   5.220
10830SOL     OW33388   4.845   2.250   3.287
10830SOL    HW133389   4.794   2.180   3.337
10830SOL    HW233390   4.823   2.243   3.190
10831SOL     OW33391   4.068   6.871   4.055
10831SOL    HW133392   4.033   6.872   3.961
10831SOL    HW233393   4.004   6.821   4.114
10832SOL     OW33394   6.698   2.647   0.012
10832SOL    HW133395   6.647   2.731   7.016
10832SOL    HW233396   6.636   2.581   0.055
10833SOL     OW33397   0.587   1.219   0.075
10833SOL    HW133398   0.630   1.282   0.010
10833SOL    HW233399   0.491   1.246   0.088
10834SOL     OW33400   6.130   6.376   1.601
10834SOL    HW133401   6.060   6.375   1.672
10834SOL    HW233402   6.099   6.433   1.525
10835SOL     OW33403   0.133   2.180   5.429
10835SOL    HW133404   0.208   2.201   5.492
10835SOL    HW233405   0.170   2.137   5.346
10836SOL     OW33406   0.177   1.266   3.440
10836SOL    HW133407   0.101   1.274   3.504
10836SOL    HW233408   0.176   1.343   3.377
10837SOL     OW33409   0.463   3.406   3.516
10837SOL    HW133410   0.487   3.498   3.548
10837SOL    HW233411   0.391   3.413   3.448
10838SOL     OW33412   0.289   6.115   2.325
10838SOL    HW133413   0.307   6.021   2.296
10838SOL    HW233414   0.259   6.116   2.420
10839SOL     OW33415   4.736   2.723   0.316
10839SOL    HW133416   4.648   2.722   0.267
10839SOL    HW233417   4.720   2.723   0.414
10840SOL     OW33418   2.434   0.367   1.602
10840SOL    HW133419   2.402   0.272   1.598
10840SOL    HW233420   2.431   0.406   1.510
10841SOL     OW33421   2.024   5.308   5.088
10841SOL    HW133422   1.932   5.347   5.091
10841SOL    HW233423   2.017   5.209   5.086
10842SOL     OW33424   5.492   4.477   2.078
10842SOL    HW133425   5.405   4.517   2.108
10842SOL    HW233426   5.537   4.434   2.156
10843SOL     OW33427   2.814   1.930   1.211
10843SOL    HW133428   2.905   1.932   1.253
10843SOL    HW233429   2.824   1.918   1.112
10844SOL     OW33430   1.249   5.326   5.302
10844SOL    HW133431   1.231   5.415   5.346
10844SOL    HW233432   1.346   5.304   5.312
10845SOL     OW33433   3.849   0.180   4.409
10845SOL    HW133434   3.892   0.094   4.379
10845SOL    HW233435   3.891   0.210   4.494
10846SOL     OW33436   5.681   0.254   6.111
10846SOL    HW133437   5.736   0.173   6.131
10846SOL    HW233438   5.588   0.227   6.089
10847SOL     OW33439   3.268   0.397   6.214
10847SOL    HW133440   3.217   0.460   6.272
10847SOL    HW233441   3.203   0.341   6.161
10848SOL     OW33442   1.641   4.580   1.688
10848SOL    HW133443   1.679   4.568   1.596
10848SOL    HW233444   1.575   4.655   1.687
10849SOL     OW33445   2.391   6.883   3.304
10849SOL    HW133446   2.353   6.819   3.371
10849SOL    HW233447   2.463   6.837   3.252
10850SOL     OW33448   4.467   4.663   0.850
10850SOL    HW133449   4.408   4.582   0.852
10850SOL    HW233450   4.492   4.683   0.755
10851SOL     OW33451   1.572   4.700   0.813
10851SOL    HW133452   1.526   4.647   0.741
10851SOL    HW233453   1.600   4.639   0.887
10852SOL     OW33454   2.394   2.229   2.488
10852SOL    HW133455   2.346   2.242   2.575
10852SOL    HW233456   2.394   2.314   2.437
10853SOL     OW33457   3.547   1.476   6.129
10853SOL    HW133458   3.564   1.536   6.051
10853SOL    HW233459   3.500   1.394   6.098
10854SOL     OW33460   2.809   6.224   5.599
10854SOL    HW133461   2.790   6.165   5.520
10854SOL    HW233462   2.730   6.282   5.618
10855SOL     OW33463   4.135   1.676   0.145
10855SOL    HW133464   4.096   1.670   0.053
10855SOL    HW233465   4.229   1.641   0.144
10856SOL     OW33466   0.537   1.269   0.614
10856SOL    HW133467   0.500   1.288   0.523
10856SOL    HW233468   0.478   1.311   0.683
10857SOL     OW33469   6.385   2.841   2.124
10857SOL    HW133470   6.476   2.868   2.093
10857SOL    HW233471   6.323   2.919   2.119
10858SOL     OW33472   2.713   6.696   2.403
10858SOL    HW133473   2.623   6.664   2.373
10858SOL    HW233474   2.784   6.657   2.345
10859SOL     OW33475   1.667   5.574   4.013
10859SOL    HW133476   1.648   5.601   4.107
10859SOL    HW233477   1.582   5.572   3.961
10860SOL     OW33478   6.760   4.045   3.532
10860SOL    HW133479   6.678   4.040   3.475
10860SOL    HW233480   6.770   3.959   3.582
10861SOL     OW33481   3.485   2.884   5.432
10861SOL    HW133482   3.408   2.867   5.493
10861SOL    HW233483   3.539   2.960   5.467
10862SOL     OW33484   0.891   0.378   5.109
10862SOL    HW133485   0.885   0.470   5.149
10862SOL    HW233486   0.901   0.386   5.010
10863SOL     OW33487   2.324   6.410   4.477
10863SOL    HW133488   2.357   6.383   4.567
10863SOL    HW233489   2.368   6.496   4.450
10864SOL     OW33490   3.636   6.360   2.762
10864SOL    HW133491   3.698   6.284   2.742
10864SOL    HW233492   3.665   6.441   2.711
10865SOL     OW33493   6.352   1.561   5.907
10865SOL    HW133494   6.359   1.530   6.002
10865SOL    HW233495   6.360   1.482   5.846
10866SOL     OW33496   5.007   5.018   0.204
10866SOL    HW133497   4.919   4.991   0.242
10866SOL    HW233498   5.078   5.011   0.274
10867SOL     OW33499   3.178   1.622   0.118
10867SOL    HW133500   3.195   1.554   0.189
10867SOL    HW233501   3.256   1.627   0.056
10868SOL     OW33502   2.784   2.291   3.301
10868SOL    HW133503   2.770   2.323   3.395
10868SOL    HW233504   2.801   2.193   3.301
10869NA      NA33505   6.397   2.364   5.510
10870NA      NA33506   4.315   4.676   5.244
10871NA      NA33507   2.188   3.563   1.752
10872NA      NA33508   4.785   3.740   5.302
10873NA      NA33509   4.294   2.445   5.275
10874NA      NA33510   3.654   4.790   1.632
10875NA      NA33511   6.566   6.110   4.507
10876NA      NA33512   3.624   3.427   4.904
10877NA      NA33513   4.789   6.674   6.483
10878NA      NA33514   2.697   0.349   4.965
10879NA      NA33515   0.451   4.916   2.542
10880NA      NA33516   2.849   0.618   2.793
10881NA      NA33517   3.396   4.284   1.366
10882NA      NA33518   3.500   3.048   2.853
   7.02411   7.02411   7.02411
