Generated by trjconv : CNT in water t= 334.00000
33518
    1C        C    1   2.852   2.775   4.748
    1C        C    2   2.906   2.723   4.868
    1C        C    3   2.850   2.774   4.986
    1C        C    4   2.852   2.776   4.262
    1C        C    5   2.901   2.727   4.385
    1C        C    6   2.847   2.774   4.507
    1C        C    7   3.011   2.634   4.625
    1C        C    8   2.898   2.719   4.627
    1C        C    9   3.077   2.598   4.744
    1C        C   10   3.015   2.634   4.866
    1C        C   11   3.184   2.489   4.976
    1C        C   12   3.067   2.566   4.977
    1C        C   13   2.850   2.769   3.773
    1C        C   14   2.902   2.720   3.895
    1C        C   15   2.850   2.771   4.016
    1C        C   16   3.013   2.639   4.138
    1C        C   17   2.899   2.723   4.140
    1C        C   18   3.075   2.606   4.260
    1C        C   19   3.013   2.642   4.383
    1C        C   20   3.206   2.550   4.504
    1C        C   21   3.073   2.598   4.503
    1C        C   22   3.279   2.530   4.623
    1C        C   23   3.207   2.539   4.744
    1C        C   24   3.414   2.478   4.867
    1C        C   25   3.272   2.495   4.863
    1C        C   26   3.487   2.473   4.986
    1C        C   27   2.847   2.767   3.283
    1C        C   28   2.899   2.719   3.406
    1C        C   29   2.849   2.769   3.528
    1C        C   30   3.011   2.633   3.650
    1C        C   31   2.898   2.718   3.650
    1C        C   32   3.076   2.601   3.771
    1C        C   33   3.013   2.634   3.894
    1C        C   34   3.203   2.543   4.014
    1C        C   35   3.073   2.597   4.017
    1C        C   36   3.272   2.532   4.137
    1C        C   37   3.207   2.556   4.260
    1C        C   38   3.414   2.509   4.381
    1C        C   39   3.275   2.532   4.382
    1C        C   40   3.486   2.500   4.502
    1C        C   41   3.417   2.502   4.625
    1C        C   42   3.630   2.486   4.745
    1C        C   43   3.488   2.482   4.745
    1C        C   44   3.702   2.488   4.866
    1C        C   45   3.626   2.473   4.982
    1C        C   46   2.831   2.745   2.795
    1C        C   47   2.893   2.708   2.917
    1C        C   48   2.843   2.761   3.038
    1C        C   49   3.017   2.641   3.164
    1C        C   50   2.900   2.720   3.160
    1C        C   51   3.076   2.600   3.285
    1C        C   52   3.011   2.633   3.406
    1C        C   53   3.206   2.548   3.530
    1C        C   54   3.072   2.596   3.528
    1C        C   55   3.274   2.523   3.651
    1C        C   56   3.206   2.546   3.773
    1C        C   57   3.414   2.500   3.896
    1C        C   58   3.274   2.522   3.894
    1C        C   59   3.484   2.499   4.019
    1C        C   60   3.411   2.507   4.140
    1C        C   61   3.627   2.508   4.261
    1C        C   62   3.486   2.500   4.259
    1C        C   63   3.701   2.507   4.381
    1C        C   64   3.628   2.500   4.501
    1C        C   65   3.836   2.543   4.621
    1C        C   66   3.699   2.507   4.623
    1C        C   67   3.903   2.565   4.744
    1C        C   68   3.837   2.529   4.864
    1C        C   69   4.054   2.579   4.974
    1C        C   70   3.923   2.529   4.975
    1C        C   71   2.824   2.732   2.311
    1C        C   72   2.881   2.689   2.433
    1C        C   73   2.829   2.744   2.552
    1C        C   74   3.006   2.625   2.675
    1C        C   75   2.886   2.699   2.673
    1C        C   76   3.072   2.596   2.796
    1C        C   77   3.012   2.633   2.919
    1C        C   78   3.204   2.543   3.040
    1C        C   79   3.075   2.602   3.041
    1C        C   80   3.272   2.522   3.162
    1C        C   81   3.205   2.542   3.285
    1C        C   82   3.412   2.499   3.403
    1C        C   83   3.273   2.525   3.408
    1C        C   84   3.481   2.493   3.526
    1C        C   85   3.413   2.502   3.650
    1C        C   86   3.624   2.502   3.770
    1C        C   87   3.483   2.496   3.773
    1C        C   88   3.693   2.514   3.893
    1C        C   89   3.625   2.504   4.016
    1C        C   90   3.833   2.549   4.136
    1C        C   91   3.696   2.514   4.138
    1C        C   92   3.903   2.571   4.257
    1C        C   93   3.837   2.546   4.379
    1C        C   94   4.027   2.641   4.499
    1C        C   95   3.904   2.571   4.501
    1C        C   96   4.090   2.672   4.621
    1C        C   97   4.030   2.629   4.741
    1C        C   98   4.191   2.765   4.864
    1C        C   99   4.101   2.654   4.862
    1C        C  100   4.214   2.841   4.980
    1C        C  101   2.827   2.731   2.075
    1C        C  102   2.987   2.585   2.195
    1C        C  103   2.871   2.669   2.192
    1C        C  104   3.065   2.570   2.313
    1C        C  105   3.001   2.614   2.432
    1C        C  106   3.198   2.532   2.552
    1C        C  107   3.068   2.586   2.553
    1C        C  108   3.267   2.511   2.674
    1C        C  109   3.199   2.534   2.796
    1C        C  110   3.409   2.496   2.914
    1C        C  111   3.269   2.518   2.918
    1C        C  112   3.479   2.492   3.036
    1C        C  113   3.412   2.503   3.159
    1C        C  114   3.624   2.503   3.279
    1C        C  115   3.483   2.495   3.281
    1C        C  116   3.693   2.508   3.402
    1C        C  117   3.622   2.500   3.524
    1C        C  118   3.829   2.546   3.649
    1C        C  119   3.691   2.515   3.646
    1C        C  120   3.897   2.571   3.771
    1C        C  121   3.830   2.549   3.893
    1C        C  122   4.021   2.646   4.011
    1C        C  123   3.898   2.575   4.014
    1C        C  124   4.085   2.677   4.133
    1C        C  125   4.026   2.640   4.256
    1C        C  126   4.196   2.769   4.379
    1C        C  127   4.084   2.683   4.377
    1C        C  128   4.251   2.815   4.501
    1C        C  129   4.198   2.763   4.621
    1C        C  130   4.326   2.932   4.741
    1C        C  131   4.245   2.815   4.743
    1C        C  132   4.355   2.999   4.861
    1C        C  133   4.287   2.960   4.977
    1C        C  134   3.173   2.472   2.080
    1C        C  135   3.039   2.512   2.084
    1C        C  136   3.262   2.484   2.187
    1C        C  137   3.198   2.520   2.308
    1C        C  138   3.405   2.484   2.427
    1C        C  139   3.266   2.509   2.431
    1C        C  140   3.479   2.485   2.547
    1C        C  141   3.407   2.493   2.669
    1C        C  142   3.620   2.492   2.793
    1C        C  143   3.478   2.490   2.791
    1C        C  144   3.692   2.501   2.914
    1C        C  145   3.621   2.490   3.035
    1C        C  146   3.830   2.540   3.156
    1C        C  147   3.693   2.508   3.155
    1C        C  148   3.895   2.568   3.279
    1C        C  149   3.830   2.544   3.402
    1C        C  150   4.018   2.635   3.520
    1C        C  151   3.894   2.566   3.526
    1C        C  152   4.078   2.674   3.642
    1C        C  153   4.021   2.639   3.766
    1C        C  154   4.192   2.767   3.888
    1C        C  155   4.079   2.683   3.887
    1C        C  156   4.242   2.815   4.011
    1C        C  157   4.196   2.764   4.134
    1C        C  158   4.337   2.924   4.253
    1C        C  159   4.248   2.815   4.256
    1C        C  160   4.378   2.982   4.375
    1C        C  161   4.337   2.927   4.498
    1C        C  162   4.437   3.115   4.616
    1C        C  163   4.372   2.989   4.620
    1C        C  164   4.466   3.182   4.737
    1C        C  165   4.433   3.117   4.859
    1C        C  166   4.511   3.320   4.975
    1C        C  167   4.475   3.185   4.974
    1C        C  168   3.478   2.436   2.072
    1C        C  169   3.402   2.464   2.186
    1C        C  170   3.619   2.474   2.306
    1C        C  171   3.477   2.473   2.306
    1C        C  172   3.690   2.488   2.427
    1C        C  173   3.620   2.487   2.549
    1C        C  174   3.826   2.543   2.666
    1C        C  175   3.690   2.503   2.671
    1C        C  176   3.893   2.565   2.788
    1C        C  177   3.828   2.540   2.911
    1C        C  178   4.022   2.627   3.032
    1C        C  179   3.896   2.563   3.033
    1C        C  180   4.082   2.665   3.154
    1C        C  181   4.021   2.631   3.277
    1C        C  182   4.189   2.761   3.398
    1C        C  183   4.081   2.669   3.399
    1C        C  184   4.243   2.808   3.520
    1C        C  185   4.192   2.757   3.642
    1C        C  186   4.333   2.917   3.764
    1C        C  187   4.245   2.806   3.763
    1C        C  188   4.374   2.977   3.885
    1C        C  189   4.335   2.921   4.008
    1C        C  190   4.448   3.102   4.128
    1C        C  191   4.379   2.979   4.130
    1C        C  192   4.473   3.172   4.249
    1C        C  193   4.444   3.107   4.371
    1C        C  194   4.505   3.312   4.494
    1C        C  195   4.461   3.178   4.492
    1C        C  196   4.520   3.385   4.614
    1C        C  197   4.507   3.318   4.738
    1C        C  198   4.542   3.535   4.853
    1C        C  199   4.524   3.394   4.857
    1C        C  200   4.582   3.621   4.961
    1C        C  201   3.617   2.418   2.072
    1C        C  202   3.829   2.505   2.183
    1C        C  203   3.694   2.458   2.186
    1C        C  204   3.898   2.538   2.303
    1C        C  205   3.828   2.522   2.425
    1C        C  206   4.022   2.618   2.545
    1C        C  207   3.895   2.557   2.544
    1C        C  208   4.082   2.660   2.667
    1C        C  209   4.020   2.628   2.790
    1C        C  210   4.197   2.748   2.909
    1C        C  211   4.084   2.664   2.911
    1C        C  212   4.249   2.797   3.031
    1C        C  213   4.195   2.750   3.153
    1C        C  214   4.335   2.911   3.272
    1C        C  215   4.243   2.804   3.275
    1C        C  216   4.373   2.970   3.394
    1C        C  217   4.336   2.914   3.518
    1C        C  218   4.432   3.102   3.637
    1C        C  219   4.373   2.974   3.641
    1C        C  220   4.458   3.167   3.760
    1C        C  221   4.439   3.103   3.884
    1C        C  222   4.501   3.306   4.005
    1C        C  223   4.468   3.169   4.005
    1C        C  224   4.514   3.377   4.126
    1C        C  225   4.504   3.310   4.250
    1C        C  226   4.515   3.523   4.367
    1C        C  227   4.514   3.382   4.371
    1C        C  228   4.506   3.595   4.488
    1C        C  229   4.524   3.526   4.610
    1C        C  230   4.499   3.742   4.724
    1C        C  231   4.527   3.603   4.728
    1C        C  232   4.496   3.820   4.842
    1C        C  233   4.546   3.756   4.956
    1C        C  234   4.022   2.609   2.064
    1C        C  235   3.900   2.542   2.068
    1C        C  236   4.083   2.649   2.184
    1C        C  237   4.024   2.605   2.304
    1C        C  238   4.200   2.733   2.422
    1C        C  239   4.088   2.645   2.423
    1C        C  240   4.250   2.786   2.543
    1C        C  241   4.196   2.742   2.666
    1C        C  242   4.336   2.905   2.784
    1C        C  243   4.250   2.793   2.786
    1C        C  244   4.386   2.959   2.905
    1C        C  245   4.341   2.904   3.027
    1C        C  246   4.441   3.093   3.148
    1C        C  247   4.377   2.967   3.149
    1C        C  248   4.462   3.160   3.270
    1C        C  249   4.437   3.096   3.394
    1C        C  250   4.496   3.303   3.515
    1C        C  251   4.462   3.166   3.514
    1C        C  252   4.505   3.372   3.638
    1C        C  253   4.493   3.304   3.761
    1C        C  254   4.515   3.517   3.879
    1C        C  255   4.507   3.376   3.882
    1C        C  256   4.516   3.589   4.001
    1C        C  257   4.512   3.519   4.123
    1C        C  258   4.487   3.731   4.241
    1C        C  259   4.510   3.591   4.244
    1C        C  260   4.466   3.802   4.361
    1C        C  261   4.479   3.733   4.484
    1C        C  262   4.428   3.944   4.604
    1C        C  263   4.467   3.808   4.603
    1C        C  264   4.398   4.012   4.724
    1C        C  265   4.437   3.948   4.844
    1C        C  266   4.317   4.134   4.961
    1C        C  267   4.390   4.016   4.957
    1C        C  268   4.261   2.772   2.065
    1C        C  269   4.198   2.731   2.183
    1C        C  270   4.353   2.885   2.301
    1C        C  271   4.258   2.778   2.301
    1C        C  272   4.380   2.957   2.419
    1C        C  273   4.340   2.894   2.539
    1C        C  274   4.446   3.081   2.664
    1C        C  275   4.382   2.955   2.660
    1C        C  276   4.475   3.152   2.782
    1C        C  277   4.455   3.082   2.904
    1C        C  278   4.499   3.293   3.026
    1C        C  279   4.472   3.154   3.024
    1C        C  280   4.511   3.366   3.146
    1C        C  281   4.495   3.297   3.269
    1C        C  282   4.511   3.510   3.390
    1C        C  283   4.506   3.369   3.390
    1C        C  284   4.509   3.580   3.512
    1C        C  285   4.509   3.513   3.636
    1C        C  286   4.484   3.726   3.752
    1C        C  287   4.509   3.587   3.757
    1C        C  288   4.471   3.795   3.875
    1C        C  289   4.491   3.729   3.998
    1C        C  290   4.427   3.934   4.117
    1C        C  291   4.472   3.800   4.119
    1C        C  292   4.394   4.000   4.237
    1C        C  293   4.419   3.935   4.360
    1C        C  294   4.323   4.127   4.479
    1C        C  295   4.394   4.005   4.481
    1C        C  296   4.284   4.189   4.599
    1C        C  297   4.324   4.133   4.723
    1C        C  298   4.198   4.314   4.839
    1C        C  299   4.286   4.201   4.842
    1C        C  300   4.165   4.402   4.948
    1C        C  301   4.354   2.876   2.064
    1C        C  302   4.470   3.066   2.177
    1C        C  303   4.400   2.941   2.179
    1C        C  304   4.480   3.144   2.296
    1C        C  305   4.448   3.081   2.418
    1C        C  306   4.509   3.281   2.536
    1C        C  307   4.474   3.145   2.541
    1C        C  308   4.513   3.356   2.656
    1C        C  309   4.504   3.291   2.780
    1C        C  310   4.521   3.502   2.899
    1C        C  311   4.512   3.361   2.903
    1C        C  312   4.515   3.574   3.021
    1C        C  313   4.516   3.507   3.145
    1C        C  314   4.482   3.717   3.263
    1C        C  315   4.509   3.579   3.266
    1C        C  316   4.468   3.787   3.385
    1C        C  317   4.489   3.720   3.508
    1C        C  318   4.421   3.925   3.628
    1C        C  319   4.471   3.793   3.628
    1C        C  320   4.389   3.989   3.750
    1C        C  321   4.421   3.927   3.873
    1C        C  322   4.320   4.115   3.988
    1C        C  323   4.393   3.994   3.994
    1C        C  324   4.280   4.174   4.110
    1C        C  325   4.322   4.122   4.235
    1C        C  326   4.187   4.287   4.354
    1C        C  327   4.281   4.183   4.356
    1C        C  328   4.136   4.341   4.475
    1C        C  329   4.195   4.298   4.596
    1C        C  330   4.025   4.434   4.711
    1C        C  331   4.141   4.353   4.715
    1C        C  332   3.968   4.493   4.826
    1C        C  333   4.054   4.486   4.937
    1C        C  334   4.547   3.268   2.062
    1C        C  335   4.527   3.129   2.062
    1C        C  336   4.537   3.349   2.175
    1C        C  337   4.511   3.282   2.297
    1C        C  338   4.522   3.497   2.411
    1C        C  339   4.521   3.356   2.417
    1C        C  340   4.524   3.568   2.533
    1C        C  341   4.523   3.497   2.655
    1C        C  342   4.488   3.708   2.775
    1C        C  343   4.517   3.570   2.776
    1C        C  344   4.473   3.783   2.895
    1C        C  345   4.492   3.713   3.016
    1C        C  346   4.422   3.914   3.138
    1C        C  347   4.471   3.782   3.138
    1C        C  348   4.393   3.982   3.259
    1C        C  349   4.424   3.922   3.383
    1C        C  350   4.319   4.106   3.500
    1C        C  351   4.394   3.987   3.504
    1C        C  352   4.276   4.165   3.622
    1C        C  353   4.321   4.112   3.745
    1C        C  354   4.178   4.272   3.866
    1C        C  355   4.276   4.169   3.866
    1C        C  356   4.125   4.318   3.988
    1C        C  357   4.182   4.276   4.110
    1C        C  358   4.011   4.405   4.229
    1C        C  359   4.127   4.324   4.231
    1C        C  360   3.949   4.443   4.350
    1C        C  361   4.018   4.419   4.471
    1C        C  362   3.830   4.523   4.593
    1C        C  363   3.960   4.467   4.590
    1C        C  364   3.761   4.550   4.713
    1C        C  365   3.836   4.541   4.832
    1C        C  366   3.626   4.601   4.947
    1C        C  367   3.763   4.576   4.947
    1C        C  368   4.509   3.562   2.051
    1C        C  369   4.528   3.490   2.170
    1C        C  370   4.510   3.707   2.288
    1C        C  371   4.527   3.567   2.288
    1C        C  372   4.486   3.776   2.409
    1C        C  373   4.507   3.708   2.531
    1C        C  374   4.431   3.909   2.650
    1C        C  375   4.476   3.775   2.651
    1C        C  376   4.398   3.979   2.768
    1C        C  377   4.429   3.917   2.891
    1C        C  378   4.324   4.099   3.011
    1C        C  379   4.396   3.978   3.015
    1C        C  380   4.280   4.158   3.132
    1C        C  381   4.318   4.102   3.256
    1C        C  382   4.177   4.262   3.375
    1C        C  383   4.275   4.160   3.377
    1C        C  384   4.126   4.312   3.497
    1C        C  385   4.177   4.265   3.620
    1C        C  386   4.008   4.394   3.740
    1C        C  387   4.125   4.316   3.742
    1C        C  388   3.948   4.432   3.863
    1C        C  389   4.008   4.397   3.986
    1C        C  390   3.816   4.486   4.106
    1C        C  391   3.947   4.434   4.107
    1C        C  392   3.753   4.516   4.228
    1C        C  393   3.821   4.503   4.351
    1C        C  394   3.617   4.553   4.472
    1C        C  395   3.757   4.536   4.473
    1C        C  396   3.544   4.566   4.593
    1C        C  397   3.620   4.566   4.712
    1C        C  398   3.410   4.551   4.839
    1C        C  399   3.548   4.579   4.833
    1C        C  400   3.344   4.520   4.958
    1C        C  401   4.501   3.701   2.050
    1C        C  402   4.454   3.913   2.166
    1C        C  403   4.493   3.778   2.166
    1C        C  404   4.413   3.975   2.286
    1C        C  405   4.437   3.909   2.408
    1C        C  406   4.329   4.095   2.526
    1C        C  407   4.403   3.975   2.528
    1C        C  408   4.280   4.153   2.646
    1C        C  409   4.318   4.095   2.769
    1C        C  410   4.177   4.254   2.887
    1C        C  411   4.274   4.152   2.890
    1C        C  412   4.124   4.302   3.009
    1C        C  413   4.181   4.258   3.131
    1C        C  414   4.001   4.377   3.251
    1C        C  415   4.121   4.302   3.252
    1C        C  416   3.942   4.413   3.374
    1C        C  417   4.009   4.391   3.496
    1C        C  418   3.814   4.475   3.619
    1C        C  419   3.946   4.427   3.617
    1C        C  420   3.747   4.501   3.741
    1C        C  421   3.818   4.487   3.862
    1C        C  422   3.609   4.533   3.986
    1C        C  423   3.748   4.507   3.983
    1C        C  424   3.540   4.541   4.109
    1C        C  425   3.613   4.539   4.230
    1C        C  426   3.402   4.544   4.358
    1C        C  427   3.543   4.545   4.352
    1C        C  428   3.330   4.545   4.479
    1C        C  429   3.403   4.559   4.598
    1C        C  430   3.194   4.516   4.723
    1C        C  431   3.334   4.543   4.720
    1C        C  432   3.125   4.495   4.846
    1C        C  433   3.208   4.489   4.958
    1C        C  434   4.385   4.121   2.051
    1C        C  435   4.443   3.993   2.051
    1C        C  436   4.304   4.161   2.162
    1C        C  437   4.336   4.095   2.284
    1C        C  438   4.187   4.252   2.398
    1C        C  439   4.286   4.151   2.404
    1C        C  440   4.129   4.296   2.519
    1C        C  441   4.185   4.257   2.643
    1C        C  442   4.006   4.374   2.764
    1C        C  443   4.128   4.303   2.764
    1C        C  444   3.941   4.407   2.885
    1C        C  445   4.005   4.377   3.008
    1C        C  446   3.810   4.468   3.128
    1C        C  447   3.942   4.418   3.129
    1C        C  448   3.747   4.492   3.252
    1C        C  449   3.814   4.472   3.375
    1C        C  450   3.609   4.527   3.497
    1C        C  451   3.747   4.500   3.497
    1C        C  452   3.539   4.540   3.619
    1C        C  453   3.609   4.534   3.741
    1C        C  454   3.399   4.546   3.864
    1C        C  455   3.540   4.547   3.864
    1C        C  456   3.332   4.537   3.988
    1C        C  457   3.399   4.539   4.112
    1C        C  458   3.194   4.505   4.239
    1C        C  459   3.331   4.536   4.236
    1C        C  460   3.126   4.484   4.361
    1C        C  461   3.191   4.516   4.482
    1C        C  462   2.995   4.433   4.605
    1C        C  463   3.124   4.491   4.603
    1C        C  464   2.930   4.401   4.726
    1C        C  465   2.991   4.446   4.847
    1C        C  466   2.799   4.337   4.962
    1C        C  467   2.905   4.428   4.960
    1C        C  468   4.122   4.281   2.041
    1C        C  469   4.191   4.248   2.158
    1C        C  470   4.008   4.369   2.274
    1C        C  471   4.129   4.295   2.277
    1C        C  472   3.945   4.402   2.396
    1C        C  473   4.010   4.372   2.518
    1C        C  474   3.815   4.457   2.639
    1C        C  475   3.948   4.407   2.640
    1C        C  476   3.748   4.486   2.759
    1C        C  477   3.813   4.465   2.883
    1C        C  478   3.607   4.514   3.008
    1C        C  479   3.746   4.489   3.004
    1C        C  480   3.537   4.530   3.130
    1C        C  481   3.609   4.521   3.252
    1C        C  482   3.398   4.528   3.377
    1C        C  483   3.539   4.530   3.374
    1C        C  484   3.326   4.525   3.499
    1C        C  485   3.398   4.536   3.620
    1C        C  486   3.190   4.498   3.749
    1C        C  487   3.327   4.530   3.743
    1C        C  488   3.129   4.472   3.874
    1C        C  489   3.195   4.501   3.995
    1C        C  490   3.004   4.410   4.117
    1C        C  491   3.127   4.480   4.117
    1C        C  492   2.940   4.382   4.239
    1C        C  493   2.997   4.426   4.361
    1C        C  494   2.829   4.299   4.484
    1C        C  495   2.936   4.391   4.484
    1C        C  496   2.771   4.256   4.605
    1C        C  497   2.820   4.311   4.725
    1C        C  498   2.664   4.165   4.845
    1C        C  499   2.754   4.275   4.845
    1C        C  500   2.599   4.117   4.960
    1C        C  501   4.006   4.357   2.037
    1C        C  502   3.812   4.456   2.153
    1C        C  503   3.943   4.402   2.153
    1C        C  504   3.744   4.477   2.275
    1C        C  505   3.815   4.456   2.395
    1C        C  506   3.609   4.511   2.519
    1C        C  507   3.746   4.477   2.517
    1C        C  508   3.537   4.512   2.640
    1C        C  509   3.608   4.510   2.762
    1C        C  510   3.397   4.517   2.885
    1C        C  511   3.538   4.516   2.884
    1C        C  512   3.326   4.514   3.008
    1C        C  513   3.396   4.524   3.130
    1C        C  514   3.190   4.492   3.258
    1C        C  515   3.328   4.523   3.254
    1C        C  516   3.122   4.472   3.380
    1C        C  517   3.188   4.499   3.502
    1C        C  518   2.997   4.411   3.627
    1C        C  519   3.125   4.472   3.626
    1C        C  520   2.939   4.376   3.751
    1C        C  521   3.002   4.410   3.873
    1C        C  522   2.834   4.283   3.997
    1C        C  523   2.943   4.372   3.995
    1C        C  524   2.787   4.234   4.121
    1C        C  525   2.834   4.289   4.243
    1C        C  526   2.692   4.131   4.363
    1C        C  527   2.780   4.241   4.364
    1C        C  528   2.649   4.077   4.486
    1C        C  529   2.688   4.141   4.605
    1C        C  530   2.583   3.961   4.732
    1C        C  531   2.638   4.092   4.728
    1C        C  532   2.544   3.901   4.855
    1C        C  533   2.532   3.995   4.963
    1C        C  534   3.619   4.559   2.040
    1C        C  535   3.750   4.509   2.039
    1C        C  536   3.537   4.529   2.153
    1C        C  537   3.605   4.505   2.276
    1C        C  538   3.394   4.511   2.399
    1C        C  539   3.535   4.516   2.398
    1C        C  540   3.322   4.502   2.521
    1C        C  541   3.396   4.506   2.641
    1C        C  542   3.188   4.482   2.768
    1C        C  543   3.326   4.511   2.763
    1C        C  544   3.122   4.460   2.891
    1C        C  545   3.189   4.480   3.013
    1C        C  546   2.995   4.404   3.135
    1C        C  547   3.122   4.467   3.137
    1C        C  548   2.937   4.369   3.259
    1C        C  549   2.996   4.409   3.381
    1C        C  550   2.830   4.281   3.506
    1C        C  551   2.938   4.373   3.505
    1C        C  552   2.779   4.234   3.629
    1C        C  553   2.831   4.285   3.750
    1C        C  554   2.697   4.123   3.875
    1C        C  555   2.786   4.233   3.874
    1C        C  556   2.658   4.064   3.997
    1C        C  557   2.698   4.124   4.118
    1C        C  558   2.599   3.940   4.245
    1C        C  559   2.660   4.067   4.241
    1C        C  560   2.566   3.878   4.368
    1C        C  561   2.590   3.948   4.488
    1C        C  562   2.533   3.750   4.614
    1C        C  563   2.564   3.887   4.613
    1C        C  564   2.516   3.683   4.738
    1C        C  565   2.521   3.760   4.858
    1C        C  566   2.527   3.544   4.979
    1C        C  567   2.526   3.683   4.975
    1C        C  568   3.326   4.480   2.036
    1C        C  569   3.395   4.516   2.153
    1C        C  570   3.187   4.472   2.281
    1C        C  571   3.325   4.505   2.276
    1C        C  572   3.116   4.456   2.402
    1C        C  573   3.183   4.480   2.524
    1C        C  574   2.987   4.405   2.649
    1C        C  575   3.117   4.461   2.648
    1C        C  576   2.929   4.365   2.772
    1C        C  577   2.994   4.400   2.892
    1C        C  578   2.828   4.269   3.017
    1C        C  579   2.935   4.362   3.015
    1C        C  580   2.780   4.221   3.141
    1C        C  581   2.831   4.276   3.262
    1C        C  582   2.692   4.118   3.386
    1C        C  583   2.784   4.225   3.385
    1C        C  584   2.655   4.061   3.510
    1C        C  585   2.694   4.122   3.632
    1C        C  586   2.594   3.935   3.752
    1C        C  587   2.654   4.063   3.754
    1C        C  588   2.571   3.872   3.876
    1C        C  589   2.599   3.936   4.000
    1C        C  590   2.536   3.736   4.124
    1C        C  591   2.569   3.874   4.123
    1C        C  592   2.529   3.669   4.248
    1C        C  593   2.534   3.740   4.370
    1C        C  594   2.519   3.534   4.495
    1C        C  595   2.523   3.675   4.495
    1C        C  596   2.518   3.466   4.619
    1C        C  597   2.512   3.541   4.739
    1C        C  598   2.533   3.329   4.862
    1C        C  599   2.519   3.469   4.860
    1C        C  600   2.535   3.250   4.978
    1C        C  601   3.193   4.443   2.042
    1C        C  602   2.984   4.392   2.162
    1C        C  603   3.120   4.434   2.162
    1C        C  604   2.922   4.361   2.286
    1C        C  605   2.987   4.398   2.406
    1C        C  606   2.819   4.274   2.530
    1C        C  607   2.924   4.368   2.528
    1C        C  608   2.770   4.223   2.652
    1C        C  609   2.823   4.272   2.774
    1C        C  610   2.691   4.106   2.896
    1C        C  611   2.775   4.220   2.896
    1C        C  612   2.651   4.051   3.020
    1C        C  613   2.693   4.110   3.142
    1C        C  614   2.589   3.928   3.267
    1C        C  615   2.655   4.053   3.265
    1C        C  616   2.566   3.865   3.391
    1C        C  617   2.595   3.933   3.511
    1C        C  618   2.525   3.731   3.639
    1C        C  619   2.569   3.866   3.632
    1C        C  620   2.511   3.665   3.763
    1C        C  621   2.527   3.738   3.882
    1C        C  622   2.515   3.523   4.008
    1C        C  623   2.523   3.664   4.003
    1C        C  624   2.519   3.454   4.131
    1C        C  625   2.514   3.528   4.252
    1C        C  626   2.537   3.320   4.377
    1C        C  627   2.519   3.460   4.375
    1C        C  628   2.556   3.254   4.501
    1C        C  629   2.540   3.327   4.621
    1C        C  630   2.600   3.122   4.745
    1C        C  631   2.554   3.257   4.743
    1C        C  632   2.618   3.046   4.863
    1C        C  633   2.558   3.112   4.975
    1C        C  634   2.782   4.308   2.056
    1C        C  635   2.893   4.394   2.052
    1C        C  636   2.749   4.232   2.169
    1C        C  637   2.807   4.277   2.289
    1C        C  638   2.675   4.110   2.412
    1C        C  639   2.764   4.220   2.411
    1C        C  640   2.639   4.050   2.535
    1C        C  641   2.681   4.114   2.655
    1C        C  642   2.584   3.922   2.780
    1C        C  643   2.645   4.049   2.775
    1C        C  644   2.558   3.857   2.903
    1C        C  645   2.589   3.925   3.022
    1C        C  646   2.527   3.723   3.149
    1C        C  647   2.570   3.858   3.146
    1C        C  648   2.512   3.658   3.273
    1C        C  649   2.526   3.730   3.394
    1C        C  650   2.501   3.520   3.523
    1C        C  651   2.512   3.661   3.517
    1C        C  652   2.505   3.449   3.645
    1C        C  653   2.505   3.523   3.765
    1C        C  654   2.524   3.310   3.889
    1C        C  655   2.513   3.451   3.886
    1C        C  656   2.540   3.243   4.012
    1C        C  657   2.531   3.314   4.134
    1C        C  658   2.600   3.114   4.257
    1C        C  659   2.551   3.247   4.257
    1C        C  660   2.633   3.053   4.380
    1C        C  661   2.603   3.120   4.501
    1C        C  662   2.711   2.939   4.626
    1C        C  663   2.632   3.057   4.624
    1C        C  664   2.756   2.879   4.745
    1C        C  665   2.701   2.929   4.866
    1C        C  666   2.743   2.862   4.982
    1C        C  667   2.682   4.028   2.055
    1C        C  668   2.683   4.107   2.171
    1C        C  669   2.588   3.915   2.291
    1C        C  670   2.641   4.047   2.291
    1C        C  671   2.564   3.851   2.415
    1C        C  672   2.586   3.920   2.536
    1C        C  673   2.521   3.718   2.660
    1C        C  674   2.563   3.853   2.659
    1C        C  675   2.510   3.647   2.782
    1C        C  676   2.524   3.720   2.902
    1C        C  677   2.506   3.512   3.031
    1C        C  678   2.518   3.653   3.027
    1C        C  679   2.508   3.444   3.155
    1C        C  680   2.507   3.517   3.277
    1C        C  681   2.537   3.310   3.401
    1C        C  682   2.509   3.449   3.401
    1C        C  683   2.555   3.245   3.525
    1C        C  684   2.526   3.309   3.647
    1C        C  685   2.603   3.112   3.770
    1C        C  686   2.538   3.238   3.769
    1C        C  687   2.627   3.048   3.894
    1C        C  688   2.587   3.109   4.014
    1C        C  689   2.717   2.939   4.137
    1C        C  690   2.628   3.049   4.135
    1C        C  691   2.759   2.882   4.259
    1C        C  692   2.716   2.939   4.381
    1C        C  693   2.757   2.883   4.505
    1C        C  694   2.631   3.898   2.061
    1C        C  695   2.529   3.703   2.177
    1C        C  696   2.576   3.836   2.174
    1C        C  697   2.511   3.637   2.300
    1C        C  698   2.523   3.716   2.417
    1C        C  699   2.495   3.505   2.542
    1C        C  700   2.507   3.646   2.539
    1C        C  701   2.501   3.434   2.665
    1C        C  702   2.501   3.507   2.786
    1C        C  703   2.526   3.299   2.912
    1C        C  704   2.509   3.439   2.910
    1C        C  705   2.546   3.233   3.036
    1C        C  706   2.535   3.306   3.157
    1C        C  707   2.601   3.106   3.279
    1C        C  708   2.556   3.240   3.280
    1C        C  709   2.634   3.047   3.403
    1C        C  710   2.606   3.113   3.525
    1C        C  711   2.712   2.930   3.652
    1C        C  712   2.640   3.052   3.648
    1C        C  713   2.758   2.877   3.774
    1C        C  714   2.714   2.936   3.895
    1C        C  715   2.762   2.881   4.016
    1C        C  716   2.447   3.503   2.065
    1C        C  717   2.492   3.636   2.060
    1C        C  718   2.468   3.423   2.182
    1C        C  719   2.486   3.497   2.301
    1C        C  720   2.514   3.288   2.425
    1C        C  721   2.493   3.428   2.424
    1C        C  722   2.536   3.221   2.547
    1C        C  723   2.524   3.295   2.667
    1C        C  724   2.595   3.097   2.792
    1C        C  725   2.545   3.229   2.790
    1C        C  726   2.627   3.034   2.914
    1C        C  727   2.595   3.101   3.034
    1C        C  728   2.704   2.921   3.160
    1C        C  729   2.626   3.039   3.157
    1C        C  730   2.751   2.871   3.284
    1C        C  731   2.709   2.927   3.406
    1C        C  732   2.754   2.873   3.529
    1C        C  733   2.489   3.196   2.074
    1C        C  734   2.491   3.281   2.185
    1C        C  735   2.589   3.087   2.304
    1C        C  736   2.524   3.213   2.306
    1C        C  737   2.624   3.024   2.426
    1C        C  738   2.589   3.090   2.546
    1C        C  739   2.694   2.909   2.671
    1C        C  740   2.622   3.030   2.670
    1C        C  741   2.736   2.850   2.792
    1C        C  742   2.699   2.913   2.914
    1C        C  743   2.748   2.866   3.038
    1C        C  744   2.550   3.071   2.070
    1C        C  745   2.685   2.898   2.185
    1C        C  746   2.616   3.021   2.183
    1C        C  747   2.731   2.839   2.305
    1C        C  748   2.694   2.902   2.426
    1C        C  749   2.734   2.848   2.550
    1C        C  750   2.741   2.839   2.070
    1C        C  751   3.660   2.322   1.968
    1C        O  752   3.607   2.210   1.948
    1C        O  753   3.700   2.386   1.850
    1C        C  754   4.586   3.059   1.945
    1C        O  755   4.580   3.109   1.830
    1C        O  756   4.696   2.975   1.961
    1C        C  757   4.444   4.221   1.959
    1C        O  758   4.540   4.296   1.992
    1C        O  759   4.402   4.214   1.826
    1C        C  760   3.587   4.667   1.944
    1C        O  761   3.594   4.790   1.971
    1C        O  762   3.559   4.634   1.811
    1C        C  763   2.865   4.511   1.965
    1C        O  764   2.903   4.524   1.846
    1C        O  765   2.769   4.607   1.998
    1C        C  766   2.347   3.480   1.958
    1C        O  767   2.358   3.524   1.841
    1C        O  768   2.213   3.441   1.968
    1C        C  769   4.715   3.616   5.025
    1C        O  770   4.727   3.627   5.150
    1C        O  771   4.820   3.529   4.991
    1C        C  772   4.263   4.442   5.051
    1C        O  773   4.225   4.456   5.171
    1C        O  774   4.360   4.539   5.019
    1C        C  775   4.149   2.503   5.059
    1C        O  776   4.267   2.472   5.029
    1C        O  777   4.142   2.513   5.198
    1C        C  778   2.901   4.534   5.063
    1C        O  779   2.907   4.658   5.042
    1C        O  780   2.913   4.490   5.195
    1C        C  781   2.474   3.032   5.067
    1C        O  782   2.360   2.982   5.047
    1C        O  783   2.503   3.019   5.203
    1C        C  784   2.442   3.984   5.080
    1C        O  785   2.342   4.060   5.094
    1C        O  786   2.493   3.935   5.201
    1C        C  787   2.954   2.452   1.979
    1C        O  788   2.973   2.499   1.864
    1C        O  789   2.936   2.314   1.978
    1C        C  790   3.176   2.355   5.038
    1C        O  791   3.118   2.265   4.972
    1C        O  792   3.161   2.342   5.176
    1C        H  793   4.251   3.034   5.045
    1C        H  794   4.176   2.805   5.073
    1C        H  795   4.498   3.124   5.059
    1C        H  796   4.476   3.370   5.064
    1C        H  797   4.596   3.820   5.025
    1C        H  798   4.447   3.990   5.044
    1C        H  799   4.283   4.165   5.057
    1C        H  800   4.038   4.561   5.011
    1C        H  801   3.813   4.555   5.039
    1C        H  802   3.580   4.672   5.012
    1C        H  803   3.391   4.539   5.052
    1C        H  804   3.166   4.480   5.056
    1C        H  805   3.883   2.493   5.067
    1C        H  806   3.672   2.424   5.066
    1C        H  807   3.009   2.560   5.067
    1C        H  808   3.437   2.505   5.075
    1C        H  809   2.926   2.799   5.058
    1C        H  810   2.662   2.838   5.048
    1C        H  811   2.473   3.284   5.058
    1C        H  812   2.547   3.496   5.072
    1C        H  813   2.473   3.723   5.058
    1C        H  814   2.636   4.151   5.054
    1C        H  815   2.724   4.348   5.037
    1C        H  816   2.701   2.863   1.973
    1C        H  817   2.801   2.659   2.000
    1C        H  818   3.201   2.411   1.996
    1C        H  819   3.435   2.455   1.975
    1C        H  820   3.836   2.565   1.985
    1C        H  821   4.088   2.590   1.982
    1C        H  822   4.260   2.712   1.976
    1C        H  823   4.351   2.933   1.974
    1C        H  824   4.583   3.310   1.970
    1C        H  825   4.542   3.515   1.960
    1C        H  826   4.502   3.751   1.955
    1C        H  827   3.802   4.507   1.945
    1C        H  828   3.962   4.373   1.940
    1C        H  829   4.119   4.206   1.965
    1C        H  830   4.495   3.961   1.964
    1C        H  831   2.615   3.854   1.964
    1C        H  832   2.686   4.069   1.956
    1C        H  833   2.697   4.340   2.000
    1C        H  834   3.376   4.461   1.944
    1C        H  835   3.146   4.438   1.946
    1C        H  836   2.566   3.024   1.975
    1C        H  837   2.412   3.214   2.002
    1C        H  838   2.465   3.694   1.974
    2V3OU   H29  839   2.808   3.546   3.486
    2V3OU   C27  840   2.795   3.504   3.589
    2V3OU   H27  841   2.733   3.576   3.649
    2V3OU   H28  842   2.748   3.403   3.578
    2V3OU   O11  843   2.917   3.478   3.658
    2V3OU   C15  844   2.929   3.403   3.773
    2V3OU   C13  845   3.055   3.372   3.828
    2V3OU   C14  846   3.077   3.263   3.912
    2V3OU   C16  847   2.977   3.181   3.962
    2V3OU    H6  848   2.992   3.098   4.033
    2V3OU   C12  849   3.216   3.227   3.950
    2V3OU    O2  850   3.243   3.129   4.022
    2V3OU   C10  851   3.328   3.311   3.905
    2V3OU    C8  852   3.459   3.272   3.927
    2V3OU   O10  853   3.490   3.151   3.980
    2V3OU   H26  854   3.404   3.119   4.012
    2V3OU    C6  855   3.566   3.348   3.869
    2V3OU    C5  856   3.538   3.465   3.798
    2V3OU    C4  857   3.706   3.298   3.873
    2V3OU    H4  858   3.724   3.225   3.958
    2V3OU    H5  859   3.712   3.229   3.784
    2V3OU    C2  860   3.820   3.400   3.874
    2V3OU    O6  861   3.807   3.477   3.993
    2V3OU   H21  862   3.766   3.556   3.955
    2V3OU    C3  863   3.781   3.495   3.760
    2V3OU    H2  864   3.856   3.578   3.755
    2V3OU    H3  865   3.779   3.435   3.666
    2V3OU   C25  866   3.954   3.328   3.854
    2V3OU    O7  867   3.999   3.297   3.744
    2V3OU   C26  868   4.032   3.290   3.979
    2V3OU   H22  869   4.075   3.379   4.033
    2V3OU   H23  870   4.116   3.222   3.950
    2V3OU    O8  871   3.964   3.212   4.075
    2V3OU   H24  872   3.926   3.271   4.142
    2V3OU    C1  873   3.646   3.565   3.770
    2V3OU    H1  874   3.624   3.618   3.673
    2V3OU    O3  875   3.658   3.655   3.881
    2V3OU   C19  876   3.622   3.793   3.872
    2V3OU    H9  877   3.523   3.806   3.820
    2V3OU    O4  878   3.717   3.850   3.784
    2V3OU   C20  879   3.846   3.872   3.842
    2V3OU   H10  880   3.894   3.772   3.863
    2V3OU   C24  881   3.610   3.859   4.010
    2V3OU   H16  882   3.541   3.798   4.074
    2V3OU   H17  883   3.567   3.960   3.992
    2V3OU   C23  884   3.750   3.870   4.071
    2V3OU   H15  885   3.791   3.765   4.089
    2V3OU    N1  886   3.736   3.949   4.193
    2V3OU   H19  887   3.813   3.927   4.254
    2V3OU   H20  888   3.648   3.934   4.237
    2V3OU   C21  889   3.847   3.946   3.976
    2V3OU   H11  890   3.952   3.932   4.015
    2V3OU    O5  891   3.824   4.086   3.971
    2V3OU   H18  892   3.776   4.107   4.053
    2V3OU   C22  893   3.916   3.948   3.730
    2V3OU   H12  894   3.868   4.049   3.719
    2V3OU   H13  895   3.906   3.893   3.633
    2V3OU   H14  896   4.026   3.958   3.750
    2V3OU   C11  897   3.162   3.472   3.808
    2V3OU    O1  898   3.133   3.588   3.775
    2V3OU    C9  899   3.301   3.424   3.823
    2V3OU    C7  900   3.403   3.502   3.770
    2V3OU    O9  901   3.384   3.618   3.698
    2V3OU   H25  902   3.288   3.632   3.690
    2V3OU   C17  903   2.829   3.322   3.832
    2V3OU    H7  904   2.733   3.351   3.789
    2V3OU   C18  905   2.849   3.222   3.926
    2V3OU    H8  906   2.785   3.184   4.008
    3SOL     OW  907   2.982   4.049   5.492
    3SOL    HW1  908   3.022   4.134   5.528
    3SOL    HW2  909   3.055   3.985   5.470
    4SOL     OW  910   6.311   6.825   6.565
    4SOL    HW1  911   6.224   6.796   6.606
    4SOL    HW2  912   6.337   6.914   6.601
    5SOL     OW  913   4.967   2.295   2.663
    5SOL    HW1  914   4.936   2.299   2.758
    5SOL    HW2  915   4.993   2.386   2.632
    6SOL     OW  916   4.790   2.322   2.943
    6SOL    HW1  917   4.770   2.226   2.923
    6SOL    HW2  918   4.741   2.380   2.878
    7SOL     OW  919   1.070   4.034   4.048
    7SOL    HW1  920   0.985   4.026   4.099
    7SOL    HW2  921   1.147   4.007   4.107
    8SOL     OW  922   2.881   2.110   5.473
    8SOL    HW1  923   2.791   2.113   5.430
    8SOL    HW2  924   2.951   2.109   5.403
    9SOL     OW  925   6.242   1.959   6.358
    9SOL    HW1  926   6.211   1.867   6.384
    9SOL    HW2  927   6.296   1.999   6.431
   10SOL     OW  928   2.907   4.729   4.387
   10SOL    HW1  929   2.907   4.703   4.290
   10SOL    HW2  930   2.813   4.729   4.421
   11SOL     OW  931   1.621   1.166   6.812
   11SOL    HW1  932   1.678   1.099   6.765
   11SOL    HW2  933   1.585   1.126   6.897
   12SOL     OW  934   2.965   4.861   3.932
   12SOL    HW1  935   2.910   4.816   3.862
   12SOL    HW2  936   3.056   4.881   3.896
   13SOL     OW  937   3.950   6.446   3.165
   13SOL    HW1  938   3.953   6.532   3.113
   13SOL    HW2  939   4.033   6.393   3.146
   14SOL     OW  940   4.351   3.704   6.622
   14SOL    HW1  941   4.396   3.716   6.533
   14SOL    HW2  942   4.311   3.791   6.651
   15SOL     OW  943   0.786   6.702   6.383
   15SOL    HW1  944   0.709   6.723   6.444
   15SOL    HW2  945   0.820   6.610   6.402
   16SOL     OW  946   5.704   2.729   6.426
   16SOL    HW1  947   5.781   2.785   6.458
   16SOL    HW2  948   5.620   2.784   6.430
   17SOL     OW  949   5.252   0.451   6.455
   17SOL    HW1  950   5.191   0.460   6.533
   17SOL    HW2  951   5.200   0.452   6.370
   18SOL     OW  952   3.704   1.122   4.808
   18SOL    HW1  953   3.606   1.137   4.798
   18SOL    HW2  954   3.750   1.209   4.828
   19SOL     OW  955   1.092   2.526   1.775
   19SOL    HW1  956   1.043   2.595   1.721
   19SOL    HW2  957   1.065   2.533   1.871
   20SOL     OW  958   5.163   1.979   5.248
   20SOL    HW1  959   5.242   1.923   5.223
   20SOL    HW2  960   5.086   1.919   5.272
   21SOL     OW  961   2.423   0.488   3.520
   21SOL    HW1  962   2.375   0.575   3.524
   21SOL    HW2  963   2.509   0.495   3.571
   22SOL     OW  964   1.066   6.420   6.681
   22SOL    HW1  965   1.050   6.406   6.583
   22SOL    HW2  966   1.116   6.341   6.718
   23SOL     OW  967   3.755   5.450   2.262
   23SOL    HW1  968   3.706   5.364   2.264
   23SOL    HW2  969   3.834   5.442   2.200
   24SOL     OW  970   3.348   0.135   2.739
   24SOL    HW1  971   3.371   0.231   2.751
   24SOL    HW2  972   3.420   0.078   2.779
   25SOL     OW  973   2.204   0.084   3.947
   25SOL    HW1  974   2.174   0.153   3.881
   25SOL    HW2  975   2.158   0.099   4.034
   26SOL     OW  976   0.225   1.976   0.066
   26SOL    HW1  977   0.227   2.012   0.160
   26SOL    HW2  978   0.306   1.920   0.049
   27SOL     OW  979   1.861   1.498   1.727
   27SOL    HW1  980   1.947   1.546   1.710
   27SOL    HW2  981   1.873   1.433   1.802
   28SOL     OW  982   0.140   1.065   4.646
   28SOL    HW1  983   0.055   1.014   4.651
   28SOL    HW2  984   0.217   1.003   4.661
   29SOL     OW  985   6.685   0.570   1.090
   29SOL    HW1  986   6.722   0.500   1.029
   29SOL    HW2  987   6.729   0.562   1.180
   30SOL     OW  988   3.759   0.373   5.185
   30SOL    HW1  989   3.670   0.330   5.171
   30SOL    HW2  990   3.830   0.314   5.146
   31SOL     OW  991   0.428   2.292   5.533
   31SOL    HW1  992   0.501   2.333   5.589
   31SOL    HW2  993   0.467   2.262   5.446
   32SOL     OW  994   1.434   1.331   2.186
   32SOL    HW1  995   1.356   1.346   2.125
   32SOL    HW2  996   1.478   1.419   2.205
   33SOL     OW  997   0.979   4.748   5.221
   33SOL    HW1  998   0.881   4.757   5.201
   33SOL    HW2  999   0.994   4.663   5.273
   34SOL     OW 1000   2.442   5.780   5.035
   34SOL    HW1 1001   2.503   5.704   5.018
   34SOL    HW2 1002   2.383   5.793   4.955
   35SOL     OW 1003   4.374   1.926   5.574
   35SOL    HW1 1004   4.284   1.930   5.531
   35SOL    HW2 1005   4.368   1.957   5.668
   36SOL     OW 1006   4.979   1.218   3.692
   36SOL    HW1 1007   5.020   1.132   3.660
   36SOL    HW2 1008   5.050   1.273   3.736
   37SOL     OW 1009   1.946   1.610   4.947
   37SOL    HW1 1010   2.016   1.615   4.876
   37SOL    HW2 1011   1.984   1.570   5.030
   38SOL     OW 1012   2.198   3.779   1.722
   38SOL    HW1 1013   2.159   3.724   1.796
   38SOL    HW2 1014   2.293   3.753   1.708
   39SOL     OW 1015   6.380   4.699   6.334
   39SOL    HW1 1016   6.457   4.667   6.390
   39SOL    HW2 1017   6.356   4.629   6.267
   40SOL     OW 1018   3.576   1.974   6.981
   40SOL    HW1 1019   3.593   1.880   6.952
   40SOL    HW2 1020   3.623   2.037   6.918
   41SOL     OW 1021   6.623   3.362   2.730
   41SOL    HW1 1022   6.670   3.295   2.788
   41SOL    HW2 1023   6.530   3.331   2.712
   42SOL     OW 1024   3.267   6.018   4.517
   42SOL    HW1 1025   3.177   5.983   4.542
   42SOL    HW2 1026   3.279   6.011   4.418
   43SOL     OW 1027   4.037   0.252   5.596
   43SOL    HW1 1028   4.024   0.167   5.546
   43SOL    HW2 1029   4.131   0.283   5.585
   44SOL     OW 1030   5.812   2.459   5.045
   44SOL    HW1 1031   5.821   2.462   4.945
   44SOL    HW2 1032   5.777   2.369   5.072
   45SOL     OW 1033   4.065   5.404   1.356
   45SOL    HW1 1034   4.146   5.348   1.373
   45SOL    HW2 1035   4.019   5.372   1.274
   46SOL     OW 1036   1.038   2.736   4.097
   46SOL    HW1 1037   0.949   2.773   4.069
   46SOL    HW2 1038   1.031   2.636   4.103
   47SOL     OW 1039   4.327   3.572   1.698
   47SOL    HW1 1040   4.257   3.590   1.630
   47SOL    HW2 1041   4.318   3.636   1.774
   48SOL     OW 1042   6.785   2.646   6.234
   48SOL    HW1 1043   6.840   2.591   6.171
   48SOL    HW2 1044   6.742   2.721   6.183
   49SOL     OW 1045   5.423   2.502   1.476
   49SOL    HW1 1046   5.431   2.587   1.528
   49SOL    HW2 1047   5.490   2.502   1.402
   50SOL     OW 1048   6.118   1.416   5.464
   50SOL    HW1 1049   6.197   1.378   5.416
   50SOL    HW2 1050   6.036   1.366   5.436
   51SOL     OW 1051   1.902   6.295   2.769
   51SOL    HW1 1052   1.938   6.219   2.716
   51SOL    HW2 1053   1.968   6.370   2.770
   52SOL     OW 1054   5.469   2.894   1.839
   52SOL    HW1 1055   5.542   2.950   1.800
   52SOL    HW2 1056   5.471   2.902   1.938
   53SOL     OW 1057   5.479   0.491   3.348
   53SOL    HW1 1058   5.419   0.461   3.423
   53SOL    HW2 1059   5.573   0.465   3.368
   54SOL     OW 1060   5.322   6.975   0.369
   54SOL    HW1 1061   5.281   0.028   0.320
   54SOL    HW2 1062   5.250   6.922   0.414
   55SOL     OW 1063   2.155   2.061   5.015
   55SOL    HW1 1064   2.058   2.076   5.033
   55SOL    HW2 1065   2.208   2.136   5.055
   56SOL     OW 1066   1.234   1.984   1.203
   56SOL    HW1 1067   1.284   1.968   1.117
   56SOL    HW2 1068   1.272   2.065   1.248
   57SOL     OW 1069   3.330   1.129   0.371
   57SOL    HW1 1070   3.320   1.064   0.296
   57SOL    HW2 1071   3.361   1.080   0.453
   58SOL     OW 1072   0.588   6.400   5.680
   58SOL    HW1 1073   0.652   6.476   5.692
   58SOL    HW2 1074   0.554   6.371   5.770
   59SOL     OW 1075   6.787   4.017   6.044
   59SOL    HW1 1076   6.703   4.068   6.029
   59SOL    HW2 1077   6.769   3.942   6.107
   60SOL     OW 1078   5.147   2.510   3.613
   60SOL    HW1 1079   5.093   2.443   3.665
   60SOL    HW2 1080   5.102   2.529   3.526
   61SOL     OW 1081   6.933   0.932   4.644
   61SOL    HW1 1082   6.836   0.950   4.627
   61SOL    HW2 1083   6.963   0.856   4.587
   62SOL     OW 1084   1.893   1.143   1.637
   62SOL    HW1 1085   1.928   1.059   1.595
   62SOL    HW2 1086   1.970   1.201   1.662
   63SOL     OW 1087   3.948   0.333   4.062
   63SOL    HW1 1088   3.939   0.304   3.966
   63SOL    HW2 1089   3.994   0.262   4.114
   64SOL     OW 1090   0.524   3.596   6.469
   64SOL    HW1 1091   0.566   3.598   6.378
   64SOL    HW2 1092   0.593   3.614   6.539
   65SOL     OW 1093   1.295   6.154   5.851
   65SOL    HW1 1094   1.233   6.170   5.775
   65SOL    HW2 1095   1.352   6.235   5.866
   66SOL     OW 1096   3.551   0.074   3.193
   66SOL    HW1 1097   3.505   0.016   3.260
   66SOL    HW2 1098   3.491   0.150   3.168
   67SOL     OW 1099   0.319   3.167   5.989
   67SOL    HW1 1100   0.227   3.128   5.981
   67SOL    HW2 1101   0.349   3.163   6.085
   68SOL     OW 1102   0.218   1.715   6.138
   68SOL    HW1 1103   0.153   1.726   6.213
   68SOL    HW2 1104   0.310   1.703   6.175
   69SOL     OW 1105   1.978   2.810   5.484
   69SOL    HW1 1106   1.992   2.813   5.385
   69SOL    HW2 1107   1.946   2.899   5.516
   70SOL     OW 1108   5.429   5.270   4.811
   70SOL    HW1 1109   5.504   5.212   4.842
   70SOL    HW2 1110   5.463   5.363   4.796
   71SOL     OW 1111   4.513   1.785   3.117
   71SOL    HW1 1112   4.457   1.744   3.046
   71SOL    HW2 1113   4.609   1.758   3.104
   72SOL     OW 1114   0.279   1.056   3.528
   72SOL    HW1 1115   0.197   1.060   3.585
   72SOL    HW2 1116   0.253   1.053   3.432
   73SOL     OW 1117   2.910   0.421   1.316
   73SOL    HW1 1118   2.941   0.327   1.304
   73SOL    HW2 1119   2.816   0.430   1.282
   74SOL     OW 1120   2.571   1.352   6.413
   74SOL    HW1 1121   2.576   1.261   6.456
   74SOL    HW2 1122   2.662   1.393   6.412
   75SOL     OW 1123   3.821   1.611   1.534
   75SOL    HW1 1124   3.838   1.710   1.528
   75SOL    HW2 1125   3.730   1.596   1.573
   76SOL     OW 1126   2.111   3.749   5.993
   76SOL    HW1 1127   2.081   3.723   6.085
   76SOL    HW2 1128   2.041   3.805   5.949
   77SOL     OW 1129   1.667   5.875   3.142
   77SOL    HW1 1130   1.657   5.970   3.173
   77SOL    HW2 1131   1.640   5.813   3.215
   78SOL     OW 1132   4.169   1.481   1.363
   78SOL    HW1 1133   4.173   1.508   1.266
   78SOL    HW2 1134   4.213   1.392   1.374
   79SOL     OW 1135   2.635   5.823   1.710
   79SOL    HW1 1136   2.582   5.849   1.629
   79SOL    HW2 1137   2.576   5.827   1.791
   80SOL     OW 1138   4.034   1.759   4.629
   80SOL    HW1 1139   4.002   1.854   4.629
   80SOL    HW2 1140   4.115   1.752   4.572
   81SOL     OW 1141   2.100   6.946   1.280
   81SOL    HW1 1142   2.014   6.970   1.234
   81SOL    HW2 1143   2.151   0.006   1.298
   82SOL     OW 1144   7.000   6.078   1.714
   82SOL    HW1 1145   0.064   6.030   1.716
   82SOL    HW2 1146   6.998   6.141   1.636
   83SOL     OW 1147   0.732   1.688   6.262
   83SOL    HW1 1148   0.794   1.679   6.340
   83SOL    HW2 1149   0.639   1.701   6.295
   84SOL     OW 1150   6.434   4.405   3.341
   84SOL    HW1 1151   6.470   4.476   3.401
   84SOL    HW2 1152   6.510   4.353   3.301
   85SOL     OW 1153   1.312   0.472   3.492
   85SOL    HW1 1154   1.378   0.487   3.566
   85SOL    HW2 1155   1.327   0.381   3.452
   86SOL     OW 1156   6.724   1.215   6.621
   86SOL    HW1 1157   6.786   1.281   6.580
   86SOL    HW2 1158   6.685   1.254   6.705
   87SOL     OW 1159   3.699   3.468   0.879
   87SOL    HW1 1160   3.650   3.551   0.853
   87SOL    HW2 1161   3.749   3.485   0.964
   88SOL     OW 1162   3.044   1.977   6.561
   88SOL    HW1 1163   3.131   1.954   6.604
   88SOL    HW2 1164   3.060   2.045   6.489
   89SOL     OW 1165   3.315   3.643   0.737
   89SOL    HW1 1166   3.340   3.546   0.733
   89SOL    HW2 1167   3.226   3.656   0.692
   90SOL     OW 1168   4.640   4.683   2.400
   90SOL    HW1 1169   4.630   4.584   2.395
   90SOL    HW2 1170   4.597   4.725   2.320
   91SOL     OW 1171   5.988   4.953   5.997
   91SOL    HW1 1172   5.994   4.856   5.973
   91SOL    HW2 1173   6.037   4.969   6.083
   92SOL     OW 1174   5.076   4.276   0.965
   92SOL    HW1 1175   5.076   4.318   1.055
   92SOL    HW2 1176   5.147   4.318   0.908
   93SOL     OW 1177   3.183   3.764   0.054
   93SOL    HW1 1178   3.095   3.801   0.023
   93SOL    HW2 1179   3.195   3.671   0.018
   94SOL     OW 1180   2.346   6.063   0.943
   94SOL    HW1 1181   2.280   6.041   1.015
   94SOL    HW2 1182   2.319   6.018   0.858
   95SOL     OW 1183   1.737   0.938   3.033
   95SOL    HW1 1184   1.812   0.994   2.998
   95SOL    HW2 1185   1.774   0.852   3.071
   96SOL     OW 1186   5.132   5.971   6.860
   96SOL    HW1 1187   5.133   5.905   6.785
   96SOL    HW2 1188   5.046   6.022   6.858
   97SOL     OW 1189   2.186   4.261   4.975
   97SOL    HW1 1190   2.225   4.353   4.968
   97SOL    HW2 1191   2.249   4.202   5.024
   98SOL     OW 1192   0.991   2.075   0.884
   98SOL    HW1 1193   0.900   2.055   0.847
   98SOL    HW2 1194   1.011   2.012   0.959
   99SOL     OW 1195   3.390   4.029   2.644
   99SOL    HW1 1196   3.462   4.083   2.687
   99SOL    HW2 1197   3.367   4.069   2.555
  100SOL     OW 1198   6.784   0.390   4.337
  100SOL    HW1 1199   6.762   0.395   4.239
  100SOL    HW2 1200   6.780   0.295   4.367
  101SOL     OW 1201   0.525   5.695   2.485
  101SOL    HW1 1202   0.503   5.620   2.423
  101SOL    HW2 1203   0.444   5.752   2.499
  102SOL     OW 1204   3.258   5.663   2.591
  102SOL    HW1 1205   3.338   5.631   2.641
  102SOL    HW2 1206   3.254   5.619   2.501
  103SOL     OW 1207   1.605   1.774   2.697
  103SOL    HW1 1208   1.678   1.815   2.642
  103SOL    HW2 1209   1.582   1.684   2.661
  104SOL     OW 1210   1.490   4.920   1.911
  104SOL    HW1 1211   1.589   4.903   1.910
  104SOL    HW2 1212   1.473   5.008   1.955
  105SOL     OW 1213   5.186   1.418   5.863
  105SOL    HW1 1214   5.217   1.490   5.925
  105SOL    HW2 1215   5.197   1.448   5.768
  106SOL     OW 1216   4.842   5.232   2.097
  106SOL    HW1 1217   4.812   5.297   2.168
  106SOL    HW2 1218   4.868   5.146   2.141
  107SOL     OW 1219   6.382   0.644   6.532
  107SOL    HW1 1220   6.414   0.638   6.627
  107SOL    HW2 1221   6.458   0.674   6.473
  108SOL     OW 1222   3.541   6.830   5.459
  108SOL    HW1 1223   3.623   6.877   5.428
  108SOL    HW2 1224   3.482   6.894   5.508
  109SOL     OW 1225   2.841   0.570   2.640
  109SOL    HW1 1226   2.777   0.494   2.633
  109SOL    HW2 1227   2.855   0.592   2.737
  110SOL     OW 1228   2.366   5.147   4.947
  110SOL    HW1 1229   2.276   5.165   4.909
  110SOL    HW2 1230   2.430   5.122   4.874
  111SOL     OW 1231   1.207   1.288   2.912
  111SOL    HW1 1232   1.153   1.286   2.996
  111SOL    HW2 1233   1.173   1.360   2.851
  112SOL     OW 1234   4.971   6.732   6.734
  112SOL    HW1 1235   5.026   6.813   6.718
  112SOL    HW2 1236   4.889   6.735   6.676
  113SOL     OW 1237   6.940   6.261   2.419
  113SOL    HW1 1238   6.968   6.338   2.362
  113SOL    HW2 1239   6.912   6.295   2.509
  114SOL     OW 1240   1.472   5.619   1.806
  114SOL    HW1 1241   1.486   5.643   1.902
  114SOL    HW2 1242   1.549   5.654   1.751
  115SOL     OW 1243   6.014   0.758   3.299
  115SOL    HW1 1244   6.041   0.838   3.352
  115SOL    HW2 1245   6.067   0.755   3.215
  116SOL     OW 1246   0.060   6.111   1.329
  116SOL    HW1 1247   0.148   6.092   1.285
  116SOL    HW2 1248   0.006   6.026   1.333
  117SOL     OW 1249   2.276   0.714   0.275
  117SOL    HW1 1250   2.281   0.761   0.186
  117SOL    HW2 1251   2.307   0.620   0.264
  118SOL     OW 1252   1.841   1.989   3.199
  118SOL    HW1 1253   1.802   2.081   3.196
  118SOL    HW2 1254   1.770   1.922   3.175
  119SOL     OW 1255   0.252   6.902   6.510
  119SOL    HW1 1256   0.276   6.836   6.438
  119SOL    HW2 1257   0.325   6.905   6.578
  120SOL     OW 1258   4.611   0.214   4.372
  120SOL    HW1 1259   4.682   0.193   4.306
  120SOL    HW2 1260   4.636   0.298   4.422
  121SOL     OW 1261   1.653   4.097   0.369
  121SOL    HW1 1262   1.673   4.171   0.305
  121SOL    HW2 1263   1.569   4.050   0.340
  122SOL     OW 1264   1.433   3.498   0.042
  122SOL    HW1 1265   1.443   3.563   6.990
  122SOL    HW2 1266   1.412   3.548   0.126
  123SOL     OW 1267   1.264   0.973   2.145
  123SOL    HW1 1268   1.296   0.890   2.191
  123SOL    HW2 1269   1.177   1.002   2.186
  124SOL     OW 1270   3.138   1.900   0.551
  124SOL    HW1 1271   3.146   1.987   0.599
  124SOL    HW2 1272   3.071   1.908   0.477
  125SOL     OW 1273   3.120   2.422   0.332
  125SOL    HW1 1274   3.124   2.520   0.346
  125SOL    HW2 1275   3.130   2.401   0.235
  126SOL     OW 1276   3.554   3.256   3.289
  126SOL    HW1 1277   3.604   3.213   3.214
  126SOL    HW2 1278   3.619   3.283   3.360
  127SOL     OW 1279   6.584   6.123   5.726
  127SOL    HW1 1280   6.573   6.128   5.626
  127SOL    HW2 1281   6.611   6.213   5.760
  128SOL     OW 1282   5.334   3.136   2.086
  128SOL    HW1 1283   5.433   3.152   2.079
  128SOL    HW2 1284   5.301   3.097   2.000
  129SOL     OW 1285   3.072   4.549   1.012
  129SOL    HW1 1286   3.147   4.496   0.973
  129SOL    HW2 1287   3.104   4.641   1.032
  130SOL     OW 1288   6.445   0.684   4.720
  130SOL    HW1 1289   6.506   0.736   4.780
  130SOL    HW2 1290   6.474   0.694   4.625
  131SOL     OW 1291   6.041   1.105   4.742
  131SOL    HW1 1292   6.047   1.116   4.841
  131SOL    HW2 1293   6.115   1.047   4.710
  132SOL     OW 1294   3.351   3.253   1.490
  132SOL    HW1 1295   3.391   3.295   1.409
  132SOL    HW2 1296   3.252   3.244   1.477
  133SOL     OW 1297   5.270   1.526   3.266
  133SOL    HW1 1298   5.209   1.454   3.300
  133SOL    HW2 1299   5.217   1.597   3.220
  134SOL     OW 1300   0.947   0.332   2.439
  134SOL    HW1 1301   0.848   0.330   2.425
  134SOL    HW2 1302   0.985   0.413   2.394
  135SOL     OW 1303   5.231   3.074   3.982
  135SOL    HW1 1304   5.277   3.005   3.927
  135SOL    HW2 1305   5.132   3.066   3.970
  136SOL     OW 1306   2.425   6.666   4.347
  136SOL    HW1 1307   2.355   6.705   4.408
  136SOL    HW2 1308   2.404   6.691   4.253
  137SOL     OW 1309   4.581   0.847   4.572
  137SOL    HW1 1310   4.545   0.940   4.571
  137SOL    HW2 1311   4.529   0.790   4.509
  138SOL     OW 1312   0.994   4.605   3.328
  138SOL    HW1 1313   0.934   4.589   3.250
  138SOL    HW2 1314   1.086   4.571   3.308
  139SOL     OW 1315   2.802   5.630   6.322
  139SOL    HW1 1316   2.707   5.662   6.327
  139SOL    HW2 1317   2.813   5.550   6.381
  140SOL     OW 1318   1.909   6.694   2.836
  140SOL    HW1 1319   1.899   6.792   2.822
  140SOL    HW2 1320   1.827   6.659   2.883
  141SOL     OW 1321   6.824   2.993   6.046
  141SOL    HW1 1322   6.806   3.019   5.951
  141SOL    HW2 1323   6.749   2.936   6.079
  142SOL     OW 1324   2.074   3.631   1.498
  142SOL    HW1 1325   2.056   3.535   1.518
  142SOL    HW2 1326   2.130   3.670   1.572
  143SOL     OW 1327   5.779   5.590   1.059
  143SOL    HW1 1328   5.793   5.564   0.963
  143SOL    HW2 1329   5.865   5.580   1.109
  144SOL     OW 1330   2.595   4.655   4.814
  144SOL    HW1 1331   2.686   4.694   4.824
  144SOL    HW2 1332   2.557   4.633   4.904
  145SOL     OW 1333   1.341   5.289   1.833
  145SOL    HW1 1334   1.410   5.361   1.834
  145SOL    HW2 1335   1.273   5.307   1.904
  146SOL     OW 1336   5.065   0.960   5.794
  146SOL    HW1 1337   5.006   0.985   5.717
  146SOL    HW2 1338   5.149   1.014   5.791
  147SOL     OW 1339   4.965   1.069   4.933
  147SOL    HW1 1340   4.930   1.021   5.014
  147SOL    HW2 1341   4.918   1.034   4.852
  148SOL     OW 1342   1.157   5.610   1.382
  148SOL    HW1 1343   1.063   5.638   1.403
  148SOL    HW2 1344   1.221   5.677   1.419
  149SOL     OW 1345   3.154   1.813   4.851
  149SOL    HW1 1346   3.158   1.741   4.782
  149SOL    HW2 1347   3.206   1.785   4.932
  150SOL     OW 1348   4.556   0.453   6.115
  150SOL    HW1 1349   4.493   0.523   6.150
  150SOL    HW2 1350   4.625   0.434   6.185
  151SOL     OW 1351   3.742   0.852   1.932
  151SOL    HW1 1352   3.803   0.799   1.873
  151SOL    HW2 1353   3.665   0.887   1.878
  152SOL     OW 1354   6.587   1.470   0.422
  152SOL    HW1 1355   6.687   1.473   0.426
  152SOL    HW2 1356   6.549   1.548   0.473
  153SOL     OW 1357   2.418   0.266   3.691
  153SOL    HW1 1358   2.456   0.274   3.783
  153SOL    HW2 1359   2.394   0.356   3.657
  154SOL     OW 1360   6.762   2.726   0.427
  154SOL    HW1 1361   6.821   2.706   0.349
  154SOL    HW2 1362   6.674   2.759   0.395
  155SOL     OW 1363   1.081   6.795   2.044
  155SOL    HW1 1364   1.155   6.783   2.110
  155SOL    HW2 1365   1.026   6.874   2.071
  156SOL     OW 1366   5.972   1.184   0.105
  156SOL    HW1 1367   6.001   1.280   0.103
  156SOL    HW2 1368   6.022   1.136   0.177
  157SOL     OW 1369   5.929   2.584   0.082
  157SOL    HW1 1370   5.965   2.676   0.094
  157SOL    HW2 1371   5.967   2.543   7.023
  158SOL     OW 1372   1.518   2.472   1.484
  158SOL    HW1 1373   1.523   2.413   1.404
  158SOL    HW2 1374   1.469   2.426   1.557
  159SOL     OW 1375   4.391   4.832   1.352
  159SOL    HW1 1376   4.438   4.862   1.435
  159SOL    HW2 1377   4.340   4.909   1.314
  160SOL     OW 1378   6.627   0.035   1.401
  160SOL    HW1 1379   6.600   6.963   1.399
  160SOL    HW2 1380   6.624   0.073   1.308
  161SOL     OW 1381   1.531   6.938   2.164
  161SOL    HW1 1382   1.588   6.937   2.082
  161SOL    HW2 1383   1.496   0.007   2.179
  162SOL     OW 1384   2.911   0.176   0.134
  162SOL    HW1 1385   2.977   0.108   0.102
  162SOL    HW2 1386   2.862   0.215   0.056
  163SOL     OW 1387   0.625   5.011   3.110
  163SOL    HW1 1388   0.685   5.027   3.031
  163SOL    HW2 1389   0.657   4.930   3.160
  164SOL     OW 1390   0.773   2.318   2.861
  164SOL    HW1 1391   0.724   2.274   2.936
  164SOL    HW2 1392   0.717   2.393   2.825
  165SOL     OW 1393   5.994   5.610   1.218
  165SOL    HW1 1394   6.075   5.558   1.190
  165SOL    HW2 1395   5.989   5.694   1.163
  166SOL     OW 1396   6.687   3.686   1.910
  166SOL    HW1 1397   6.685   3.780   1.875
  166SOL    HW2 1398   6.671   3.688   2.009
  167SOL     OW 1399   5.811   1.666   6.464
  167SOL    HW1 1400   5.738   1.604   6.491
  167SOL    HW2 1401   5.900   1.622   6.479
  168SOL     OW 1402   4.023   2.044   1.379
  168SOL    HW1 1403   4.072   2.041   1.292
  168SOL    HW2 1404   4.013   2.138   1.410
  169SOL     OW 1405   6.195   3.173   6.905
  169SOL    HW1 1406   6.187   3.264   6.865
  169SOL    HW2 1407   6.123   3.160   6.973
  170SOL     OW 1408   6.812   5.561   2.963
  170SOL    HW1 1409   6.880   5.630   2.986
  170SOL    HW2 1410   6.733   5.570   3.023
  171SOL     OW 1411   1.709   3.590   6.642
  171SOL    HW1 1412   1.646   3.619   6.570
  171SOL    HW2 1413   1.797   3.638   6.630
  172SOL     OW 1414   6.793   2.476   2.281
  172SOL    HW1 1415   6.696   2.499   2.292
  172SOL    HW2 1416   6.801   2.381   2.254
  173SOL     OW 1417   5.947   1.443   4.749
  173SOL    HW1 1418   5.947   1.488   4.659
  173SOL    HW2 1419   6.019   1.374   4.751
  174SOL     OW 1420   5.230   5.134   4.707
  174SOL    HW1 1421   5.318   5.155   4.749
  174SOL    HW2 1422   5.173   5.216   4.705
  175SOL     OW 1423   3.113   0.692   1.979
  175SOL    HW1 1424   3.104   0.712   1.881
  175SOL    HW2 1425   3.179   0.754   2.021
  176SOL     OW 1426   5.071   4.302   3.272
  176SOL    HW1 1427   5.004   4.312   3.346
  176SOL    HW2 1428   5.024   4.304   3.184
  177SOL     OW 1429   5.133   2.235   5.141
  177SOL    HW1 1430   5.221   2.281   5.153
  177SOL    HW2 1431   5.137   2.145   5.184
  178SOL     OW 1432   3.248   4.972   4.604
  178SOL    HW1 1433   3.307   4.909   4.654
  178SOL    HW2 1434   3.260   5.064   4.640
  179SOL     OW 1435   4.719   6.685   6.602
  179SOL    HW1 1436   4.720   6.723   6.509
  179SOL    HW2 1437   4.708   6.586   6.597
  180SOL     OW 1438   2.432   6.644   0.408
  180SOL    HW1 1439   2.349   6.591   0.429
  180SOL    HW2 1440   2.448   6.711   0.479
  181SOL     OW 1441   3.722   2.775   5.731
  181SOL    HW1 1442   3.627   2.765   5.701
  181SOL    HW2 1443   3.783   2.733   5.664
  182SOL     OW 1444   5.148   2.697   6.713
  182SOL    HW1 1445   5.051   2.696   6.738
  182SOL    HW2 1446   5.196   2.763   6.772
  183SOL     OW 1447   4.173   2.289   3.885
  183SOL    HW1 1448   4.229   2.362   3.847
  183SOL    HW2 1449   4.120   2.246   3.812
  184SOL     OW 1450   0.459   6.637   3.617
  184SOL    HW1 1451   0.478   6.675   3.707
  184SOL    HW2 1452   0.527   6.671   3.552
  185SOL     OW 1453   1.026   1.564   3.890
  185SOL    HW1 1454   1.058   1.618   3.812
  185SOL    HW2 1455   1.010   1.470   3.860
  186SOL     OW 1456   5.771   6.807   4.519
  186SOL    HW1 1457   5.795   6.719   4.559
  186SOL    HW2 1458   5.758   6.874   4.592
  187SOL     OW 1459   4.812   6.187   2.376
  187SOL    HW1 1460   4.808   6.222   2.283
  187SOL    HW2 1461   4.732   6.130   2.394
  188SOL     OW 1462   0.932   2.925   3.320
  188SOL    HW1 1463   0.964   2.992   3.387
  188SOL    HW2 1464   0.951   2.957   3.228
  189SOL     OW 1465   0.409   4.626   6.504
  189SOL    HW1 1466   0.383   4.698   6.441
  189SOL    HW2 1467   0.493   4.651   6.551
  190SOL     OW 1468   6.198   4.911   6.958
  190SOL    HW1 1469   6.252   4.993   6.937
  190SOL    HW2 1470   6.103   4.927   6.933
  191SOL     OW 1471   6.868   1.397   5.685
  191SOL    HW1 1472   6.948   1.402   5.626
  191SOL    HW2 1473   6.804   1.471   5.662
  192SOL     OW 1474   0.188   4.982   1.847
  192SOL    HW1 1475   0.110   5.042   1.831
  192SOL    HW2 1476   0.255   4.994   1.774
  193SOL     OW 1477   4.834   4.325   5.417
  193SOL    HW1 1478   4.913   4.292   5.468
  193SOL    HW2 1479   4.764   4.253   5.413
  194SOL     OW 1480   3.897   0.166   2.676
  194SOL    HW1 1481   3.968   0.236   2.685
  194SOL    HW2 1482   3.936   0.085   2.632
  195SOL     OW 1483   1.913   0.761   3.564
  195SOL    HW1 1484   2.011   0.779   3.574
  195SOL    HW2 1485   1.887   0.767   3.468
  196SOL     OW 1486   3.528   6.622   0.373
  196SOL    HW1 1487   3.612   6.661   0.335
  196SOL    HW2 1488   3.501   6.673   0.455
  197SOL     OW 1489   3.143   6.135   0.053
  197SOL    HW1 1490   3.057   6.180   0.074
  197SOL    HW2 1491   3.219   6.198   0.068
  198SOL     OW 1492   4.712   6.718   1.204
  198SOL    HW1 1493   4.703   6.810   1.241
  198SOL    HW2 1494   4.626   6.689   1.164
  199SOL     OW 1495   6.823   0.946   2.624
  199SOL    HW1 1496   6.753   0.890   2.581
  199SOL    HW2 1497   6.913   0.918   2.591
  200SOL     OW 1498   1.000   4.181   2.596
  200SOL    HW1 1499   0.999   4.119   2.675
  200SOL    HW2 1500   1.016   4.127   2.513
  201SOL     OW 1501   3.110   6.622   5.981
  201SOL    HW1 1502   3.205   6.622   5.950
  201SOL    HW2 1503   3.049   6.623   5.901
  202SOL     OW 1504   4.764   0.445   5.177
  202SOL    HW1 1505   4.765   0.442   5.277
  202SOL    HW2 1506   4.825   0.517   5.144
  203SOL     OW 1507   4.992   2.223   4.888
  203SOL    HW1 1508   5.053   2.224   4.967
  203SOL    HW2 1509   4.994   2.312   4.843
  204SOL     OW 1510   0.626   0.027   6.294
  204SOL    HW1 1511   0.715   0.070   6.279
  204SOL    HW2 1512   0.555   0.097   6.295
  205SOL     OW 1513   1.240   1.355   1.783
  205SOL    HW1 1514   1.183   1.277   1.756
  205SOL    HW2 1515   1.299   1.381   1.707
  206SOL     OW 1516   0.538   4.934   2.508
  206SOL    HW1 1517   0.577   5.000   2.444
  206SOL    HW2 1518   0.610   4.871   2.539
  207SOL     OW 1519   3.638   0.710   5.239
  207SOL    HW1 1520   3.727   0.756   5.235
  207SOL    HW2 1521   3.648   0.616   5.204
  208SOL     OW 1522   5.005   3.488   5.955
  208SOL    HW1 1523   5.047   3.418   5.897
  208SOL    HW2 1524   4.961   3.556   5.897
  209SOL     OW 1525   1.244   5.697   5.996
  209SOL    HW1 1526   1.228   5.722   6.091
  209SOL    HW2 1527   1.248   5.780   5.940
  210SOL     OW 1528   4.248   1.961   2.713
  210SOL    HW1 1529   4.259   2.011   2.627
  210SOL    HW2 1530   4.171   1.898   2.706
  211SOL     OW 1531   1.026   6.243   3.676
  211SOL    HW1 1532   0.927   6.244   3.668
  211SOL    HW2 1533   1.053   6.203   3.763
  212SOL     OW 1534   2.071   4.114   1.865
  212SOL    HW1 1535   2.067   4.211   1.889
  212SOL    HW2 1536   2.167   4.085   1.861
  213SOL     OW 1537   4.586   1.077   6.701
  213SOL    HW1 1538   4.640   1.124   6.772
  213SOL    HW2 1539   4.490   1.104   6.709
  214SOL     OW 1540   2.569   5.737   2.811
  214SOL    HW1 1541   2.510   5.739   2.731
  214SOL    HW2 1542   2.522   5.778   2.889
  215SOL     OW 1543   2.995   3.798   1.751
  215SOL    HW1 1544   3.026   3.793   1.656
  215SOL    HW2 1545   3.035   3.877   1.796
  216SOL     OW 1546   1.566   6.455   4.596
  216SOL    HW1 1547   1.527   6.513   4.667
  216SOL    HW2 1548   1.611   6.376   4.639
  217SOL     OW 1549   2.023   2.844   5.222
  217SOL    HW1 1550   2.038   2.924   5.163
  217SOL    HW2 1551   2.067   2.764   5.182
  218SOL     OW 1552   1.345   2.482   5.209
  218SOL    HW1 1553   1.273   2.551   5.212
  218SOL    HW2 1554   1.369   2.463   5.113
  219SOL     OW 1555   3.680   5.242   6.005
  219SOL    HW1 1556   3.713   5.174   6.071
  219SOL    HW2 1557   3.723   5.330   6.022
  220SOL     OW 1558   3.427   5.611   0.113
  220SOL    HW1 1559   3.396   5.576   0.201
  220SOL    HW2 1560   3.467   5.702   0.126
  221SOL     OW 1561   6.463   4.169   2.452
  221SOL    HW1 1562   6.550   4.124   2.432
  221SOL    HW2 1563   6.431   4.218   2.371
  222SOL     OW 1564   2.265   4.880   5.800
  222SOL    HW1 1565   2.299   4.948   5.735
  222SOL    HW2 1566   2.188   4.831   5.760
  223SOL     OW 1567   0.211   3.946   0.618
  223SOL    HW1 1568   0.295   3.962   0.566
  223SOL    HW2 1569   0.132   3.972   0.563
  224SOL     OW 1570   2.638   2.438   3.848
  224SOL    HW1 1571   2.562   2.501   3.863
  224SOL    HW2 1572   2.708   2.453   3.918
  225SOL     OW 1573   5.279   1.610   6.030
  225SOL    HW1 1574   5.340   1.689   6.018
  225SOL    HW2 1575   5.326   1.540   6.083
  226SOL     OW 1576   0.418   6.776   6.867
  226SOL    HW1 1577   0.335   6.729   6.838
  226SOL    HW2 1578   0.407   6.874   6.854
  227SOL     OW 1579   1.074   4.681   2.212
  227SOL    HW1 1580   1.050   4.755   2.275
  227SOL    HW2 1581   1.157   4.636   2.245
  228SOL     OW 1582   2.861   6.674   3.692
  228SOL    HW1 1583   2.937   6.709   3.747
  228SOL    HW2 1584   2.894   6.603   3.630
  229SOL     OW 1585   6.081   5.608   0.485
  229SOL    HW1 1586   6.105   5.531   0.426
  229SOL    HW2 1587   6.122   5.692   0.449
  230SOL     OW 1588   3.405   4.946   3.583
  230SOL    HW1 1589   3.461   4.874   3.542
  230SOL    HW2 1590   3.452   4.984   3.663
  231SOL     OW 1591   6.221   2.349   6.069
  231SOL    HW1 1592   6.168   2.265   6.081
  231SOL    HW2 1593   6.248   2.385   6.159
  232SOL     OW 1594   0.740   4.317   6.349
  232SOL    HW1 1595   0.706   4.330   6.256
  232SOL    HW2 1596   0.664   4.319   6.413
  233SOL     OW 1597   2.521   1.347   4.447
  233SOL    HW1 1598   2.612   1.386   4.456
  233SOL    HW2 1599   2.515   1.295   4.361
  234SOL     OW 1600   2.778   5.991   5.057
  234SOL    HW1 1601   2.805   5.926   4.986
  234SOL    HW2 1602   2.698   5.956   5.105
  235SOL     OW 1603   3.414   3.140   2.916
  235SOL    HW1 1604   3.388   3.072   2.985
  235SOL    HW2 1605   3.354   3.220   2.925
  236SOL     OW 1606   5.919   2.863   6.524
  236SOL    HW1 1607   5.975   2.811   6.589
  236SOL    HW2 1608   5.868   2.933   6.573
  237SOL     OW 1609   0.159   6.652   0.352
  237SOL    HW1 1610   0.131   6.654   0.257
  237SOL    HW2 1611   0.250   6.693   0.361
  238SOL     OW 1612   6.699   3.110   0.323
  238SOL    HW1 1613   6.608   3.103   0.364
  238SOL    HW2 1614   6.699   3.065   0.234
  239SOL     OW 1615   6.635   4.659   0.511
  239SOL    HW1 1616   6.675   4.635   0.423
  239SOL    HW2 1617   6.622   4.758   0.516
  240SOL     OW 1618   0.375   3.092   5.248
  240SOL    HW1 1619   0.440   3.052   5.314
  240SOL    HW2 1620   0.391   3.053   5.158
  241SOL     OW 1621   0.712   0.974   3.563
  241SOL    HW1 1622   0.644   1.018   3.622
  241SOL    HW2 1623   0.722   0.878   3.589
  242SOL     OW 1624   1.847   2.584   5.568
  242SOL    HW1 1625   1.815   2.607   5.659
  242SOL    HW2 1626   1.867   2.669   5.518
  243SOL     OW 1627   4.720   0.414   5.453
  243SOL    HW1 1628   4.794   0.347   5.464
  243SOL    HW2 1629   4.730   0.486   5.522
  244SOL     OW 1630   4.804   2.874   4.118
  244SOL    HW1 1631   4.805   2.918   4.207
  244SOL    HW2 1632   4.719   2.820   4.108
  245SOL     OW 1633   6.641   3.082   4.597
  245SOL    HW1 1634   6.672   3.146   4.527
  245SOL    HW2 1635   6.622   3.131   4.682
  246SOL     OW 1636   5.319   3.397   3.354
  246SOL    HW1 1637   5.364   3.363   3.272
  246SOL    HW2 1638   5.371   3.370   3.435
  247SOL     OW 1639   2.496   1.638   2.839
  247SOL    HW1 1640   2.517   1.546   2.870
  247SOL    HW2 1641   2.491   1.700   2.918
  248SOL     OW 1642   4.600   2.451   3.658
  248SOL    HW1 1643   4.519   2.425   3.605
  248SOL    HW2 1644   4.650   2.522   3.608
  249SOL     OW 1645   3.796   0.264   4.793
  249SOL    HW1 1646   3.699   0.277   4.773
  249SOL    HW2 1647   3.841   0.353   4.798
  250SOL     OW 1648   5.175   1.895   5.563
  250SOL    HW1 1649   5.175   1.832   5.485
  250SOL    HW2 1650   5.169   1.989   5.530
  251SOL     OW 1651   4.023   4.386   6.441
  251SOL    HW1 1652   3.963   4.383   6.360
  251SOL    HW2 1653   4.073   4.473   6.443
  252SOL     OW 1654   0.190   1.401   6.098
  252SOL    HW1 1655   0.133   1.466   6.148
  252SOL    HW2 1656   0.148   1.380   6.010
  253SOL     OW 1657   2.486   4.450   0.251
  253SOL    HW1 1658   2.477   4.545   0.220
  253SOL    HW2 1659   2.583   4.429   0.266
  254SOL     OW 1660   6.857   2.705   3.746
  254SOL    HW1 1661   6.936   2.719   3.805
  254SOL    HW2 1662   6.860   2.770   3.670
  255SOL     OW 1663   2.717   2.054   3.967
  255SOL    HW1 1664   2.711   2.005   4.054
  255SOL    HW2 1665   2.772   2.136   3.979
  256SOL     OW 1666   6.307   4.714   6.803
  256SOL    HW1 1667   6.276   4.784   6.866
  256SOL    HW2 1668   6.235   4.646   6.790
  257SOL     OW 1669   3.529   5.084   5.839
  257SOL    HW1 1670   3.575   5.141   5.908
  257SOL    HW2 1671   3.442   5.128   5.814
  258SOL     OW 1672   5.306   3.570   4.948
  258SOL    HW1 1673   5.340   3.639   4.885
  258SOL    HW2 1674   5.346   3.584   5.039
  259SOL     OW 1675   2.027   2.608   2.304
  259SOL    HW1 1676   2.028   2.509   2.290
  259SOL    HW2 1677   1.952   2.633   2.364
  260SOL     OW 1678   4.459   0.114   0.846
  260SOL    HW1 1679   4.447   0.129   0.945
  260SOL    HW2 1680   4.419   0.190   0.796
  261SOL     OW 1681   0.432   3.614   0.968
  261SOL    HW1 1682   0.395   3.680   0.903
  261SOL    HW2 1683   0.379   3.529   0.965
  262SOL     OW 1684   0.873   3.827   2.202
  262SOL    HW1 1685   0.790   3.795   2.157
  262SOL    HW2 1686   0.946   3.838   2.134
  263SOL     OW 1687   0.253   1.798   4.538
  263SOL    HW1 1688   0.275   1.712   4.583
  263SOL    HW2 1689   0.337   1.838   4.499
  264SOL     OW 1690   6.257   4.083   6.025
  264SOL    HW1 1691   6.234   4.176   6.052
  264SOL    HW2 1692   6.348   4.081   5.984
  265SOL     OW 1693   5.108   3.931   3.343
  265SOL    HW1 1694   5.143   4.007   3.398
  265SOL    HW2 1695   5.174   3.856   3.343
  266SOL     OW 1696   3.534   2.549   6.761
  266SOL    HW1 1697   3.464   2.596   6.709
  266SOL    HW2 1698   3.625   2.575   6.727
  267SOL     OW 1699   0.542   3.022   0.006
  267SOL    HW1 1700   0.597   3.094   0.048
  267SOL    HW2 1701   0.583   2.932   0.026
  268SOL     OW 1702   4.901   5.410   5.254
  268SOL    HW1 1703   4.899   5.367   5.163
  268SOL    HW2 1704   4.891   5.339   5.324
  269SOL     OW 1705   1.723   2.019   0.181
  269SOL    HW1 1706   1.747   1.947   0.117
  269SOL    HW2 1707   1.644   2.070   0.146
  270SOL     OW 1708   5.941   0.836   1.881
  270SOL    HW1 1709   5.991   0.880   1.955
  270SOL    HW2 1710   6.001   0.770   1.835
  271SOL     OW 1711   2.281   2.088   1.002
  271SOL    HW1 1712   2.328   2.093   1.090
  271SOL    HW2 1713   2.231   2.173   0.986
  272SOL     OW 1714   3.395   5.570   3.904
  272SOL    HW1 1715   3.326   5.600   3.838
  272SOL    HW2 1716   3.405   5.639   3.975
  273SOL     OW 1717   1.177   5.470   5.592
  273SOL    HW1 1718   1.118   5.480   5.672
  273SOL    HW2 1719   1.213   5.559   5.564
  274SOL     OW 1720   5.414   2.428   3.589
  274SOL    HW1 1721   5.324   2.472   3.592
  274SOL    HW2 1722   5.440   2.412   3.494
  275SOL     OW 1723   1.249   6.036   6.613
  275SOL    HW1 1724   1.315   6.062   6.683
  275SOL    HW2 1725   1.268   5.942   6.582
  276SOL     OW 1726   6.224   5.599   4.124
  276SOL    HW1 1727   6.242   5.653   4.205
  276SOL    HW2 1728   6.306   5.594   4.067
  277SOL     OW 1729   3.179   1.050   6.194
  277SOL    HW1 1730   3.191   1.081   6.099
  277SOL    HW2 1731   3.269   1.029   6.233
  278SOL     OW 1732   5.981   3.411   2.145
  278SOL    HW1 1733   6.011   3.438   2.237
  278SOL    HW2 1734   5.882   3.425   2.137
  279SOL     OW 1735   6.195   3.537   3.817
  279SOL    HW1 1736   6.249   3.464   3.776
  279SOL    HW2 1737   6.108   3.500   3.851
  280SOL     OW 1738   4.703   6.988   4.005
  280SOL    HW1 1739   4.658   6.901   4.021
  280SOL    HW2 1740   4.777   6.976   3.938
  281SOL     OW 1741   3.053   5.084   3.622
  281SOL    HW1 1742   2.976   5.147   3.612
  281SOL    HW2 1743   3.114   5.118   3.694
  282SOL     OW 1744   3.568   2.441   5.698
  282SOL    HW1 1745   3.489   2.470   5.643
  282SOL    HW2 1746   3.629   2.386   5.641
  283SOL     OW 1747   6.022   0.386   5.389
  283SOL    HW1 1748   6.076   0.470   5.385
  283SOL    HW2 1749   6.062   0.324   5.457
  284SOL     OW 1750   1.269   4.425   4.467
  284SOL    HW1 1751   1.348   4.447   4.409
  284SOL    HW2 1752   1.297   4.427   4.563
  285SOL     OW 1753   5.529   6.271   0.433
  285SOL    HW1 1754   5.566   6.251   0.342
  285SOL    HW2 1755   5.439   6.314   0.423
  286SOL     OW 1756   4.058   4.731   5.635
  286SOL    HW1 1757   3.986   4.664   5.619
  286SOL    HW2 1758   4.047   4.770   5.727
  287SOL     OW 1759   1.829   5.419   6.725
  287SOL    HW1 1760   1.854   5.388   6.816
  287SOL    HW2 1761   1.729   5.428   6.719
  288SOL     OW 1762   4.050   0.815   0.764
  288SOL    HW1 1763   4.124   0.749   0.776
  288SOL    HW2 1764   4.039   0.868   0.848
  289SOL     OW 1765   1.254   5.155   5.971
  289SOL    HW1 1766   1.229   5.128   5.878
  289SOL    HW2 1767   1.303   5.242   5.968
  290SOL     OW 1768   4.596   0.789   3.753
  290SOL    HW1 1769   4.626   0.884   3.745
  290SOL    HW2 1770   4.653   0.730   3.696
  291SOL     OW 1771   4.488   1.173   3.957
  291SOL    HW1 1772   4.402   1.224   3.962
  291SOL    HW2 1773   4.499   1.118   4.040
  292SOL     OW 1774   4.570   1.170   3.342
  292SOL    HW1 1775   4.627   1.127   3.273
  292SOL    HW2 1776   4.629   1.213   3.411
  293SOL     OW 1777   4.383   6.210   1.449
  293SOL    HW1 1778   4.429   6.252   1.371
  293SOL    HW2 1779   4.309   6.151   1.417
  294SOL     OW 1780   6.545   5.565   6.318
  294SOL    HW1 1781   6.624   5.597   6.265
  294SOL    HW2 1782   6.520   5.474   6.287
  295SOL     OW 1783   1.926   2.264   5.306
  295SOL    HW1 1784   2.020   2.231   5.298
  295SOL    HW2 1785   1.887   2.278   5.216
  296SOL     OW 1786   6.663   2.370   1.240
  296SOL    HW1 1787   6.652   2.371   1.340
  296SOL    HW2 1788   6.744   2.422   1.215
  297SOL     OW 1789   4.055   4.822   3.704
  297SOL    HW1 1790   4.082   4.887   3.775
  297SOL    HW2 1791   4.120   4.746   3.702
  298SOL     OW 1792   4.039   0.415   0.232
  298SOL    HW1 1793   4.063   0.359   0.311
  298SOL    HW2 1794   3.940   0.427   0.226
  299SOL     OW 1795   3.654   1.939   0.575
  299SOL    HW1 1796   3.642   1.856   0.521
  299SOL    HW2 1797   3.565   1.983   0.587
  300SOL     OW 1798   3.860   0.833   2.817
  300SOL    HW1 1799   3.901   0.883   2.893
  300SOL    HW2 1800   3.845   0.896   2.740
  301SOL     OW 1801   4.869   0.927   1.261
  301SOL    HW1 1802   4.810   0.880   1.196
  301SOL    HW2 1803   4.954   0.953   1.215
  302SOL     OW 1804   0.881   0.915   2.176
  302SOL    HW1 1805   0.828   0.999   2.187
  302SOL    HW2 1806   0.899   0.876   2.266
  303SOL     OW 1807   6.358   5.970   1.462
  303SOL    HW1 1808   6.268   5.978   1.419
  303SOL    HW2 1809   6.348   5.969   1.561
  304SOL     OW 1810   2.026   6.236   6.245
  304SOL    HW1 1811   2.086   6.316   6.248
  304SOL    HW2 1812   2.048   6.175   6.321
  305SOL     OW 1813   1.462   3.202   0.891
  305SOL    HW1 1814   1.497   3.135   0.957
  305SOL    HW2 1815   1.440   3.156   0.805
  306SOL     OW 1816   0.462   1.394   2.782
  306SOL    HW1 1817   0.549   1.433   2.751
  306SOL    HW2 1818   0.439   1.432   2.872
  307SOL     OW 1819   3.771   4.116   0.261
  307SOL    HW1 1820   3.747   4.073   0.348
  307SOL    HW2 1821   3.743   4.057   0.185
  308SOL     OW 1822   5.997   2.826   4.100
  308SOL    HW1 1823   6.017   2.864   4.010
  308SOL    HW2 1824   5.994   2.899   4.167
  309SOL     OW 1825   1.469   6.489   0.545
  309SOL    HW1 1826   1.393   6.428   0.522
  309SOL    HW2 1827   1.433   6.570   0.591
  310SOL     OW 1828   5.295   6.803   3.899
  310SOL    HW1 1829   5.373   6.831   3.842
  310SOL    HW2 1830   5.239   6.883   3.920
  311SOL     OW 1831   2.608   4.614   2.752
  311SOL    HW1 1832   2.700   4.645   2.727
  311SOL    HW2 1833   2.592   4.633   2.849
  312SOL     OW 1834   4.009   2.177   4.313
  312SOL    HW1 1835   3.961   2.110   4.370
  312SOL    HW2 1836   4.004   2.149   4.218
  313SOL     OW 1837   3.055   3.685   2.782
  313SOL    HW1 1838   3.056   3.784   2.794
  313SOL    HW2 1839   3.149   3.651   2.781
  314SOL     OW 1840   1.799   4.518   4.830
  314SOL    HW1 1841   1.807   4.563   4.918
  314SOL    HW2 1842   1.854   4.434   4.830
  315SOL     OW 1843   0.519   2.171   3.900
  315SOL    HW1 1844   0.528   2.074   3.922
  315SOL    HW2 1845   0.579   2.194   3.824
  316SOL     OW 1846   4.059   1.173   4.561
  316SOL    HW1 1847   3.961   1.191   4.547
  316SOL    HW2 1848   4.105   1.258   4.588
  317SOL     OW 1849   1.165   1.534   1.404
  317SOL    HW1 1850   1.239   1.480   1.443
  317SOL    HW2 1851   1.081   1.478   1.402
  318SOL     OW 1852   6.388   0.845   6.150
  318SOL    HW1 1853   6.431   0.885   6.232
  318SOL    HW2 1854   6.292   0.824   6.170
  319SOL     OW 1855   6.964   2.503   3.572
  319SOL    HW1 1856   6.934   2.576   3.635
  319SOL    HW2 1857   6.888   2.440   3.557
  320SOL     OW 1858   6.099   3.479   6.838
  320SOL    HW1 1859   6.118   3.553   6.902
  320SOL    HW2 1860   6.168   3.478   6.766
  321SOL     OW 1861   4.115   2.232   0.172
  321SOL    HW1 1862   4.054   2.185   0.108
  321SOL    HW2 1863   4.071   2.317   0.204
  322SOL     OW 1864   3.722   2.950   4.397
  322SOL    HW1 1865   3.813   2.991   4.408
  322SOL    HW2 1866   3.679   2.939   4.486
  323SOL     OW 1867   1.056   2.148   5.080
  323SOL    HW1 1868   0.991   2.219   5.055
  323SOL    HW2 1869   1.149   2.184   5.077
  324SOL     OW 1870   2.393   0.130   3.407
  324SOL    HW1 1871   2.450   0.091   3.479
  324SOL    HW2 1872   2.444   0.201   3.358
  325SOL     OW 1873   0.840   4.055   2.961
  325SOL    HW1 1874   0.937   4.069   2.939
  325SOL    HW2 1875   0.827   3.960   2.989
  326SOL     OW 1876   0.971   4.188   6.241
  326SOL    HW1 1877   0.997   4.276   6.203
  326SOL    HW2 1878   0.895   4.201   6.305
  327SOL     OW 1879   2.436   4.435   3.069
  327SOL    HW1 1880   2.476   4.393   3.151
  327SOL    HW2 1881   2.475   4.526   3.057
  328SOL     OW 1882   2.091   4.630   1.481
  328SOL    HW1 1883   2.091   4.647   1.580
  328SOL    HW2 1884   2.183   4.601   1.453
  329SOL     OW 1885   2.645   3.644   5.789
  329SOL    HW1 1886   2.603   3.711   5.729
  329SOL    HW2 1887   2.604   3.554   5.774
  330SOL     OW 1888   3.373   6.074   0.391
  330SOL    HW1 1889   3.423   6.090   0.476
  330SOL    HW2 1890   3.327   5.986   0.396
  331SOL     OW 1891   5.519   5.550   1.110
  331SOL    HW1 1892   5.471   5.632   1.140
  331SOL    HW2 1893   5.611   5.575   1.079
  332SOL     OW 1894   5.996   2.338   4.523
  332SOL    HW1 1895   6.079   2.384   4.557
  332SOL    HW2 1896   5.994   2.244   4.558
  333SOL     OW 1897   3.896   0.636   5.142
  333SOL    HW1 1898   3.889   0.537   5.135
  333SOL    HW2 1899   3.866   0.678   5.056
  334SOL     OW 1900   3.447   2.099   0.606
  334SOL    HW1 1901   3.372   2.048   0.564
  334SOL    HW2 1902   3.474   2.174   0.546
  335SOL     OW 1903   3.823   0.513   6.815
  335SOL    HW1 1904   3.764   0.566   6.876
  335SOL    HW2 1905   3.882   0.576   6.763
  336SOL     OW 1906   2.720   0.660   3.286
  336SOL    HW1 1907   2.770   0.666   3.200
  336SOL    HW2 1908   2.747   0.577   3.334
  337SOL     OW 1909   0.680   3.230   5.632
  337SOL    HW1 1910   0.616   3.240   5.708
  337SOL    HW2 1911   0.740   3.151   5.648
  338SOL     OW 1912   3.150   2.693   1.479
  338SOL    HW1 1913   3.073   2.747   1.445
  338SOL    HW2 1914   3.116   2.608   1.519
  339SOL     OW 1915   4.777   5.133   4.950
  339SOL    HW1 1916   4.824   5.066   5.007
  339SOL    HW2 1917   4.729   5.086   4.876
  340SOL     OW 1918   4.760   2.905   4.407
  340SOL    HW1 1919   4.820   2.984   4.392
  340SOL    HW2 1920   4.687   2.931   4.470
  341SOL     OW 1921   5.246   6.905   4.891
  341SOL    HW1 1922   5.168   6.963   4.868
  341SOL    HW2 1923   5.213   6.813   4.914
  342SOL     OW 1924   4.716   3.050   0.246
  342SOL    HW1 1925   4.791   3.041   0.180
  342SOL    HW2 1926   4.639   3.096   0.202
  343SOL     OW 1927   0.307   6.718   2.677
  343SOL    HW1 1928   0.247   6.791   2.644
  343SOL    HW2 1929   0.284   6.633   2.629
  344SOL     OW 1930   0.678   3.084   2.017
  344SOL    HW1 1931   0.761   3.035   2.040
  344SOL    HW2 1932   0.662   3.080   1.918
  345SOL     OW 1933   6.348   2.483   4.318
  345SOL    HW1 1934   6.325   2.488   4.415
  345SOL    HW2 1935   6.289   2.545   4.267
  346SOL     OW 1936   1.855   0.452   2.578
  346SOL    HW1 1937   1.915   0.398   2.520
  346SOL    HW2 1938   1.870   0.427   2.674
  347SOL     OW 1939   3.027   5.478   0.352
  347SOL    HW1 1940   3.028   5.573   0.384
  347SOL    HW2 1941   2.932   5.448   0.341
  348SOL     OW 1942   5.168   4.452   3.026
  348SOL    HW1 1943   5.247   4.428   3.082
  348SOL    HW2 1944   5.197   4.507   2.949
  349SOL     OW 1945   6.918   4.964   2.025
  349SOL    HW1 1946   6.991   4.896   2.019
  349SOL    HW2 1947   6.836   4.923   2.063
  350SOL     OW 1948   2.540   2.915   1.033
  350SOL    HW1 1949   2.476   2.878   0.966
  350SOL    HW2 1950   2.631   2.920   0.992
  351SOL     OW 1951   1.821   3.514   0.470
  351SOL    HW1 1952   1.858   3.585   0.531
  351SOL    HW2 1953   1.883   3.501   0.393
  352SOL     OW 1954   3.650   6.899   3.801
  352SOL    HW1 1955   3.677   6.889   3.705
  352SOL    HW2 1956   3.706   6.968   3.845
  353SOL     OW 1957   2.715   0.237   6.538
  353SOL    HW1 1958   2.754   0.177   6.608
  353SOL    HW2 1959   2.774   0.238   6.457
  354SOL     OW 1960   4.460   2.123   1.499
  354SOL    HW1 1961   4.408   2.058   1.444
  354SOL    HW2 1962   4.548   2.142   1.454
  355SOL     OW 1963   1.638   4.080   2.636
  355SOL    HW1 1964   1.658   4.016   2.710
  355SOL    HW2 1965   1.539   4.095   2.630
  356SOL     OW 1966   2.582   0.819   5.604
  356SOL    HW1 1967   2.530   0.859   5.529
  356SOL    HW2 1968   2.570   0.719   5.604
  357SOL     OW 1969   6.429   5.855   5.137
  357SOL    HW1 1970   6.452   5.782   5.073
  357SOL    HW2 1971   6.507   5.871   5.199
  358SOL     OW 1972   4.840   6.583   0.989
  358SOL    HW1 1973   4.781   6.626   1.058
  358SOL    HW2 1974   4.827   6.629   0.901
  359SOL     OW 1975   3.404   1.386   2.107
  359SOL    HW1 1976   3.339   1.359   2.036
  359SOL    HW2 1977   3.355   1.411   2.190
  360SOL     OW 1978   1.668   3.539   4.931
  360SOL    HW1 1979   1.743   3.603   4.951
  360SOL    HW2 1980   1.702   3.464   4.875
  361SOL     OW 1981   6.483   6.594   2.949
  361SOL    HW1 1982   6.527   6.679   2.918
  361SOL    HW2 1983   6.529   6.516   2.907
  362SOL     OW 1984   3.311   2.720   1.749
  362SOL    HW1 1985   3.249   2.713   1.670
  362SOL    HW2 1986   3.401   2.684   1.724
  363SOL     OW 1987   5.661   4.451   3.254
  363SOL    HW1 1988   5.705   4.361   3.251
  363SOL    HW2 1989   5.726   4.521   3.226
  364SOL     OW 1990   0.422   5.371   6.639
  364SOL    HW1 1991   0.461   5.344   6.727
  364SOL    HW2 1992   0.417   5.291   6.578
  365SOL     OW 1993   4.806   0.287   1.255
  365SOL    HW1 1994   4.805   0.192   1.223
  365SOL    HW2 1995   4.762   0.292   1.345
  366SOL     OW 1996   6.050   2.097   6.685
  366SOL    HW1 1997   6.118   2.114   6.613
  366SOL    HW2 1998   5.966   2.061   6.644
  367SOL     OW 1999   5.822   2.269   6.891
  367SOL    HW1 2000   5.898   2.333   6.897
  367SOL    HW2 2001   5.771   2.270   6.977
  368SOL     OW 2002   0.230   2.533   5.472
  368SOL    HW1 2003   0.292   2.477   5.526
  368SOL    HW2 2004   0.258   2.530   5.376
  369SOL     OW 2005   5.623   5.438   2.637
  369SOL    HW1 2006   5.689   5.380   2.685
  369SOL    HW2 2007   5.530   5.415   2.668
  370SOL     OW 2008   0.885   2.151   4.479
  370SOL    HW1 2009   0.947   2.082   4.515
  370SOL    HW2 2010   0.882   2.229   4.541
  371SOL     OW 2011   1.803   4.615   6.473
  371SOL    HW1 2012   1.827   4.675   6.396
  371SOL    HW2 2013   1.751   4.667   6.540
  372SOL     OW 2014   2.183   6.763   5.669
  372SOL    HW1 2015   2.154   6.685   5.724
  372SOL    HW2 2016   2.115   6.782   5.598
  373SOL     OW 2017   5.673   6.177   5.230
  373SOL    HW1 2018   5.671   6.169   5.130
  373SOL    HW2 2019   5.765   6.160   5.263
  374SOL     OW 2020   2.599   2.131   3.302
  374SOL    HW1 2021   2.647   2.087   3.377
  374SOL    HW2 2022   2.631   2.092   3.215
  375SOL     OW 2023   0.874   3.978   4.251
  375SOL    HW1 2024   0.796   3.932   4.209
  375SOL    HW2 2025   0.936   3.909   4.290
  376SOL     OW 2026   1.353   1.544   5.170
  376SOL    HW1 2027   1.287   1.605   5.126
  376SOL    HW2 2028   1.306   1.490   5.240
  377SOL     OW 2029   1.376   2.011   0.204
  377SOL    HW1 2030   1.297   2.020   0.265
  377SOL    HW2 2031   1.401   2.101   0.169
  378SOL     OW 2032   3.919   1.811   0.349
  378SOL    HW1 2033   3.845   1.863   0.306
  378SOL    HW2 2034   4.006   1.836   0.307
  379SOL     OW 2035   5.307   2.773   0.582
  379SOL    HW1 2036   5.257   2.750   0.666
  379SOL    HW2 2037   5.303   2.871   0.566
  380SOL     OW 2038   2.790   1.526   0.851
  380SOL    HW1 2039   2.864   1.460   0.845
  380SOL    HW2 2040   2.799   1.593   0.777
  381SOL     OW 2041   1.399   3.682   3.789
  381SOL    HW1 2042   1.323   3.728   3.834
  381SOL    HW2 2043   1.368   3.644   3.702
  382SOL     OW 2044   6.026   0.823   0.107
  382SOL    HW1 2045   6.101   0.887   0.123
  382SOL    HW2 2046   6.005   0.820   0.009
  383SOL     OW 2047   3.531   3.083   6.399
  383SOL    HW1 2048   3.581   3.004   6.434
  383SOL    HW2 2049   3.433   3.070   6.416
  384SOL     OW 2050   6.396   5.588   4.499
  384SOL    HW1 2051   6.298   5.584   4.518
  384SOL    HW2 2052   6.423   5.683   4.484
  385SOL     OW 2053   3.112   4.995   5.259
  385SOL    HW1 2054   3.141   4.986   5.354
  385SOL    HW2 2055   3.104   4.905   5.218
  386SOL     OW 2056   2.945   6.053   4.400
  386SOL    HW1 2057   3.003   6.019   4.326
  386SOL    HW2 2058   2.934   6.152   4.390
  387SOL     OW 2059   0.792   5.835   2.642
  387SOL    HW1 2060   0.764   5.771   2.714
  387SOL    HW2 2061   0.787   5.790   2.553
  388SOL     OW 2062   1.702   1.908   6.117
  388SOL    HW1 2063   1.708   1.880   6.213
  388SOL    HW2 2064   1.774   1.974   6.096
  389SOL     OW 2065   3.815   3.579   2.093
  389SOL    HW1 2066   3.818   3.481   2.110
  389SOL    HW2 2067   3.901   3.621   2.122
  390SOL     OW 2068   2.852   1.159   2.756
  390SOL    HW1 2069   2.881   1.249   2.723
  390SOL    HW2 2070   2.778   1.124   2.699
  391SOL     OW 2071   2.409   1.999   6.183
  391SOL    HW1 2072   2.365   1.931   6.242
  391SOL    HW2 2073   2.458   2.066   6.240
  392SOL     OW 2074   2.119   4.938   1.167
  392SOL    HW1 2075   2.081   5.029   1.148
  392SOL    HW2 2076   2.154   4.935   1.260
  393SOL     OW 2077   1.107   4.280   6.469
  393SOL    HW1 2078   1.029   4.324   6.514
  393SOL    HW2 2079   1.075   4.235   6.386
  394SOL     OW 2080   6.830   1.249   0.046
  394SOL    HW1 2081   6.734   1.223   0.043
  394SOL    HW2 2082   6.839   1.348   0.030
  395SOL     OW 2083   4.868   3.826   2.923
  395SOL    HW1 2084   4.822   3.902   2.877
  395SOL    HW2 2085   4.843   3.824   3.020
  396SOL     OW 2086   3.591   4.197   2.000
  396SOL    HW1 2087   3.653   4.129   2.038
  396SOL    HW2 2088   3.643   4.270   1.957
  397SOL     OW 2089   4.681   1.983   5.652
  397SOL    HW1 2090   4.730   2.067   5.625
  397SOL    HW2 2091   4.597   2.007   5.700
  398SOL     OW 2092   0.646   6.442   2.583
  398SOL    HW1 2093   0.732   6.447   2.533
  398SOL    HW2 2094   0.584   6.379   2.538
  399SOL     OW 2095   5.403   6.405   2.707
  399SOL    HW1 2096   5.322   6.461   2.692
  399SOL    HW2 2097   5.392   6.355   2.793
  400SOL     OW 2098   6.193   6.898   5.900
  400SOL    HW1 2099   6.121   6.912   5.968
  400SOL    HW2 2100   6.239   6.984   5.882
  401SOL     OW 2101   4.977   0.654   5.354
  401SOL    HW1 2102   5.076   0.671   5.347
  401SOL    HW2 2103   4.935   0.662   5.264
  402SOL     OW 2104   5.742   0.399   3.435
  402SOL    HW1 2105   5.689   0.330   3.483
  402SOL    HW2 2106   5.815   0.433   3.495
  403SOL     OW 2107   4.286   2.022   4.186
  403SOL    HW1 2108   4.311   1.993   4.279
  403SOL    HW2 2109   4.283   2.121   4.181
  404SOL     OW 2110   1.179   5.618   4.363
  404SOL    HW1 2111   1.205   5.635   4.268
  404SOL    HW2 2112   1.116   5.540   4.367
  405SOL     OW 2113   1.736   3.348   1.770
  405SOL    HW1 2114   1.684   3.311   1.847
  405SOL    HW2 2115   1.834   3.329   1.784
  406SOL     OW 2116   1.337   4.430   4.724
  406SOL    HW1 2117   1.355   4.351   4.783
  406SOL    HW2 2118   1.322   4.511   4.781
  407SOL     OW 2119   1.335   0.753   3.546
  407SOL    HW1 2120   1.237   0.774   3.556
  407SOL    HW2 2121   1.347   0.655   3.531
  408SOL     OW 2122   1.213   2.512   2.905
  408SOL    HW1 2123   1.136   2.458   2.940
  408SOL    HW2 2124   1.271   2.453   2.848
  409SOL     OW 2125   6.918   2.507   1.252
  409SOL    HW1 2126   6.889   2.597   1.220
  409SOL    HW2 2127   6.977   2.517   1.332
  410SOL     OW 2128   1.397   1.145   1.651
  410SOL    HW1 2129   1.309   1.137   1.698
  410SOL    HW2 2130   1.470   1.144   1.719
  411SOL     OW 2131   5.106   0.415   0.710
  411SOL    HW1 2132   5.132   0.320   0.726
  411SOL    HW2 2133   5.047   0.447   0.785
  412SOL     OW 2134   4.592   6.415   3.451
  412SOL    HW1 2135   4.648   6.375   3.523
  412SOL    HW2 2136   4.604   6.363   3.367
  413SOL     OW 2137   5.298   5.128   1.817
  413SOL    HW1 2138   5.220   5.189   1.829
  413SOL    HW2 2139   5.270   5.034   1.841
  414SOL     OW 2140   3.451   5.370   3.553
  414SOL    HW1 2141   3.497   5.302   3.610
  414SOL    HW2 2142   3.484   5.461   3.577
  415SOL     OW 2143   1.314   5.786   6.587
  415SOL    HW1 2144   1.238   5.721   6.581
  415SOL    HW2 2145   1.389   5.755   6.529
  416SOL     OW 2146   5.059   6.088   4.505
  416SOL    HW1 2147   5.157   6.107   4.509
  416SOL    HW2 2148   5.007   6.172   4.518
  417SOL     OW 2149   3.133   4.936   0.113
  417SOL    HW1 2150   3.146   4.937   0.014
  417SOL    HW2 2151   3.066   4.866   0.138
  418SOL     OW 2152   3.987   6.273   0.704
  418SOL    HW1 2153   4.042   6.260   0.622
  418SOL    HW2 2154   4.047   6.289   0.782
  419SOL     OW 2155   1.340   0.771   1.224
  419SOL    HW1 2156   1.341   0.835   1.301
  419SOL    HW2 2157   1.335   0.823   1.139
  420SOL     OW 2158   5.873   1.458   6.797
  420SOL    HW1 2159   5.928   1.533   6.834
  420SOL    HW2 2160   5.919   1.418   6.718
  421SOL     OW 2161   0.026   4.327   6.310
  421SOL    HW1 2162   6.981   4.359   6.375
  421SOL    HW2 2163   0.110   4.380   6.322
  422SOL     OW 2164   5.516   3.768   0.615
  422SOL    HW1 2165   5.596   3.802   0.666
  422SOL    HW2 2166   5.535   3.772   0.517
  423SOL     OW 2167   0.854   2.103   6.978
  423SOL    HW1 2168   0.810   2.080   0.040
  423SOL    HW2 2169   0.850   2.024   6.916
  424SOL     OW 2170   2.058   4.261   1.060
  424SOL    HW1 2171   2.125   4.324   1.021
  424SOL    HW2 2172   2.080   4.244   1.156
  425SOL     OW 2173   5.816   1.201   2.721
  425SOL    HW1 2174   5.718   1.217   2.731
  425SOL    HW2 2175   5.864   1.288   2.714
  426SOL     OW 2176   4.348   1.601   4.059
  426SOL    HW1 2177   4.264   1.655   4.065
  426SOL    HW2 2178   4.420   1.646   4.112
  427SOL     OW 2179   4.843   5.846   3.058
  427SOL    HW1 2180   4.906   5.781   3.100
  427SOL    HW2 2181   4.751   5.806   3.055
  428SOL     OW 2182   4.807   0.527   4.303
  428SOL    HW1 2183   4.711   0.506   4.318
  428SOL    HW2 2184   4.820   0.626   4.299
  429SOL     OW 2185   1.478   3.227   1.418
  429SOL    HW1 2186   1.441   3.143   1.458
  429SOL    HW2 2187   1.405   3.295   1.408
  430SOL     OW 2188   6.652   6.969   5.268
  430SOL    HW1 2189   6.692   6.881   5.294
  430SOL    HW2 2190   6.702   0.019   5.313
  431SOL     OW 2191   3.547   0.032   0.796
  431SOL    HW1 2192   3.511   0.049   0.705
  431SOL    HW2 2193   3.517   0.104   0.858
  432SOL     OW 2194   6.815   1.120   0.785
  432SOL    HW1 2195   6.761   1.044   0.747
  432SOL    HW2 2196   6.815   1.196   0.720
  433SOL     OW 2197   2.587   6.310   5.124
  433SOL    HW1 2198   2.686   6.302   5.129
  433SOL    HW2 2199   2.561   6.337   5.031
  434SOL     OW 2200   3.537   5.809   2.895
  434SOL    HW1 2201   3.515   5.882   2.959
  434SOL    HW2 2202   3.576   5.847   2.811
  435SOL     OW 2203   5.165   2.569   6.472
  435SOL    HW1 2204   5.161   2.612   6.562
  435SOL    HW2 2205   5.133   2.475   6.479
  436SOL     OW 2206   3.083   6.157   1.309
  436SOL    HW1 2207   2.990   6.127   1.289
  436SOL    HW2 2208   3.094   6.164   1.408
  437SOL     OW 2209   1.246   0.714   0.375
  437SOL    HW1 2210   1.279   0.771   0.300
  437SOL    HW2 2211   1.267   0.759   0.462
  438SOL     OW 2212   2.171   3.853   2.673
  438SOL    HW1 2213   2.138   3.783   2.609
  438SOL    HW2 2214   2.173   3.942   2.628
  439SOL     OW 2215   5.806   4.978   2.977
  439SOL    HW1 2216   5.828   4.952   2.883
  439SOL    HW2 2217   5.715   4.945   3.000
  440SOL     OW 2218   1.875   1.118   5.312
  440SOL    HW1 2219   1.805   1.098   5.244
  440SOL    HW2 2220   1.928   1.035   5.330
  441SOL     OW 2221   0.727   2.788   4.430
  441SOL    HW1 2222   0.714   2.863   4.495
  441SOL    HW2 2223   0.812   2.802   4.380
  442SOL     OW 2224   3.578   4.811   5.924
  442SOL    HW1 2225   3.677   4.808   5.940
  442SOL    HW2 2226   3.551   4.903   5.895
  443SOL     OW 2227   6.106   3.782   4.457
  443SOL    HW1 2228   6.196   3.764   4.498
  443SOL    HW2 2229   6.095   3.727   4.375
  444SOL     OW 2230   4.967   1.292   5.609
  444SOL    HW1 2231   5.066   1.283   5.599
  444SOL    HW2 2232   4.939   1.385   5.586
  445SOL     OW 2233   0.744   5.629   2.807
  445SOL    HW1 2234   0.664   5.579   2.773
  445SOL    HW2 2235   0.732   5.649   2.904
  446SOL     OW 2236   3.835   5.017   3.663
  446SOL    HW1 2237   3.859   4.925   3.695
  446SOL    HW2 2238   3.914   5.078   3.676
  447SOL     OW 2239   0.396   2.795   6.227
  447SOL    HW1 2240   0.429   2.835   6.312
  447SOL    HW2 2241   0.296   2.801   6.225
  448SOL     OW 2242   1.771   0.428   3.580
  448SOL    HW1 2243   1.829   0.472   3.648
  448SOL    HW2 2244   1.828   0.381   3.513
  449SOL     OW 2245   3.922   1.318   4.219
  449SOL    HW1 2246   3.862   1.391   4.185
  449SOL    HW2 2247   3.875   1.268   4.292
  450SOL     OW 2248   1.175   5.842   3.852
  450SOL    HW1 2249   1.117   5.922   3.863
  450SOL    HW2 2250   1.217   5.844   3.761
  451SOL     OW 2251   1.658   2.052   3.609
  451SOL    HW1 2252   1.589   2.012   3.549
  451SOL    HW2 2253   1.749   2.032   3.573
  452SOL     OW 2254   6.227   5.970   0.833
  452SOL    HW1 2255   6.300   6.020   0.787
  452SOL    HW2 2256   6.258   5.942   0.924
  453SOL     OW 2257   3.538   1.135   5.492
  453SOL    HW1 2258   3.497   1.219   5.527
  453SOL    HW2 2259   3.630   1.156   5.456
  454SOL     OW 2260   6.875   4.629   6.608
  454SOL    HW1 2261   6.886   4.636   6.707
  454SOL    HW2 2262   6.947   4.682   6.562
  455SOL     OW 2263   6.084   2.633   3.454
  455SOL    HW1 2264   6.177   2.651   3.423
  455SOL    HW2 2265   6.056   2.541   3.427
  456SOL     OW 2266   5.818   6.519   4.131
  456SOL    HW1 2267   5.777   6.468   4.207
  456SOL    HW2 2268   5.818   6.616   4.153
  457SOL     OW 2269   1.471   2.479   4.373
  457SOL    HW1 2270   1.401   2.479   4.302
  457SOL    HW2 2271   1.494   2.384   4.397
  458SOL     OW 2272   4.026   5.752   3.829
  458SOL    HW1 2273   3.927   5.748   3.838
  458SOL    HW2 2274   4.055   5.694   3.752
  459SOL     OW 2275   1.968   6.500   5.169
  459SOL    HW1 2276   1.879   6.455   5.176
  459SOL    HW2 2277   1.997   6.531   5.259
  460SOL     OW 2278   1.718   6.582   3.839
  460SOL    HW1 2279   1.682   6.528   3.763
  460SOL    HW2 2280   1.643   6.626   3.888
  461SOL     OW 2281   6.611   6.880   6.196
  461SOL    HW1 2282   6.697   6.853   6.153
  461SOL    HW2 2283   6.569   6.800   6.239
  462SOL     OW 2284   3.662   2.890   6.551
  462SOL    HW1 2285   3.729   2.824   6.519
  462SOL    HW2 2286   3.706   2.978   6.567
  463SOL     OW 2287   5.784   6.193   3.454
  463SOL    HW1 2288   5.701   6.194   3.509
  463SOL    HW2 2289   5.860   6.229   3.508
  464SOL     OW 2290   2.446   1.759   4.968
  464SOL    HW1 2291   2.481   1.680   4.918
  464SOL    HW2 2292   2.352   1.777   4.940
  465SOL     OW 2293   0.756   3.249   6.304
  465SOL    HW1 2294   0.832   3.308   6.330
  465SOL    HW2 2295   0.684   3.304   6.261
  466SOL     OW 2296   0.639   6.020   2.780
  466SOL    HW1 2297   0.696   5.965   2.719
  466SOL    HW2 2298   0.690   6.101   2.809
  467SOL     OW 2299   2.181   1.262   0.574
  467SOL    HW1 2300   2.183   1.344   0.630
  467SOL    HW2 2301   2.270   1.216   0.578
  468SOL     OW 2302   3.343   0.391   6.242
  468SOL    HW1 2303   3.376   0.358   6.153
  468SOL    HW2 2304   3.415   0.381   6.310
  469SOL     OW 2305   2.964   2.974   6.894
  469SOL    HW1 2306   3.034   2.997   6.826
  469SOL    HW2 2307   2.874   2.985   6.853
  470SOL     OW 2308   4.313   0.266   1.829
  470SOL    HW1 2309   4.300   0.187   1.769
  470SOL    HW2 2310   4.242   0.266   1.899
  471SOL     OW 2311   1.837   2.285   3.864
  471SOL    HW1 2312   1.803   2.347   3.793
  471SOL    HW2 2313   1.902   2.221   3.824
  472SOL     OW 2314   5.007   3.003   6.114
  472SOL    HW1 2315   5.091   3.055   6.130
  472SOL    HW2 2316   4.993   2.991   6.016
  473SOL     OW 2317   1.144   3.400   3.420
  473SOL    HW1 2318   1.070   3.416   3.354
  473SOL    HW2 2319   1.217   3.348   3.375
  474SOL     OW 2320   5.288   5.930   4.219
  474SOL    HW1 2321   5.259   5.913   4.313
  474SOL    HW2 2322   5.357   6.003   4.218
  475SOL     OW 2323   5.649   1.115   6.089
  475SOL    HW1 2324   5.649   1.203   6.040
  475SOL    HW2 2325   5.743   1.086   6.106
  476SOL     OW 2326   0.405   3.611   3.439
  476SOL    HW1 2327   0.442   3.703   3.421
  476SOL    HW2 2328   0.323   3.619   3.496
  477SOL     OW 2329   1.650   5.812   3.636
  477SOL    HW1 2330   1.729   5.873   3.628
  477SOL    HW2 2331   1.633   5.768   3.548
  478SOL     OW 2332   3.326   6.032   1.955
  478SOL    HW1 2333   3.382   6.103   1.997
  478SOL    HW2 2334   3.342   5.945   2.001
  479SOL     OW 2335   4.463   1.721   5.982
  479SOL    HW1 2336   4.514   1.701   5.898
  479SOL    HW2 2337   4.370   1.749   5.958
  480SOL     OW 2338   2.503   0.949   6.747
  480SOL    HW1 2339   2.484   0.899   6.662
  480SOL    HW2 2340   2.419   0.990   6.782
  481SOL     OW 2341   2.238   6.879   0.937
  481SOL    HW1 2342   2.139   6.887   0.930
  481SOL    HW2 2343   2.277   6.967   0.964
  482SOL     OW 2344   4.357   4.959   2.460
  482SOL    HW1 2345   4.302   5.020   2.518
  482SOL    HW2 2346   4.451   4.959   2.492
  483SOL     OW 2347   0.098   1.560   2.410
  483SOL    HW1 2348   0.178   1.552   2.350
  483SOL    HW2 2349   0.047   1.474   2.410
  484SOL     OW 2350   2.121   3.627   4.272
  484SOL    HW1 2351   2.159   3.684   4.199
  484SOL    HW2 2352   2.033   3.665   4.302
  485SOL     OW 2353   3.829   5.638   2.779
  485SOL    HW1 2354   3.839   5.658   2.877
  485SOL    HW2 2355   3.773   5.556   2.767
  486SOL     OW 2356   6.537   1.206   0.041
  486SOL    HW1 2357   6.486   1.151   0.106
  486SOL    HW2 2358   6.474   1.249   7.000
  487SOL     OW 2359   0.635   1.093   2.235
  487SOL    HW1 2360   0.666   1.167   2.296
  487SOL    HW2 2361   0.599   1.018   2.289
  488SOL     OW 2362   1.180   1.817   1.469
  488SOL    HW1 2363   1.185   1.720   1.444
  488SOL    HW2 2364   1.089   1.852   1.446
  489SOL     OW 2365   3.777   6.399   5.892
  489SOL    HW1 2366   3.759   6.302   5.875
  489SOL    HW2 2367   3.794   6.413   5.990
  490SOL     OW 2368   6.589   6.371   2.848
  490SOL    HW1 2369   6.524   6.338   2.780
  490SOL    HW2 2370   6.622   6.294   2.903
  491SOL     OW 2371   0.886   2.864   2.641
  491SOL    HW1 2372   0.871   2.840   2.545
  491SOL    HW2 2373   0.967   2.816   2.675
  492SOL     OW 2374   1.945   0.653   5.411
  492SOL    HW1 2375   1.854   0.614   5.427
  492SOL    HW2 2376   1.982   0.616   5.326
  493SOL     OW 2377   5.059   5.960   5.525
  493SOL    HW1 2378   5.133   5.911   5.572
  493SOL    HW2 2379   4.998   6.001   5.592
  494SOL     OW 2380   0.498   6.487   6.249
  494SOL    HW1 2381   0.522   6.390   6.260
  494SOL    HW2 2382   0.577   6.544   6.271
  495SOL     OW 2383   4.789   6.068   3.463
  495SOL    HW1 2384   4.843   5.990   3.495
  495SOL    HW2 2385   4.693   6.055   3.490
  496SOL     OW 2386   5.156   3.127   1.842
  496SOL    HW1 2387   5.061   3.116   1.872
  496SOL    HW2 2388   5.169   3.080   1.754
  497SOL     OW 2389   2.714   1.028   4.522
  497SOL    HW1 2390   2.648   1.009   4.450
  497SOL    HW2 2391   2.807   1.025   4.483
  498SOL     OW 2392   1.439   3.978   1.668
  498SOL    HW1 2393   1.469   4.005   1.577
  498SOL    HW2 2394   1.456   3.880   1.680
  499SOL     OW 2395   1.969   6.151   4.540
  499SOL    HW1 2396   1.928   6.063   4.513
  499SOL    HW2 2397   2.049   6.134   4.598
  500SOL     OW 2398   6.939   3.136   5.075
  500SOL    HW1 2399   6.897   3.214   5.029
  500SOL    HW2 2400   6.961   3.161   5.169
  501SOL     OW 2401   3.403   5.897   0.791
  501SOL    HW1 2402   3.436   5.946   0.871
  501SOL    HW2 2403   3.309   5.865   0.807
  502SOL     OW 2404   0.486   3.996   6.947
  502SOL    HW1 2405   0.546   4.041   6.881
  502SOL    HW2 2406   0.391   4.003   6.916
  503SOL     OW 2407   0.435   5.861   6.815
  503SOL    HW1 2408   0.484   5.904   6.739
  503SOL    HW2 2409   0.436   5.762   6.803
  504SOL     OW 2410   1.476   5.210   2.100
  504SOL    HW1 2411   1.484   5.180   2.195
  504SOL    HW2 2412   1.400   5.161   2.056
  505SOL     OW 2413   2.979   5.862   5.438
  505SOL    HW1 2414   3.073   5.894   5.452
  505SOL    HW2 2415   2.980   5.780   5.381
  506SOL     OW 2416   2.623   5.150   4.014
  506SOL    HW1 2417   2.617   5.074   4.078
  506SOL    HW2 2418   2.562   5.134   3.937
  507SOL     OW 2419   2.909   6.639   2.983
  507SOL    HW1 2420   2.896   6.668   2.889
  507SOL    HW2 2421   2.982   6.692   3.025
  508SOL     OW 2422   0.142   3.801   2.450
  508SOL    HW1 2423   0.224   3.855   2.430
  508SOL    HW2 2424   0.161   3.705   2.431
  509SOL     OW 2425   3.029   1.590   1.189
  509SOL    HW1 2426   3.014   1.686   1.165
  509SOL    HW2 2427   3.065   1.541   1.109
  510SOL     OW 2428   6.488   4.603   6.986
  510SOL    HW1 2429   6.445   4.556   0.039
  510SOL    HW2 2430   6.417   4.633   6.922
  511SOL     OW 2431   1.002   1.708   5.596
  511SOL    HW1 2432   1.097   1.732   5.574
  511SOL    HW2 2433   0.961   1.783   5.648
  512SOL     OW 2434   6.994   3.252   0.311
  512SOL    HW1 2435   6.996   3.169   0.256
  512SOL    HW2 2436   6.902   3.291   0.310
  513SOL     OW 2437   5.840   6.962   3.217
  513SOL    HW1 2438   5.789   6.947   3.132
  513SOL    HW2 2439   5.780   6.945   3.295
  514SOL     OW 2440   6.894   2.093   3.725
  514SOL    HW1 2441   6.880   1.997   3.749
  514SOL    HW2 2442   6.842   2.151   3.789
  515SOL     OW 2443   1.099   0.466   6.245
  515SOL    HW1 2444   1.081   0.548   6.192
  515SOL    HW2 2445   1.167   0.410   6.198
  516SOL     OW 2446   2.531   4.585   2.101
  516SOL    HW1 2447   2.538   4.559   2.197
  516SOL    HW2 2448   2.620   4.576   2.057
  517SOL     OW 2449   4.419   5.937   1.347
  517SOL    HW1 2450   4.503   5.915   1.299
  517SOL    HW2 2451   4.425   6.030   1.384
  518SOL     OW 2452   2.919   2.154   3.313
  518SOL    HW1 2453   2.983   2.156   3.390
  518SOL    HW2 2454   2.865   2.070   3.318
  519SOL     OW 2455   0.474   7.008   4.771
  519SOL    HW1 2456   0.558   6.955   4.780
  519SOL    HW2 2457   0.495   0.076   4.737
  520SOL     OW 2458   5.874   4.300   0.947
  520SOL    HW1 2459   5.856   4.205   0.971
  520SOL    HW2 2460   5.943   4.303   0.874
  521SOL     OW 2461   6.394   5.269   5.068
  521SOL    HW1 2462   6.365   5.174   5.062
  521SOL    HW2 2463   6.494   5.274   5.075
  522SOL     OW 2464   3.582   3.193   4.532
  522SOL    HW1 2465   3.594   3.103   4.574
  522SOL    HW2 2466   3.547   3.182   4.439
  523SOL     OW 2467   0.360   5.632   1.390
  523SOL    HW1 2468   0.346   5.713   1.448
  523SOL    HW2 2469   0.299   5.559   1.421
  524SOL     OW 2470   0.747   2.019   2.091
  524SOL    HW1 2471   0.721   2.106   2.133
  524SOL    HW2 2472   0.846   2.017   2.077
  525SOL     OW 2473   1.943   3.448   5.544
  525SOL    HW1 2474   2.000   3.467   5.464
  525SOL    HW2 2475   1.950   3.523   5.609
  526SOL     OW 2476   4.091   6.510   3.760
  526SOL    HW1 2477   4.121   6.430   3.708
  526SOL    HW2 2478   3.993   6.502   3.779
  527SOL     OW 2479   5.861   2.632   6.722
  527SOL    HW1 2480   5.875   2.725   6.754
  527SOL    HW2 2481   5.772   2.624   6.677
  528SOL     OW 2482   0.982   2.311   3.580
  528SOL    HW1 2483   1.066   2.298   3.633
  528SOL    HW2 2484   0.967   2.408   3.563
  529SOL     OW 2485   1.759   7.019   4.495
  529SOL    HW1 2486   1.686   0.063   4.490
  529SOL    HW2 2487   1.747   6.951   4.423
  530SOL     OW 2488   3.528   3.110   4.281
  530SOL    HW1 2489   3.515   3.117   4.182
  530SOL    HW2 2490   3.611   3.058   4.299
  531SOL     OW 2491   0.493   1.576   3.261
  531SOL    HW1 2492   0.585   1.601   3.290
  531SOL    HW2 2493   0.479   1.478   3.274
  532SOL     OW 2494   0.975   2.878   6.665
  532SOL    HW1 2495   0.997   2.943   6.592
  532SOL    HW2 2496   0.957   2.928   6.750
  533SOL     OW 2497   3.976   6.401   4.100
  533SOL    HW1 2498   3.968   6.356   4.189
  533SOL    HW2 2499   3.990   6.499   4.114
  534SOL     OW 2500   5.214   6.576   2.662
  534SOL    HW1 2501   5.130   6.544   2.706
  534SOL    HW2 2502   5.191   6.639   2.588
  535SOL     OW 2503   0.704   3.740   4.496
  535SOL    HW1 2504   0.714   3.670   4.426
  535SOL    HW2 2505   0.624   3.796   4.476
  536SOL     OW 2506   6.678   5.284   1.550
  536SOL    HW1 2507   6.618   5.252   1.623
  536SOL    HW2 2508   6.733   5.361   1.583
  537SOL     OW 2509   2.855   6.345   4.731
  537SOL    HW1 2510   2.813   6.435   4.723
  537SOL    HW2 2511   2.810   6.281   4.669
  538SOL     OW 2512   1.502   4.546   3.456
  538SOL    HW1 2513   1.565   4.623   3.445
  538SOL    HW2 2514   1.527   4.474   3.391
  539SOL     OW 2515   1.706   5.802   1.208
  539SOL    HW1 2516   1.622   5.816   1.262
  539SOL    HW2 2517   1.686   5.818   1.111
  540SOL     OW 2518   0.950   0.738   2.962
  540SOL    HW1 2519   0.910   0.767   3.048
  540SOL    HW2 2520   1.032   0.684   2.980
  541SOL     OW 2521   5.569   6.149   4.127
  541SOL    HW1 2522   5.622   6.168   4.044
  541SOL    HW2 2523   5.618   6.082   4.183
  542SOL     OW 2524   6.016   6.502   0.028
  542SOL    HW1 2525   5.928   6.480   0.071
  542SOL    HW2 2526   6.001   6.522   6.956
  543SOL     OW 2527   1.534   3.938   5.610
  543SOL    HW1 2528   1.435   3.926   5.609
  543SOL    HW2 2529   1.557   4.019   5.664
  544SOL     OW 2530   3.449   4.093   0.322
  544SOL    HW1 2531   3.525   4.029   0.334
  544SOL    HW2 2532   3.420   4.093   0.226
  545SOL     OW 2533   2.893   1.347   1.860
  545SOL    HW1 2534   2.885   1.446   1.870
  545SOL    HW2 2535   2.841   1.317   1.780
  546SOL     OW 2536   2.198   3.323   0.347
  546SOL    HW1 2537   2.136   3.399   0.368
  546SOL    HW2 2538   2.205   3.262   0.425
  547SOL     OW 2539   3.272   0.893   0.187
  547SOL    HW1 2540   3.236   0.909   0.095
  547SOL    HW2 2541   3.350   0.831   0.182
  548SOL     OW 2542   3.261   3.403   2.906
  548SOL    HW1 2543   3.272   3.453   2.820
  548SOL    HW2 2544   3.184   3.339   2.897
  549SOL     OW 2545   5.214   2.979   0.922
  549SOL    HW1 2546   5.139   2.913   0.926
  549SOL    HW2 2547   5.201   3.039   0.842
  550SOL     OW 2548   6.831   4.903   3.825
  550SOL    HW1 2549   6.747   4.902   3.879
  550SOL    HW2 2550   6.877   4.990   3.836
  551SOL     OW 2551   0.728   0.450   2.172
  551SOL    HW1 2552   0.724   0.546   2.144
  551SOL    HW2 2553   0.675   0.438   2.255
  552SOL     OW 2554   5.176   4.464   0.287
  552SOL    HW1 2555   5.111   4.445   0.361
  552SOL    HW2 2556   5.204   4.560   0.291
  553SOL     OW 2557   2.359   6.537   2.304
  553SOL    HW1 2558   2.365   6.573   2.211
  553SOL    HW2 2559   2.266   6.545   2.337
  554SOL     OW 2560   5.658   0.200   5.960
  554SOL    HW1 2561   5.696   0.145   5.885
  554SOL    HW2 2562   5.668   0.150   6.046
  555SOL     OW 2563   1.762   5.575   3.071
  555SOL    HW1 2564   1.664   5.559   3.061
  555SOL    HW2 2565   1.791   5.546   3.162
  556SOL     OW 2566   4.611   2.670   3.301
  556SOL    HW1 2567   4.653   2.724   3.228
  556SOL    HW2 2568   4.547   2.605   3.261
  557SOL     OW 2569   0.343   5.240   0.488
  557SOL    HW1 2570   0.263   5.245   0.428
  557SOL    HW2 2571   0.425   5.263   0.435
  558SOL     OW 2572   2.968   3.328   4.297
  558SOL    HW1 2573   2.935   3.345   4.390
  558SOL    HW2 2574   3.015   3.240   4.294
  559SOL     OW 2575   6.790   5.841   6.942
  559SOL    HW1 2576   6.870   5.782   6.949
  559SOL    HW2 2577   6.708   5.787   6.962
  560SOL     OW 2578   4.666   4.425   6.670
  560SOL    HW1 2579   4.722   4.346   6.645
  560SOL    HW2 2580   4.719   4.509   6.655
  561SOL     OW 2581   6.770   1.024   0.456
  561SOL    HW1 2582   6.758   0.963   0.534
  561SOL    HW2 2583   6.851   1.081   0.470
  562SOL     OW 2584   5.127   0.693   5.834
  562SOL    HW1 2585   5.172   0.657   5.752
  562SOL    HW2 2586   5.078   0.777   5.811
  563SOL     OW 2587   2.183   0.491   3.273
  563SOL    HW1 2588   2.258   0.557   3.269
  563SOL    HW2 2589   2.098   0.535   3.242
  564SOL     OW 2590   1.906   2.066   6.492
  564SOL    HW1 2591   1.887   2.079   6.589
  564SOL    HW2 2592   1.872   2.144   6.440
  565SOL     OW 2593   3.603   3.119   5.292
  565SOL    HW1 2594   3.692   3.144   5.254
  565SOL    HW2 2595   3.602   3.136   5.390
  566SOL     OW 2596   6.263   5.204   4.025
  566SOL    HW1 2597   6.312   5.141   4.086
  566SOL    HW2 2598   6.169   5.215   4.058
  567SOL     OW 2599   3.392   3.005   1.759
  567SOL    HW1 2600   3.401   2.905   1.761
  567SOL    HW2 2601   3.297   3.030   1.775
  568SOL     OW 2602   4.465   1.599   6.911
  568SOL    HW1 2603   4.553   1.556   6.935
  568SOL    HW2 2604   4.473   1.698   6.922
  569SOL     OW 2605   1.430   2.926   6.966
  569SOL    HW1 2606   1.465   2.844   7.012
  569SOL    HW2 2607   1.495   2.955   6.896
  570SOL     OW 2608   3.341   6.333   0.094
  570SOL    HW1 2609   3.299   6.413   0.138
  570SOL    HW2 2610   3.323   6.336   7.020
  571SOL     OW 2611   3.139   0.337   2.853
  571SOL    HW1 2612   3.107   0.242   2.858
  571SOL    HW2 2613   3.238   0.338   2.839
  572SOL     OW 2614   3.215   4.973   5.525
  572SOL    HW1 2615   3.134   4.914   5.531
  572SOL    HW2 2616   3.297   4.916   5.530
  573SOL     OW 2617   5.449   1.801   5.609
  573SOL    HW1 2618   5.352   1.822   5.602
  573SOL    HW2 2619   5.493   1.869   5.668
  574SOL     OW 2620   3.479   2.071   4.345
  574SOL    HW1 2621   3.562   2.122   4.319
  574SOL    HW2 2622   3.456   2.006   4.272
  575SOL     OW 2623   5.243   3.764   1.060
  575SOL    HW1 2624   5.325   3.744   1.006
  575SOL    HW2 2625   5.203   3.850   1.027
  576SOL     OW 2626   1.027   2.314   2.996
  576SOL    HW1 2627   1.091   2.237   2.984
  576SOL    HW2 2628   0.948   2.300   2.937
  577SOL     OW 2629   1.458   1.541   2.633
  577SOL    HW1 2630   1.541   1.494   2.603
  577SOL    HW2 2631   1.395   1.550   2.557
  578SOL     OW 2632   6.512   5.166   3.129
  578SOL    HW1 2633   6.429   5.132   3.173
  578SOL    HW2 2634   6.529   5.260   3.158
  579SOL     OW 2635   1.639   2.833   2.228
  579SOL    HW1 2636   1.713   2.881   2.182
  579SOL    HW2 2637   1.670   2.802   2.318
  580SOL     OW 2638   6.841   5.140   6.885
  580SOL    HW1 2639   6.749   5.107   6.864
  580SOL    HW2 2640   6.837   5.206   6.959
  581SOL     OW 2641   3.053   3.237   2.894
  581SOL    HW1 2642   2.994   3.193   2.826
  581SOL    HW2 2643   3.003   3.245   2.980
  582SOL     OW 2644   5.366   6.592   2.251
  582SOL    HW1 2645   5.275   6.619   2.221
  582SOL    HW2 2646   5.387   6.636   2.338
  583SOL     OW 2647   3.295   5.174   5.720
  583SOL    HW1 2648   3.218   5.206   5.775
  583SOL    HW2 2649   3.263   5.107   5.653
  584SOL     OW 2650   2.363   3.794   6.300
  584SOL    HW1 2651   2.387   3.741   6.381
  584SOL    HW2 2652   2.418   3.765   6.223
  585SOL     OW 2653   5.497   2.908   5.997
  585SOL    HW1 2654   5.430   2.971   5.958
  585SOL    HW2 2655   5.478   2.815   5.967
  586SOL     OW 2656   3.822   1.614   6.547
  586SOL    HW1 2657   3.919   1.640   6.555
  586SOL    HW2 2658   3.808   1.561   6.463
  587SOL     OW 2659   3.447   0.974   5.695
  587SOL    HW1 2660   3.494   1.031   5.627
  587SOL    HW2 2661   3.479   0.880   5.687
  588SOL     OW 2662   2.401   4.679   0.921
  588SOL    HW1 2663   2.465   4.660   0.846
  588SOL    HW2 2664   2.333   4.606   0.925
  589SOL     OW 2665   3.212   5.429   1.430
  589SOL    HW1 2666   3.198   5.455   1.525
  589SOL    HW2 2667   3.125   5.397   1.391
  590SOL     OW 2668   5.187   3.193   2.566
  590SOL    HW1 2669   5.172   3.288   2.594
  590SOL    HW2 2670   5.121   3.169   2.494
  591SOL     OW 2671   3.767   5.728   3.482
  591SOL    HW1 2672   3.743   5.647   3.428
  591SOL    HW2 2673   3.853   5.712   3.530
  592SOL     OW 2674   3.223   0.512   2.160
  592SOL    HW1 2675   3.141   0.457   2.176
  592SOL    HW2 2676   3.201   0.588   2.099
  593SOL     OW 2677   4.478   2.468   3.160
  593SOL    HW1 2678   4.399   2.410   3.143
  593SOL    HW2 2679   4.512   2.505   3.074
  594SOL     OW 2680   5.526   2.312   6.832
  594SOL    HW1 2681   5.622   2.323   6.858
  594SOL    HW2 2682   5.481   2.401   6.831
  595SOL     OW 2683   6.105   0.253   4.002
  595SOL    HW1 2684   6.141   0.172   4.049
  595SOL    HW2 2685   6.060   0.225   3.918
  596SOL     OW 2686   1.859   4.575   3.243
  596SOL    HW1 2687   1.857   4.524   3.330
  596SOL    HW2 2688   1.792   4.535   3.180
  597SOL     OW 2689   4.277   6.825   6.629
  597SOL    HW1 2690   4.284   6.728   6.604
  597SOL    HW2 2691   4.324   6.842   6.715
  598SOL     OW 2692   3.215   3.884   5.943
  598SOL    HW1 2693   3.116   3.897   5.939
  598SOL    HW2 2694   3.240   3.801   5.893
  599SOL     OW 2695   2.084   6.496   2.707
  599SOL    HW1 2696   2.053   6.589   2.724
  599SOL    HW2 2697   2.174   6.482   2.749
  600SOL     OW 2698   1.067   1.098   0.473
  600SOL    HW1 2699   1.095   1.103   0.377
  600SOL    HW2 2700   1.093   1.182   0.520
  601SOL     OW 2701   2.886   6.277   3.781
  601SOL    HW1 2702   2.913   6.222   3.859
  601SOL    HW2 2703   2.899   6.374   3.801
  602SOL     OW 2704   2.062   2.774   6.120
  602SOL    HW1 2705   2.120   2.842   6.166
  602SOL    HW2 2706   2.107   2.745   6.036
  603SOL     OW 2707   3.973   1.978   3.801
  603SOL    HW1 2708   3.989   2.013   3.708
  603SOL    HW2 2709   3.885   1.932   3.804
  604SOL     OW 2710   0.610   3.403   1.830
  604SOL    HW1 2711   0.632   3.463   1.753
  604SOL    HW2 2712   0.513   3.411   1.852
  605SOL     OW 2713   6.416   6.258   2.635
  605SOL    HW1 2714   6.391   6.161   2.629
  605SOL    HW2 2715   6.493   6.276   2.575
  606SOL     OW 2716   5.147   0.464   6.709
  606SOL    HW1 2717   5.182   0.538   6.765
  606SOL    HW2 2718   5.095   0.400   6.766
  607SOL     OW 2719   5.709   0.708   5.643
  607SOL    HW1 2720   5.738   0.638   5.577
  607SOL    HW2 2721   5.785   0.768   5.664
  608SOL     OW 2722   3.509   6.155   6.584
  608SOL    HW1 2723   3.570   6.078   6.566
  608SOL    HW2 2724   3.483   6.155   6.681
  609SOL     OW 2725   4.034   3.409   3.469
  609SOL    HW1 2726   4.057   3.377   3.377
  609SOL    HW2 2727   4.058   3.338   3.535
  610SOL     OW 2728   4.907   3.168   2.434
  610SOL    HW1 2729   4.876   3.110   2.359
  610SOL    HW2 2730   4.893   3.264   2.410
  611SOL     OW 2731   2.825   0.317   6.867
  611SOL    HW1 2732   2.903   0.335   6.808
  611SOL    HW2 2733   2.787   0.404   6.899
  612SOL     OW 2734   3.684   6.664   6.168
  612SOL    HW1 2735   3.708   6.739   6.230
  612SOL    HW2 2736   3.762   6.645   6.107
  613SOL     OW 2737   3.888   6.685   5.993
  613SOL    HW1 2738   3.984   6.676   5.969
  613SOL    HW2 2739   3.846   6.755   5.936
  614SOL     OW 2740   4.531   4.487   1.494
  614SOL    HW1 2741   4.549   4.458   1.588
  614SOL    HW2 2742   4.458   4.432   1.455
  615SOL     OW 2743   0.342   1.992   0.983
  615SOL    HW1 2744   0.328   2.082   1.024
  615SOL    HW2 2745   0.269   1.973   0.918
  616SOL     OW 2746   0.101   2.136   3.582
  616SOL    HW1 2747   0.067   2.084   3.504
  616SOL    HW2 2748   0.028   2.145   3.650
  617SOL     OW 2749   6.702   3.417   6.316
  617SOL    HW1 2750   6.725   3.321   6.302
  617SOL    HW2 2751   6.780   3.465   6.356
  618SOL     OW 2752   6.782   3.231   6.689
  618SOL    HW1 2753   6.762   3.319   6.646
  618SOL    HW2 2754   6.868   3.237   6.740
  619SOL     OW 2755   4.793   0.247   6.701
  619SOL    HW1 2756   4.846   0.175   6.746
  619SOL    HW2 2757   4.766   0.217   6.610
  620SOL     OW 2758   5.213   2.401   2.097
  620SOL    HW1 2759   5.186   2.497   2.091
  620SOL    HW2 2760   5.133   2.343   2.082
  621SOL     OW 2761   2.465   6.723   5.671
  621SOL    HW1 2762   2.450   6.632   5.631
  621SOL    HW2 2763   2.376   6.765   5.691
  622SOL     OW 2764   1.026   1.568   4.809
  622SOL    HW1 2765   1.002   1.483   4.856
  622SOL    HW2 2766   1.043   1.640   4.877
  623SOL     OW 2767   0.995   6.166   5.937
  623SOL    HW1 2768   0.943   6.111   6.002
  623SOL    HW2 2769   1.090   6.174   5.969
  624SOL     OW 2770   0.159   1.596   0.872
  624SOL    HW1 2771   0.083   1.651   0.905
  624SOL    HW2 2772   0.185   1.529   0.942
  625SOL     OW 2773   2.004   2.227   1.834
  625SOL    HW1 2774   1.961   2.152   1.783
  625SOL    HW2 2775   2.103   2.226   1.816
  626SOL     OW 2776   0.452   5.881   2.907
  626SOL    HW1 2777   0.525   5.930   2.859
  626SOL    HW2 2778   0.447   5.914   3.001
  627SOL     OW 2779   6.621   6.322   0.666
  627SOL    HW1 2780   6.687   6.336   0.592
  627SOL    HW2 2781   6.667   6.335   0.754
  628SOL     OW 2782   5.424   5.919   5.471
  628SOL    HW1 2783   5.399   5.997   5.414
  628SOL    HW2 2784   5.363   5.913   5.549
  629SOL     OW 2785   0.691   0.353   6.290
  629SOL    HW1 2786   0.622   0.343   6.362
  629SOL    HW2 2787   0.774   0.392   6.330
  630SOL     OW 2788   0.660   1.560   0.341
  630SOL    HW1 2789   0.683   1.655   0.318
  630SOL    HW2 2790   0.744   1.507   0.354
  631SOL     OW 2791   3.832   0.916   5.744
  631SOL    HW1 2792   3.848   1.001   5.694
  631SOL    HW2 2793   3.817   0.842   5.679
  632SOL     OW 2794   4.368   1.920   1.332
  632SOL    HW1 2795   4.285   1.879   1.370
  632SOL    HW2 2796   4.439   1.850   1.324
  633SOL     OW 2797   2.967   3.837   6.451
  633SOL    HW1 2798   3.008   3.860   6.539
  633SOL    HW2 2799   2.954   3.919   6.396
  634SOL     OW 2800   3.498   4.114   2.964
  634SOL    HW1 2801   3.543   4.150   2.882
  634SOL    HW2 2802   3.514   4.016   2.971
  635SOL     OW 2803   4.835   5.927   0.841
  635SOL    HW1 2804   4.857   5.908   0.745
  635SOL    HW2 2805   4.875   5.856   0.899
  636SOL     OW 2806   3.724   6.754   0.033
  636SOL    HW1 2807   3.719   6.852   0.012
  636SOL    HW2 2808   3.632   6.716   0.032
  637SOL     OW 2809   6.857   2.851   3.458
  637SOL    HW1 2810   6.908   2.920   3.408
  637SOL    HW2 2811   6.820   2.783   3.394
  638SOL     OW 2812   5.616   3.316   3.370
  638SOL    HW1 2813   5.664   3.268   3.296
  638SOL    HW2 2814   5.542   3.259   3.404
  639SOL     OW 2815   4.913   3.697   2.495
  639SOL    HW1 2816   4.922   3.618   2.435
  639SOL    HW2 2817   4.992   3.757   2.484
  640SOL     OW 2818   7.014   5.240   4.267
  640SOL    HW1 2819   0.004   5.169   4.197
  640SOL    HW2 2820   0.037   5.211   4.351
  641SOL     OW 2821   0.847   4.629   4.832
  641SOL    HW1 2822   0.868   4.667   4.742
  641SOL    HW2 2823   0.749   4.609   4.838
  642SOL     OW 2824   0.044   3.382   4.219
  642SOL    HW1 2825   0.026   3.370   4.316
  642SOL    HW2 2826   0.048   3.292   4.175
  643SOL     OW 2827   6.133   0.489   6.219
  643SOL    HW1 2828   6.218   0.478   6.167
  643SOL    HW2 2829   6.058   0.444   6.171
  644SOL     OW 2830   1.683   6.856   4.282
  644SOL    HW1 2831   1.745   6.814   4.216
  644SOL    HW2 2832   1.591   6.819   4.270
  645SOL     OW 2833   4.166   6.899   5.180
  645SOL    HW1 2834   4.245   6.924   5.124
  645SOL    HW2 2835   4.171   6.948   5.267
  646SOL     OW 2836   2.689   0.546   4.485
  646SOL    HW1 2837   2.665   0.576   4.578
  646SOL    HW2 2838   2.787   0.559   4.471
  647SOL     OW 2839   4.943   1.541   4.801
  647SOL    HW1 2840   4.866   1.584   4.849
  647SOL    HW2 2841   4.964   1.592   4.718
  648SOL     OW 2842   0.423   3.916   4.056
  648SOL    HW1 2843   0.435   3.862   3.972
  648SOL    HW2 2844   0.427   4.013   4.033
  649SOL     OW 2845   2.031   3.926   1.284
  649SOL    HW1 2846   1.972   4.007   1.290
  649SOL    HW2 2847   2.092   3.923   1.362
  650SOL     OW 2848   6.124   4.039   1.074
  650SOL    HW1 2849   6.144   4.073   0.982
  650SOL    HW2 2850   6.153   4.107   1.142
  651SOL     OW 2851   1.554   6.837   5.933
  651SOL    HW1 2852   1.470   6.838   5.987
  651SOL    HW2 2853   1.603   6.751   5.951
  652SOL     OW 2854   5.310   0.197   3.879
  652SOL    HW1 2855   5.258   0.135   3.938
  652SOL    HW2 2856   5.335   0.149   3.794
  653SOL     OW 2857   1.224   5.969   0.209
  653SOL    HW1 2858   1.266   5.977   0.119
  653SOL    HW2 2859   1.156   6.041   0.220
  654SOL     OW 2860   0.876   6.051   0.463
  654SOL    HW1 2861   0.976   6.057   0.470
  654SOL    HW2 2862   0.834   6.093   0.544
  655SOL     OW 2863   6.902   5.950   1.077
  655SOL    HW1 2864   6.872   5.933   1.171
  655SOL    HW2 2865   6.823   5.973   1.020
  656SOL     OW 2866   2.618   5.721   0.703
  656SOL    HW1 2867   2.662   5.810   0.695
  656SOL    HW2 2868   2.686   5.648   0.692
  657SOL     OW 2869   2.629   3.341   1.185
  657SOL    HW1 2870   2.684   3.261   1.210
  657SOL    HW2 2871   2.558   3.355   1.254
  658SOL     OW 2872   1.718   4.026   6.573
  658SOL    HW1 2873   1.676   3.981   6.651
  658SOL    HW2 2874   1.696   3.975   6.489
  659SOL     OW 2875   2.238   6.123   4.681
  659SOL    HW1 2876   2.315   6.186   4.693
  659SOL    HW2 2877   2.198   6.103   4.770
  660SOL     OW 2878   6.093   4.055   2.603
  660SOL    HW1 2879   6.017   4.120   2.607
  660SOL    HW2 2880   6.179   4.104   2.618
  661SOL     OW 2881   4.998   3.657   3.579
  661SOL    HW1 2882   5.024   3.590   3.648
  661SOL    HW2 2883   5.080   3.692   3.534
  662SOL     OW 2884   4.067   0.080   5.377
  662SOL    HW1 2885   3.987   0.032   5.413
  662SOL    HW2 2886   4.044   0.122   5.289
  663SOL     OW 2887   1.464   3.811   0.137
  663SOL    HW1 2888   1.476   3.847   0.045
  663SOL    HW2 2889   1.375   3.765   0.143
  664SOL     OW 2890   0.955   5.412   6.656
  664SOL    HW1 2891   0.960   5.511   6.671
  664SOL    HW2 2892   0.873   5.391   6.604
  665SOL     OW 2893   4.602   5.074   0.996
  665SOL    HW1 2894   4.549   5.000   0.955
  665SOL    HW2 2895   4.586   5.075   1.095
  666SOL     OW 2896   4.582   2.063   2.399
  666SOL    HW1 2897   4.507   2.125   2.422
  666SOL    HW2 2898   4.621   2.026   2.483
  667SOL     OW 2899   6.505   4.215   3.657
  667SOL    HW1 2900   6.602   4.240   3.652
  667SOL    HW2 2901   6.481   4.160   3.577
  668SOL     OW 2902   5.119   6.030   0.106
  668SOL    HW1 2903   5.142   5.996   0.014
  668SOL    HW2 2904   5.066   5.960   0.154
  669SOL     OW 2905   3.809   6.218   3.038
  669SOL    HW1 2906   3.741   6.253   3.102
  669SOL    HW2 2907   3.899   6.219   3.081
  670SOL     OW 2908   2.722   3.100   1.708
  670SOL    HW1 2909   2.816   3.068   1.699
  670SOL    HW2 2910   2.698   3.159   1.631
  671SOL     OW 2911   2.812   5.766   6.745
  671SOL    HW1 2912   2.883   5.729   6.685
  671SOL    HW2 2913   2.746   5.694   6.767
  672SOL     OW 2914   0.526   4.849   1.764
  672SOL    HW1 2915   0.584   4.788   1.818
  672SOL    HW2 2916   0.460   4.795   1.712
  673SOL     OW 2917   6.586   0.178   1.142
  673SOL    HW1 2918   6.545   0.244   1.079
  673SOL    HW2 2919   6.672   0.144   1.103
  674SOL     OW 2920   6.744   3.891   4.834
  674SOL    HW1 2921   6.775   3.901   4.739
  674SOL    HW2 2922   6.773   3.970   4.887
  675SOL     OW 2923   0.262   0.901   4.999
  675SOL    HW1 2924   0.207   0.835   5.050
  675SOL    HW2 2925   0.219   0.991   5.004
  676SOL     OW 2926   4.299   5.484   2.479
  676SOL    HW1 2927   4.292   5.519   2.385
  676SOL    HW2 2928   4.208   5.485   2.521
  677SOL     OW 2929   6.275   1.664   6.311
  677SOL    HW1 2930   6.179   1.637   6.304
  677SOL    HW2 2931   6.319   1.656   6.222
  678SOL     OW 2932   1.201   1.734   5.039
  678SOL    HW1 2933   1.101   1.733   5.041
  678SOL    HW2 2934   1.235   1.793   5.112
  679SOL     OW 2935   4.950   1.346   4.298
  679SOL    HW1 2936   4.971   1.340   4.395
  679SOL    HW2 2937   4.898   1.266   4.270
  680SOL     OW 2938   5.342   5.318   6.352
  680SOL    HW1 2939   5.378   5.410   6.344
  680SOL    HW2 2940   5.242   5.322   6.361
  681SOL     OW 2941   5.579   6.518   1.456
  681SOL    HW1 2942   5.565   6.516   1.357
  681SOL    HW2 2943   5.497   6.487   1.503
  682SOL     OW 2944   2.144   6.579   0.311
  682SOL    HW1 2945   2.071   6.578   0.243
  682SOL    HW2 2946   2.192   6.492   0.309
  683SOL     OW 2947   3.743   2.125   6.822
  683SOL    HW1 2948   3.821   2.130   6.885
  683SOL    HW2 2949   3.761   2.056   6.752
  684SOL     OW 2950   6.213   1.082   6.582
  684SOL    HW1 2951   6.216   0.991   6.622
  684SOL    HW2 2952   6.247   1.078   6.488
  685SOL     OW 2953   4.802   0.509   4.706
  685SOL    HW1 2954   4.878   0.510   4.642
  685SOL    HW2 2955   4.820   0.575   4.780
  686SOL     OW 2956   6.195   3.066   3.205
  686SOL    HW1 2957   6.194   3.124   3.286
  686SOL    HW2 2958   6.104   3.031   3.187
  687SOL     OW 2959   0.010   3.204   4.728
  687SOL    HW1 2960   0.106   3.185   4.746
  687SOL    HW2 2961   6.977   3.132   4.768
  688SOL     OW 2962   1.635   2.953   6.776
  688SOL    HW1 2963   1.582   2.932   6.694
  688SOL    HW2 2964   1.732   2.957   6.754
  689SOL     OW 2965   0.276   4.475   6.289
  689SOL    HW1 2966   0.325   4.522   6.362
  689SOL    HW2 2967   0.264   4.538   6.212
  690SOL     OW 2968   0.749   4.185   3.844
  690SOL    HW1 2969   0.842   4.217   3.829
  690SOL    HW2 2970   0.728   4.188   3.941
  691SOL     OW 2971   2.317   0.604   6.320
  691SOL    HW1 2972   2.231   0.631   6.365
  691SOL    HW2 2973   2.314   0.506   6.300
  692SOL     OW 2974   3.700   6.399   3.249
  692SOL    HW1 2975   3.791   6.439   3.249
  692SOL    HW2 2976   3.665   6.394   3.342
  693SOL     OW 2977   6.355   1.235   3.180
  693SOL    HW1 2978   6.429   1.298   3.153
  693SOL    HW2 2979   6.381   1.187   3.263
  694SOL     OW 2980   3.518   6.616   2.703
  694SOL    HW1 2981   3.616   6.602   2.690
  694SOL    HW2 2982   3.478   6.650   2.618
  695SOL     OW 2983   4.398   4.912   5.627
  695SOL    HW1 2984   4.423   4.821   5.662
  695SOL    HW2 2985   4.397   4.910   5.527
  696SOL     OW 2986   2.894   5.264   2.295
  696SOL    HW1 2987   2.940   5.328   2.234
  696SOL    HW2 2988   2.881   5.176   2.248
  697SOL     OW 2989   1.834   3.137   4.923
  697SOL    HW1 2990   1.883   3.213   4.964
  697SOL    HW2 2991   1.853   3.134   4.825
  698SOL     OW 2992   5.882   0.256   6.808
  698SOL    HW1 2993   5.796   0.281   6.852
  698SOL    HW2 2994   5.959   0.292   6.860
  699SOL     OW 2995   1.197   4.652   6.858
  699SOL    HW1 2996   1.247   4.634   6.942
  699SOL    HW2 2997   1.106   4.612   6.864
  700SOL     OW 2998   2.854   1.776   3.737
  700SOL    HW1 2999   2.944   1.750   3.704
  700SOL    HW2 3000   2.822   1.709   3.805
  701SOL     OW 3001   6.320   3.889   5.203
  701SOL    HW1 3002   6.378   3.821   5.248
  701SOL    HW2 3003   6.236   3.845   5.171
  702SOL     OW 3004   6.388   6.332   6.334
  702SOL    HW1 3005   6.313   6.393   6.307
  702SOL    HW2 3006   6.408   6.345   6.431
  703SOL     OW 3007   3.766   3.749   6.337
  703SOL    HW1 3008   3.671   3.761   6.365
  703SOL    HW2 3009   3.815   3.694   6.405
  704SOL     OW 3010   1.258   1.157   5.967
  704SOL    HW1 3011   1.165   1.181   5.938
  704SOL    HW2 3012   1.323   1.183   5.895
  705SOL     OW 3013   5.979   6.740   3.337
  705SOL    HW1 3014   5.934   6.818   3.292
  705SOL    HW2 3015   6.078   6.747   3.324
  706SOL     OW 3016   3.882   1.829   4.290
  706SOL    HW1 3017   3.867   1.903   4.356
  706SOL    HW2 3018   3.959   1.852   4.231
  707SOL     OW 3019   4.549   0.370   2.768
  707SOL    HW1 3020   4.522   0.352   2.862
  707SOL    HW2 3021   4.644   0.343   2.755
  708SOL     OW 3022   3.968   0.965   1.482
  708SOL    HW1 3023   3.882   0.997   1.519
  708SOL    HW2 3024   3.962   0.867   1.462
  709SOL     OW 3025   1.252   5.471   0.392
  709SOL    HW1 3026   1.308   5.436   0.467
  709SOL    HW2 3027   1.236   5.569   0.405
  710SOL     OW 3028   4.135   3.571   2.644
  710SOL    HW1 3029   4.157   3.599   2.737
  710SOL    HW2 3030   4.042   3.602   2.621
  711SOL     OW 3031   0.282   2.515   5.976
  711SOL    HW1 3032   0.244   2.540   6.065
  711SOL    HW2 3033   0.368   2.466   5.990
  712SOL     OW 3034   3.356   4.317   1.171
  712SOL    HW1 3035   3.341   4.386   1.242
  712SOL    HW2 3036   3.300   4.237   1.190
  713SOL     OW 3037   3.189   2.677   6.936
  713SOL    HW1 3038   3.285   2.697   6.955
  713SOL    HW2 3039   3.164   2.715   6.847
  714SOL     OW 3040   5.957   4.820   4.568
  714SOL    HW1 3041   6.031   4.786   4.510
  714SOL    HW2 3042   5.871   4.816   4.517
  715SOL     OW 3043   5.669   5.841   0.354
  715SOL    HW1 3044   5.671   5.743   0.369
  715SOL    HW2 3045   5.727   5.886   0.421
  716SOL     OW 3046   1.264   6.897   0.782
  716SOL    HW1 3047   1.261   6.875   0.880
  716SOL    HW2 3048   1.180   6.943   0.755
  717SOL     OW 3049   5.705   5.014   6.082
  717SOL    HW1 3050   5.699   5.114   6.082
  717SOL    HW2 3051   5.781   4.986   6.024
  718SOL     OW 3052   4.715   2.158   5.951
  718SOL    HW1 3053   4.722   2.063   5.981
  718SOL    HW2 3054   4.680   2.214   6.026
  719SOL     OW 3055   6.892   2.181   1.284
  719SOL    HW1 3056   6.803   2.200   1.242
  719SOL    HW2 3057   6.965   2.208   1.221
  720SOL     OW 3058   3.534   0.562   6.577
  720SOL    HW1 3059   3.598   0.543   6.652
  720SOL    HW2 3060   3.499   0.475   6.541
  721SOL     OW 3061   2.275   0.489   4.362
  721SOL    HW1 3062   2.214   0.428   4.413
  721SOL    HW2 3063   2.353   0.437   4.327
  722SOL     OW 3064   2.707   0.051   4.426
  722SOL    HW1 3065   2.777   0.122   4.419
  722SOL    HW2 3066   2.688   0.032   4.522
  723SOL     OW 3067   2.160   3.545   3.105
  723SOL    HW1 3068   2.174   3.586   3.015
  723SOL    HW2 3069   2.064   3.551   3.131
  724SOL     OW 3070   1.270   2.852   4.765
  724SOL    HW1 3071   1.255   2.943   4.727
  724SOL    HW2 3072   1.335   2.858   4.841
  725SOL     OW 3073   3.511   6.073   0.617
  725SOL    HW1 3074   3.611   6.073   0.630
  725SOL    HW2 3075   3.470   6.005   0.678
  726SOL     OW 3076   4.668   4.614   0.493
  726SOL    HW1 3077   4.707   4.524   0.513
  726SOL    HW2 3078   4.582   4.603   0.442
  727SOL     OW 3079   5.445   5.451   5.934
  727SOL    HW1 3080   5.455   5.389   6.012
  727SOL    HW2 3081   5.422   5.542   5.967
  728SOL     OW 3082   6.802   3.786   5.111
  728SOL    HW1 3083   6.767   3.867   5.157
  728SOL    HW2 3084   6.813   3.805   5.013
  729SOL     OW 3085   1.016   1.762   0.362
  729SOL    HW1 3086   1.079   1.700   0.409
  729SOL    HW2 3087   0.966   1.711   0.291
  730SOL     OW 3088   5.896   1.825   2.549
  730SOL    HW1 3089   5.888   1.867   2.459
  730SOL    HW2 3090   5.925   1.730   2.540
  731SOL     OW 3091   5.564   4.189   5.752
  731SOL    HW1 3092   5.575   4.191   5.852
  731SOL    HW2 3093   5.651   4.165   5.709
  732SOL     OW 3094   0.923   3.090   1.038
  732SOL    HW1 3095   0.888   3.098   1.132
  732SOL    HW2 3096   0.884   3.164   0.982
  733SOL     OW 3097   5.683   5.835   5.441
  733SOL    HW1 3098   5.699   5.744   5.479
  733SOL    HW2 3099   5.585   5.855   5.444
  734SOL     OW 3100   6.837   4.510   2.505
  734SOL    HW1 3101   6.752   4.457   2.505
  734SOL    HW2 3102   6.887   4.493   2.590
  735SOL     OW 3103   3.987   2.801   0.517
  735SOL    HW1 3104   4.009   2.746   0.598
  735SOL    HW2 3105   4.062   2.794   0.451
  736SOL     OW 3106   0.597   0.161   2.860
  736SOL    HW1 3107   0.603   0.252   2.900
  736SOL    HW2 3108   0.580   0.168   2.762
  737SOL     OW 3109   4.955   2.298   5.921
  737SOL    HW1 3110   4.877   2.239   5.942
  737SOL    HW2 3111   5.010   2.255   5.850
  738SOL     OW 3112   1.838   4.027   2.201
  738SOL    HW1 3113   1.750   3.985   2.182
  738SOL    HW2 3114   1.911   3.967   2.168
  739SOL     OW 3115   3.986   0.285   4.349
  739SOL    HW1 3116   3.940   0.198   4.369
  739SOL    HW2 3117   4.068   0.267   4.295
  740SOL     OW 3118   4.809   0.434   0.738
  740SOL    HW1 3119   4.770   0.525   0.728
  740SOL    HW2 3120   4.873   0.434   0.815
  741SOL     OW 3121   2.304   6.519   3.407
  741SOL    HW1 3122   2.257   6.438   3.372
  741SOL    HW2 3123   2.302   6.592   3.339
  742SOL     OW 3124   2.130   6.399   1.628
  742SOL    HW1 3125   2.040   6.404   1.585
  742SOL    HW2 3126   2.200   6.385   1.558
  743SOL     OW 3127   0.452   4.413   4.482
  743SOL    HW1 3128   0.504   4.413   4.567
  743SOL    HW2 3129   0.372   4.354   4.492
  744SOL     OW 3130   5.578   0.071   6.810
  744SOL    HW1 3131   5.609   0.102   6.720
  744SOL    HW2 3132   5.578   0.147   6.874
  745SOL     OW 3133   1.054   5.109   4.563
  745SOL    HW1 3134   1.005   5.041   4.618
  745SOL    HW2 3135   1.065   5.193   4.617
  746SOL     OW 3136   0.426   5.181   6.462
  746SOL    HW1 3137   0.522   5.156   6.450
  746SOL    HW2 3138   0.387   5.205   6.374
  747SOL     OW 3139   3.842   6.733   4.867
  747SOL    HW1 3140   3.767   6.666   4.871
  747SOL    HW2 3141   3.856   6.773   4.957
  748SOL     OW 3142   3.656   5.196   2.304
  748SOL    HW1 3143   3.628   5.103   2.280
  748SOL    HW2 3144   3.640   5.212   2.401
  749SOL     OW 3145   6.247   4.565   5.152
  749SOL    HW1 3146   6.164   4.511   5.140
  749SOL    HW2 3147   6.320   4.506   5.189
  750SOL     OW 3148   2.061   2.474   0.668
  750SOL    HW1 3149   1.995   2.401   0.648
  750SOL    HW2 3150   2.134   2.473   0.599
  751SOL     OW 3151   4.132   2.412   6.475
  751SOL    HW1 3152   4.093   2.475   6.407
  751SOL    HW2 3153   4.154   2.325   6.430
  752SOL     OW 3154   3.550   1.508   2.487
  752SOL    HW1 3155   3.648   1.490   2.471
  752SOL    HW2 3156   3.516   1.446   2.558
  753SOL     OW 3157   1.738   3.336   4.731
  753SOL    HW1 3158   1.838   3.340   4.730
  753SOL    HW2 3159   1.702   3.371   4.645
  754SOL     OW 3160   5.689   3.011   5.845
  754SOL    HW1 3161   5.625   2.987   5.918
  754SOL    HW2 3162   5.681   2.944   5.771
  755SOL     OW 3163   1.814   4.546   5.626
  755SOL    HW1 3164   1.739   4.612   5.626
  755SOL    HW2 3165   1.892   4.583   5.575
  756SOL     OW 3166   3.526   0.462   1.427
  756SOL    HW1 3167   3.487   0.373   1.451
  756SOL    HW2 3168   3.582   0.453   1.346
  757SOL     OW 3169   0.810   0.034   3.838
  757SOL    HW1 3170   0.892   0.038   3.894
  757SOL    HW2 3171   0.778   6.963   3.832
  758SOL     OW 3172   3.878   0.317   2.396
  758SOL    HW1 3173   3.882   0.341   2.299
  758SOL    HW2 3174   3.821   0.383   2.445
  759SOL     OW 3175   0.943   1.064   0.950
  759SOL    HW1 3176   0.967   1.025   0.861
  759SOL    HW2 3177   0.849   1.036   0.974
  760SOL     OW 3178   5.264   0.388   5.812
  760SOL    HW1 3179   5.266   0.470   5.754
  760SOL    HW2 3180   5.199   0.322   5.774
  761SOL     OW 3181   5.432   3.019   5.487
  761SOL    HW1 3182   5.389   2.935   5.522
  761SOL    HW2 3183   5.525   2.998   5.457
  762SOL     OW 3184   2.872   0.697   4.929
  762SOL    HW1 3185   2.953   0.748   4.898
  762SOL    HW2 3186   2.795   0.760   4.939
  763SOL     OW 3187   3.969   4.427   6.854
  763SOL    HW1 3188   3.958   4.341   6.804
  763SOL    HW2 3189   4.065   4.455   6.852
  764SOL     OW 3190   4.829   1.131   4.217
  764SOL    HW1 3191   4.828   1.046   4.270
  764SOL    HW2 3192   4.819   1.110   4.120
  765SOL     OW 3193   1.269   6.119   1.276
  765SOL    HW1 3194   1.308   6.031   1.251
  765SOL    HW2 3195   1.204   6.108   1.351
  766SOL     OW 3196   2.204   4.096   6.631
  766SOL    HW1 3197   2.116   4.130   6.599
  766SOL    HW2 3198   2.224   4.132   6.722
  767SOL     OW 3199   5.989   6.057   2.333
  767SOL    HW1 3200   5.903   6.050   2.385
  767SOL    HW2 3201   5.999   6.151   2.299
  768SOL     OW 3202   1.872   6.479   1.499
  768SOL    HW1 3203   1.801   6.424   1.543
  768SOL    HW2 3204   1.881   6.452   1.403
  769SOL     OW 3205   3.027   0.366   4.291
  769SOL    HW1 3206   3.118   0.356   4.331
  769SOL    HW2 3207   3.007   0.462   4.276
  770SOL     OW 3208   2.157   3.660   2.859
  770SOL    HW1 3209   2.173   3.735   2.796
  770SOL    HW2 3210   2.070   3.616   2.837
  771SOL     OW 3211   2.160   5.493   2.620
  771SOL    HW1 3212   2.111   5.578   2.601
  771SOL    HW2 3213   2.225   5.508   2.694
  772SOL     OW 3214   5.266   4.936   0.876
  772SOL    HW1 3215   5.356   4.895   0.886
  772SOL    HW2 3216   5.226   4.909   0.788
  773SOL     OW 3217   0.416   3.836   4.391
  773SOL    HW1 3218   0.399   3.909   4.325
  773SOL    HW2 3219   0.408   3.872   4.484
  774SOL     OW 3220   1.767   1.790   1.323
  774SOL    HW1 3221   1.768   1.692   1.343
  774SOL    HW2 3222   1.768   1.803   1.224
  775SOL     OW 3223   0.645   2.550   2.413
  775SOL    HW1 3224   0.561   2.497   2.426
  775SOL    HW2 3225   0.715   2.518   2.476
  776SOL     OW 3226   0.659   6.758   5.943
  776SOL    HW1 3227   0.707   6.717   5.866
  776SOL    HW2 3228   0.635   6.853   5.921
  777SOL     OW 3229   3.077   5.151   1.344
  777SOL    HW1 3230   3.158   5.149   1.286
  777SOL    HW2 3231   3.014   5.221   1.310
  778SOL     OW 3232   3.067   0.989   3.138
  778SOL    HW1 3233   2.980   1.013   3.096
  778SOL    HW2 3234   3.138   1.053   3.108
  779SOL     OW 3235   0.564   2.487   2.771
  779SOL    HW1 3236   0.635   2.555   2.750
  779SOL    HW2 3237   0.500   2.526   2.837
  780SOL     OW 3238   5.949   3.888   3.543
  780SOL    HW1 3239   6.011   3.809   3.543
  780SOL    HW2 3240   5.964   3.941   3.460
  781SOL     OW 3241   5.531   0.656   7.013
  781SOL    HW1 3242   5.498   0.563   0.006
  781SOL    HW2 3243   5.457   0.721   0.006
  782SOL     OW 3244   1.522   4.165   6.853
  782SOL    HW1 3245   1.583   4.087   6.862
  782SOL    HW2 3246   1.467   4.155   6.770
  783SOL     OW 3247   3.967   4.857   1.043
  783SOL    HW1 3248   3.917   4.912   1.109
  783SOL    HW2 3249   3.961   4.899   0.953
  784SOL     OW 3250   5.160   6.642   0.314
  784SOL    HW1 3251   5.175   6.550   0.351
  784SOL    HW2 3252   5.233   6.664   0.249
  785SOL     OW 3253   0.335   2.847   2.697
  785SOL    HW1 3254   0.290   2.797   2.771
  785SOL    HW2 3255   0.324   2.796   2.611
  786SOL     OW 3256   1.060   0.987   1.197
  786SOL    HW1 3257   1.019   0.899   1.220
  786SOL    HW2 3258   1.086   0.987   1.100
  787SOL     OW 3259   3.449   0.297   6.492
  787SOL    HW1 3260   3.543   0.268   6.512
  787SOL    HW2 3261   3.394   0.216   6.470
  788SOL     OW 3262   3.507   3.363   5.164
  788SOL    HW1 3263   3.590   3.369   5.109
  788SOL    HW2 3264   3.508   3.279   5.218
  789SOL     OW 3265   5.800   4.125   0.690
  789SOL    HW1 3266   5.728   4.142   0.623
  789SOL    HW2 3267   5.831   4.212   0.728
  790SOL     OW 3268   1.813   1.241   4.303
  790SOL    HW1 3269   1.881   1.260   4.232
  790SOL    HW2 3270   1.808   1.142   4.318
  791SOL     OW 3271   3.626   5.203   3.704
  791SOL    HW1 3272   3.568   5.143   3.759
  791SOL    HW2 3273   3.719   5.166   3.699
  792SOL     OW 3274   0.673   0.434   1.643
  792SOL    HW1 3275   0.736   0.369   1.686
  792SOL    HW2 3276   0.608   0.468   1.712
  793SOL     OW 3277   5.023   5.680   4.062
  793SOL    HW1 3278   4.961   5.694   3.985
  793SOL    HW2 3279   5.002   5.747   4.134
  794SOL     OW 3280   3.146   3.709   5.180
  794SOL    HW1 3281   3.103   3.678   5.265
  794SOL    HW2 3282   3.225   3.651   5.159
  795SOL     OW 3283   3.703   6.235   4.488
  795SOL    HW1 3284   3.738   6.294   4.560
  795SOL    HW2 3285   3.609   6.207   4.511
  796SOL     OW 3286   1.139   1.788   6.237
  796SOL    HW1 3287   1.220   1.816   6.185
  796SOL    HW2 3288   1.057   1.814   6.187
  797SOL     OW 3289   5.136   2.679   1.634
  797SOL    HW1 3290   5.087   2.734   1.701
  797SOL    HW2 3291   5.210   2.629   1.680
  798SOL     OW 3292   4.574   0.359   2.175
  798SOL    HW1 3293   4.524   0.274   2.193
  798SOL    HW2 3294   4.581   0.412   2.259
  799SOL     OW 3295   6.083   0.999   5.585
  799SOL    HW1 3296   6.138   1.044   5.655
  799SOL    HW2 3297   6.035   0.920   5.624
  800SOL     OW 3298   5.245   1.920   2.748
  800SOL    HW1 3299   5.323   1.856   2.749
  800SOL    HW2 3300   5.277   2.010   2.720
  801SOL     OW 3301   1.644   3.407   4.503
  801SOL    HW1 3302   1.690   3.361   4.427
  801SOL    HW2 3303   1.585   3.479   4.468
  802SOL     OW 3304   4.467   0.942   0.343
  802SOL    HW1 3305   4.561   0.973   0.351
  802SOL    HW2 3306   4.433   0.962   0.251
  803SOL     OW 3307   6.716   6.707   5.270
  803SOL    HW1 3308   6.798   6.660   5.303
  803SOL    HW2 3309   6.719   6.713   5.170
  804SOL     OW 3310   5.479   5.671   6.871
  804SOL    HW1 3311   5.422   5.593   6.844
  804SOL    HW2 3312   5.572   5.639   6.889
  805SOL     OW 3313   3.220   1.275   5.547
  805SOL    HW1 3314   3.183   1.278   5.640
  805SOL    HW2 3315   3.155   1.228   5.487
  806SOL     OW 3316   5.584   1.053   3.810
  806SOL    HW1 3317   5.634   1.027   3.727
  806SOL    HW2 3318   5.495   1.006   3.811
  807SOL     OW 3319   0.456   2.240   4.918
  807SOL    HW1 3320   0.368   2.281   4.940
  807SOL    HW2 3321   0.525   2.312   4.912
  808SOL     OW 3322   4.731   3.054   5.982
  808SOL    HW1 3323   4.742   3.127   6.048
  808SOL    HW2 3324   4.821   3.019   5.956
  809SOL     OW 3325   0.049   5.616   2.065
  809SOL    HW1 3326   0.039   5.711   2.035
  809SOL    HW2 3327   0.146   5.592   2.069
  810SOL     OW 3328   3.369   3.091   1.004
  810SOL    HW1 3329   3.377   3.036   1.087
  810SOL    HW2 3330   3.374   3.031   0.924
  811SOL     OW 3331   3.981   5.592   5.169
  811SOL    HW1 3332   4.070   5.550   5.150
  811SOL    HW2 3333   3.975   5.680   5.122
  812SOL     OW 3334   0.661   1.581   1.518
  812SOL    HW1 3335   0.733   1.650   1.511
  812SOL    HW2 3336   0.696   1.501   1.567
  813SOL     OW 3337   3.256   5.965   5.451
  813SOL    HW1 3338   3.291   5.884   5.404
  813SOL    HW2 3339   3.278   6.046   5.397
  814SOL     OW 3340   5.747   6.495   2.530
  814SOL    HW1 3341   5.757   6.440   2.614
  814SOL    HW2 3342   5.687   6.572   2.548
  815SOL     OW 3343   0.302   4.366   3.062
  815SOL    HW1 3344   0.203   4.355   3.071
  815SOL    HW2 3345   0.328   4.357   2.966
  816SOL     OW 3346   6.138   6.625   0.239
  816SOL    HW1 3347   6.099   6.568   0.166
  816SOL    HW2 3348   6.238   6.621   0.234
  817SOL     OW 3349   2.040   3.356   1.557
  817SOL    HW1 3350   1.949   3.363   1.517
  817SOL    HW2 3351   2.035   3.305   1.643
  818SOL     OW 3352   6.115   2.464   1.716
  818SOL    HW1 3353   6.084   2.532   1.651
  818SOL    HW2 3354   6.082   2.373   1.688
  819SOL     OW 3355   5.860   2.958   2.795
  819SOL    HW1 3356   5.837   3.055   2.794
  819SOL    HW2 3357   5.835   2.919   2.884
  820SOL     OW 3358   3.222   2.987   5.537
  820SOL    HW1 3359   3.152   2.936   5.588
  820SOL    HW2 3360   3.180   3.029   5.457
  821SOL     OW 3361   1.286   4.139   0.569
  821SOL    HW1 3362   1.363   4.152   0.632
  821SOL    HW2 3363   1.203   4.119   0.621
  822SOL     OW 3364   1.888   4.205   4.789
  822SOL    HW1 3365   1.987   4.190   4.784
  822SOL    HW2 3366   1.857   4.247   4.704
  823SOL     OW 3367   5.094   4.195   6.634
  823SOL    HW1 3368   5.173   4.244   6.596
  823SOL    HW2 3369   5.095   4.204   6.734
  824SOL     OW 3370   5.408   1.122   5.026
  824SOL    HW1 3371   5.449   1.132   5.117
  824SOL    HW2 3372   5.364   1.208   5.000
  825SOL     OW 3373   1.320   4.276   1.386
  825SOL    HW1 3374   1.346   4.318   1.299
  825SOL    HW2 3375   1.234   4.316   1.417
  826SOL     OW 3376   5.219   3.024   5.271
  826SOL    HW1 3377   5.225   2.953   5.201
  826SOL    HW2 3378   5.300   3.019   5.331
  827SOL     OW 3379   3.637   4.226   5.999
  827SOL    HW1 3380   3.599   4.152   5.944
  827SOL    HW2 3381   3.573   4.302   6.002
  828SOL     OW 3382   5.256   6.234   6.200
  828SOL    HW1 3383   5.191   6.223   6.124
  828SOL    HW2 3384   5.343   6.191   6.175
  829SOL     OW 3385   3.034   3.341   3.400
  829SOL    HW1 3386   3.115   3.394   3.427
  829SOL    HW2 3387   3.020   3.265   3.464
  830SOL     OW 3388   4.402   4.359   6.685
  830SOL    HW1 3389   4.500   4.375   6.673
  830SOL    HW2 3390   4.360   4.338   6.597
  831SOL     OW 3391   5.459   1.062   6.516
  831SOL    HW1 3392   5.377   1.073   6.572
  831SOL    HW2 3393   5.435   1.074   6.419
  832SOL     OW 3394   2.845   0.524   1.916
  832SOL    HW1 3395   2.888   0.610   1.941
  832SOL    HW2 3396   2.915   0.456   1.896
  833SOL     OW 3397   0.487   3.927   5.816
  833SOL    HW1 3398   0.551   3.854   5.840
  833SOL    HW2 3399   0.510   4.010   5.867
  834SOL     OW 3400   3.068   3.942   1.073
  834SOL    HW1 3401   2.988   3.939   1.012
  834SOL    HW2 3402   3.056   3.875   1.147
  835SOL     OW 3403   3.527   0.325   4.818
  835SOL    HW1 3404   3.496   0.340   4.912
  835SOL    HW2 3405   3.451   0.292   4.763
  836SOL     OW 3406   3.956   6.659   6.995
  836SOL    HW1 3407   3.969   6.671   6.897
  836SOL    HW2 3408   3.868   6.698   7.022
  837SOL     OW 3409   5.571   6.588   0.440
  837SOL    HW1 3410   5.561   6.570   0.342
  837SOL    HW2 3411   5.510   6.528   0.492
  838SOL     OW 3412   1.802   0.468   4.816
  838SOL    HW1 3413   1.834   0.408   4.889
  838SOL    HW2 3414   1.816   0.423   4.728
  839SOL     OW 3415   2.693   2.240   2.151
  839SOL    HW1 3416   2.681   2.327   2.102
  839SOL    HW2 3417   2.789   2.211   2.144
  840SOL     OW 3418   6.083   6.785   6.749
  840SOL    HW1 3419   6.134   6.770   6.834
  840SOL    HW2 3420   6.006   6.846   6.767
  841SOL     OW 3421   4.525   4.748   7.007
  841SOL    HW1 3422   4.556   4.771   0.075
  841SOL    HW2 3423   4.445   4.802   6.983
  842SOL     OW 3424   3.900   6.233   4.959
  842SOL    HW1 3425   3.830   6.207   4.893
  842SOL    HW2 3426   3.905   6.165   5.032
  843SOL     OW 3427   1.913   1.768   0.540
  843SOL    HW1 3428   1.981   1.792   0.609
  843SOL    HW2 3429   1.881   1.851   0.494
  844SOL     OW 3430   5.913   0.697   1.090
  844SOL    HW1 3431   5.918   0.780   1.145
  844SOL    HW2 3432   6.002   0.651   1.091
  845SOL     OW 3433   5.752   4.320   5.385
  845SOL    HW1 3434   5.778   4.229   5.352
  845SOL    HW2 3435   5.795   4.337   5.473
  846SOL     OW 3436   2.394   1.684   0.150
  846SOL    HW1 3437   2.451   1.605   0.172
  846SOL    HW2 3438   2.298   1.656   0.145
  847SOL     OW 3439   1.160   3.607   1.126
  847SOL    HW1 3440   1.172   3.631   1.030
  847SOL    HW2 3441   1.115   3.682   1.174
  848SOL     OW 3442   5.814   0.807   6.290
  848SOL    HW1 3443   5.747   0.788   6.362
  848SOL    HW2 3444   5.771   0.799   6.201
  849SOL     OW 3445   0.463   4.990   5.963
  849SOL    HW1 3446   0.428   5.066   6.018
  849SOL    HW2 3447   0.547   4.956   6.003
  850SOL     OW 3448   5.612   1.084   4.083
  850SOL    HW1 3449   5.708   1.110   4.086
  850SOL    HW2 3450   5.587   1.060   3.989
  851SOL     OW 3451   0.651   1.555   2.143
  851SOL    HW1 3452   0.718   1.486   2.114
  851SOL    HW2 3453   0.603   1.591   2.063
  852SOL     OW 3454   1.294   2.349   0.168
  852SOL    HW1 3455   1.223   2.288   0.133
  852SOL    HW2 3456   1.346   2.387   0.092
  853SOL     OW 3457   1.830   4.287   2.140
  853SOL    HW1 3458   1.840   4.191   2.168
  853SOL    HW2 3459   1.782   4.290   2.052
  854SOL     OW 3460   4.505   6.315   1.858
  854SOL    HW1 3461   4.493   6.229   1.907
  854SOL    HW2 3462   4.428   6.329   1.796
  855SOL     OW 3463   0.331   0.446   1.723
  855SOL    HW1 3464   0.298   0.361   1.764
  855SOL    HW2 3465   0.297   0.524   1.776
  856SOL     OW 3466   1.338   1.712   4.798
  856SOL    HW1 3467   1.310   1.658   4.719
  856SOL    HW2 3468   1.288   1.682   4.879
  857SOL     OW 3469   6.012   4.406   2.401
  857SOL    HW1 3470   5.918   4.439   2.403
  857SOL    HW2 3471   6.061   4.448   2.324
  858SOL     OW 3472   2.701   3.893   1.154
  858SOL    HW1 3473   2.722   3.966   1.219
  858SOL    HW2 3474   2.675   3.810   1.204
  859SOL     OW 3475   4.868   5.884   6.357
  859SOL    HW1 3476   4.967   5.878   6.368
  859SOL    HW2 3477   4.835   5.805   6.306
  860SOL     OW 3478   4.410   3.824   0.856
  860SOL    HW1 3479   4.338   3.847   0.790
  860SOL    HW2 3480   4.388   3.866   0.945
  861SOL     OW 3481   2.849   0.128   3.964
  861SOL    HW1 3482   2.792   0.068   3.907
  861SOL    HW2 3483   2.848   0.220   3.926
  862SOL     OW 3484   0.446   4.188   5.963
  862SOL    HW1 3485   0.503   4.267   5.987
  862SOL    HW2 3486   0.418   4.196   5.868
  863SOL     OW 3487   0.416   6.919   0.197
  863SOL    HW1 3488   0.441   6.929   0.293
  863SOL    HW2 3489   0.374   7.004   0.165
  864SOL     OW 3490   4.185   5.140   3.620
  864SOL    HW1 3491   4.236   5.127   3.535
  864SOL    HW2 3492   4.218   5.075   3.689
  865SOL     OW 3493   1.687   6.354   6.139
  865SOL    HW1 3494   1.598   6.353   6.093
  865SOL    HW2 3495   1.680   6.308   6.227
  866SOL     OW 3496   1.627   2.100   1.934
  866SOL    HW1 3497   1.614   2.102   1.835
  866SOL    HW2 3498   1.701   2.162   1.960
  867SOL     OW 3499   3.822   3.015   0.543
  867SOL    HW1 3500   3.884   2.938   0.526
  867SOL    HW2 3501   3.809   3.027   0.642
  868SOL     OW 3502   5.871   0.059   0.902
  868SOL    HW1 3503   5.830   0.133   0.954
  868SOL    HW2 3504   5.957   0.031   0.946
  869SOL     OW 3505   6.397   5.476   2.939
  869SOL    HW1 3506   6.300   5.451   2.948
  869SOL    HW2 3507   6.409   5.532   2.858
  870SOL     OW 3508   5.117   3.476   0.790
  870SOL    HW1 3509   5.031   3.427   0.779
  870SOL    HW2 3510   5.105   3.551   0.856
  871SOL     OW 3511   5.134   4.007   3.026
  871SOL    HW1 3512   5.161   4.001   3.122
  871SOL    HW2 3513   5.078   3.928   3.002
  872SOL     OW 3514   5.868   4.418   3.775
  872SOL    HW1 3515   5.789   4.415   3.836
  872SOL    HW2 3516   5.892   4.513   3.756
  873SOL     OW 3517   5.740   6.894   4.094
  873SOL    HW1 3518   5.773   6.825   4.159
  873SOL    HW2 3519   5.665   6.944   4.135
  874SOL     OW 3520   1.067   4.839   5.662
  874SOL    HW1 3521   0.994   4.832   5.594
  874SOL    HW2 3522   1.032   4.886   5.743
  875SOL     OW 3523   3.715   2.686   0.591
  875SOL    HW1 3524   3.668   2.747   0.528
  875SOL    HW2 3525   3.813   2.689   0.573
  876SOL     OW 3526   0.767   5.620   3.094
  876SOL    HW1 3527   0.853   5.585   3.058
  876SOL    HW2 3528   0.781   5.655   3.187
  877SOL     OW 3529   4.056   3.585   0.218
  877SOL    HW1 3530   4.106   3.672   0.216
  877SOL    HW2 3531   3.980   3.589   0.153
  878SOL     OW 3532   4.273   5.958   5.623
  878SOL    HW1 3533   4.336   5.996   5.689
  878SOL    HW2 3534   4.313   5.876   5.581
  879SOL     OW 3535   3.155   2.253   1.807
  879SOL    HW1 3536   3.109   2.193   1.742
  879SOL    HW2 3537   3.090   2.283   1.876
  880SOL     OW 3538   3.327   3.763   5.589
  880SOL    HW1 3539   3.415   3.806   5.612
  880SOL    HW2 3540   3.283   3.816   5.516
  881SOL     OW 3541   4.500   4.518   5.320
  881SOL    HW1 3542   4.570   4.545   5.385
  881SOL    HW2 3543   4.458   4.432   5.350
  882SOL     OW 3544   1.498   1.622   4.193
  882SOL    HW1 3545   1.404   1.627   4.227
  882SOL    HW2 3546   1.529   1.713   4.167
  883SOL     OW 3547   4.686   5.387   6.124
  883SOL    HW1 3548   4.658   5.291   6.125
  883SOL    HW2 3549   4.611   5.444   6.159
  884SOL     OW 3550   6.852   3.858   0.401
  884SOL    HW1 3551   6.939   3.848   0.352
  884SOL    HW2 3552   6.843   3.784   0.467
  885SOL     OW 3553   5.134   6.366   6.847
  885SOL    HW1 3554   5.224   6.409   6.854
  885SOL    HW2 3555   5.140   6.285   6.789
  886SOL     OW 3556   3.374   0.263   0.854
  886SOL    HW1 3557   3.401   0.318   0.775
  886SOL    HW2 3558   3.287   0.216   0.834
  887SOL     OW 3559   4.158   0.115   4.215
  887SOL    HW1 3560   4.251   0.135   4.187
  887SOL    HW2 3561   4.135   0.020   4.193
  888SOL     OW 3562   5.930   6.163   3.070
  888SOL    HW1 3563   5.868   6.193   2.997
  888SOL    HW2 3564   5.884   6.094   3.126
  889SOL     OW 3565   1.471   6.296   5.463
  889SOL    HW1 3566   1.386   6.247   5.482
  889SOL    HW2 3567   1.525   6.244   5.397
  890SOL     OW 3568   2.129   4.811   2.097
  890SOL    HW1 3569   2.097   4.783   2.188
  890SOL    HW2 3570   2.100   4.905   2.080
  891SOL     OW 3571   6.666   4.232   1.588
  891SOL    HW1 3572   6.678   4.135   1.567
  891SOL    HW2 3573   6.570   4.257   1.578
  892SOL     OW 3574   4.142   3.532   6.735
  892SOL    HW1 3575   4.187   3.537   6.824
  892SOL    HW2 3576   4.165   3.614   6.682
  893SOL     OW 3577   2.168   0.968   2.378
  893SOL    HW1 3578   2.232   0.925   2.315
  893SOL    HW2 3579   2.198   1.061   2.399
  894SOL     OW 3580   1.161   2.407   3.841
  894SOL    HW1 3581   1.183   2.321   3.795
  894SOL    HW2 3582   1.244   2.461   3.851
  895SOL     OW 3583   1.091   5.332   4.714
  895SOL    HW1 3584   1.010   5.350   4.771
  895SOL    HW2 3585   1.172   5.365   4.762
  896SOL     OW 3586   5.238   7.019   2.087
  896SOL    HW1 3587   5.209   6.979   2.000
  896SOL    HW2 3588   5.189   6.974   2.162
  897SOL     OW 3589   5.481   0.786   0.295
  897SOL    HW1 3590   5.510   0.704   0.343
  897SOL    HW2 3591   5.481   0.770   0.196
  898SOL     OW 3592   4.376   5.404   2.892
  898SOL    HW1 3593   4.307   5.443   2.954
  898SOL    HW2 3594   4.337   5.325   2.845
  899SOL     OW 3595   6.899   4.827   0.207
  899SOL    HW1 3596   6.907   4.852   0.111
  899SOL    HW2 3597   6.974   4.869   0.259
  900SOL     OW 3598   5.032   6.192   1.532
  900SOL    HW1 3599   4.972   6.255   1.581
  900SOL    HW2 3600   5.106   6.243   1.489
  901SOL     OW 3601   0.980   1.028   5.403
  901SOL    HW1 3602   1.029   1.012   5.489
  901SOL    HW2 3603   0.883   1.009   5.416
  902SOL     OW 3604   0.328   2.397   6.463
  902SOL    HW1 3605   0.239   2.421   6.502
  902SOL    HW2 3606   0.393   2.470   6.482
  903SOL     OW 3607   6.736   3.802   6.216
  903SOL    HW1 3608   6.698   3.725   6.165
  903SOL    HW2 3609   6.786   3.769   6.296
  904SOL     OW 3610   1.363   2.683   3.682
  904SOL    HW1 3611   1.272   2.720   3.663
  904SOL    HW2 3612   1.432   2.748   3.651
  905SOL     OW 3613   4.243   3.317   6.043
  905SOL    HW1 3614   4.275   3.310   5.949
  905SOL    HW2 3615   4.144   3.306   6.046
  906SOL     OW 3616   0.813   3.817   5.666
  906SOL    HW1 3617   0.781   3.803   5.759
  906SOL    HW2 3618   0.855   3.908   5.659
  907SOL     OW 3619   5.787   3.213   3.137
  907SOL    HW1 3620   5.864   3.278   3.140
  907SOL    HW2 3621   5.823   3.120   3.140
  908SOL     OW 3622   1.916   6.377   3.572
  908SOL    HW1 3623   1.968   6.392   3.656
  908SOL    HW2 3624   1.873   6.463   3.544
  909SOL     OW 3625   2.217   6.644   1.777
  909SOL    HW1 3626   2.157   6.587   1.721
  909SOL    HW2 3627   2.306   6.652   1.732
  910SOL     OW 3628   2.299   0.303   0.562
  910SOL    HW1 3629   2.348   0.228   0.607
  910SOL    HW2 3630   2.287   0.378   0.627
  911SOL     OW 3631   0.114   5.768   1.113
  911SOL    HW1 3632   0.074   5.838   1.054
  911SOL    HW2 3633   0.045   5.701   1.137
  912SOL     OW 3634   6.421   1.090   4.672
  912SOL    HW1 3635   6.385   1.149   4.599
  912SOL    HW2 3636   6.353   1.021   4.695
  913SOL     OW 3637   2.375   0.444   2.997
  913SOL    HW1 3638   2.322   0.478   2.920
  913SOL    HW2 3639   2.423   0.519   3.042
  914SOL     OW 3640   2.836   5.739   4.985
  914SOL    HW1 3641   2.915   5.738   4.923
  914SOL    HW2 3642   2.781   5.657   4.970
  915SOL     OW 3643   1.441   3.215   0.239
  915SOL    HW1 3644   1.529   3.245   0.277
  915SOL    HW2 3645   1.400   3.291   0.188
  916SOL     OW 3646   1.599   2.778   1.781
  916SOL    HW1 3647   1.536   2.719   1.832
  916SOL    HW2 3648   1.663   2.722   1.729
  917SOL     OW 3649   5.111   0.624   1.590
  917SOL    HW1 3650   5.084   0.604   1.496
  917SOL    HW2 3651   5.162   0.546   1.627
  918SOL     OW 3652   2.635   6.247   6.586
  918SOL    HW1 3653   2.712   6.275   6.644
  918SOL    HW2 3654   2.641   6.149   6.569
  919SOL     OW 3655   6.586   5.775   2.209
  919SOL    HW1 3656   6.648   5.854   2.206
  919SOL    HW2 3657   6.522   5.781   2.132
  920SOL     OW 3658   1.480   6.479   3.339
  920SOL    HW1 3659   1.511   6.475   3.434
  920SOL    HW2 3660   1.553   6.518   3.282
  921SOL     OW 3661   4.578   4.446   3.847
  921SOL    HW1 3662   4.548   4.456   3.752
  921SOL    HW2 3663   4.629   4.528   3.874
  922SOL     OW 3664   3.457   2.693   6.157
  922SOL    HW1 3665   3.527   2.761   6.178
  922SOL    HW2 3666   3.406   2.721   6.076
  923SOL     OW 3667   3.211   4.530   6.456
  923SOL    HW1 3668   3.200   4.556   6.551
  923SOL    HW2 3669   3.195   4.609   6.397
  924SOL     OW 3670   6.217   2.772   1.995
  924SOL    HW1 3671   6.194   2.782   1.898
  924SOL    HW2 3672   6.176   2.687   2.030
  925SOL     OW 3673   0.032   1.809   5.811
  925SOL    HW1 3674   6.998   1.763   5.744
  925SOL    HW2 3675   0.101   1.745   5.845
  926SOL     OW 3676   6.276   1.041   0.077
  926SOL    HW1 3677   6.237   1.128   0.049
  926SOL    HW2 3678   6.332   1.004   0.004
  927SOL     OW 3679   5.213   4.363   3.536
  927SOL    HW1 3680   5.194   4.334   3.442
  927SOL    HW2 3681   5.305   4.403   3.540
  928SOL     OW 3682   1.937   0.472   0.449
  928SOL    HW1 3683   1.966   0.377   0.434
  928SOL    HW2 3684   1.871   0.475   0.524
  929SOL     OW 3685   0.602   1.395   0.624
  929SOL    HW1 3686   0.653   1.480   0.615
  929SOL    HW2 3687   0.505   1.415   0.637
  930SOL     OW 3688   5.441   5.974   4.965
  930SOL    HW1 3689   5.500   6.051   4.941
  930SOL    HW2 3690   5.489   5.913   5.027
  931SOL     OW 3691   5.777   3.684   2.742
  931SOL    HW1 3692   5.836   3.719   2.669
  931SOL    HW2 3693   5.829   3.679   2.827
  932SOL     OW 3694   2.629   6.719   2.161
  932SOL    HW1 3695   2.697   6.752   2.095
  932SOL    HW2 3696   2.621   6.620   2.153
  933SOL     OW 3697   0.168   5.972   2.627
  933SOL    HW1 3698   0.239   6.035   2.659
  933SOL    HW2 3699   0.082   5.993   2.674
  934SOL     OW 3700   1.616   0.974   4.866
  934SOL    HW1 3701   1.642   1.005   4.774
  934SOL    HW2 3702   1.578   0.882   4.860
  935SOL     OW 3703   5.127   3.421   5.340
  935SOL    HW1 3704   5.162   3.499   5.391
  935SOL    HW2 3705   5.070   3.453   5.264
  936SOL     OW 3706   1.343   0.898   6.177
  936SOL    HW1 3707   1.311   0.819   6.230
  936SOL    HW2 3708   1.315   0.983   6.223
  937SOL     OW 3709   4.552   1.649   4.778
  937SOL    HW1 3710   4.464   1.697   4.788
  937SOL    HW2 3711   4.624   1.702   4.823
  938SOL     OW 3712   0.691   5.357   6.539
  938SOL    HW1 3713   0.697   5.433   6.475
  938SOL    HW2 3714   0.620   5.376   6.607
  939SOL     OW 3715   4.552   1.544   5.036
  939SOL    HW1 3716   4.567   1.573   4.942
  939SOL    HW2 3717   4.586   1.451   5.049
  940SOL     OW 3718   0.593   3.407   2.664
  940SOL    HW1 3719   0.657   3.439   2.734
  940SOL    HW2 3720   0.514   3.469   2.660
  941SOL     OW 3721   6.652   0.703   4.149
  941SOL    HW1 3722   6.588   0.630   4.173
  941SOL    HW2 3723   6.615   0.757   4.073
  942SOL     OW 3724   5.032   0.739   4.097
  942SOL    HW1 3725   5.025   0.657   4.040
  942SOL    HW2 3726   5.012   0.820   4.041
  943SOL     OW 3727   1.183   3.287   3.943
  943SOL    HW1 3728   1.166   3.324   3.851
  943SOL    HW2 3729   1.110   3.316   4.005
  944SOL     OW 3730   6.402   3.622   5.998
  944SOL    HW1 3731   6.494   3.591   6.024
  944SOL    HW2 3732   6.368   3.566   5.923
  945SOL     OW 3733   6.531   4.082   5.861
  945SOL    HW1 3734   6.615   4.131   5.839
  945SOL    HW2 3735   6.538   3.988   5.827
  946SOL     OW 3736   4.964   2.547   5.750
  946SOL    HW1 3737   4.935   2.480   5.818
  946SOL    HW2 3738   5.047   2.594   5.782
  947SOL     OW 3739   3.367   2.884   4.391
  947SOL    HW1 3740   3.373   2.811   4.459
  947SOL    HW2 3741   3.434   2.955   4.412
  948SOL     OW 3742   4.269   0.471   0.512
  948SOL    HW1 3743   4.293   0.534   0.438
  948SOL    HW2 3744   4.176   0.436   0.499
  949SOL     OW 3745   0.232   6.135   6.274
  949SOL    HW1 3746   0.208   6.151   6.178
  949SOL    HW2 3747   0.260   6.039   6.285
  950SOL     OW 3748   4.086   5.049   1.831
  950SOL    HW1 3749   4.111   4.990   1.907
  950SOL    HW2 3750   4.102   5.001   1.745
  951SOL     OW 3751   1.693   1.172   2.594
  951SOL    HW1 3752   1.597   1.145   2.597
  951SOL    HW2 3753   1.738   1.129   2.516
  952SOL     OW 3754   5.846   1.887   2.257
  952SOL    HW1 3755   5.770   1.827   2.232
  952SOL    HW2 3756   5.829   1.979   2.222
  953SOL     OW 3757   5.157   6.383   4.988
  953SOL    HW1 3758   5.122   6.393   5.081
  953SOL    HW2 3759   5.254   6.360   4.992
  954SOL     OW 3760   5.027   5.746   0.563
  954SOL    HW1 3761   5.076   5.700   0.489
  954SOL    HW2 3762   5.011   5.841   0.537
  955SOL     OW 3763   0.092   4.891   3.539
  955SOL    HW1 3764   0.003   4.927   3.569
  955SOL    HW2 3765   0.110   4.805   3.586
  956SOL     OW 3766   0.770   2.139   2.472
  956SOL    HW1 3767   0.749   2.216   2.532
  956SOL    HW2 3768   0.714   2.145   2.389
  957SOL     OW 3769   0.967   4.910   4.694
  957SOL    HW1 3770   0.965   4.921   4.793
  957SOL    HW2 3771   0.875   4.887   4.661
  958SOL     OW 3772   4.570   2.398   2.079
  958SOL    HW1 3773   4.496   2.395   2.012
  958SOL    HW2 3774   4.655   2.422   2.033
  959SOL     OW 3775   2.829   4.771   3.107
  959SOL    HW1 3776   2.878   4.705   3.165
  959SOL    HW2 3777   2.773   4.831   3.165
  960SOL     OW 3778   6.903   5.914   3.591
  960SOL    HW1 3779   6.975   5.854   3.555
  960SOL    HW2 3780   6.846   5.945   3.515
  961SOL     OW 3781   4.996   0.159   3.363
  961SOL    HW1 3782   4.961   0.252   3.351
  961SOL    HW2 3783   4.940   0.111   3.430
  962SOL     OW 3784   1.525   1.210   4.040
  962SOL    HW1 3785   1.501   1.239   3.947
  962SOL    HW2 3786   1.595   1.270   4.077
  963SOL     OW 3787   6.280   1.560   5.961
  963SOL    HW1 3788   6.193   1.605   5.979
  963SOL    HW2 3789   6.353   1.610   6.007
  964SOL     OW 3790   6.249   4.116   0.812
  964SOL    HW1 3791   6.298   4.059   0.747
  964SOL    HW2 3792   6.286   4.209   0.809
  965SOL     OW 3793   5.305   1.744   1.294
  965SOL    HW1 3794   5.217   1.751   1.246
  965SOL    HW2 3795   5.341   1.836   1.311
  966SOL     OW 3796   5.910   2.217   2.371
  966SOL    HW1 3797   5.862   2.182   2.290
  966SOL    HW2 3798   5.885   2.313   2.385
  967SOL     OW 3799   2.524   5.021   1.512
  967SOL    HW1 3800   2.488   5.048   1.423
  967SOL    HW2 3801   2.543   5.103   1.567
  968SOL     OW 3802   3.965   2.216   2.652
  968SOL    HW1 3803   3.875   2.177   2.674
  968SOL    HW2 3804   3.975   2.222   2.553
  969SOL     OW 3805   3.784   6.064   6.747
  969SOL    HW1 3806   3.789   6.104   6.839
  969SOL    HW2 3807   3.864   6.093   6.694
  970SOL     OW 3808   4.652   1.204   4.909
  970SOL    HW1 3809   4.558   1.171   4.909
  970SOL    HW2 3810   4.715   1.127   4.895
  971SOL     OW 3811   0.214   1.983   2.962
  971SOL    HW1 3812   0.173   2.066   2.924
  971SOL    HW2 3813   0.312   1.984   2.945
  972SOL     OW 3814   5.610   4.312   1.438
  972SOL    HW1 3815   5.672   4.262   1.378
  972SOL    HW2 3816   5.526   4.334   1.388
  973SOL     OW 3817   6.932   4.395   0.274
  973SOL    HW1 3818   6.872   4.331   0.324
  973SOL    HW2 3819   7.017   4.349   0.251
  974SOL     OW 3820   5.223   0.261   2.085
  974SOL    HW1 3821   5.139   0.278   2.137
  974SOL    HW2 3822   5.232   0.163   2.068
  975SOL     OW 3823   1.826   6.051   6.179
  975SOL    HW1 3824   1.906   6.109   6.184
  975SOL    HW2 3825   1.810   6.024   6.084
  976SOL     OW 3826   6.667   3.099   2.439
  976SOL    HW1 3827   6.569   3.087   2.424
  976SOL    HW2 3828   6.695   3.046   2.519
  977SOL     OW 3829   1.920   0.580   3.760
  977SOL    HW1 3830   1.902   0.651   3.691
  977SOL    HW2 3831   2.018   0.563   3.765
  978SOL     OW 3832   4.383   4.404   5.626
  978SOL    HW1 3833   4.456   4.335   5.626
  978SOL    HW2 3834   4.295   4.360   5.610
  979SOL     OW 3835   6.704   1.827   1.195
  979SOL    HW1 3836   6.641   1.848   1.121
  979SOL    HW2 3837   6.796   1.811   1.157
  980SOL     OW 3838   3.977   2.106   4.029
  980SOL    HW1 3839   3.991   2.046   3.949
  980SOL    HW2 3840   4.010   2.198   4.008
  981SOL     OW 3841   1.713   1.574   5.273
  981SOL    HW1 3842   1.764   1.641   5.219
  981SOL    HW2 3843   1.733   1.588   5.370
  982SOL     OW 3844   2.896   1.783   3.372
  982SOL    HW1 3845   2.982   1.821   3.337
  982SOL    HW2 3846   2.849   1.853   3.426
  983SOL     OW 3847   5.493   2.167   3.599
  983SOL    HW1 3848   5.425   2.228   3.640
  983SOL    HW2 3849   5.447   2.084   3.567
  984SOL     OW 3850   3.002   1.338   3.786
  984SOL    HW1 3851   2.948   1.365   3.706
  984SOL    HW2 3852   3.097   1.322   3.758
  985SOL     OW 3853   4.916   5.093   6.364
  985SOL    HW1 3854   4.858   5.020   6.327
  985SOL    HW2 3855   4.973   5.130   6.291
  986SOL     OW 3856   5.357   4.103   0.470
  986SOL    HW1 3857   5.290   4.082   0.399
  986SOL    HW2 3858   5.390   4.018   0.512
  987SOL     OW 3859   4.557   6.806   1.798
  987SOL    HW1 3860   4.518   6.897   1.782
  987SOL    HW2 3861   4.559   6.755   1.712
  988SOL     OW 3862   3.803   2.956   2.726
  988SOL    HW1 3863   3.753   2.909   2.799
  988SOL    HW2 3864   3.739   2.995   2.661
  989SOL     OW 3865   6.133   1.323   5.717
  989SOL    HW1 3866   6.231   1.333   5.733
  989SOL    HW2 3867   6.117   1.317   5.618
  990SOL     OW 3868   4.265   0.905   2.318
  990SOL    HW1 3869   4.238   0.809   2.314
  990SOL    HW2 3870   4.253   0.947   2.228
  991SOL     OW 3871   1.661   2.431   5.251
  991SOL    HW1 3872   1.572   2.471   5.273
  991SOL    HW2 3873   1.702   2.393   5.334
  992SOL     OW 3874   0.303   3.082   1.786
  992SOL    HW1 3875   0.254   3.147   1.845
  992SOL    HW2 3876   0.275   2.989   1.808
  993SOL     OW 3877   1.118   4.738   1.700
  993SOL    HW1 3878   1.071   4.711   1.783
  993SOL    HW2 3879   1.079   4.688   1.622
  994SOL     OW 3880   3.154   3.948   2.687
  994SOL    HW1 3881   3.251   3.959   2.668
  994SOL    HW2 3882   3.103   4.026   2.651
  995SOL     OW 3883   3.606   2.470   6.432
  995SOL    HW1 3884   3.665   2.467   6.352
  995SOL    HW2 3885   3.638   2.405   6.501
  996SOL     OW 3886   1.796   4.529   4.328
  996SOL    HW1 3887   1.794   4.469   4.248
  996SOL    HW2 3888   1.863   4.493   4.394
  997SOL     OW 3889   0.362   0.744   2.663
  997SOL    HW1 3890   0.311   0.658   2.666
  997SOL    HW2 3891   0.387   0.764   2.568
  998SOL     OW 3892   3.945   6.286   4.352
  998SOL    HW1 3893   4.010   6.233   4.406
  998SOL    HW2 3894   3.856   6.286   4.396
  999SOL     OW 3895   5.319   4.968   2.112
  999SOL    HW1 3896   5.364   5.056   2.098
  999SOL    HW2 3897   5.248   4.955   2.043
 1000SOL     OW 3898   0.879   0.894   1.723
 1000SOL    HW1 3899   0.910   0.895   1.628
 1000SOL    HW2 3900   0.833   0.808   1.742
 1001SOL     OW 3901   5.645   6.876   0.850
 1001SOL    HW1 3902   5.597   6.852   0.934
 1001SOL    HW2 3903   5.721   6.938   0.872
 1002SOL     OW 3904   6.590   2.167   0.034
 1002SOL    HW1 3905   6.518   2.227   0.068
 1002SOL    HW2 3906   6.595   2.085   0.091
 1003SOL     OW 3907   2.125   6.214   1.876
 1003SOL    HW1 3908   2.037   6.243   1.912
 1003SOL    HW2 3909   2.166   6.289   1.823
 1004SOL     OW 3910   0.518   0.047   1.553
 1004SOL    HW1 3911   0.493   0.143   1.550
 1004SOL    HW2 3912   0.463   7.020   1.487
 1005SOL     OW 3913   0.472   2.048   2.913
 1005SOL    HW1 3914   0.456   2.002   2.826
 1005SOL    HW2 3915   0.503   1.981   2.981
 1006SOL     OW 3916   1.670   5.031   0.773
 1006SOL    HW1 3917   1.658   5.130   0.767
 1006SOL    HW2 3918   1.580   4.987   0.775
 1007SOL     OW 3919   5.517   6.998   4.178
 1007SOL    HW1 3920   5.521   0.074   4.186
 1007SOL    HW2 3921   5.431   6.972   4.134
 1008SOL     OW 3922   2.153   3.160   5.125
 1008SOL    HW1 3923   2.168   3.191   5.219
 1008SOL    HW2 3924   2.223   3.093   5.100
 1009SOL     OW 3925   0.002   6.051   4.496
 1009SOL    HW1 3926   0.095   6.085   4.488
 1009SOL    HW2 3927   7.009   5.982   4.426
 1010SOL     OW 3928   3.877   2.217   6.025
 1010SOL    HW1 3929   3.887   2.133   6.079
 1010SOL    HW2 3930   3.790   2.214   5.976
 1011SOL     OW 3931   2.496   5.093   2.236
 1011SOL    HW1 3932   2.502   5.016   2.300
 1011SOL    HW2 3933   2.462   5.060   2.148
 1012SOL     OW 3934   6.301   0.405   0.517
 1012SOL    HW1 3935   6.290   0.314   0.476
 1012SOL    HW2 3936   6.388   0.409   0.566
 1013SOL     OW 3937   0.922   1.666   5.914
 1013SOL    HW1 3938   0.862   1.642   5.837
 1013SOL    HW2 3939   1.005   1.610   5.909
 1014SOL     OW 3940   4.781   5.857   6.906
 1014SOL    HW1 3941   4.714   5.821   6.841
 1014SOL    HW2 3942   4.791   5.956   6.890
 1015SOL     OW 3943   2.188   6.422   5.032
 1015SOL    HW1 3944   2.107   6.440   5.088
 1015SOL    HW2 3945   2.209   6.325   5.034
 1016SOL     OW 3946   3.540   3.533   0.122
 1016SOL    HW1 3947   3.503   3.592   0.193
 1016SOL    HW2 3948   3.622   3.486   0.156
 1017SOL     OW 3949   4.298   2.639   1.028
 1017SOL    HW1 3950   4.306   2.635   0.928
 1017SOL    HW2 3951   4.344   2.560   1.068
 1018SOL     OW 3952   1.330   3.091   4.359
 1018SOL    HW1 3953   1.338   3.006   4.307
 1018SOL    HW2 3954   1.391   3.088   4.438
 1019SOL     OW 3955   0.688   0.141   6.925
 1019SOL    HW1 3956   0.600   0.093   6.924
 1019SOL    HW2 3957   0.759   0.079   6.892
 1020SOL     OW 3958   1.111   6.660   1.180
 1020SOL    HW1 3959   1.179   6.716   1.133
 1020SOL    HW2 3960   1.150   6.571   1.203
 1021SOL     OW 3961   5.637   1.144   1.340
 1021SOL    HW1 3962   5.642   1.081   1.263
 1021SOL    HW2 3963   5.609   1.094   1.422
 1022SOL     OW 3964   3.878   4.121   6.009
 1022SOL    HW1 3965   3.793   4.172   5.997
 1022SOL    HW2 3966   3.953   4.169   5.963
 1023SOL     OW 3967   0.751   6.877   1.923
 1023SOL    HW1 3968   0.711   6.786   1.914
 1023SOL    HW2 3969   0.778   6.893   2.018
 1024SOL     OW 3970   6.134   3.593   4.279
 1024SOL    HW1 3971   6.183   3.624   4.197
 1024SOL    HW2 3972   6.193   3.531   4.331
 1025SOL     OW 3973   3.116   3.266   0.700
 1025SOL    HW1 3974   3.158   3.218   0.623
 1025SOL    HW2 3975   3.034   3.313   0.669
 1026SOL     OW 3976   2.231   2.682   1.649
 1026SOL    HW1 3977   2.227   2.770   1.602
 1026SOL    HW2 3978   2.308   2.681   1.713
 1027SOL     OW 3979   2.878   6.229   0.815
 1027SOL    HW1 3980   2.829   6.307   0.776
 1027SOL    HW2 3981   2.813   6.156   0.837
 1028SOL     OW 3982   3.719   6.150   0.341
 1028SOL    HW1 3983   3.731   6.063   0.390
 1028SOL    HW2 3984   3.679   6.133   0.252
 1029SOL     OW 3985   1.818   0.490   0.048
 1029SOL    HW1 3986   1.909   0.505   0.086
 1029SOL    HW2 3987   1.750   0.504   0.120
 1030SOL     OW 3988   3.451   3.613   1.652
 1030SOL    HW1 3989   3.488   3.611   1.559
 1030SOL    HW2 3990   3.436   3.520   1.684
 1031SOL     OW 3991   5.007   5.247   1.052
 1031SOL    HW1 3992   5.062   5.204   0.980
 1031SOL    HW2 3993   4.912   5.256   1.020
 1032SOL     OW 3994   2.021   2.045   4.720
 1032SOL    HW1 3995   2.121   2.057   4.724
 1032SOL    HW2 3996   1.990   2.055   4.626
 1033SOL     OW 3997   1.524   6.085   1.168
 1033SOL    HW1 3998   1.475   6.119   1.088
 1033SOL    HW2 3999   1.618   6.119   1.166
 1034SOL     OW 4000   0.530   5.671   4.779
 1034SOL    HW1 4001   0.561   5.675   4.874
 1034SOL    HW2 4002   0.477   5.753   4.758
 1035SOL     OW 4003   1.100   1.276   3.162
 1035SOL    HW1 4004   1.007   1.250   3.187
 1035SOL    HW2 4005   1.129   1.353   3.219
 1036SOL     OW 4006   2.767   0.889   2.189
 1036SOL    HW1 4007   2.669   0.904   2.203
 1036SOL    HW2 4008   2.799   0.940   2.110
 1037SOL     OW 4009   1.909   0.938   1.154
 1037SOL    HW1 4010   1.815   0.946   1.187
 1037SOL    HW2 4011   1.972   0.941   1.232
 1038SOL     OW 4012   1.506   0.064   5.193
 1038SOL    HW1 4013   1.583   0.082   5.131
 1038SOL    HW2 4014   1.421   0.090   5.148
 1039SOL     OW 4015   3.078   2.738   5.961
 1039SOL    HW1 4016   3.044   2.644   5.957
 1039SOL    HW2 4017   3.083   2.768   6.056
 1040SOL     OW 4018   4.868   3.027   2.164
 1040SOL    HW1 4019   4.907   2.953   2.110
 1040SOL    HW2 4020   4.776   3.048   2.131
 1041SOL     OW 4021   6.596   0.101   4.363
 1041SOL    HW1 4022   6.671   0.043   4.394
 1041SOL    HW2 4023   6.526   0.106   4.434
 1042SOL     OW 4024   3.824   4.847   2.300
 1042SOL    HW1 4025   3.732   4.876   2.274
 1042SOL    HW2 4026   3.882   4.843   2.220
 1043SOL     OW 4027   3.774   1.335   4.954
 1043SOL    HW1 4028   3.845   1.370   5.015
 1043SOL    HW2 4029   3.715   1.410   4.924
 1044SOL     OW 4030   5.063   4.779   2.350
 1044SOL    HW1 4031   5.118   4.846   2.401
 1044SOL    HW2 4032   4.990   4.745   2.408
 1045SOL     OW 4033   3.290   5.899   2.419
 1045SOL    HW1 4034   3.238   5.983   2.435
 1045SOL    HW2 4035   3.262   5.830   2.486
 1046SOL     OW 4036   1.340   6.735   0.572
 1046SOL    HW1 4037   1.322   6.795   0.649
 1046SOL    HW2 4038   1.388   6.785   0.500
 1047SOL     OW 4039   1.288   6.461   2.293
 1047SOL    HW1 4040   1.377   6.500   2.319
 1047SOL    HW2 4041   1.250   6.410   2.370
 1048SOL     OW 4042   4.639   6.016   5.406
 1048SOL    HW1 4043   4.653   6.114   5.388
 1048SOL    HW2 4044   4.620   6.003   5.503
 1049SOL     OW 4045   6.487   5.183   3.868
 1049SOL    HW1 4046   6.468   5.103   3.811
 1049SOL    HW2 4047   6.406   5.207   3.921
 1050SOL     OW 4048   4.010   5.412   0.884
 1050SOL    HW1 4049   3.993   5.344   0.813
 1050SOL    HW2 4050   3.957   5.389   0.966
 1051SOL     OW 4051   2.720   5.312   1.269
 1051SOL    HW1 4052   2.666   5.341   1.348
 1051SOL    HW2 4053   2.714   5.213   1.258
 1052SOL     OW 4054   3.570   0.145   4.228
 1052SOL    HW1 4055   3.620   0.218   4.273
 1052SOL    HW2 4056   3.574   0.062   4.284
 1053SOL     OW 4057   5.084   5.438   3.764
 1053SOL    HW1 4058   5.075   5.363   3.699
 1053SOL    HW2 4059   5.105   5.402   3.854
 1054SOL     OW 4060   2.241   3.885   5.314
 1054SOL    HW1 4061   2.229   3.932   5.402
 1054SOL    HW2 4062   2.329   3.910   5.275
 1055SOL     OW 4063   5.500   6.516   4.259
 1055SOL    HW1 4064   5.573   6.452   4.282
 1055SOL    HW2 4065   5.516   6.603   4.305
 1056SOL     OW 4066   1.602   5.034   5.915
 1056SOL    HW1 4067   1.541   5.076   5.982
 1056SOL    HW2 4068   1.633   4.945   5.950
 1057SOL     OW 4069   3.561   3.324   2.718
 1057SOL    HW1 4070   3.545   3.383   2.639
 1057SOL    HW2 4071   3.509   3.239   2.708
 1058SOL     OW 4072   5.052   1.615   1.976
 1058SOL    HW1 4073   5.055   1.649   1.881
 1058SOL    HW2 4074   5.092   1.684   2.036
 1059SOL     OW 4075   2.312   0.106   1.912
 1059SOL    HW1 4076   2.255   0.185   1.888
 1059SOL    HW2 4077   2.257   0.023   1.907
 1060SOL     OW 4078   0.188   3.878   4.188
 1060SOL    HW1 4079   0.150   3.789   4.160
 1060SOL    HW2 4080   0.269   3.898   4.133
 1061SOL     OW 4081   5.184   3.573   1.664
 1061SOL    HW1 4082   5.163   3.515   1.743
 1061SOL    HW2 4083   5.130   3.543   1.585
 1062SOL     OW 4084   5.975   4.658   5.423
 1062SOL    HW1 4085   6.015   4.573   5.390
 1062SOL    HW2 4086   5.986   4.730   5.354
 1063SOL     OW 4087   1.476   4.538   1.656
 1063SOL    HW1 4088   1.461   4.637   1.656
 1063SOL    HW2 4089   1.402   4.493   1.706
 1064SOL     OW 4090   1.489   4.117   2.040
 1064SOL    HW1 4091   1.393   4.106   2.011
 1064SOL    HW2 4092   1.540   4.034   2.015
 1065SOL     OW 4093   4.963   0.287   3.927
 1065SOL    HW1 4094   4.971   0.343   4.010
 1065SOL    HW2 4095   5.006   0.336   3.851
 1066SOL     OW 4096   5.310   0.643   3.940
 1066SOL    HW1 4097   5.279   0.562   3.889
 1066SOL    HW2 4098   5.292   0.629   4.038
 1067SOL     OW 4099   0.892   3.492   0.118
 1067SOL    HW1 4100   0.915   3.532   0.207
 1067SOL    HW2 4101   0.806   3.530   0.085
 1068SOL     OW 4102   4.862   5.104   3.123
 1068SOL    HW1 4103   4.861   5.173   3.051
 1068SOL    HW2 4104   4.792   5.035   3.105
 1069SOL     OW 4105   5.151   4.813   1.148
 1069SOL    HW1 4106   5.204   4.835   1.066
 1069SOL    HW2 4107   5.189   4.731   1.190
 1070SOL     OW 4108   1.121   1.090   1.749
 1070SOL    HW1 4109   1.074   1.038   1.820
 1070SOL    HW2 4110   1.056   1.115   1.678
 1071SOL     OW 4111   2.533   6.559   4.052
 1071SOL    HW1 4112   2.547   6.572   3.954
 1071SOL    HW2 4113   2.507   6.464   4.070
 1072SOL     OW 4114   1.761   6.226   1.162
 1072SOL    HW1 4115   1.781   6.321   1.185
 1072SOL    HW2 4116   1.817   6.165   1.218
 1073SOL     OW 4117   3.767   6.506   2.626
 1073SOL    HW1 4118   3.817   6.438   2.680
 1073SOL    HW2 4119   3.814   6.520   2.539
 1074SOL     OW 4120   3.153   5.168   0.232
 1074SOL    HW1 4121   3.093   5.165   0.312
 1074SOL    HW2 4122   3.156   5.078   0.189
 1075SOL     OW 4123   4.200   6.747   3.699
 1075SOL    HW1 4124   4.157   6.660   3.723
 1075SOL    HW2 4125   4.131   6.811   3.667
 1076SOL     OW 4126   0.054   4.380   5.309
 1076SOL    HW1 4127   0.032   4.291   5.269
 1076SOL    HW2 4128   0.050   4.374   5.409
 1077SOL     OW 4129   5.674   0.453   0.665
 1077SOL    HW1 4130   5.661   0.450   0.764
 1077SOL    HW2 4131   5.691   0.361   0.630
 1078SOL     OW 4132   1.128   1.189   2.493
 1078SOL    HW1 4133   1.100   1.182   2.398
 1078SOL    HW2 4134   1.155   1.099   2.527
 1079SOL     OW 4135   1.824   5.986   2.566
 1079SOL    HW1 4136   1.800   5.971   2.662
 1079SOL    HW2 4137   1.922   6.001   2.558
 1080SOL     OW 4138   2.090   4.714   3.443
 1080SOL    HW1 4139   2.086   4.779   3.520
 1080SOL    HW2 4140   2.011   4.728   3.384
 1081SOL     OW 4141   6.962   6.827   5.654
 1081SOL    HW1 4142   6.900   6.756   5.620
 1081SOL    HW2 4143   7.019   6.860   5.579
 1082SOL     OW 4144   3.523   1.669   6.455
 1082SOL    HW1 4145   3.515   1.575   6.421
 1082SOL    HW2 4146   3.597   1.674   6.522
 1083SOL     OW 4147   4.038   4.318   1.301
 1083SOL    HW1 4148   4.031   4.268   1.388
 1083SOL    HW2 4149   3.982   4.272   1.232
 1084SOL     OW 4150   6.604   6.149   1.117
 1084SOL    HW1 4151   6.623   6.099   1.202
 1084SOL    HW2 4152   6.594   6.084   1.042
 1085SOL     OW 4153   1.049   4.231   3.864
 1085SOL    HW1 4154   1.053   4.147   3.918
 1085SOL    HW2 4155   1.060   4.310   3.923
 1086SOL     OW 4156   6.762   5.995   2.270
 1086SOL    HW1 4157   6.798   6.048   2.193
 1086SOL    HW2 4158   6.709   6.054   2.330
 1087SOL     OW 4159   6.369   3.452   5.589
 1087SOL    HW1 4160   6.337   3.490   5.675
 1087SOL    HW2 4161   6.291   3.432   5.530
 1088SOL     OW 4162   5.865   4.718   3.725
 1088SOL    HW1 4163   5.930   4.752   3.793
 1088SOL    HW2 4164   5.775   4.758   3.742
 1089SOL     OW 4165   1.273   6.960   4.438
 1089SOL    HW1 4166   1.353   7.020   4.431
 1089SOL    HW2 4167   1.192   7.007   4.403
 1090SOL     OW 4168   2.281   1.596   3.640
 1090SOL    HW1 4169   2.258   1.654   3.561
 1090SOL    HW2 4170   2.227   1.513   3.637
 1091SOL     OW 4171   2.298   2.759   5.511
 1091SOL    HW1 4172   2.199   2.767   5.497
 1091SOL    HW2 4173   2.343   2.745   5.422
 1092SOL     OW 4174   2.178   3.832   0.250
 1092SOL    HW1 4175   2.101   3.879   0.208
 1092SOL    HW2 4176   2.178   3.847   0.349
 1093SOL     OW 4177   1.806   1.733   2.270
 1093SOL    HW1 4178   1.740   1.782   2.213
 1093SOL    HW2 4179   1.894   1.728   2.222
 1094SOL     OW 4180   1.047   6.094   3.398
 1094SOL    HW1 4181   1.119   6.161   3.381
 1094SOL    HW2 4182   1.013   6.104   3.491
 1095SOL     OW 4183   0.139   2.372   5.744
 1095SOL    HW1 4184   0.170   2.440   5.811
 1095SOL    HW2 4185   0.043   2.388   5.721
 1096SOL     OW 4186   3.327   4.712   1.694
 1096SOL    HW1 4187   3.419   4.714   1.735
 1096SOL    HW2 4188   3.308   4.621   1.659
 1097SOL     OW 4189   1.771   3.950   4.051
 1097SOL    HW1 4190   1.765   4.005   4.134
 1097SOL    HW2 4191   1.832   3.995   3.986
 1098SOL     OW 4192   5.293   3.274   0.946
 1098SOL    HW1 4193   5.219   3.321   0.898
 1098SOL    HW2 4194   5.299   3.180   0.913
 1099SOL     OW 4195   3.713   1.567   5.420
 1099SOL    HW1 4196   3.653   1.603   5.492
 1099SOL    HW2 4197   3.806   1.558   5.455
 1100SOL     OW 4198   2.937   1.636   6.627
 1100SOL    HW1 4199   2.992   1.643   6.544
 1100SOL    HW2 4200   2.844   1.608   6.603
 1101SOL     OW 4201   6.395   2.326   0.121
 1101SOL    HW1 4202   6.297   2.310   0.120
 1101SOL    HW2 4203   6.429   2.323   0.215
 1102SOL     OW 4204   0.625   6.085   4.075
 1102SOL    HW1 4205   0.545   6.037   4.111
 1102SOL    HW2 4206   0.634   6.173   4.121
 1103SOL     OW 4207   3.118   1.515   0.487
 1103SOL    HW1 4208   3.207   1.558   0.498
 1103SOL    HW2 4209   3.125   1.438   0.424
 1104SOL     OW 4210   2.074   3.495   5.313
 1104SOL    HW1 4211   2.023   3.453   5.237
 1104SOL    HW2 4212   2.172   3.491   5.292
 1105SOL     OW 4213   5.884   3.354   4.690
 1105SOL    HW1 4214   5.895   3.438   4.637
 1105SOL    HW2 4215   5.935   3.362   4.776
 1106SOL     OW 4216   0.314   2.339   0.382
 1106SOL    HW1 4217   0.305   2.335   0.482
 1106SOL    HW2 4218   0.260   2.266   0.341
 1107SOL     OW 4219   1.708   0.463   6.372
 1107SOL    HW1 4220   1.647   0.543   6.369
 1107SOL    HW2 4221   1.746   0.454   6.464
 1108SOL     OW 4222   3.057   0.617   5.871
 1108SOL    HW1 4223   3.105   0.648   5.953
 1108SOL    HW2 4224   3.090   0.526   5.845
 1109SOL     OW 4225   4.005   6.451   5.075
 1109SOL    HW1 4226   3.934   6.508   5.116
 1109SOL    HW2 4227   3.963   6.368   5.037
 1110SOL     OW 4228   2.780   1.462   2.709
 1110SOL    HW1 4229   2.692   1.442   2.752
 1110SOL    HW2 4230   2.837   1.513   2.772
 1111SOL     OW 4231   5.107   5.200   0.100
 1111SOL    HW1 4232   5.203   5.224   0.086
 1111SOL    HW2 4233   5.062   5.272   0.153
 1112SOL     OW 4234   6.414   0.724   2.350
 1112SOL    HW1 4235   6.366   0.758   2.269
 1112SOL    HW2 4236   6.348   0.692   2.417
 1113SOL     OW 4237   0.523   3.745   3.116
 1113SOL    HW1 4238   0.430   3.771   3.090
 1113SOL    HW2 4239   0.538   3.767   3.213
 1114SOL     OW 4240   4.580   1.497   6.365
 1114SOL    HW1 4241   4.516   1.476   6.438
 1114SOL    HW2 4242   4.666   1.449   6.381
 1115SOL     OW 4243   4.132   3.054   0.126
 1115SOL    HW1 4244   4.041   3.026   0.095
 1115SOL    HW2 4245   4.128   3.147   0.161
 1116SOL     OW 4246   5.190   6.034   5.140
 1116SOL    HW1 4247   5.103   6.076   5.113
 1116SOL    HW2 4248   5.259   6.054   5.071
 1117SOL     OW 4249   1.797   2.763   1.283
 1117SOL    HW1 4250   1.778   2.668   1.260
 1117SOL    HW2 4251   1.896   2.776   1.291
 1118SOL     OW 4252   2.422   4.340   1.484
 1118SOL    HW1 4253   2.327   4.311   1.484
 1118SOL    HW2 4254   2.442   4.391   1.568
 1119SOL     OW 4255   4.725   4.736   1.178
 1119SOL    HW1 4256   4.695   4.663   1.117
 1119SOL    HW2 4257   4.715   4.705   1.273
 1120SOL     OW 4258   5.599   0.061   5.312
 1120SOL    HW1 4259   5.667   0.056   5.385
 1120SOL    HW2 4260   5.549   6.998   5.307
 1121SOL     OW 4261   5.467   4.816   2.650
 1121SOL    HW1 4262   5.408   4.737   2.668
 1121SOL    HW2 4263   5.547   4.787   2.598
 1122SOL     OW 4264   4.272   3.064   6.438
 1122SOL    HW1 4265   4.320   3.135   6.386
 1122SOL    HW2 4266   4.303   3.066   6.533
 1123SOL     OW 4267   5.472   1.764   2.752
 1123SOL    HW1 4268   5.546   1.825   2.779
 1123SOL    HW2 4269   5.448   1.705   2.829
 1124SOL     OW 4270   6.181   4.119   5.336
 1124SOL    HW1 4271   6.236   4.038   5.317
 1124SOL    HW2 4272   6.117   4.134   5.261
 1125SOL     OW 4273   3.108   1.552   5.187
 1125SOL    HW1 4274   3.127   1.454   5.198
 1125SOL    HW2 4275   3.050   1.565   5.107
 1126SOL     OW 4276   5.286   6.696   0.726
 1126SOL    HW1 4277   5.223   6.659   0.795
 1126SOL    HW2 4278   5.380   6.688   0.760
 1127SOL     OW 4279   5.050   5.475   5.657
 1127SOL    HW1 4280   5.124   5.532   5.622
 1127SOL    HW2 4281   4.964   5.527   5.656
 1128SOL     OW 4282   5.597   2.096   5.263
 1128SOL    HW1 4283   5.534   2.164   5.301
 1128SOL    HW2 4284   5.565   2.068   5.172
 1129SOL     OW 4285   3.676   0.209   6.602
 1129SOL    HW1 4286   3.772   0.200   6.574
 1129SOL    HW2 4287   3.671   0.218   6.701
 1130SOL     OW 4288   2.050   4.626   1.077
 1130SOL    HW1 4289   2.057   4.616   0.977
 1130SOL    HW2 4290   2.044   4.723   1.100
 1131SOL     OW 4291   0.482   6.267   5.992
 1131SOL    HW1 4292   0.427   6.347   6.015
 1131SOL    HW2 4293   0.578   6.293   5.984
 1132SOL     OW 4294   5.127   0.157   0.802
 1132SOL    HW1 4295   5.063   0.081   0.796
 1132SOL    HW2 4296   5.134   0.187   0.897
 1133SOL     OW 4297   0.940   1.430   0.845
 1133SOL    HW1 4298   1.001   1.380   0.784
 1133SOL    HW2 4299   0.973   1.525   0.854
 1134SOL     OW 4300   4.806   1.311   1.558
 1134SOL    HW1 4301   4.761   1.357   1.634
 1134SOL    HW2 4302   4.743   1.245   1.517
 1135SOL     OW 4303   2.313   1.182   2.489
 1135SOL    HW1 4304   2.292   1.278   2.470
 1135SOL    HW2 4305   2.411   1.170   2.499
 1136SOL     OW 4306   3.468   5.383   4.786
 1136SOL    HW1 4307   3.475   5.481   4.766
 1136SOL    HW2 4308   3.490   5.331   4.704
 1137SOL     OW 4309   1.547   1.747   6.438
 1137SOL    HW1 4310   1.543   1.671   6.502
 1137SOL    HW2 4311   1.638   1.754   6.398
 1138SOL     OW 4312   0.392   1.263   6.466
 1138SOL    HW1 4313   0.387   1.322   6.546
 1138SOL    HW2 4314   0.354   1.174   6.488
 1139SOL     OW 4315   3.047   5.702   1.160
 1139SOL    HW1 4316   3.061   5.796   1.129
 1139SOL    HW2 4317   3.136   5.656   1.166
 1140SOL     OW 4318   3.415   1.049   2.067
 1140SOL    HW1 4319   3.499   1.088   2.105
 1140SOL    HW2 4320   3.385   1.103   1.988
 1141SOL     OW 4321   6.913   6.418   6.809
 1141SOL    HW1 4322   6.953   6.353   6.745
 1141SOL    HW2 4323   6.887   6.502   6.761
 1142SOL     OW 4324   3.644   0.699   4.152
 1142SOL    HW1 4325   3.716   0.631   4.171
 1142SOL    HW2 4326   3.615   0.741   4.238
 1143SOL     OW 4327   2.104   3.044   2.206
 1143SOL    HW1 4328   2.112   3.141   2.230
 1143SOL    HW2 4329   2.180   2.993   2.246
 1144SOL     OW 4330   6.547   4.415   5.491
 1144SOL    HW1 4331   6.618   4.485   5.484
 1144SOL    HW2 4332   6.469   4.452   5.542
 1145SOL     OW 4333   0.313   4.489   2.276
 1145SOL    HW1 4334   0.282   4.571   2.324
 1145SOL    HW2 4335   0.386   4.446   2.328
 1146SOL     OW 4336   6.228   0.526   1.628
 1146SOL    HW1 4337   6.175   0.579   1.561
 1146SOL    HW2 4338   6.249   0.436   1.590
 1147SOL     OW 4339   1.485   4.697   0.917
 1147SOL    HW1 4340   1.454   4.757   0.843
 1147SOL    HW2 4341   1.582   4.676   0.904
 1148SOL     OW 4342   4.734   6.969   6.622
 1148SOL    HW1 4343   4.796   6.992   6.697
 1148SOL    HW2 4344   4.683   6.885   6.645
 1149SOL     OW 4345   6.583   4.110   2.995
 1149SOL    HW1 4346   6.669   4.151   2.968
 1149SOL    HW2 4347   6.596   4.011   3.008
 1150SOL     OW 4348   2.798   4.491   0.895
 1150SOL    HW1 4349   2.803   4.394   0.917
 1150SOL    HW2 4350   2.877   4.538   0.936
 1151SOL     OW 4351   4.754   5.216   6.979
 1151SOL    HW1 4352   4.765   5.119   6.999
 1151SOL    HW2 4353   4.676   5.252   0.007
 1152SOL     OW 4354   0.570   5.764   5.761
 1152SOL    HW1 4355   0.602   5.669   5.768
 1152SOL    HW2 4356   0.471   5.767   5.770
 1153SOL     OW 4357   2.272   6.992   2.461
 1153SOL    HW1 4358   2.261   6.991   2.361
 1153SOL    HW2 4359   2.316   6.907   2.489
 1154SOL     OW 4360   0.698   3.937   1.886
 1154SOL    HW1 4361   0.688   3.985   1.973
 1154SOL    HW2 4362   0.632   3.862   1.881
 1155SOL     OW 4363   2.806   4.980   0.082
 1155SOL    HW1 4364   2.797   4.987   0.182
 1155SOL    HW2 4365   2.844   5.064   0.045
 1156SOL     OW 4366   1.858   0.824   5.099
 1156SOL    HW1 4367   1.941   0.835   5.044
 1156SOL    HW2 4368   1.800   0.904   5.089
 1157SOL     OW 4369   6.538   0.998   5.193
 1157SOL    HW1 4370   6.609   1.067   5.176
 1157SOL    HW2 4371   6.507   1.005   5.288
 1158SOL     OW 4372   0.311   5.690   5.726
 1158SOL    HW1 4373   0.364   5.605   5.714
 1158SOL    HW2 4374   0.215   5.668   5.738
 1159SOL     OW 4375   4.778   0.048   3.498
 1159SOL    HW1 4376   4.714   0.099   3.555
 1159SOL    HW2 4377   4.785   6.978   3.532
 1160SOL     OW 4378   3.574   3.182   1.630
 1160SOL    HW1 4379   3.509   3.226   1.568
 1160SOL    HW2 4380   3.526   3.116   1.688
 1161SOL     OW 4381   5.041   0.603   6.154
 1161SOL    HW1 4382   4.961   0.558   6.117
 1161SOL    HW2 4383   5.124   0.563   6.114
 1162SOL     OW 4384   3.069   1.915   0.007
 1162SOL    HW1 4385   3.061   1.923   0.107
 1162SOL    HW2 4386   3.147   1.969   7.000
 1163SOL     OW 4387   6.712   3.397   1.882
 1163SOL    HW1 4388   6.705   3.494   1.905
 1163SOL    HW2 4389   6.682   3.342   1.961
 1164SOL     OW 4390   5.427   2.258   4.250
 1164SOL    HW1 4391   5.374   2.217   4.324
 1164SOL    HW2 4392   5.521   2.224   4.254
 1165SOL     OW 4393   1.977   4.469   4.521
 1165SOL    HW1 4394   2.042   4.489   4.447
 1165SOL    HW2 4395   2.022   4.485   4.609
 1166SOL     OW 4396   3.727   0.383   0.694
 1166SOL    HW1 4397   3.630   0.402   0.681
 1166SOL    HW2 4398   3.758   0.319   0.624
 1167SOL     OW 4399   3.959   6.730   6.712
 1167SOL    HW1 4400   4.026   6.794   6.749
 1167SOL    HW2 4401   3.909   6.773   6.637
 1168SOL     OW 4402   6.717   1.356   3.415
 1168SOL    HW1 4403   6.632   1.363   3.467
 1168SOL    HW2 4404   6.788   1.409   3.461
 1169SOL     OW 4405   5.804   3.063   6.241
 1169SOL    HW1 4406   5.723   3.006   6.257
 1169SOL    HW2 4407   5.815   3.127   6.317
 1170SOL     OW 4408   5.270   0.905   1.939
 1170SOL    HW1 4409   5.278   0.833   2.008
 1170SOL    HW2 4410   5.245   0.991   1.984
 1171SOL     OW 4411   2.928   6.699   6.951
 1171SOL    HW1 4412   2.915   6.650   6.865
 1171SOL    HW2 4413   2.910   6.638   0.004
 1172SOL     OW 4414   3.113   4.006   2.008
 1172SOL    HW1 4415   3.103   3.997   2.107
 1172SOL    HW2 4416   3.025   4.026   1.967
 1173SOL     OW 4417   3.392   0.010   5.640
 1173SOL    HW1 4418   3.332   6.962   5.674
 1173SOL    HW2 4419   3.338   0.079   5.592
 1174SOL     OW 4420   3.133   4.321   0.346
 1174SOL    HW1 4421   3.185   4.237   0.328
 1174SOL    HW2 4422   3.174   4.369   0.424
 1175SOL     OW 4423   4.279   3.042   6.699
 1175SOL    HW1 4424   4.298   3.117   6.762
 1175SOL    HW2 4425   4.287   2.955   6.748
 1176SOL     OW 4426   5.623   4.681   1.249
 1176SOL    HW1 4427   5.716   4.715   1.238
 1176SOL    HW2 4428   5.619   4.585   1.224
 1177SOL     OW 4429   6.957   1.847   6.194
 1177SOL    HW1 4430   6.968   1.823   6.290
 1177SOL    HW2 4431   6.966   1.764   6.138
 1178SOL     OW 4432   3.884   2.954   1.195
 1178SOL    HW1 4433   3.949   3.020   1.232
 1178SOL    HW2 4434   3.793   2.995   1.193
 1179SOL     OW 4435   3.059   5.387   0.068
 1179SOL    HW1 4436   3.136   5.414   0.011
 1179SOL    HW2 4437   3.089   5.320   0.136
 1180SOL     OW 4438   2.171   6.497   3.955
 1180SOL    HW1 4439   2.233   6.423   3.979
 1180SOL    HW2 4440   2.202   6.540   3.870
 1181SOL     OW 4441   6.685   2.901   4.865
 1181SOL    HW1 4442   6.615   2.829   4.867
 1181SOL    HW2 4443   6.641   2.990   4.866
 1182SOL     OW 4444   2.466   5.316   3.596
 1182SOL    HW1 4445   2.423   5.406   3.598
 1182SOL    HW2 4446   2.432   5.260   3.671
 1183SOL     OW 4447   3.774   6.356   1.610
 1183SOL    HW1 4448   3.733   6.330   1.523
 1183SOL    HW2 4449   3.788   6.455   1.612
 1184SOL     OW 4450   4.380   1.079   5.874
 1184SOL    HW1 4451   4.412   1.168   5.906
 1184SOL    HW2 4452   4.299   1.091   5.817
 1185SOL     OW 4453   1.621   0.022   0.947
 1185SOL    HW1 4454   1.551   0.041   1.016
 1185SOL    HW2 4455   1.576   7.013   0.863
 1186SOL     OW 4456   6.269   5.908   6.036
 1186SOL    HW1 4457   6.277   5.975   6.109
 1186SOL    HW2 4458   6.175   5.907   6.002
 1187SOL     OW 4459   5.301   6.748   5.786
 1187SOL    HW1 4460   5.368   6.674   5.776
 1187SOL    HW2 4461   5.244   6.731   5.866
 1188SOL     OW 4462   3.331   5.931   6.659
 1188SOL    HW1 4463   3.322   5.834   6.679
 1188SOL    HW2 4464   3.414   5.946   6.605
 1189SOL     OW 4465   5.765   0.742   2.048
 1189SOL    HW1 4466   5.669   0.743   2.020
 1189SOL    HW2 4467   5.823   0.757   1.968
 1190SOL     OW 4468   3.800   5.009   4.402
 1190SOL    HW1 4469   3.804   5.108   4.393
 1190SOL    HW2 4470   3.707   4.977   4.384
 1191SOL     OW 4471   3.758   6.399   4.698
 1191SOL    HW1 4472   3.846   6.440   4.722
 1191SOL    HW2 4473   3.684   6.455   4.734
 1192SOL     OW 4474   5.160   6.121   2.985
 1192SOL    HW1 4475   5.075   6.168   3.007
 1192SOL    HW2 4476   5.139   6.041   2.929
 1193SOL     OW 4477   0.263   0.146   5.511
 1193SOL    HW1 4478   0.200   0.224   5.508
 1193SOL    HW2 4479   0.350   0.172   5.469
 1194SOL     OW 4480   6.509   1.658   0.626
 1194SOL    HW1 4481   6.541   1.752   0.616
 1194SOL    HW2 4482   6.510   1.633   0.723
 1195SOL     OW 4483   6.033   3.275   0.996
 1195SOL    HW1 4484   5.934   3.268   0.981
 1195SOL    HW2 4485   6.053   3.361   1.042
 1196SOL     OW 4486   6.641   4.954   1.811
 1196SOL    HW1 4487   6.565   4.922   1.754
 1196SOL    HW2 4488   6.675   4.879   1.867
 1197SOL     OW 4489   4.040   6.527   4.700
 1197SOL    HW1 4490   4.092   6.598   4.748
 1197SOL    HW2 4491   4.074   6.520   4.606
 1198SOL     OW 4492   1.724   2.940   2.777
 1198SOL    HW1 4493   1.795   2.904   2.838
 1198SOL    HW2 4494   1.652   2.872   2.766
 1199SOL     OW 4495   3.782   3.477   3.275
 1199SOL    HW1 4496   3.794   3.565   3.320
 1199SOL    HW2 4497   3.780   3.404   3.343
 1200SOL     OW 4498   3.863   4.076   4.774
 1200SOL    HW1 4499   3.914   4.037   4.697
 1200SOL    HW2 4500   3.872   4.175   4.773
 1201SOL     OW 4501   6.900   1.210   4.555
 1201SOL    HW1 4502   6.855   1.123   4.578
 1201SOL    HW2 4503   6.995   1.192   4.530
 1202SOL     OW 4504   5.969   1.116   5.834
 1202SOL    HW1 4505   5.996   1.115   5.931
 1202SOL    HW2 4506   6.028   1.179   5.784
 1203SOL     OW 4507   6.847   6.735   1.134
 1203SOL    HW1 4508   6.862   6.809   1.200
 1203SOL    HW2 4509   6.826   6.651   1.184
 1204SOL     OW 4510   4.451   1.699   1.654
 1204SOL    HW1 4511   4.478   1.787   1.693
 1204SOL    HW2 4512   4.353   1.684   1.672
 1205SOL     OW 4513   4.609   3.201   6.657
 1205SOL    HW1 4514   4.558   3.280   6.690
 1205SOL    HW2 4515   4.602   3.126   6.722
 1206SOL     OW 4516   1.087   2.417   4.651
 1206SOL    HW1 4517   1.122   2.479   4.722
 1206SOL    HW2 4518   1.075   2.326   4.690
 1207SOL     OW 4519   0.717   6.770   6.868
 1207SOL    HW1 4520   0.755   6.678   6.875
 1207SOL    HW2 4521   0.619   6.767   6.888
 1208SOL     OW 4522   3.293   3.743   1.811
 1208SOL    HW1 4523   3.236   3.670   1.849
 1208SOL    HW2 4524   3.342   3.709   1.731
 1209SOL     OW 4525   5.685   0.393   4.296
 1209SOL    HW1 4526   5.659   0.322   4.231
 1209SOL    HW2 4527   5.737   0.464   4.249
 1210SOL     OW 4528   4.131   0.043   3.821
 1210SOL    HW1 4529   4.041   0.007   3.846
 1210SOL    HW2 4530   4.188   6.992   3.786
 1211SOL     OW 4531   1.146   3.417   3.702
 1211SOL    HW1 4532   1.134   3.426   3.603
 1211SOL    HW2 4533   1.113   3.500   3.747
 1212SOL     OW 4534   0.074   1.378   5.839
 1212SOL    HW1 4535   7.022   1.415   5.786
 1212SOL    HW2 4536   0.055   1.282   5.861
 1213SOL     OW 4537   5.914   2.967   3.190
 1213SOL    HW1 4538   5.953   2.955   3.282
 1213SOL    HW2 4539   5.845   2.897   3.174
 1214SOL     OW 4540   0.599   2.984   6.106
 1214SOL    HW1 4541   0.544   2.957   6.185
 1214SOL    HW2 4542   0.648   3.069   6.126
 1215SOL     OW 4543   2.206   5.447   2.076
 1215SOL    HW1 4544   2.115   5.459   2.036
 1215SOL    HW2 4545   2.225   5.349   2.085
 1216SOL     OW 4546   0.075   0.657   0.303
 1216SOL    HW1 4547   0.037   0.647   0.211
 1216SOL    HW2 4548   0.150   0.723   0.301
 1217SOL     OW 4549   3.433   5.339   1.112
 1217SOL    HW1 4550   3.507   5.373   1.170
 1217SOL    HW2 4551   3.469   5.319   1.021
 1218SOL     OW 4552   0.911   4.067   5.621
 1218SOL    HW1 4553   0.858   4.114   5.550
 1218SOL    HW2 4554   1.008   4.093   5.612
 1219SOL     OW 4555   5.084   5.293   1.891
 1219SOL    HW1 4556   5.130   5.344   1.964
 1219SOL    HW2 4557   4.989   5.323   1.885
 1220SOL     OW 4558   6.813   4.281   2.936
 1220SOL    HW1 4559   6.881   4.310   3.003
 1220SOL    HW2 4560   6.846   4.303   2.844
 1221SOL     OW 4561   5.651   3.706   6.008
 1221SOL    HW1 4562   5.706   3.722   5.926
 1221SOL    HW2 4563   5.710   3.715   6.089
 1222SOL     OW 4564   0.734   0.396   6.918
 1222SOL    HW1 4565   0.646   0.443   6.917
 1222SOL    HW2 4566   0.719   0.297   6.921
 1223SOL     OW 4567   3.947   1.454   0.659
 1223SOL    HW1 4568   3.994   1.514   0.724
 1223SOL    HW2 4569   3.993   1.458   0.571
 1224SOL     OW 4570   2.959   5.677   0.054
 1224SOL    HW1 4571   2.989   5.720   6.993
 1224SOL    HW2 4572   2.989   5.581   0.056
 1225SOL     OW 4573   3.787   2.118   0.756
 1225SOL    HW1 4574   3.764   2.031   0.713
 1225SOL    HW2 4575   3.707   2.155   0.803
 1226SOL     OW 4576   5.028   6.312   0.737
 1226SOL    HW1 4577   4.934   6.319   0.770
 1226SOL    HW2 4578   5.042   6.224   0.692
 1227SOL     OW 4579   5.377   5.286   0.023
 1227SOL    HW1 4580   5.427   5.370   0.047
 1227SOL    HW2 4581   5.375   5.275   6.948
 1228SOL     OW 4582   3.616   2.742   0.846
 1228SOL    HW1 4583   3.671   2.728   0.928
 1228SOL    HW2 4584   3.671   2.720   0.765
 1229SOL     OW 4585   1.976   5.810   1.048
 1229SOL    HW1 4586   2.003   5.803   0.953
 1229SOL    HW2 4587   1.876   5.804   1.055
 1230SOL     OW 4588   5.445   5.358   2.828
 1230SOL    HW1 4589   5.416   5.391   2.918
 1230SOL    HW2 4590   5.508   5.281   2.839
 1231SOL     OW 4591   1.269   1.697   5.680
 1231SOL    HW1 4592   1.278   1.770   5.748
 1231SOL    HW2 4593   1.355   1.647   5.673
 1232SOL     OW 4594   5.628   1.360   5.061
 1232SOL    HW1 4595   5.659   1.452   5.087
 1232SOL    HW2 4596   5.572   1.366   4.979
 1233SOL     OW 4597   0.351   5.858   4.730
 1233SOL    HW1 4598   0.289   5.829   4.658
 1233SOL    HW2 4599   0.351   5.958   4.736
 1234SOL     OW 4600   6.313   2.622   5.038
 1234SOL    HW1 4601   6.244   2.678   5.084
 1234SOL    HW2 4602   6.271   2.539   5.002
 1235SOL     OW 4603   6.098   4.646   1.229
 1235SOL    HW1 4604   6.187   4.690   1.236
 1235SOL    HW2 4605   6.041   4.698   1.165
 1236SOL     OW 4606   4.201   1.312   2.222
 1236SOL    HW1 4607   4.113   1.303   2.175
 1236SOL    HW2 4608   4.193   1.382   2.293
 1237SOL     OW 4609   1.492   5.383   5.053
 1237SOL    HW1 4610   1.402   5.339   5.057
 1237SOL    HW2 4611   1.559   5.317   5.019
 1238SOL     OW 4612   0.943   0.239   4.804
 1238SOL    HW1 4613   1.030   0.284   4.821
 1238SOL    HW2 4614   0.888   0.293   4.741
 1239SOL     OW 4615   6.660   6.973   5.762
 1239SOL    HW1 4616   6.707   6.903   5.708
 1239SOL    HW2 4617   6.583   6.932   5.810
 1240SOL     OW 4618   5.946   5.349   2.253
 1240SOL    HW1 4619   5.866   5.358   2.312
 1240SOL    HW2 4620   5.922   5.294   2.173
 1241SOL     OW 4621   5.958   4.452   5.065
 1241SOL    HW1 4622   5.913   4.483   5.149
 1241SOL    HW2 4623   6.008   4.368   5.083
 1242SOL     OW 4624   2.346   3.531   0.517
 1242SOL    HW1 4625   2.388   3.491   0.599
 1242SOL    HW2 4626   2.258   3.571   0.541
 1243SOL     OW 4627   0.200   1.561   4.880
 1243SOL    HW1 4628   0.299   1.566   4.864
 1243SOL    HW2 4629   0.155   1.634   4.829
 1244SOL     OW 4630   5.092   6.639   4.862
 1244SOL    HW1 4631   5.162   6.578   4.899
 1244SOL    HW2 4632   5.111   6.656   4.765
 1245SOL     OW 4633   5.706   4.761   0.317
 1245SOL    HW1 4634   5.677   4.799   0.229
 1245SOL    HW2 4635   5.799   4.726   0.309
 1246SOL     OW 4636   3.425   1.248   2.388
 1246SOL    HW1 4637   3.450   1.210   2.477
 1246SOL    HW2 4638   3.500   1.234   2.324
 1247SOL     OW 4639   5.673   0.299   5.645
 1247SOL    HW1 4640   5.752   0.242   5.625
 1247SOL    HW2 4641   5.663   0.370   5.576
 1248SOL     OW 4642   1.120   6.390   4.132
 1248SOL    HW1 4643   1.046   6.326   4.152
 1248SOL    HW2 4644   1.113   6.420   4.037
 1249SOL     OW 4645   0.349   3.471   1.902
 1249SOL    HW1 4646   0.300   3.384   1.911
 1249SOL    HW2 4647   0.283   3.545   1.884
 1250SOL     OW 4648   6.140   4.150   3.491
 1250SOL    HW1 4649   6.231   4.119   3.463
 1250SOL    HW2 4650   6.073   4.126   3.421
 1251SOL     OW 4651   2.031   1.004   2.935
 1251SOL    HW1 4652   2.086   1.037   2.858
 1251SOL    HW2 4653   2.077   0.927   2.978
 1252SOL     OW 4654   3.871   4.631   6.709
 1252SOL    HW1 4655   3.815   4.685   6.771
 1252SOL    HW2 4656   3.932   4.572   6.761
 1253SOL     OW 4657   2.484   0.587   2.470
 1253SOL    HW1 4658   2.519   0.499   2.437
 1253SOL    HW2 4659   2.491   0.591   2.570
 1254SOL     OW 4660   0.074   2.442   3.865
 1254SOL    HW1 4661   0.032   2.359   3.901
 1254SOL    HW2 4662   0.059   2.447   3.766
 1255SOL     OW 4663   5.831   2.455   6.164
 1255SOL    HW1 4664   5.771   2.436   6.242
 1255SOL    HW2 4665   5.809   2.545   6.126
 1256SOL     OW 4666   0.352   6.240   3.501
 1256SOL    HW1 4667   0.404   6.156   3.519
 1256SOL    HW2 4668   0.345   6.254   3.403
 1257SOL     OW 4669   6.756   5.123   4.285
 1257SOL    HW1 4670   6.714   5.147   4.372
 1257SOL    HW2 4671   6.851   5.156   4.283
 1258SOL     OW 4672   2.142   4.993   2.775
 1258SOL    HW1 4673   2.067   4.944   2.819
 1258SOL    HW2 4674   2.143   5.088   2.806
 1259SOL     OW 4675   3.351   6.164   5.283
 1259SOL    HW1 4676   3.327   6.261   5.285
 1259SOL    HW2 4677   3.448   6.154   5.260
 1260SOL     OW 4678   2.942   1.250   1.313
 1260SOL    HW1 4679   3.017   1.244   1.247
 1260SOL    HW2 4680   2.855   1.247   1.264
 1261SOL     OW 4681   0.263   4.579   0.167
 1261SOL    HW1 4682   0.333   4.528   0.117
 1261SOL    HW2 4683   0.245   4.534   0.255
 1262SOL     OW 4684   5.214   5.593   1.372
 1262SOL    HW1 4685   5.207   5.690   1.393
 1262SOL    HW2 4686   5.274   5.548   1.439
 1263SOL     OW 4687   6.886   1.641   1.439
 1263SOL    HW1 4688   6.925   1.722   1.482
 1263SOL    HW2 4689   6.786   1.650   1.434
 1264SOL     OW 4690   0.212   3.920   1.200
 1264SOL    HW1 4691   0.209   3.995   1.133
 1264SOL    HW2 4692   0.121   3.909   1.241
 1265SOL     OW 4693   6.760   5.209   3.813
 1265SOL    HW1 4694   6.780   5.275   3.741
 1265SOL    HW2 4695   6.667   5.223   3.847
 1266SOL     OW 4696   1.082   1.176   4.025
 1266SOL    HW1 4697   1.020   1.236   3.974
 1266SOL    HW2 4698   1.030   1.100   4.064
 1267SOL     OW 4699   5.782   6.693   1.084
 1267SOL    HW1 4700   5.844   6.718   1.159
 1267SOL    HW2 4701   5.833   6.692   0.998
 1268SOL     OW 4702   4.646   2.042   0.378
 1268SOL    HW1 4703   4.652   2.076   0.472
 1268SOL    HW2 4704   4.662   1.944   0.377
 1269SOL     OW 4705   5.713   6.434   5.852
 1269SOL    HW1 4706   5.758   6.490   5.922
 1269SOL    HW2 4707   5.775   6.364   5.819
 1270SOL     OW 4708   2.166   3.416   4.486
 1270SOL    HW1 4709   2.220   3.333   4.485
 1270SOL    HW2 4710   2.181   3.468   4.402
 1271SOL     OW 4711   3.427   1.625   3.258
 1271SOL    HW1 4712   3.370   1.624   3.175
 1271SOL    HW2 4713   3.523   1.633   3.232
 1272SOL     OW 4714   5.853   5.693   0.571
 1272SOL    HW1 4715   5.943   5.665   0.536
 1272SOL    HW2 4716   5.849   5.792   0.576
 1273SOL     OW 4717   0.930   4.332   0.373
 1273SOL    HW1 4718   0.947   4.341   0.275
 1273SOL    HW2 4719   0.965   4.412   0.421
 1274SOL     OW 4720   6.378   2.763   1.488
 1274SOL    HW1 4721   6.293   2.790   1.441
 1274SOL    HW2 4722   6.355   2.707   1.567
 1275SOL     OW 4723   3.349   0.562   4.617
 1275SOL    HW1 4724   3.365   0.477   4.568
 1275SOL    HW2 4725   3.434   0.592   4.661
 1276SOL     OW 4726   6.952   0.798   4.876
 1276SOL    HW1 4727   6.944   0.868   4.805
 1276SOL    HW2 4728   7.012   0.725   4.843
 1277SOL     OW 4729   1.272   6.685   5.611
 1277SOL    HW1 4730   1.236   6.769   5.650
 1277SOL    HW2 4731   1.287   6.617   5.683
 1278SOL     OW 4732   1.098   0.451   5.331
 1278SOL    HW1 4733   1.101   0.476   5.427
 1278SOL    HW2 4734   1.112   0.532   5.274
 1279SOL     OW 4735   3.625   5.359   0.225
 1279SOL    HW1 4736   3.580   5.423   0.162
 1279SOL    HW2 4737   3.632   5.402   0.315
 1280SOL     OW 4738   3.346   6.221   3.792
 1280SOL    HW1 4739   3.264   6.169   3.816
 1280SOL    HW2 4740   3.390   6.180   3.713
 1281SOL     OW 4741   1.569   5.766   2.652
 1281SOL    HW1 4742   1.564   5.673   2.688
 1281SOL    HW2 4743   1.550   5.831   2.726
 1282SOL     OW 4744   0.725   1.153   6.416
 1282SOL    HW1 4745   0.704   1.249   6.438
 1282SOL    HW2 4746   0.671   1.124   6.338
 1283SOL     OW 4747   5.593   2.690   5.367
 1283SOL    HW1 4748   5.561   2.687   5.272
 1283SOL    HW2 4749   5.661   2.762   5.377
 1284SOL     OW 4750   4.606   1.683   2.165
 1284SOL    HW1 4751   4.573   1.777   2.169
 1284SOL    HW2 4752   4.537   1.621   2.203
 1285SOL     OW 4753   5.030   3.046   6.779
 1285SOL    HW1 4754   4.954   3.068   6.840
 1285SOL    HW2 4755   4.994   2.999   6.697
 1286SOL     OW 4756   4.929   3.338   2.081
 1286SOL    HW1 4757   5.026   3.335   2.103
 1286SOL    HW2 4758   4.887   3.250   2.101
 1287SOL     OW 4759   5.063   4.217   5.793
 1287SOL    HW1 4760   5.100   4.198   5.702
 1287SOL    HW2 4761   5.017   4.135   5.828
 1288SOL     OW 4762   5.581   3.369   0.713
 1288SOL    HW1 4763   5.581   3.378   0.813
 1288SOL    HW2 4764   5.523   3.440   0.673
 1289SOL     OW 4765   0.692   5.683   1.219
 1289SOL    HW1 4766   0.694   5.634   1.132
 1289SOL    HW2 4767   0.680   5.781   1.203
 1290SOL     OW 4768   1.097   0.388   6.682
 1290SOL    HW1 4769   1.049   0.450   6.744
 1290SOL    HW2 4770   1.087   0.294   6.715
 1291SOL     OW 4771   7.015   3.998   5.482
 1291SOL    HW1 4772   6.964   4.045   5.554
 1291SOL    HW2 4773   6.951   3.958   5.416
 1292SOL     OW 4774   6.876   6.437   2.622
 1292SOL    HW1 4775   6.919   6.479   2.701
 1292SOL    HW2 4776   6.814   6.502   2.578
 1293SOL     OW 4777   1.225   1.530   6.564
 1293SOL    HW1 4778   1.205   1.443   6.519
 1293SOL    HW2 4779   1.157   1.598   6.537
 1294SOL     OW 4780   1.615   3.889   6.871
 1294SOL    HW1 4781   1.678   3.815   6.895
 1294SOL    HW2 4782   1.526   3.851   6.847
 1295SOL     OW 4783   0.040   3.647   2.951
 1295SOL    HW1 4784   7.003   3.572   2.922
 1295SOL    HW2 4785   0.027   3.725   2.890
 1296SOL     OW 4786   3.475   0.396   5.731
 1296SOL    HW1 4787   3.465   0.325   5.661
 1296SOL    HW2 4788   3.552   0.374   5.791
 1297SOL     OW 4789   5.807   0.741   0.268
 1297SOL    HW1 4790   5.786   0.813   0.335
 1297SOL    HW2 4791   5.889   0.767   0.216
 1298SOL     OW 4792   6.737   4.704   2.962
 1298SOL    HW1 4793   6.836   4.706   2.954
 1298SOL    HW2 4794   6.708   4.761   3.039
 1299SOL     OW 4795   0.361   4.177   3.297
 1299SOL    HW1 4796   0.330   4.247   3.231
 1299SOL    HW2 4797   0.456   4.194   3.321
 1300SOL     OW 4798   3.524   3.788   2.003
 1300SOL    HW1 4799   3.599   3.749   1.950
 1300SOL    HW2 4800   3.436   3.761   1.963
 1301SOL     OW 4801   0.321   5.807   2.277
 1301SOL    HW1 4802   0.324   5.751   2.194
 1301SOL    HW2 4803   0.234   5.792   2.324
 1302SOL     OW 4804   3.723   6.959   5.316
 1302SOL    HW1 4805   3.792   6.932   5.250
 1302SOL    HW2 4806   3.649   7.008   5.270
 1303SOL     OW 4807   4.493   1.300   1.867
 1303SOL    HW1 4808   4.524   1.254   1.950
 1303SOL    HW2 4809   4.569   1.353   1.828
 1304SOL     OW 4810   1.356   1.035   6.689
 1304SOL    HW1 4811   1.332   0.954   6.635
 1304SOL    HW2 4812   1.329   1.117   6.639
 1305SOL     OW 4813   4.830   3.104   6.935
 1305SOL    HW1 4814   4.837   3.030   7.002
 1305SOL    HW2 4815   4.734   3.124   6.917
 1306SOL     OW 4816   0.929   4.498   5.672
 1306SOL    HW1 4817   0.957   4.498   5.768
 1306SOL    HW2 4818   0.832   4.476   5.666
 1307SOL     OW 4819   0.981   3.128   5.116
 1307SOL    HW1 4820   1.040   3.154   5.040
 1307SOL    HW2 4821   0.962   3.208   5.173
 1308SOL     OW 4822   4.516   5.768   5.330
 1308SOL    HW1 4823   4.533   5.860   5.365
 1308SOL    HW2 4824   4.602   5.716   5.331
 1309SOL     OW 4825   4.974   2.814   5.054
 1309SOL    HW1 4826   4.979   2.796   4.956
 1309SOL    HW2 4827   4.956   2.728   5.103
 1310SOL     OW 4828   0.155   4.017   5.081
 1310SOL    HW1 4829   0.221   3.974   5.144
 1310SOL    HW2 4830   0.140   3.956   5.003
 1311SOL     OW 4831   0.185   0.347   4.277
 1311SOL    HW1 4832   0.147   0.262   4.242
 1311SOL    HW2 4833   0.218   0.334   4.370
 1312SOL     OW 4834   0.911   0.472   6.424
 1312SOL    HW1 4835   0.972   0.451   6.348
 1312SOL    HW2 4836   0.956   0.447   6.510
 1313SOL     OW 4837   1.555   4.233   4.208
 1313SOL    HW1 4838   1.639   4.197   4.247
 1313SOL    HW2 4839   1.522   4.171   4.136
 1314SOL     OW 4840   3.774   1.481   5.855
 1314SOL    HW1 4841   3.788   1.411   5.925
 1314SOL    HW2 4842   3.823   1.455   5.772
 1315SOL     OW 4843   0.749   0.791   0.149
 1315SOL    HW1 4844   0.844   0.787   0.180
 1315SOL    HW2 4845   0.691   0.738   0.212
 1316SOL     OW 4846   2.156   6.644   4.439
 1316SOL    HW1 4847   2.102   6.573   4.484
 1316SOL    HW2 4848   2.120   6.661   4.348
 1317SOL     OW 4849   1.543   4.060   4.585
 1317SOL    HW1 4850   1.573   4.149   4.551
 1317SOL    HW2 4851   1.608   4.028   4.655
 1318SOL     OW 4852   0.618   0.987   0.676
 1318SOL    HW1 4853   0.679   0.925   0.626
 1318SOL    HW2 4854   0.665   1.073   0.694
 1319SOL     OW 4855   0.029   0.756   6.732
 1319SOL    HW1 4856   0.072   0.813   6.802
 1319SOL    HW2 4857   6.967   0.798   6.702
 1320SOL     OW 4858   5.330   3.932   0.731
 1320SOL    HW1 4859   5.244   3.888   0.705
 1320SOL    HW2 4860   5.406   3.889   0.681
 1321SOL     OW 4861   4.618   2.362   5.777
 1321SOL    HW1 4862   4.691   2.332   5.840
 1321SOL    HW2 4863   4.590   2.455   5.801
 1322SOL     OW 4864   4.210   0.445   4.126
 1322SOL    HW1 4865   4.278   0.379   4.157
 1322SOL    HW2 4866   4.152   0.403   4.056
 1323SOL     OW 4867   5.093   1.927   4.772
 1323SOL    HW1 4868   5.066   1.857   4.706
 1323SOL    HW2 4869   5.012   1.978   4.801
 1324SOL     OW 4870   0.956   2.827   0.049
 1324SOL    HW1 4871   0.938   2.900   7.007
 1324SOL    HW2 4872   0.951   2.864   0.142
 1325SOL     OW 4873   1.826   6.583   2.354
 1325SOL    HW1 4874   1.764   6.533   2.415
 1325SOL    HW2 4875   1.784   6.589   2.263
 1326SOL     OW 4876   4.797   2.962   4.743
 1326SOL    HW1 4877   4.826   2.868   4.758
 1326SOL    HW2 4878   4.780   3.007   4.831
 1327SOL     OW 4879   1.753   4.592   1.973
 1327SOL    HW1 4880   1.729   4.686   1.946
 1327SOL    HW2 4881   1.676   4.551   2.021
 1328SOL     OW 4882   1.512   3.012   1.127
 1328SOL    HW1 4883   1.507   2.962   1.213
 1328SOL    HW2 4884   1.420   3.041   1.101
 1329SOL     OW 4885   1.341   2.753   0.896
 1329SOL    HW1 4886   1.315   2.767   0.991
 1329SOL    HW2 4887   1.432   2.792   0.881
 1330SOL     OW 4888   6.674   1.025   1.484
 1330SOL    HW1 4889   6.742   1.013   1.556
 1330SOL    HW2 4890   6.718   1.010   1.395
 1331SOL     OW 4891   4.947   2.243   3.466
 1331SOL    HW1 4892   5.034   2.246   3.516
 1331SOL    HW2 4893   4.907   2.334   3.463
 1332SOL     OW 4894   3.034   6.897   0.271
 1332SOL    HW1 4895   2.949   6.849   0.292
 1332SOL    HW2 4896   3.045   6.904   0.171
 1333SOL     OW 4897   3.443   2.866   5.638
 1333SOL    HW1 4898   3.413   2.854   5.733
 1333SOL    HW2 4899   3.370   2.908   5.585
 1334SOL     OW 4900   6.622   2.528   4.559
 1334SOL    HW1 4901   6.595   2.500   4.651
 1334SOL    HW2 4902   6.698   2.593   4.565
 1335SOL     OW 4903   2.899   1.130   3.432
 1335SOL    HW1 4904   2.859   1.044   3.402
 1335SOL    HW2 4905   2.999   1.124   3.426
 1336SOL     OW 4906   2.129   1.165   6.183
 1336SOL    HW1 4907   2.076   1.225   6.244
 1336SOL    HW2 4908   2.066   1.111   6.127
 1337SOL     OW 4909   1.625   1.365   5.101
 1337SOL    HW1 4910   1.640   1.459   5.133
 1337SOL    HW2 4911   1.552   1.324   5.155
 1338SOL     OW 4912   5.441   2.712   6.260
 1338SOL    HW1 4913   5.343   2.706   6.242
 1338SOL    HW2 4914   5.489   2.648   6.199
 1339SOL     OW 4915   0.732   0.799   6.816
 1339SOL    HW1 4916   0.791   0.850   6.879
 1339SOL    HW2 4917   0.646   0.776   6.863
 1340SOL     OW 4918   0.709   1.889   1.856
 1340SOL    HW1 4919   0.791   1.864   1.805
 1340SOL    HW2 4920   0.735   1.937   1.940
 1341SOL     OW 4921   4.654   0.702   5.983
 1341SOL    HW1 4922   4.620   0.630   6.044
 1341SOL    HW2 4923   4.721   0.664   5.920
 1342SOL     OW 4924   1.558   4.965   6.424
 1342SOL    HW1 4925   1.611   4.914   6.491
 1342SOL    HW2 4926   1.532   4.904   6.349
 1343SOL     OW 4927   4.642   5.911   2.377
 1343SOL    HW1 4928   4.731   5.892   2.419
 1343SOL    HW2 4929   4.580   5.834   2.392
 1344SOL     OW 4930   6.745   4.851   4.234
 1344SOL    HW1 4931   6.835   4.811   4.248
 1344SOL    HW2 4932   6.752   4.950   4.236
 1345SOL     OW 4933   1.285   1.532   3.227
 1345SOL    HW1 4934   1.251   1.617   3.187
 1345SOL    HW2 4935   1.348   1.488   3.164
 1346SOL     OW 4936   0.801   6.777   3.819
 1346SOL    HW1 4937   0.714   6.729   3.808
 1346SOL    HW2 4938   0.868   6.717   3.863
 1347SOL     OW 4939   6.553   6.562   4.049
 1347SOL    HW1 4940   6.631   6.604   4.003
 1347SOL    HW2 4941   6.484   6.632   4.066
 1348SOL     OW 4942   5.212   5.041   2.926
 1348SOL    HW1 4943   5.227   4.988   2.843
 1348SOL    HW2 4944   5.213   5.139   2.904
 1349SOL     OW 4945   4.721   2.222   6.451
 1349SOL    HW1 4946   4.713   2.320   6.469
 1349SOL    HW2 4947   4.794   2.184   6.509
 1350SOL     OW 4948   4.978   4.295   6.351
 1350SOL    HW1 4949   5.023   4.352   6.420
 1350SOL    HW2 4950   4.991   4.199   6.375
 1351SOL     OW 4951   6.835   2.167   3.026
 1351SOL    HW1 4952   6.818   2.231   3.101
 1351SOL    HW2 4953   6.917   2.196   2.976
 1352SOL     OW 4954   6.637   0.262   3.090
 1352SOL    HW1 4955   6.606   0.353   3.061
 1352SOL    HW2 4956   6.695   0.271   3.171
 1353SOL     OW 4957   6.438   4.268   6.369
 1353SOL    HW1 4958   6.515   4.229   6.320
 1353SOL    HW2 4959   6.366   4.294   6.304
 1354SOL     OW 4960   0.511   2.144   0.342
 1354SOL    HW1 4961   0.483   2.240   0.347
 1354SOL    HW2 4962   0.440   2.091   0.295
 1355SOL     OW 4963   6.979   2.574   5.555
 1355SOL    HW1 4964   0.051   2.559   5.530
 1355SOL    HW2 4965   6.933   2.626   5.482
 1356SOL     OW 4966   3.048   3.088   3.562
 1356SOL    HW1 4967   3.012   3.039   3.641
 1356SOL    HW2 4968   3.142   3.117   3.580
 1357SOL     OW 4969   1.511   4.178   5.766
 1357SOL    HW1 4970   1.552   4.179   5.857
 1357SOL    HW2 4971   1.433   4.241   5.764
 1358SOL     OW 4972   3.935   1.323   6.027
 1358SOL    HW1 4973   3.945   1.230   6.063
 1358SOL    HW2 4974   4.019   1.374   6.045
 1359SOL     OW 4975   6.393   4.906   1.699
 1359SOL    HW1 4976   6.305   4.951   1.685
 1359SOL    HW2 4977   6.387   4.811   1.668
 1360SOL     OW 4978   3.974   3.902   1.254
 1360SOL    HW1 4979   4.047   3.843   1.222
 1360SOL    HW2 4980   3.975   3.988   1.202
 1361SOL     OW 4981   0.416   6.084   5.480
 1361SOL    HW1 4982   0.400   6.071   5.578
 1361SOL    HW2 4983   0.337   6.050   5.429
 1362SOL     OW 4984   2.943   3.762   4.221
 1362SOL    HW1 4985   2.936   3.817   4.304
 1362SOL    HW2 4986   2.972   3.821   4.145
 1363SOL     OW 4987   6.491   5.770   3.781
 1363SOL    HW1 4988   6.490   5.670   3.794
 1363SOL    HW2 4989   6.549   5.812   3.850
 1364SOL     OW 4990   6.883   2.464   0.470
 1364SOL    HW1 4991   6.969   2.513   0.467
 1364SOL    HW2 4992   6.808   2.526   0.447
 1365SOL     OW 4993   1.162   2.959   5.233
 1365SOL    HW1 4994   1.241   2.963   5.172
 1365SOL    HW2 4995   1.092   3.024   5.202
 1366SOL     OW 4996   1.014   4.526   0.802
 1366SOL    HW1 4997   1.006   4.435   0.843
 1366SOL    HW2 4998   0.940   4.585   0.836
 1367SOL     OW 4999   1.732   5.659   2.481
 1367SOL    HW1 5000   1.699   5.669   2.387
 1367SOL    HW2 5001   1.679   5.718   2.541
 1368SOL     OW 5002   0.044   6.623   3.375
 1368SOL    HW1 5003   0.107   6.574   3.435
 1368SOL    HW2 5004   0.057   6.721   3.386
 1369SOL     OW 5005   1.804   0.216   2.254
 1369SOL    HW1 5006   1.856   0.289   2.299
 1369SOL    HW2 5007   1.736   0.257   2.193
 1370SOL     OW 5008   4.759   1.815   3.449
 1370SOL    HW1 5009   4.813   1.862   3.519
 1370SOL    HW2 5010   4.821   1.774   3.381
 1371SOL     OW 5011   5.801   1.540   4.255
 1371SOL    HW1 5012   5.756   1.569   4.170
 1371SOL    HW2 5013   5.852   1.455   4.238
 1372SOL     OW 5014   1.182   2.339   0.594
 1372SOL    HW1 5015   1.121   2.400   0.643
 1372SOL    HW2 5016   1.167   2.347   0.496
 1373SOL     OW 5017   4.395   2.534   0.326
 1373SOL    HW1 5018   4.340   2.550   0.244
 1373SOL    HW2 5019   4.438   2.444   0.320
 1374SOL     OW 5020   4.384   1.951   0.973
 1374SOL    HW1 5021   4.314   1.933   0.904
 1374SOL    HW2 5022   4.436   1.867   0.990
 1375SOL     OW 5023   0.318   6.485   6.048
 1375SOL    HW1 5024   0.382   6.482   6.125
 1375SOL    HW2 5025   0.279   6.577   6.041
 1376SOL     OW 5026   4.430   4.851   5.330
 1376SOL    HW1 5027   4.526   4.860   5.357
 1376SOL    HW2 5028   4.393   4.942   5.311
 1377SOL     OW 5029   0.906   3.954   4.526
 1377SOL    HW1 5030   0.976   3.973   4.458
 1377SOL    HW2 5031   0.856   3.870   4.501
 1378SOL     OW 5032   5.886   2.001   4.384
 1378SOL    HW1 5033   5.953   1.996   4.310
 1378SOL    HW2 5034   5.935   2.007   4.471
 1379SOL     OW 5035   4.221   6.127   3.343
 1379SOL    HW1 5036   4.203   6.029   3.352
 1379SOL    HW2 5037   4.248   6.164   3.432
 1380SOL     OW 5038   0.875   0.107   3.294
 1380SOL    HW1 5039   0.821   0.067   3.219
 1380SOL    HW2 5040   0.912   0.195   3.265
 1381SOL     OW 5041   5.888   1.831   0.606
 1381SOL    HW1 5042   5.869   1.868   0.697
 1381SOL    HW2 5043   5.806   1.788   0.569
 1382SOL     OW 5044   5.839   3.456   1.047
 1382SOL    HW1 5045   5.890   3.505   0.976
 1382SOL    HW2 5046   5.772   3.517   1.088
 1383SOL     OW 5047   0.538   0.993   1.991
 1383SOL    HW1 5048   0.565   1.034   2.079
 1383SOL    HW2 5049   0.603   1.022   1.921
 1384SOL     OW 5050   4.506   0.560   1.646
 1384SOL    HW1 5051   4.452   0.636   1.681
 1384SOL    HW2 5052   4.563   0.523   1.720
 1385SOL     OW 5053   2.841   4.814   3.421
 1385SOL    HW1 5054   2.935   4.799   3.452
 1385SOL    HW2 5055   2.826   4.912   3.408
 1386SOL     OW 5056   2.979   1.193   4.138
 1386SOL    HW1 5057   2.977   1.292   4.124
 1386SOL    HW2 5058   3.043   1.151   4.075
 1387SOL     OW 5059   4.045   5.244   2.716
 1387SOL    HW1 5060   4.114   5.172   2.723
 1387SOL    HW2 5061   3.960   5.205   2.680
 1388SOL     OW 5062   0.118   0.522   2.476
 1388SOL    HW1 5063   0.106   0.454   2.548
 1388SOL    HW2 5064   0.050   0.507   2.404
 1389SOL     OW 5065   6.487   1.334   3.590
 1389SOL    HW1 5066   6.482   1.430   3.566
 1389SOL    HW2 5067   6.463   1.322   3.686
 1390SOL     OW 5068   6.518   2.398   6.066
 1390SOL    HW1 5069   6.430   2.429   6.102
 1390SOL    HW2 5070   6.583   2.474   6.065
 1391SOL     OW 5071   6.156   6.610   5.295
 1391SOL    HW1 5072   6.193   6.683   5.352
 1391SOL    HW2 5073   6.059   6.597   5.317
 1392SOL     OW 5074   5.956   6.462   5.574
 1392SOL    HW1 5075   6.000   6.485   5.661
 1392SOL    HW2 5076   5.940   6.364   5.570
 1393SOL     OW 5077   0.001   4.109   6.147
 1393SOL    HW1 5078   6.933   4.098   6.110
 1393SOL    HW2 5079   0.001   4.182   6.215
 1394SOL     OW 5080   3.902   5.234   5.709
 1394SOL    HW1 5081   3.851   5.307   5.754
 1394SOL    HW2 5082   3.979   5.273   5.659
 1395SOL     OW 5083   1.674   4.862   4.682
 1395SOL    HW1 5084   1.702   4.769   4.703
 1395SOL    HW2 5085   1.737   4.902   4.616
 1396SOL     OW 5086   0.132   1.507   5.140
 1396SOL    HW1 5087   0.178   1.526   5.054
 1396SOL    HW2 5088   0.169   1.423   5.181
 1397SOL     OW 5089   0.111   6.508   4.461
 1397SOL    HW1 5090   0.124   6.429   4.402
 1397SOL    HW2 5091   0.058   6.578   4.413
 1398SOL     OW 5092   2.900   0.827   6.373
 1398SOL    HW1 5093   2.916   0.841   6.276
 1398SOL    HW2 5094   2.923   0.910   6.423
 1399SOL     OW 5095   4.003   4.599   0.587
 1399SOL    HW1 5096   3.930   4.639   0.642
 1399SOL    HW2 5097   3.979   4.604   0.490
 1400SOL     OW 5098   0.355   1.626   4.234
 1400SOL    HW1 5099   0.401   1.711   4.258
 1400SOL    HW2 5100   0.419   1.550   4.243
 1401SOL     OW 5101   6.509   0.296   4.593
 1401SOL    HW1 5102   6.608   0.308   4.581
 1401SOL    HW2 5103   6.492   0.232   4.669
 1402SOL     OW 5104   5.454   3.775   6.560
 1402SOL    HW1 5105   5.398   3.704   6.602
 1402SOL    HW2 5106   5.449   3.767   6.461
 1403SOL     OW 5107   2.329   1.753   1.014
 1403SOL    HW1 5108   2.412   1.807   1.029
 1403SOL    HW2 5109   2.253   1.794   1.065
 1404SOL     OW 5110   6.310   0.075   6.665
 1404SOL    HW1 5111   6.377   0.147   6.684
 1404SOL    HW2 5112   6.219   0.115   6.657
 1405SOL     OW 5113   2.248   3.189   0.676
 1405SOL    HW1 5114   2.326   3.137   0.642
 1405SOL    HW2 5115   2.279   3.281   0.703
 1406SOL     OW 5116   0.747   5.987   0.946
 1406SOL    HW1 5117   0.757   5.895   0.907
 1406SOL    HW2 5118   0.738   5.980   1.045
 1407SOL     OW 5119   0.624   3.304   3.446
 1407SOL    HW1 5120   0.658   3.287   3.354
 1407SOL    HW2 5121   0.526   3.324   3.442
 1408SOL     OW 5122   5.166   1.617   5.397
 1408SOL    HW1 5123   5.254   1.663   5.383
 1408SOL    HW2 5124   5.134   1.578   5.311
 1409SOL     OW 5125   0.470   0.404   5.262
 1409SOL    HW1 5126   0.512   0.359   5.341
 1409SOL    HW2 5127   0.435   0.335   5.199
 1410SOL     OW 5128   1.650   4.822   6.641
 1410SOL    HW1 5129   1.556   4.833   6.673
 1410SOL    HW2 5130   1.704   4.775   6.710
 1411SOL     OW 5131   3.576   6.793   0.619
 1411SOL    HW1 5132   3.649   6.728   0.643
 1411SOL    HW2 5133   3.518   6.808   0.699
 1412SOL     OW 5134   1.062   2.862   0.969
 1412SOL    HW1 5135   0.990   2.913   1.018
 1412SOL    HW2 5136   1.048   2.872   0.871
 1413SOL     OW 5137   2.485   1.378   5.166
 1413SOL    HW1 5138   2.493   1.469   5.207
 1413SOL    HW2 5139   2.485   1.387   5.066
 1414SOL     OW 5140   2.320   1.756   2.078
 1414SOL    HW1 5141   2.340   1.835   2.136
 1414SOL    HW2 5142   2.223   1.732   2.086
 1415SOL     OW 5143   2.146   1.319   4.685
 1415SOL    HW1 5144   2.202   1.395   4.717
 1415SOL    HW2 5145   2.050   1.340   4.699
 1416SOL     OW 5146   4.231   5.289   4.449
 1416SOL    HW1 5147   4.283   5.310   4.532
 1416SOL    HW2 5148   4.135   5.277   4.472
 1417SOL     OW 5149   2.913   2.275   0.468
 1417SOL    HW1 5150   2.947   2.348   0.408
 1417SOL    HW2 5151   2.813   2.280   0.472
 1418SOL     OW 5152   3.354   3.688   2.420
 1418SOL    HW1 5153   3.413   3.762   2.387
 1418SOL    HW2 5154   3.298   3.721   2.496
 1419SOL     OW 5155   2.665   5.979   3.594
 1419SOL    HW1 5156   2.753   6.020   3.570
 1419SOL    HW2 5157   2.649   5.898   3.537
 1420SOL     OW 5158   2.188   6.327   2.155
 1420SOL    HW1 5159   2.165   6.248   2.098
 1420SOL    HW2 5160   2.254   6.385   2.106
 1421SOL     OW 5161   2.299   5.131   3.163
 1421SOL    HW1 5162   2.332   5.042   3.131
 1421SOL    HW2 5163   2.199   5.132   3.159
 1422SOL     OW 5164   1.283   4.098   6.620
 1422SOL    HW1 5165   1.310   4.066   6.529
 1422SOL    HW2 5166   1.224   4.178   6.610
 1423SOL     OW 5167   4.532   7.016   4.512
 1423SOL    HW1 5168   4.522   6.930   4.462
 1423SOL    HW2 5169   4.531   0.068   4.447
 1424SOL     OW 5170   6.587   3.904   6.915
 1424SOL    HW1 5171   6.619   3.999   6.911
 1424SOL    HW2 5172   6.535   3.883   6.832
 1425SOL     OW 5173   1.790   5.444   5.950
 1425SOL    HW1 5174   1.717   5.435   5.882
 1425SOL    HW2 5175   1.850   5.363   5.945
 1426SOL     OW 5176   2.710   2.952   6.707
 1426SOL    HW1 5177   2.753   2.985   6.623
 1426SOL    HW2 5178   2.702   2.852   6.703
 1427SOL     OW 5179   6.875   6.913   3.821
 1427SOL    HW1 5180   6.811   6.862   3.763
 1427SOL    HW2 5181   6.913   6.851   3.890
 1428SOL     OW 5182   0.579   1.943   6.949
 1428SOL    HW1 5183   0.524   1.860   6.937
 1428SOL    HW2 5184   0.633   1.958   6.866
 1429SOL     OW 5185   4.844   1.424   0.192
 1429SOL    HW1 5186   4.919   1.379   0.144
 1429SOL    HW2 5187   4.773   1.357   0.214
 1430SOL     OW 5188   1.690   5.302   3.881
 1430SOL    HW1 5189   1.653   5.345   3.798
 1430SOL    HW2 5190   1.746   5.368   3.930
 1431SOL     OW 5191   2.884   2.234   0.031
 1431SOL    HW1 5192   2.953   2.244   0.103
 1431SOL    HW2 5193   2.918   2.277   6.971
 1432SOL     OW 5194   2.712   1.644   1.402
 1432SOL    HW1 5195   2.769   1.601   1.332
 1432SOL    HW2 5196   2.708   1.742   1.387
 1433SOL     OW 5197   4.337   0.630   5.164
 1433SOL    HW1 5198   4.354   0.534   5.141
 1433SOL    HW2 5199   4.411   0.663   5.224
 1434SOL     OW 5200   1.552   0.163   5.515
 1434SOL    HW1 5201   1.559   0.085   5.578
 1434SOL    HW2 5202   1.488   0.141   5.442
 1435SOL     OW 5203   6.694   0.035   3.237
 1435SOL    HW1 5204   6.670   0.053   3.142
 1435SOL    HW2 5205   6.628   0.082   3.297
 1436SOL     OW 5206   4.973   3.406   6.620
 1436SOL    HW1 5207   4.964   3.375   6.715
 1436SOL    HW2 5208   5.047   3.472   6.613
 1437SOL     OW 5209   3.317   2.087   5.193
 1437SOL    HW1 5210   3.258   2.159   5.156
 1437SOL    HW2 5211   3.264   2.003   5.201
 1438SOL     OW 5212   2.876   6.778   2.045
 1438SOL    HW1 5213   2.938   6.730   1.983
 1438SOL    HW2 5214   2.921   6.794   2.132
 1439SOL     OW 5215   6.209   4.986   0.558
 1439SOL    HW1 5216   6.218   4.917   0.629
 1439SOL    HW2 5217   6.131   5.045   0.578
 1440SOL     OW 5218   3.243   3.045   6.385
 1440SOL    HW1 5219   3.209   2.972   6.444
 1440SOL    HW2 5220   3.168   3.085   6.334
 1441SOL     OW 5221   6.257   1.866   3.760
 1441SOL    HW1 5222   6.191   1.887   3.832
 1441SOL    HW2 5223   6.222   1.897   3.672
 1442SOL     OW 5224   6.980   5.434   6.569
 1442SOL    HW1 5225   6.889   5.464   6.596
 1442SOL    HW2 5226   0.024   5.504   6.594
 1443SOL     OW 5227   1.163   2.799   3.835
 1443SOL    HW1 5228   1.212   2.886   3.839
 1443SOL    HW2 5229   1.177   2.749   3.921
 1444SOL     OW 5230   4.747   5.334   0.949
 1444SOL    HW1 5231   4.698   5.247   0.945
 1444SOL    HW2 5232   4.769   5.364   0.856
 1445SOL     OW 5233   0.312   3.716   2.810
 1445SOL    HW1 5234   0.330   3.813   2.798
 1445SOL    HW2 5235   0.218   3.703   2.843
 1446SOL     OW 5236   4.988   2.566   0.560
 1446SOL    HW1 5237   4.921   2.619   0.611
 1446SOL    HW2 5238   4.941   2.510   0.491
 1447SOL     OW 5239   6.209   6.806   5.462
 1447SOL    HW1 5240   6.126   6.832   5.512
 1447SOL    HW2 5241   6.286   6.859   5.498
 1448SOL     OW 5242   0.139   2.054   5.801
 1448SOL    HW1 5243   0.173   2.046   5.895
 1448SOL    HW2 5244   0.079   1.977   5.781
 1449SOL     OW 5245   0.775   1.031   6.988
 1449SOL    HW1 5246   0.726   1.116   7.009
 1449SOL    HW2 5247   0.748   0.961   0.030
 1450SOL     OW 5248   0.716   2.347   1.214
 1450SOL    HW1 5249   0.813   2.370   1.225
 1450SOL    HW2 5250   0.703   2.299   1.128
 1451SOL     OW 5251   1.714   6.981   1.985
 1451SOL    HW1 5252   1.790   0.011   2.022
 1451SOL    HW2 5253   1.750   6.902   1.936
 1452SOL     OW 5254   5.066   0.792   4.370
 1452SOL    HW1 5255   5.032   0.768   4.279
 1452SOL    HW2 5256   5.060   0.713   4.431
 1453SOL     OW 5257   7.024   4.303   5.581
 1453SOL    HW1 5258   6.962   4.231   5.613
 1453SOL    HW2 5259   0.000   4.378   5.646
 1454SOL     OW 5260   0.432   3.464   2.167
 1454SOL    HW1 5261   0.442   3.365   2.165
 1454SOL    HW2 5262   0.385   3.495   2.085
 1455SOL     OW 5263   0.817   1.169   1.524
 1455SOL    HW1 5264   0.764   1.088   1.496
 1455SOL    HW2 5265   0.911   1.159   1.491
 1456SOL     OW 5266   6.767   6.367   5.286
 1456SOL    HW1 5267   6.713   6.394   5.207
 1456SOL    HW2 5268   6.820   6.445   5.319
 1457SOL     OW 5269   1.495   6.586   1.763
 1457SOL    HW1 5270   1.456   6.503   1.723
 1457SOL    HW2 5271   1.535   6.565   1.852
 1458SOL     OW 5272   5.442   5.888   3.478
 1458SOL    HW1 5273   5.405   5.913   3.567
 1458SOL    HW2 5274   5.520   5.947   3.457
 1459SOL     OW 5275   2.841   5.666   5.847
 1459SOL    HW1 5276   2.866   5.607   5.771
 1459SOL    HW2 5277   2.918   5.674   5.911
 1460SOL     OW 5278   0.836   6.096   4.991
 1460SOL    HW1 5279   0.794   6.035   4.924
 1460SOL    HW2 5280   0.920   6.055   5.025
 1461SOL     OW 5281   6.419   5.102   2.823
 1461SOL    HW1 5282   6.431   5.158   2.741
 1461SOL    HW2 5283   6.424   5.160   2.905
 1462SOL     OW 5284   1.649   0.093   6.802
 1462SOL    HW1 5285   1.687   0.047   6.721
 1462SOL    HW2 5286   1.633   0.189   6.782
 1463SOL     OW 5287   6.949   5.653   6.335
 1463SOL    HW1 5288   6.936   5.655   6.434
 1463SOL    HW2 5289   6.998   5.735   6.305
 1464SOL     OW 5290   0.361   6.951   1.348
 1464SOL    HW1 5291   0.321   6.979   1.261
 1464SOL    HW2 5292   0.433   6.884   1.333
 1465SOL     OW 5293   1.607   1.071   3.238
 1465SOL    HW1 5294   1.638   1.160   3.205
 1465SOL    HW2 5295   1.614   1.004   3.164
 1466SOL     OW 5296   1.647   1.957   2.168
 1466SOL    HW1 5297   1.626   2.004   2.082
 1466SOL    HW2 5298   1.685   2.022   2.233
 1467SOL     OW 5299   1.978   1.437   2.935
 1467SOL    HW1 5300   2.055   1.419   2.875
 1467SOL    HW2 5301   1.974   1.368   3.007
 1468SOL     OW 5302   4.289   6.201   2.235
 1468SOL    HW1 5303   4.337   6.140   2.298
 1468SOL    HW2 5304   4.354   6.263   2.192
 1469SOL     OW 5305   0.940   1.956   1.417
 1469SOL    HW1 5306   0.973   1.986   1.328
 1469SOL    HW2 5307   0.845   1.926   1.410
 1470SOL     OW 5308   1.007   1.879   2.712
 1470SOL    HW1 5309   1.006   1.903   2.615
 1470SOL    HW2 5310   0.941   1.937   2.761
 1471SOL     OW 5311   0.887   0.391   1.205
 1471SOL    HW1 5312   0.820   0.318   1.191
 1471SOL    HW2 5313   0.840   0.476   1.227
 1472SOL     OW 5314   3.703   5.633   6.050
 1472SOL    HW1 5315   3.726   5.705   6.115
 1472SOL    HW2 5316   3.777   5.566   6.048
 1473SOL     OW 5317   4.373   6.000   5.240
 1473SOL    HW1 5318   4.450   6.052   5.277
 1473SOL    HW2 5319   4.288   6.029   5.284
 1474SOL     OW 5320   5.392   5.270   2.376
 1474SOL    HW1 5321   5.393   5.199   2.446
 1474SOL    HW2 5322   5.388   5.360   2.420
 1475SOL     OW 5323   6.280   0.260   2.181
 1475SOL    HW1 5324   6.308   0.176   2.227
 1475SOL    HW2 5325   6.219   0.238   2.105
 1476SOL     OW 5326   2.987   0.838   1.249
 1476SOL    HW1 5327   2.901   0.888   1.257
 1476SOL    HW2 5328   3.013   0.800   1.338
 1477SOL     OW 5329   3.986   6.987   5.983
 1477SOL    HW1 5330   3.900   7.009   6.029
 1477SOL    HW2 5331   4.020   0.044   5.936
 1478SOL     OW 5332   6.088   5.721   6.439
 1478SOL    HW1 5333   6.094   5.635   6.490
 1478SOL    HW2 5334   6.172   5.773   6.451
 1479SOL     OW 5335   1.717   2.460   0.111
 1479SOL    HW1 5336   1.789   2.529   0.097
 1479SOL    HW2 5337   1.649   2.496   0.175
 1480SOL     OW 5338   3.215   0.678   5.164
 1480SOL    HW1 5339   3.295   0.723   5.123
 1480SOL    HW2 5340   3.230   0.669   5.263
 1481SOL     OW 5341   6.789   2.959   5.765
 1481SOL    HW1 5342   6.873   2.960   5.710
 1481SOL    HW2 5343   6.729   2.885   5.732
 1482SOL     OW 5344   4.552   1.710   1.402
 1482SOL    HW1 5345   4.648   1.731   1.389
 1482SOL    HW2 5346   4.531   1.709   1.500
 1483SOL     OW 5347   5.287   1.731   0.243
 1483SOL    HW1 5348   5.198   1.738   0.290
 1483SOL    HW2 5349   5.341   1.658   0.285
 1484SOL     OW 5350   5.418   4.157   4.652
 1484SOL    HW1 5351   5.504   4.110   4.676
 1484SOL    HW2 5352   5.425   4.253   4.677
 1485SOL     OW 5353   3.698   1.692   3.341
 1485SOL    HW1 5354   3.749   1.756   3.283
 1485SOL    HW2 5355   3.760   1.648   3.405
 1486SOL     OW 5356   5.219   1.607   2.309
 1486SOL    HW1 5357   5.148   1.572   2.370
 1486SOL    HW2 5358   5.290   1.653   2.364
 1487SOL     OW 5359   6.874   2.239   6.298
 1487SOL    HW1 5360   6.947   2.258   6.233
 1487SOL    HW2 5361   6.913   2.210   6.385
 1488SOL     OW 5362   4.838   0.952   3.626
 1488SOL    HW1 5363   4.883   1.017   3.565
 1488SOL    HW2 5364   4.740   0.972   3.630
 1489SOL     OW 5365   4.565   5.312   5.190
 1489SOL    HW1 5366   4.576   5.261   5.275
 1489SOL    HW2 5367   4.652   5.313   5.140
 1490SOL     OW 5368   0.806   3.124   2.465
 1490SOL    HW1 5369   0.777   3.032   2.438
 1490SOL    HW2 5370   0.794   3.187   2.388
 1491SOL     OW 5371   6.744   3.829   2.767
 1491SOL    HW1 5372   6.777   3.831   2.672
 1491SOL    HW2 5373   6.651   3.866   2.771
 1492SOL     OW 5374   5.949   0.787   2.676
 1492SOL    HW1 5375   5.997   0.855   2.732
 1492SOL    HW2 5376   5.889   0.834   2.612
 1493SOL     OW 5377   3.915   6.056   5.161
 1493SOL    HW1 5378   3.909   5.961   5.130
 1493SOL    HW2 5379   3.993   6.066   5.224
 1494SOL     OW 5380   4.787   2.074   6.758
 1494SOL    HW1 5381   4.870   2.031   6.793
 1494SOL    HW2 5382   4.742   2.011   6.695
 1495SOL     OW 5383   6.375   3.330   4.959
 1495SOL    HW1 5384   6.390   3.372   5.048
 1495SOL    HW2 5385   6.347   3.235   4.970
 1496SOL     OW 5386   0.444   1.590   1.347
 1496SOL    HW1 5387   0.385   1.668   1.367
 1496SOL    HW2 5388   0.506   1.574   1.424
 1497SOL     OW 5389   6.484   3.056   2.812
 1497SOL    HW1 5390   6.582   3.037   2.800
 1497SOL    HW2 5391   6.449   3.104   2.731
 1498SOL     OW 5392   2.288   5.089   6.791
 1498SOL    HW1 5393   2.283   5.160   6.862
 1498SOL    HW2 5394   2.215   5.104   6.724
 1499SOL     OW 5395   0.881   3.003   6.245
 1499SOL    HW1 5396   0.980   2.992   6.243
 1499SOL    HW2 5397   0.858   3.097   6.269
 1500SOL     OW 5398   0.044   0.085   0.288
 1500SOL    HW1 5399   0.021   7.021   0.329
 1500SOL    HW2 5400   0.033   0.157   0.356
 1501SOL     OW 5401   5.357   2.505   6.779
 1501SOL    HW1 5402   5.425   2.532   6.711
 1501SOL    HW2 5403   5.284   2.574   6.782
 1502SOL     OW 5404   4.058   0.001   0.106
 1502SOL    HW1 5405   3.968   0.022   0.143
 1502SOL    HW2 5406   4.129   0.037   0.167
 1503SOL     OW 5407   0.270   3.990   1.744
 1503SOL    HW1 5408   0.187   3.972   1.691
 1503SOL    HW2 5409   0.314   3.903   1.767
 1504SOL     OW 5410   0.628   0.288   5.481
 1504SOL    HW1 5411   0.614   0.189   5.479
 1504SOL    HW2 5412   0.724   0.308   5.459
 1505SOL     OW 5413   5.199   0.863   5.214
 1505SOL    HW1 5414   5.298   0.866   5.203
 1505SOL    HW2 5415   5.161   0.798   5.148
 1506SOL     OW 5416   0.721   6.413   0.846
 1506SOL    HW1 5417   0.750   6.472   0.922
 1506SOL    HW2 5418   0.645   6.355   0.877
 1507SOL     OW 5419   1.017   2.036   5.542
 1507SOL    HW1 5420   0.974   1.959   5.588
 1507SOL    HW2 5421   1.009   2.025   5.443
 1508SOL     OW 5422   6.862   1.442   1.648
 1508SOL    HW1 5423   6.780   1.387   1.665
 1508SOL    HW2 5424   6.836   1.535   1.622
 1509SOL     OW 5425   3.385   1.512   6.112
 1509SOL    HW1 5426   3.426   1.587   6.164
 1509SOL    HW2 5427   3.336   1.548   6.033
 1510SOL     OW 5428   4.682   2.125   4.624
 1510SOL    HW1 5429   4.644   2.044   4.580
 1510SOL    HW2 5430   4.742   2.173   4.560
 1511SOL     OW 5431   3.794   2.984   2.211
 1511SOL    HW1 5432   3.705   2.939   2.218
 1511SOL    HW2 5433   3.864   2.927   2.253
 1512SOL     OW 5434   7.007   5.705   1.753
 1512SOL    HW1 5435   6.952   5.775   1.797
 1512SOL    HW2 5436   0.066   5.688   1.807
 1513SOL     OW 5437   3.665   0.957   4.399
 1513SOL    HW1 5438   3.570   0.984   4.380
 1513SOL    HW2 5439   3.667   0.899   4.480
 1514SOL     OW 5440   4.381   2.141   5.775
 1514SOL    HW1 5441   4.454   2.187   5.826
 1514SOL    HW2 5442   4.297   2.193   5.783
 1515SOL     OW 5443   6.063   2.182   3.109
 1515SOL    HW1 5444   5.996   2.113   3.136
 1515SOL    HW2 5445   6.017   2.271   3.100
 1516SOL     OW 5446   6.976   6.429   0.256
 1516SOL    HW1 5447   0.032   6.377   0.286
 1516SOL    HW2 5448   6.954   6.407   0.161
 1517SOL     OW 5449   4.679   6.247   3.236
 1517SOL    HW1 5450   4.723   6.334   3.216
 1517SOL    HW2 5451   4.747   6.183   3.272
 1518SOL     OW 5452   1.171   2.982   6.959
 1518SOL    HW1 5453   1.271   2.974   6.957
 1518SOL    HW2 5454   1.142   3.004   0.028
 1519SOL     OW 5455   6.757   5.405   1.321
 1519SOL    HW1 5456   6.699   5.405   1.239
 1519SOL    HW2 5457   6.714   5.352   1.393
 1520SOL     OW 5458   0.447   4.126   2.158
 1520SOL    HW1 5459   0.390   4.178   2.094
 1520SOL    HW2 5460   0.534   4.103   2.114
 1521SOL     OW 5461   1.895   4.084   6.220
 1521SOL    HW1 5462   1.974   4.128   6.176
 1521SOL    HW2 5463   1.914   3.986   6.232
 1522SOL     OW 5464   6.462   6.278   5.170
 1522SOL    HW1 5465   6.517   6.347   5.122
 1522SOL    HW2 5466   6.417   6.219   5.104
 1523SOL     OW 5467   4.973   5.737   1.000
 1523SOL    HW1 5468   5.064   5.724   1.040
 1523SOL    HW2 5469   4.917   5.656   1.018
 1524SOL     OW 5470   2.371   1.983   2.219
 1524SOL    HW1 5471   2.306   2.048   2.260
 1524SOL    HW2 5472   2.439   2.032   2.166
 1525SOL     OW 5473   6.873   2.386   0.091
 1525SOL    HW1 5474   6.971   2.366   0.091
 1525SOL    HW2 5475   6.831   2.351   0.174
 1526SOL     OW 5476   6.152   6.970   6.250
 1526SOL    HW1 5477   6.112   6.991   6.339
 1526SOL    HW2 5478   6.166   0.031   6.198
 1527SOL     OW 5479   3.843   0.932   5.318
 1527SOL    HW1 5480   3.823   1.030   5.318
 1527SOL    HW2 5481   3.924   0.914   5.262
 1528SOL     OW 5482   4.779   5.455   2.300
 1528SOL    HW1 5483   4.768   5.541   2.250
 1528SOL    HW2 5484   4.724   5.457   2.382
 1529SOL     OW 5485   3.586   0.493   0.399
 1529SOL    HW1 5486   3.596   0.582   0.444
 1529SOL    HW2 5487   3.489   0.471   0.391
 1530SOL     OW 5488   3.487   1.554   1.904
 1530SOL    HW1 5489   3.460   1.503   1.986
 1530SOL    HW2 5490   3.422   1.628   1.888
 1531SOL     OW 5491   4.275   0.936   5.090
 1531SOL    HW1 5492   4.227   0.952   5.003
 1531SOL    HW2 5493   4.253   0.844   5.123
 1532SOL     OW 5494   2.603   3.559   6.360
 1532SOL    HW1 5495   2.582   3.586   6.266
 1532SOL    HW2 5496   2.661   3.628   6.403
 1533SOL     OW 5497   5.753   3.742   6.956
 1533SOL    HW1 5498   5.786   3.704   6.870
 1533SOL    HW2 5499   5.673   3.690   6.987
 1534SOL     OW 5500   2.385   4.529   6.433
 1534SOL    HW1 5501   2.301   4.518   6.487
 1534SOL    HW2 5502   2.364   4.512   6.336
 1535SOL     OW 5503   5.151   6.581   3.939
 1535SOL    HW1 5504   5.230   6.640   3.921
 1535SOL    HW2 5505   5.099   6.567   3.855
 1536SOL     OW 5506   4.007   4.457   5.341
 1536SOL    HW1 5507   4.070   4.448   5.264
 1536SOL    HW2 5508   3.913   4.444   5.309
 1537SOL     OW 5509   4.337   6.882   3.501
 1537SOL    HW1 5510   4.332   6.842   3.409
 1537SOL    HW2 5511   4.282   6.828   3.564
 1538SOL     OW 5512   4.155   5.753   6.300
 1538SOL    HW1 5513   4.225   5.792   6.359
 1538SOL    HW2 5514   4.195   5.730   6.211
 1539SOL     OW 5515   4.176   3.735   1.894
 1539SOL    HW1 5516   4.117   3.808   1.928
 1539SOL    HW2 5517   4.139   3.698   1.809
 1540SOL     OW 5518   1.495   5.903   6.301
 1540SOL    HW1 5519   1.506   5.838   6.226
 1540SOL    HW2 5520   1.556   5.878   6.376
 1541SOL     OW 5521   4.010   3.313   3.189
 1541SOL    HW1 5522   3.917   3.346   3.172
 1541SOL    HW2 5523   4.068   3.336   3.111
 1542SOL     OW 5524   5.771   6.071   2.485
 1542SOL    HW1 5525   5.722   5.985   2.468
 1542SOL    HW2 5526   5.709   6.138   2.525
 1543SOL     OW 5527   3.901   4.734   5.279
 1543SOL    HW1 5528   3.876   4.637   5.273
 1543SOL    HW2 5529   3.848   4.778   5.352
 1544SOL     OW 5530   3.504   3.414   3.014
 1544SOL    HW1 5531   3.416   3.415   2.966
 1544SOL    HW2 5532   3.576   3.388   2.950
 1545SOL     OW 5533   4.912   0.877   3.875
 1545SOL    HW1 5534   4.874   0.902   3.787
 1545SOL    HW2 5535   4.892   0.949   3.942
 1546SOL     OW 5536   3.961   6.176   5.989
 1546SOL    HW1 5537   4.010   6.092   5.966
 1546SOL    HW2 5538   4.012   6.255   5.955
 1547SOL     OW 5539   1.296   3.654   3.010
 1547SOL    HW1 5540   1.228   3.585   2.986
 1547SOL    HW2 5541   1.328   3.701   2.928
 1548SOL     OW 5542   4.882   3.623   5.728
 1548SOL    HW1 5543   4.849   3.552   5.666
 1548SOL    HW2 5544   4.806   3.684   5.752
 1549SOL     OW 5545   5.125   1.248   2.713
 1549SOL    HW1 5546   5.027   1.232   2.717
 1549SOL    HW2 5547   5.163   1.209   2.630
 1550SOL     OW 5548   2.974   4.182   6.901
 1550SOL    HW1 5549   3.067   4.216   6.909
 1550SOL    HW2 5550   2.910   4.259   6.904
 1551SOL     OW 5551   1.844   4.468   6.109
 1551SOL    HW1 5552   1.839   4.447   6.206
 1551SOL    HW2 5553   1.932   4.438   6.072
 1552SOL     OW 5554   0.336   6.066   6.606
 1552SOL    HW1 5555   0.334   6.165   6.597
 1552SOL    HW2 5556   0.431   6.035   6.611
 1553SOL     OW 5557   0.359   1.410   5.671
 1553SOL    HW1 5558   0.348   1.497   5.623
 1553SOL    HW2 5559   0.278   1.390   5.725
 1554SOL     OW 5560   4.457   1.492   2.917
 1554SOL    HW1 5561   4.501   1.576   2.886
 1554SOL    HW2 5562   4.526   1.425   2.943
 1555SOL     OW 5563   5.266   2.085   0.011
 1555SOL    HW1 5564   5.180   2.060   0.055
 1555SOL    HW2 5565   5.247   2.149   6.960
 1556SOL     OW 5566   3.118   0.903   1.010
 1556SOL    HW1 5567   3.190   0.933   1.073
 1556SOL    HW2 5568   3.055   0.842   1.058
 1557SOL     OW 5569   1.588   0.742   6.300
 1557SOL    HW1 5570   1.629   0.809   6.239
 1557SOL    HW2 5571   1.502   0.710   6.261
 1558SOL     OW 5572   5.165   0.480   4.816
 1558SOL    HW1 5573   5.249   0.459   4.766
 1558SOL    HW2 5574   5.161   0.426   4.900
 1559SOL     OW 5575   6.978   2.725   6.835
 1559SOL    HW1 5576   0.006   2.696   6.915
 1559SOL    HW2 5577   6.988   2.823   6.822
 1560SOL     OW 5578   2.016   1.554   5.686
 1560SOL    HW1 5579   2.102   1.585   5.647
 1560SOL    HW2 5580   2.006   1.590   5.779
 1561SOL     OW 5581   6.033   6.383   4.533
 1561SOL    HW1 5582   6.023   6.310   4.601
 1561SOL    HW2 5583   6.122   6.373   4.488
 1562SOL     OW 5584   4.263   5.703   2.749
 1562SOL    HW1 5585   4.198   5.649   2.696
 1562SOL    HW2 5586   4.249   5.686   2.847
 1563SOL     OW 5587   1.956   0.378   6.274
 1563SOL    HW1 5588   1.860   0.405   6.287
 1563SOL    HW2 5589   1.963   0.323   6.191
 1564SOL     OW 5590   1.385   3.102   2.851
 1564SOL    HW1 5591   1.414   3.015   2.812
 1564SOL    HW2 5592   1.402   3.176   2.786
 1565SOL     OW 5593   4.288   4.984   4.831
 1565SOL    HW1 5594   4.333   5.060   4.878
 1565SOL    HW2 5595   4.191   4.984   4.854
 1566SOL     OW 5596   5.204   5.017   3.781
 1566SOL    HW1 5597   5.150   5.070   3.714
 1566SOL    HW2 5598   5.142   4.972   3.845
 1567SOL     OW 5599   6.004   5.715   0.045
 1567SOL    HW1 5600   5.979   5.793   0.102
 1567SOL    HW2 5601   5.946   5.637   0.068
 1568SOL     OW 5602   1.665   5.620   1.546
 1568SOL    HW1 5603   1.730   5.695   1.536
 1568SOL    HW2 5604   1.685   5.569   1.630
 1569SOL     OW 5605   3.594   6.552   3.627
 1569SOL    HW1 5606   3.591   6.477   3.560
 1569SOL    HW2 5607   3.622   6.516   3.716
 1570SOL     OW 5608   1.972   6.552   0.952
 1570SOL    HW1 5609   1.895   6.522   0.895
 1570SOL    HW2 5610   2.051   6.493   0.936
 1571SOL     OW 5611   6.022   1.508   1.884
 1571SOL    HW1 5612   6.045   1.508   1.981
 1571SOL    HW2 5613   6.105   1.497   1.830
 1572SOL     OW 5614   0.618   6.829   0.733
 1572SOL    HW1 5615   0.682   6.752   0.735
 1572SOL    HW2 5616   0.579   6.838   0.642
 1573SOL     OW 5617   6.204   3.412   2.006
 1573SOL    HW1 5618   6.268   3.475   2.049
 1573SOL    HW2 5619   6.111   3.435   2.035
 1574SOL     OW 5620   0.314   0.947   2.826
 1574SOL    HW1 5621   0.324   0.859   2.780
 1574SOL    HW2 5622   0.366   0.946   2.912
 1575SOL     OW 5623   3.117   2.089   0.837
 1575SOL    HW1 5624   3.210   2.121   0.816
 1575SOL    HW2 5625   3.103   2.090   0.936
 1576SOL     OW 5626   1.036   0.465   3.424
 1576SOL    HW1 5627   1.017   0.407   3.344
 1576SOL    HW2 5628   1.134   0.469   3.440
 1577SOL     OW 5629   2.590   0.753   5.283
 1577SOL    HW1 5630   2.536   0.835   5.300
 1577SOL    HW2 5631   2.688   0.776   5.288
 1578SOL     OW 5632   5.913   2.668   5.809
 1578SOL    HW1 5633   5.925   2.728   5.888
 1578SOL    HW2 5634   5.963   2.705   5.731
 1579SOL     OW 5635   1.029   2.011   2.467
 1579SOL    HW1 5636   0.936   2.044   2.453
 1579SOL    HW2 5637   1.079   2.012   2.380
 1580SOL     OW 5638   3.071   4.012   4.081
 1580SOL    HW1 5639   3.157   3.965   4.099
 1580SOL    HW2 5640   3.033   4.047   4.167
 1581SOL     OW 5641   6.971   4.148   5.197
 1581SOL    HW1 5642   0.026   4.105   5.153
 1581SOL    HW2 5643   6.957   4.109   5.287
 1582SOL     OW 5644   1.791   0.097   4.107
 1582SOL    HW1 5645   1.834   0.090   4.017
 1582SOL    HW2 5646   1.851   0.054   4.175
 1583SOL     OW 5647   1.265   4.693   3.541
 1583SOL    HW1 5648   1.346   4.640   3.515
 1583SOL    HW2 5649   1.220   4.649   3.619
 1584SOL     OW 5650   1.448   6.306   6.050
 1584SOL    HW1 5651   1.422   6.402   6.041
 1584SOL    HW2 5652   1.406   6.267   6.132
 1585SOL     OW 5653   5.762   1.581   3.348
 1585SOL    HW1 5654   5.743   1.510   3.416
 1585SOL    HW2 5655   5.729   1.551   3.258
 1586SOL     OW 5656   3.567   4.945   2.195
 1586SOL    HW1 5657   3.590   4.900   2.109
 1586SOL    HW2 5658   3.468   4.940   2.209
 1587SOL     OW 5659   3.231   5.599   6.447
 1587SOL    HW1 5660   3.248   5.503   6.424
 1587SOL    HW2 5661   3.258   5.657   6.371
 1588SOL     OW 5662   4.231   0.967   3.070
 1588SOL    HW1 5663   4.320   0.989   3.029
 1588SOL    HW2 5664   4.211   1.032   3.143
 1589SOL     OW 5665   5.969   3.289   1.438
 1589SOL    HW1 5666   6.048   3.243   1.479
 1589SOL    HW2 5667   5.997   3.379   1.405
 1590SOL     OW 5668   4.003   6.104   5.613
 1590SOL    HW1 5669   4.071   6.079   5.683
 1590SOL    HW2 5670   3.927   6.040   5.617
 1591SOL     OW 5671   6.767   5.470   2.449
 1591SOL    HW1 5672   6.694   5.537   2.437
 1591SOL    HW2 5673   6.794   5.466   2.545
 1592SOL     OW 5674   2.162   4.471   6.570
 1592SOL    HW1 5675   2.109   4.457   6.487
 1592SOL    HW2 5676   2.141   4.399   6.636
 1593SOL     OW 5677   1.440   5.786   5.124
 1593SOL    HW1 5678   1.400   5.761   5.036
 1593SOL    HW2 5679   1.529   5.741   5.134
 1594SOL     OW 5680   0.223   6.321   2.065
 1594SOL    HW1 5681   0.127   6.329   2.038
 1594SOL    HW2 5682   0.239   6.231   2.104
 1595SOL     OW 5683   1.062   5.752   0.328
 1595SOL    HW1 5684   1.125   5.819   0.287
 1595SOL    HW2 5685   1.017   5.700   0.255
 1596SOL     OW 5686   0.383   2.416   3.924
 1596SOL    HW1 5687   0.284   2.404   3.930
 1596SOL    HW2 5688   0.427   2.326   3.924
 1597SOL     OW 5689   1.868   6.056   0.487
 1597SOL    HW1 5690   1.821   6.020   0.568
 1597SOL    HW2 5691   1.801   6.078   0.416
 1598SOL     OW 5692   0.789   3.922   6.181
 1598SOL    HW1 5693   0.843   3.991   6.133
 1598SOL    HW2 5694   0.795   3.937   6.280
 1599SOL     OW 5695   4.723   4.800   5.360
 1599SOL    HW1 5696   4.771   4.765   5.280
 1599SOL    HW2 5697   4.699   4.723   5.421
 1600SOL     OW 5698   4.296   1.627   3.773
 1600SOL    HW1 5699   4.322   1.590   3.862
 1600SOL    HW2 5700   4.308   1.726   3.773
 1601SOL     OW 5701   0.133   4.733   4.977
 1601SOL    HW1 5702   0.207   4.710   4.914
 1601SOL    HW2 5703   0.144   4.681   5.062
 1602SOL     OW 5704   3.436   5.103   3.314
 1602SOL    HW1 5705   3.429   5.086   3.412
 1602SOL    HW2 5706   3.351   5.074   3.269
 1603SOL     OW 5707   0.685   6.380   2.847
 1603SOL    HW1 5708   0.728   6.316   2.783
 1603SOL    HW2 5709   0.654   6.461   2.797
 1604SOL     OW 5710   5.760   5.056   1.508
 1604SOL    HW1 5711   5.687   5.063   1.576
 1604SOL    HW2 5712   5.721   5.061   1.417
 1605SOL     OW 5713   6.607   6.061   1.389
 1605SOL    HW1 5714   6.515   6.038   1.418
 1605SOL    HW2 5715   6.629   6.154   1.417
 1606SOL     OW 5716   3.154   0.591   4.815
 1606SOL    HW1 5717   3.219   0.596   4.739
 1606SOL    HW2 5718   3.118   0.682   4.835
 1607SOL     OW 5719   4.185   0.807   1.047
 1607SOL    HW1 5720   4.108   0.867   1.068
 1607SOL    HW2 5721   4.271   0.853   1.070
 1608SOL     OW 5722   0.942   0.299   3.728
 1608SOL    HW1 5723   0.890   0.256   3.655
 1608SOL    HW2 5724   1.005   0.232   3.768
 1609SOL     OW 5725   3.763   0.186   0.491
 1609SOL    HW1 5726   3.684   0.128   0.471
 1609SOL    HW2 5727   3.826   0.137   0.551
 1610SOL     OW 5728   5.996   4.603   6.926
 1610SOL    HW1 5729   5.908   4.557   6.925
 1610SOL    HW2 5730   6.069   4.537   6.908
 1611SOL     OW 5731   2.156   3.558   1.094
 1611SOL    HW1 5732   2.073   3.594   1.137
 1611SOL    HW2 5733   2.149   3.459   1.086
 1612SOL     OW 5734   2.809   0.483   5.589
 1612SOL    HW1 5735   2.753   0.540   5.648
 1612SOL    HW2 5736   2.760   0.464   5.504
 1613SOL     OW 5737   2.220   5.054   1.672
 1613SOL    HW1 5738   2.156   4.977   1.673
 1613SOL    HW2 5739   2.186   5.123   1.608
 1614SOL     OW 5740   5.988   3.185   0.043
 1614SOL    HW1 5741   5.938   3.271   0.029
 1614SOL    HW2 5742   5.924   3.115   0.076
 1615SOL     OW 5743   6.299   5.246   0.939
 1615SOL    HW1 5744   6.202   5.221   0.930
 1615SOL    HW2 5745   6.322   5.316   0.871
 1616SOL     OW 5746   3.083   0.840   4.851
 1616SOL    HW1 5747   3.080   0.877   4.758
 1616SOL    HW2 5748   3.080   0.915   4.917
 1617SOL     OW 5749   6.016   0.166   2.722
 1617SOL    HW1 5750   6.016   0.066   2.724
 1617SOL    HW2 5751   5.926   0.199   2.750
 1618SOL     OW 5752   1.781   4.129   1.571
 1618SOL    HW1 5753   1.796   4.125   1.473
 1618SOL    HW2 5754   1.701   4.186   1.590
 1619SOL     OW 5755   1.512   3.318   2.236
 1619SOL    HW1 5756   1.579   3.379   2.193
 1619SOL    HW2 5757   1.512   3.230   2.188
 1620SOL     OW 5758   2.757   4.814   1.834
 1620SOL    HW1 5759   2.843   4.814   1.784
 1620SOL    HW2 5760   2.764   4.751   1.911
 1621SOL     OW 5761   0.134   1.101   0.277
 1621SOL    HW1 5762   0.213   1.162   0.278
 1621SOL    HW2 5763   0.080   1.115   0.360
 1622SOL     OW 5764   0.159   2.994   4.984
 1622SOL    HW1 5765   0.083   3.056   5.003
 1622SOL    HW2 5766   0.209   3.026   4.904
 1623SOL     OW 5767   2.254   3.211   5.681
 1623SOL    HW1 5768   2.319   3.135   5.682
 1623SOL    HW2 5769   2.302   3.296   5.705
 1624SOL     OW 5770   2.732   0.454   4.838
 1624SOL    HW1 5771   2.780   0.533   4.875
 1624SOL    HW2 5772   2.654   0.432   4.898
 1625SOL     OW 5773   0.842   5.383   1.230
 1625SOL    HW1 5774   0.927   5.348   1.190
 1625SOL    HW2 5775   0.858   5.407   1.326
 1626SOL     OW 5776   4.171   1.967   6.851
 1626SOL    HW1 5777   4.255   1.951   6.902
 1626SOL    HW2 5778   4.135   1.881   6.816
 1627SOL     OW 5779   0.117   3.480   3.387
 1627SOL    HW1 5780   0.082   3.565   3.427
 1627SOL    HW2 5781   0.050   3.443   3.323
 1628SOL     OW 5782   4.539   4.430   0.253
 1628SOL    HW1 5783   4.485   4.349   0.278
 1628SOL    HW2 5784   4.498   4.473   0.172
 1629SOL     OW 5785   2.840   0.608   4.069
 1629SOL    HW1 5786   2.884   0.665   4.000
 1629SOL    HW2 5787   2.765   0.659   4.111
 1630SOL     OW 5788   1.652   5.287   5.769
 1630SOL    HW1 5789   1.646   5.211   5.834
 1630SOL    HW2 5790   1.562   5.303   5.729
 1631SOL     OW 5791   1.178   2.634   6.975
 1631SOL    HW1 5792   1.219   2.712   6.927
 1631SOL    HW2 5793   1.091   2.662   7.015
 1632SOL     OW 5794   0.308   1.846   6.779
 1632SOL    HW1 5795   0.210   1.846   6.800
 1632SOL    HW2 5796   0.327   1.919   6.713
 1633SOL     OW 5797   5.322   3.548   4.648
 1633SOL    HW1 5798   5.270   3.474   4.691
 1633SOL    HW2 5799   5.412   3.516   4.622
 1634SOL     OW 5800   4.753   5.389   5.826
 1634SOL    HW1 5801   4.767   5.416   5.921
 1634SOL    HW2 5802   4.656   5.387   5.805
 1635SOL     OW 5803   6.823   5.630   5.721
 1635SOL    HW1 5804   6.794   5.710   5.668
 1635SOL    HW2 5805   6.745   5.570   5.736
 1636SOL     OW 5806   3.103   4.457   1.695
 1636SOL    HW1 5807   3.028   4.460   1.762
 1636SOL    HW2 5808   3.157   4.374   1.709
 1637SOL     OW 5809   0.778   0.706   2.747
 1637SOL    HW1 5810   0.843   0.729   2.819
 1637SOL    HW2 5811   0.819   0.636   2.687
 1638SOL     OW 5812   0.598   4.505   3.372
 1638SOL    HW1 5813   0.667   4.441   3.407
 1638SOL    HW2 5814   0.607   4.593   3.419
 1639SOL     OW 5815   4.993   0.043   2.941
 1639SOL    HW1 5816   5.062   0.111   2.965
 1639SOL    HW2 5817   4.905   0.069   2.982
 1640SOL     OW 5818   5.709   0.859   0.526
 1640SOL    HW1 5819   5.660   0.879   0.611
 1640SOL    HW2 5820   5.646   0.817   0.460
 1641SOL     OW 5821   4.728   2.661   3.530
 1641SOL    HW1 5822   4.745   2.753   3.565
 1641SOL    HW2 5823   4.678   2.667   3.443
 1642SOL     OW 5824   5.730   3.317   6.571
 1642SOL    HW1 5825   5.741   3.359   6.481
 1642SOL    HW2 5826   5.638   3.336   6.605
 1643SOL     OW 5827   3.077   4.935   4.181
 1643SOL    HW1 5828   3.067   4.937   4.081
 1643SOL    HW2 5829   3.007   4.876   4.220
 1644SOL     OW 5830   0.025   3.138   0.970
 1644SOL    HW1 5831   0.089   3.177   1.036
 1644SOL    HW2 5832   0.065   3.057   0.928
 1645SOL     OW 5833   3.464   5.700   5.590
 1645SOL    HW1 5834   3.381   5.662   5.631
 1645SOL    HW2 5835   3.446   5.726   5.495
 1646SOL     OW 5836   3.026   5.730   0.514
 1646SOL    HW1 5837   2.947   5.791   0.516
 1646SOL    HW2 5838   3.042   5.695   0.607
 1647SOL     OW 5839   6.104   3.099   4.690
 1647SOL    HW1 5840   6.007   3.113   4.708
 1647SOL    HW2 5841   6.116   3.017   4.633
 1648SOL     OW 5842   5.642   5.295   1.066
 1648SOL    HW1 5843   5.693   5.275   0.983
 1648SOL    HW2 5844   5.627   5.394   1.073
 1649SOL     OW 5845   3.244   0.569   4.313
 1649SOL    HW1 5846   3.229   0.513   4.231
 1649SOL    HW2 5847   3.315   0.528   4.369
 1650SOL     OW 5848   1.965   6.265   5.588
 1650SOL    HW1 5849   2.046   6.240   5.641
 1650SOL    HW2 5850   1.954   6.365   5.589
 1651SOL     OW 5851   0.473   1.865   1.202
 1651SOL    HW1 5852   0.530   1.788   1.172
 1651SOL    HW2 5853   0.414   1.895   1.127
 1652SOL     OW 5854   1.087   3.845   2.642
 1652SOL    HW1 5855   1.120   3.858   2.549
 1652SOL    HW2 5856   0.988   3.835   2.642
 1653SOL     OW 5857   1.596   0.413   1.134
 1653SOL    HW1 5858   1.512   0.374   1.170
 1653SOL    HW2 5859   1.624   0.491   1.190
 1654SOL     OW 5860   6.595   3.473   1.264
 1654SOL    HW1 5861   6.547   3.400   1.313
 1654SOL    HW2 5862   6.544   3.559   1.273
 1655SOL     OW 5863   6.196   2.293   5.030
 1655SOL    HW1 5864   6.140   2.215   5.005
 1655SOL    HW2 5865   6.219   2.288   5.128
 1656SOL     OW 5866   2.466   4.497   1.727
 1656SOL    HW1 5867   2.377   4.468   1.762
 1656SOL    HW2 5868   2.492   4.584   1.769
 1657SOL     OW 5869   6.883   1.122   4.002
 1657SOL    HW1 5870   6.919   1.185   3.932
 1657SOL    HW2 5871   6.884   1.029   3.966
 1658SOL     OW 5872   1.289   0.096   1.414
 1658SOL    HW1 5873   1.195   0.061   1.414
 1658SOL    HW2 5874   1.329   0.083   1.505
 1659SOL     OW 5875   3.688   0.365   5.929
 1659SOL    HW1 5876   3.761   0.369   5.860
 1659SOL    HW2 5877   3.721   0.405   6.015
 1660SOL     OW 5878   1.438   5.417   4.252
 1660SOL    HW1 5879   1.355   5.414   4.308
 1660SOL    HW2 5880   1.472   5.323   4.238
 1661SOL     OW 5881   2.121   0.763   1.842
 1661SOL    HW1 5882   2.041   0.724   1.887
 1661SOL    HW2 5883   2.107   0.764   1.743
 1662SOL     OW 5884   6.626   0.152   4.087
 1662SOL    HW1 5885   6.592   0.147   4.181
 1662SOL    HW2 5886   6.559   0.110   4.025
 1663SOL     OW 5887   3.880   6.515   2.374
 1663SOL    HW1 5888   3.948   6.583   2.348
 1663SOL    HW2 5889   3.925   6.440   2.422
 1664SOL     OW 5890   1.870   6.668   4.500
 1664SOL    HW1 5891   1.907   6.614   4.576
 1664SOL    HW2 5892   1.824   6.749   4.536
 1665SOL     OW 5893   0.059   1.516   3.184
 1665SOL    HW1 5894   0.121   1.584   3.144
 1665SOL    HW2 5895   6.989   1.538   3.158
 1666SOL     OW 5896   5.493   2.645   0.147
 1666SOL    HW1 5897   5.525   2.674   0.057
 1666SOL    HW2 5898   5.462   2.550   0.143
 1667SOL     OW 5899   6.451   6.261   1.763
 1667SOL    HW1 5900   6.475   6.331   1.696
 1667SOL    HW2 5901   6.358   6.274   1.795
 1668SOL     OW 5902   5.438   6.512   5.773
 1668SOL    HW1 5903   5.523   6.473   5.809
 1668SOL    HW2 5904   5.360   6.468   5.816
 1669SOL     OW 5905   0.391   5.913   6.213
 1669SOL    HW1 5906   0.362   5.930   6.119
 1669SOL    HW2 5907   0.489   5.895   6.216
 1670SOL     OW 5908   0.484   4.039   6.206
 1670SOL    HW1 5909   0.466   4.083   6.118
 1670SOL    HW2 5910   0.582   4.020   6.214
 1671SOL     OW 5911   4.709   2.263   1.435
 1671SOL    HW1 5912   4.741   2.330   1.502
 1671SOL    HW2 5913   4.777   2.254   1.362
 1672SOL     OW 5914   1.884   3.036   0.847
 1672SOL    HW1 5915   1.827   3.099   0.795
 1672SOL    HW2 5916   1.825   2.965   0.888
 1673SOL     OW 5917   0.384   2.557   4.168
 1673SOL    HW1 5918   0.470   2.583   4.212
 1673SOL    HW2 5919   0.404   2.505   4.084
 1674SOL     OW 5920   0.396   3.930   2.348
 1674SOL    HW1 5921   0.423   3.988   2.270
 1674SOL    HW2 5922   0.428   3.972   2.433
 1675SOL     OW 5923   4.188   0.507   6.298
 1675SOL    HW1 5924   4.234   0.521   6.210
 1675SOL    HW2 5925   4.223   0.423   6.341
 1676SOL     OW 5926   1.954   1.906   1.762
 1676SOL    HW1 5927   1.948   1.826   1.822
 1676SOL    HW2 5928   2.045   1.910   1.721
 1677SOL     OW 5929   3.145   3.047   5.279
 1677SOL    HW1 5930   3.052   3.047   5.241
 1677SOL    HW2 5931   3.200   2.977   5.233
 1678SOL     OW 5932   4.635   4.625   4.470
 1678SOL    HW1 5933   4.596   4.582   4.552
 1678SOL    HW2 5934   4.564   4.679   4.425
 1679SOL     OW 5935   2.540   2.544   4.625
 1679SOL    HW1 5936   2.507   2.579   4.712
 1679SOL    HW2 5937   2.506   2.601   4.551
 1680SOL     OW 5938   0.014   3.753   4.618
 1680SOL    HW1 5939   7.006   3.809   4.542
 1680SOL    HW2 5940   6.983   3.670   4.624
 1681SOL     OW 5941   6.264   6.008   6.728
 1681SOL    HW1 5942   6.326   6.066   6.781
 1681SOL    HW2 5943   6.207   5.955   6.790
 1682SOL     OW 5944   0.620   1.469   4.797
 1682SOL    HW1 5945   0.682   1.521   4.738
 1682SOL    HW2 5946   0.553   1.531   4.836
 1683SOL     OW 5947   4.318   5.290   1.424
 1683SOL    HW1 5948   4.369   5.206   1.442
 1683SOL    HW2 5949   4.374   5.370   1.448
 1684SOL     OW 5950   1.323   6.068   2.785
 1684SOL    HW1 5951   1.414   6.076   2.744
 1684SOL    HW2 5952   1.332   6.052   2.883
 1685SOL     OW 5953   2.300   0.666   5.738
 1685SOL    HW1 5954   2.212   0.628   5.764
 1685SOL    HW2 5955   2.356   0.595   5.696
 1686SOL     OW 5956   2.670   5.346   4.778
 1686SOL    HW1 5957   2.709   5.404   4.706
 1686SOL    HW2 5958   2.627   5.266   4.736
 1687SOL     OW 5959   2.445   3.440   1.382
 1687SOL    HW1 5960   2.389   3.503   1.329
 1687SOL    HW2 5961   2.420   3.446   1.479
 1688SOL     OW 5962   1.794   2.477   4.687
 1688SOL    HW1 5963   1.873   2.448   4.634
 1688SOL    HW2 5964   1.755   2.399   4.736
 1689SOL     OW 5965   5.744   1.229   2.432
 1689SOL    HW1 5966   5.645   1.237   2.446
 1689SOL    HW2 5967   5.788   1.205   2.519
 1690SOL     OW 5968   1.844   2.932   3.732
 1690SOL    HW1 5969   1.854   2.998   3.658
 1690SOL    HW2 5970   1.881   2.971   3.817
 1691SOL     OW 5971   5.948   3.719   2.971
 1691SOL    HW1 5972   6.041   3.719   3.010
 1691SOL    HW2 5973   5.889   3.779   3.026
 1692SOL     OW 5974   5.881   6.952   1.686
 1692SOL    HW1 5975   5.855   0.023   1.667
 1692SOL    HW2 5976   5.837   6.891   1.619
 1693SOL     OW 5977   0.577   2.509   1.893
 1693SOL    HW1 5978   0.609   2.577   1.827
 1693SOL    HW2 5979   0.649   2.440   1.907
 1694SOL     OW 5980   5.386   0.509   3.094
 1694SOL    HW1 5981   5.421   0.523   3.187
 1694SOL    HW2 5982   5.444   0.442   3.047
 1695SOL     OW 5983   3.072   1.696   6.409
 1695SOL    HW1 5984   3.032   1.788   6.409
 1695SOL    HW2 5985   3.084   1.665   6.315
 1696SOL     OW 5986   4.797   4.291   0.901
 1696SOL    HW1 5987   4.884   4.261   0.941
 1696SOL    HW2 5988   4.766   4.374   0.947
 1697SOL     OW 5989   6.001   6.437   1.333
 1697SOL    HW1 5990   5.966   6.363   1.276
 1697SOL    HW2 5991   5.937   6.453   1.408
 1698SOL     OW 5992   4.300   0.799   6.987
 1698SOL    HW1 5993   4.316   0.766   6.894
 1698SOL    HW2 5994   4.231   0.742   0.008
 1699SOL     OW 5995   2.629   1.196   0.749
 1699SOL    HW1 5996   2.707   1.226   0.806
 1699SOL    HW2 5997   2.555   1.164   0.808
 1700SOL     OW 5998   5.510   2.135   3.036
 1700SOL    HW1 5999   5.568   2.111   3.113
 1700SOL    HW2 6000   5.567   2.165   2.959
 1701SOL     OW 6001   5.414   4.206   5.992
 1701SOL    HW1 6002   5.385   4.270   5.921
 1701SOL    HW2 6003   5.341   4.194   6.058
 1702SOL     OW 6004   0.080   3.023   0.135
 1702SOL    HW1 6005   0.120   2.995   0.222
 1702SOL    HW2 6006   0.152   3.055   0.074
 1703SOL     OW 6007   3.406   3.088   2.037
 1703SOL    HW1 6008   3.411   3.055   1.942
 1703SOL    HW2 6009   3.431   3.185   2.040
 1704SOL     OW 6010   0.837   2.675   1.207
 1704SOL    HW1 6011   0.885   2.595   1.243
 1704SOL    HW2 6012   0.765   2.645   1.145
 1705SOL     OW 6013   3.622   1.969   1.583
 1705SOL    HW1 6014   3.618   2.069   1.590
 1705SOL    HW2 6015   3.706   1.942   1.537
 1706SOL     OW 6016   4.996   1.155   1.743
 1706SOL    HW1 6017   4.908   1.172   1.700
 1706SOL    HW2 6018   4.987   1.082   1.811
 1707SOL     OW 6019   5.546   1.939   2.403
 1707SOL    HW1 6020   5.575   1.848   2.375
 1707SOL    HW2 6021   5.503   1.986   2.325
 1708SOL     OW 6022   5.159   5.153   2.275
 1708SOL    HW1 6023   5.175   5.075   2.335
 1708SOL    HW2 6024   5.235   5.217   2.283
 1709SOL     OW 6025   3.054   5.623   1.626
 1709SOL    HW1 6026   3.087   5.535   1.660
 1709SOL    HW2 6027   2.991   5.663   1.693
 1710SOL     OW 6028   5.138   5.288   4.001
 1710SOL    HW1 6029   5.116   5.345   4.080
 1710SOL    HW2 6030   5.064   5.222   3.986
 1711SOL     OW 6031   0.382   4.703   4.522
 1711SOL    HW1 6032   0.400   4.607   4.500
 1711SOL    HW2 6033   0.443   4.762   4.468
 1712SOL     OW 6034   0.086   3.192   5.778
 1712SOL    HW1 6035   0.082   3.104   5.825
 1712SOL    HW2 6036   0.157   3.188   5.708
 1713SOL     OW 6037   4.260   2.262   2.144
 1713SOL    HW1 6038   4.291   2.304   2.229
 1713SOL    HW2 6039   4.322   2.288   2.070
 1714SOL     OW 6040   3.530   2.097   5.577
 1714SOL    HW1 6041   3.431   2.085   5.579
 1714SOL    HW2 6042   3.566   2.092   5.669
 1715SOL     OW 6043   0.060   4.601   2.931
 1715SOL    HW1 6044   0.076   4.668   2.858
 1715SOL    HW2 6045   0.058   4.648   3.019
 1716SOL     OW 6046   4.392   6.888   2.921
 1716SOL    HW1 6047   4.476   6.937   2.895
 1716SOL    HW2 6048   4.364   6.917   3.013
 1717SOL     OW 6049   2.626   6.191   5.983
 1717SOL    HW1 6050   2.685   6.270   5.967
 1717SOL    HW2 6051   2.615   6.140   5.898
 1718SOL     OW 6052   2.488   2.335   1.620
 1718SOL    HW1 6053   2.567   2.381   1.579
 1718SOL    HW2 6054   2.405   2.364   1.573
 1719SOL     OW 6055   1.525   3.711   0.539
 1719SOL    HW1 6056   1.597   3.769   0.502
 1719SOL    HW2 6057   1.552   3.677   0.628
 1720SOL     OW 6058   0.680   2.783   0.117
 1720SOL    HW1 6059   0.646   2.693   0.088
 1720SOL    HW2 6060   0.774   2.796   0.083
 1721SOL     OW 6061   1.472   6.355   1.372
 1721SOL    HW1 6062   1.463   6.442   1.323
 1721SOL    HW2 6063   1.447   6.279   1.311
 1722SOL     OW 6064   4.228   2.309   4.153
 1722SOL    HW1 6065   4.140   2.304   4.201
 1722SOL    HW2 6066   4.214   2.291   4.056
 1723SOL     OW 6067   6.615   2.633   2.517
 1723SOL    HW1 6068   6.544   2.695   2.550
 1723SOL    HW2 6069   6.582   2.583   2.437
 1724SOL     OW 6070   6.404   2.274   0.627
 1724SOL    HW1 6071   6.411   2.178   0.603
 1724SOL    HW2 6072   6.309   2.296   0.648
 1725SOL     OW 6073   2.373   4.833   6.853
 1725SOL    HW1 6074   2.312   4.896   6.807
 1725SOL    HW2 6075   2.423   4.881   6.926
 1726SOL     OW 6076   5.081   4.520   5.694
 1726SOL    HW1 6077   4.987   4.497   5.670
 1726SOL    HW2 6078   5.138   4.437   5.691
 1727SOL     OW 6079   3.854   3.353   4.280
 1727SOL    HW1 6080   3.827   3.442   4.242
 1727SOL    HW2 6081   3.816   3.343   4.371
 1728SOL     OW 6082   4.763   5.008   5.534
 1728SOL    HW1 6083   4.830   4.992   5.606
 1728SOL    HW2 6084   4.756   4.927   5.476
 1729SOL     OW 6085   2.270   4.133   2.728
 1729SOL    HW1 6086   2.315   4.053   2.767
 1729SOL    HW2 6087   2.337   4.205   2.711
 1730SOL     OW 6088   1.217   6.908   5.773
 1730SOL    HW1 6089   1.215   6.868   5.865
 1730SOL    HW2 6090   1.307   6.949   5.757
 1731SOL     OW 6091   0.216   4.249   2.341
 1731SOL    HW1 6092   0.283   4.193   2.293
 1731SOL    HW2 6093   0.234   4.346   2.323
 1732SOL     OW 6094   2.880   4.446   5.550
 1732SOL    HW1 6095   2.896   4.535   5.507
 1732SOL    HW2 6096   2.864   4.377   5.479
 1733SOL     OW 6097   1.816   4.000   1.789
 1733SOL    HW1 6098   1.804   4.038   1.697
 1733SOL    HW2 6099   1.902   4.034   1.828
 1734SOL     OW 6100   4.835   3.206   1.491
 1734SOL    HW1 6101   4.819   3.108   1.481
 1734SOL    HW2 6102   4.927   3.228   1.457
 1735SOL     OW 6103   5.331   6.061   0.988
 1735SOL    HW1 6104   5.385   6.138   1.023
 1735SOL    HW2 6105   5.392   5.984   0.971
 1736SOL     OW 6106   3.893   2.748   1.009
 1736SOL    HW1 6107   3.919   2.824   1.069
 1736SOL    HW2 6108   3.816   2.699   1.050
 1737SOL     OW 6109   1.981   1.305   4.115
 1737SOL    HW1 6110   2.040   1.348   4.183
 1737SOL    HW2 6111   2.012   1.329   4.023
 1738SOL     OW 6112   2.039   2.125   3.785
 1738SOL    HW1 6113   2.014   2.038   3.827
 1738SOL    HW2 6114   2.118   2.113   3.725
 1739SOL     OW 6115   6.477   2.513   5.268
 1739SOL    HW1 6116   6.404   2.452   5.300
 1739SOL    HW2 6117   6.543   2.461   5.214
 1740SOL     OW 6118   6.482   1.817   5.735
 1740SOL    HW1 6119   6.541   1.892   5.762
 1740SOL    HW2 6120   6.386   1.846   5.739
 1741SOL     OW 6121   1.991   0.761   3.969
 1741SOL    HW1 6122   2.002   0.835   3.903
 1741SOL    HW2 6123   1.943   0.685   3.926
 1742SOL     OW 6124   5.402   0.722   6.338
 1742SOL    HW1 6125   5.439   0.805   6.297
 1742SOL    HW2 6126   5.445   0.642   6.296
 1743SOL     OW 6127   1.357   2.477   1.763
 1743SOL    HW1 6128   1.358   2.388   1.809
 1743SOL    HW2 6129   1.262   2.502   1.742
 1744SOL     OW 6130   0.690   1.774   2.314
 1744SOL    HW1 6131   0.705   1.846   2.246
 1744SOL    HW2 6132   0.687   1.685   2.269
 1745SOL     OW 6133   6.471   6.607   3.229
 1745SOL    HW1 6134   6.451   6.517   3.267
 1745SOL    HW2 6135   6.475   6.600   3.129
 1746SOL     OW 6136   2.127   5.141   4.841
 1746SOL    HW1 6137   2.060   5.140   4.915
 1746SOL    HW2 6138   2.124   5.054   4.792
 1747SOL     OW 6139   5.718   1.877   2.789
 1747SOL    HW1 6140   5.752   1.932   2.866
 1747SOL    HW2 6141   5.794   1.856   2.727
 1748SOL     OW 6142   0.969   0.633   4.505
 1748SOL    HW1 6143   0.954   0.680   4.592
 1748SOL    HW2 6144   1.058   0.588   4.506
 1749SOL     OW 6145   2.920   6.854   4.410
 1749SOL    HW1 6146   2.856   6.928   4.387
 1749SOL    HW2 6147   3.013   6.892   4.418
 1750SOL     OW 6148   6.019   0.243   3.732
 1750SOL    HW1 6149   5.973   0.174   3.676
 1750SOL    HW2 6150   5.976   0.332   3.717
 1751SOL     OW 6151   4.058   5.820   5.414
 1751SOL    HW1 6152   4.103   5.900   5.453
 1751SOL    HW2 6153   4.087   5.808   5.319
 1752SOL     OW 6154   6.850   2.276   1.522
 1752SOL    HW1 6155   6.778   2.343   1.535
 1752SOL    HW2 6156   6.846   2.241   1.428
 1753SOL     OW 6157   0.331   1.309   0.663
 1753SOL    HW1 6158   0.371   1.266   0.582
 1753SOL    HW2 6159   0.242   1.348   0.640
 1754SOL     OW 6160   2.125   3.974   1.004
 1754SOL    HW1 6161   2.121   3.983   1.103
 1754SOL    HW2 6162   2.188   4.043   0.967
 1755SOL     OW 6163   6.324   6.266   2.140
 1755SOL    HW1 6164   6.292   6.254   2.046
 1755SOL    HW2 6165   6.344   6.176   2.180
 1756SOL     OW 6166   4.213   5.393   6.492
 1756SOL    HW1 6167   4.203   5.465   6.560
 1756SOL    HW2 6168   4.309   5.365   6.486
 1757SOL     OW 6169   2.256   5.272   4.646
 1757SOL    HW1 6170   2.204   5.220   4.714
 1757SOL    HW2 6171   2.318   5.335   4.693
 1758SOL     OW 6172   1.836   0.431   3.968
 1758SOL    HW1 6173   1.871   0.472   3.884
 1758SOL    HW2 6174   1.759   0.372   3.947
 1759SOL     OW 6175   2.143   5.170   6.384
 1759SOL    HW1 6176   2.241   5.162   6.403
 1759SOL    HW2 6177   2.107   5.250   6.431
 1760SOL     OW 6178   6.006   1.417   2.755
 1760SOL    HW1 6179   6.021   1.463   2.667
 1760SOL    HW2 6180   5.999   1.485   2.828
 1761SOL     OW 6181   0.409   0.430   0.395
 1761SOL    HW1 6182   0.508   0.418   0.396
 1761SOL    HW2 6183   0.372   0.408   0.485
 1762SOL     OW 6184   0.254   1.888   4.931
 1762SOL    HW1 6185   0.167   1.906   4.885
 1762SOL    HW2 6186   0.262   1.948   5.011
 1763SOL     OW 6187   1.230   3.729   4.125
 1763SOL    HW1 6188   1.185   3.715   4.037
 1763SOL    HW2 6189   1.288   3.650   4.145
 1764SOL     OW 6190   2.091   3.723   2.450
 1764SOL    HW1 6191   2.155   3.647   2.440
 1764SOL    HW2 6192   2.137   3.809   2.425
 1765SOL     OW 6193   3.834   1.240   0.846
 1765SOL    HW1 6194   3.846   1.246   0.945
 1765SOL    HW2 6195   3.799   1.327   0.811
 1766SOL     OW 6196   4.937   3.345   2.882
 1766SOL    HW1 6197   4.958   3.364   2.978
 1766SOL    HW2 6198   4.916   3.431   2.834
 1767SOL     OW 6199   0.287   3.108   3.208
 1767SOL    HW1 6200   0.381   3.097   3.174
 1767SOL    HW2 6201   0.284   3.178   3.278
 1768SOL     OW 6202   3.987   1.413   5.657
 1768SOL    HW1 6203   3.984   1.501   5.610
 1768SOL    HW2 6204   4.082   1.385   5.670
 1769SOL     OW 6205   4.309   2.913   5.790
 1769SOL    HW1 6206   4.224   2.932   5.741
 1769SOL    HW2 6207   4.384   2.966   5.749
 1770SOL     OW 6208   6.743   5.277   4.796
 1770SOL    HW1 6209   6.766   5.251   4.889
 1770SOL    HW2 6210   6.656   5.327   4.796
 1771SOL     OW 6211   2.500   4.722   0.182
 1771SOL    HW1 6212   2.564   4.678   0.118
 1771SOL    HW2 6213   2.476   4.812   0.148
 1772SOL     OW 6214   3.767   6.760   3.174
 1772SOL    HW1 6215   3.808   6.754   3.265
 1772SOL    HW2 6216   3.677   6.718   3.175
 1773SOL     OW 6217   3.148   4.029   6.697
 1773SOL    HW1 6218   3.188   3.960   6.757
 1773SOL    HW2 6219   3.187   4.021   6.605
 1774SOL     OW 6220   4.100   0.419   1.574
 1774SOL    HW1 6221   4.192   0.425   1.535
 1774SOL    HW2 6222   4.040   0.371   1.511
 1775SOL     OW 6223   1.305   5.341   3.947
 1775SOL    HW1 6224   1.363   5.314   4.023
 1775SOL    HW2 6225   1.292   5.263   3.885
 1776SOL     OW 6226   3.536   0.663   5.710
 1776SOL    HW1 6227   3.636   0.668   5.703
 1776SOL    HW2 6228   3.507   0.568   5.710
 1777SOL     OW 6229   3.220   5.489   5.520
 1777SOL    HW1 6230   3.306   5.475   5.568
 1777SOL    HW2 6231   3.208   5.418   5.451
 1778SOL     OW 6232   4.420   2.187   4.637
 1778SOL    HW1 6233   4.365   2.249   4.692
 1778SOL    HW2 6234   4.515   2.217   4.637
 1779SOL     OW 6235   4.883   2.085   4.014
 1779SOL    HW1 6236   4.962   2.058   4.069
 1779SOL    HW2 6237   4.859   2.179   4.036
 1780SOL     OW 6238   2.671   4.554   5.712
 1780SOL    HW1 6239   2.746   4.492   5.687
 1780SOL    HW2 6240   2.696   4.648   5.688
 1781SOL     OW 6241   4.338   5.368   3.538
 1781SOL    HW1 6242   4.260   5.306   3.536
 1781SOL    HW2 6243   4.339   5.419   3.624
 1782SOL     OW 6244   2.953   1.598   2.861
 1782SOL    HW1 6245   3.012   1.667   2.820
 1782SOL    HW2 6246   3.007   1.541   2.924
 1783SOL     OW 6247   1.702   3.340   6.710
 1783SOL    HW1 6248   1.707   3.437   6.689
 1783SOL    HW2 6249   1.634   3.325   6.782
 1784SOL     OW 6250   2.775   0.714   3.593
 1784SOL    HW1 6251   2.744   0.622   3.616
 1784SOL    HW2 6252   2.853   0.709   3.531
 1785SOL     OW 6253   5.010   5.982   3.809
 1785SOL    HW1 6254   5.068   6.033   3.873
 1785SOL    HW2 6255   5.055   5.978   3.720
 1786SOL     OW 6256   1.342   3.109   0.665
 1786SOL    HW1 6257   1.335   3.172   0.588
 1786SOL    HW2 6258   1.324   3.016   0.633
 1787SOL     OW 6259   2.133   1.162   4.402
 1787SOL    HW1 6260   2.113   1.254   4.367
 1787SOL    HW2 6261   2.161   1.102   4.327
 1788SOL     OW 6262   3.085   3.396   0.347
 1788SOL    HW1 6263   3.132   3.308   0.339
 1788SOL    HW2 6264   3.153   3.470   0.348
 1789SOL     OW 6265   6.872   2.232   2.186
 1789SOL    HW1 6266   6.850   2.149   2.238
 1789SOL    HW2 6267   6.951   2.215   2.128
 1790SOL     OW 6268   3.963   5.942   4.216
 1790SOL    HW1 6269   4.055   5.982   4.215
 1790SOL    HW2 6270   3.920   5.961   4.304
 1791SOL     OW 6271   0.175   2.323   4.840
 1791SOL    HW1 6272   0.131   2.245   4.795
 1791SOL    HW2 6273   0.106   2.378   4.886
 1792SOL     OW 6274   0.968   2.455   4.077
 1792SOL    HW1 6275   1.016   2.428   3.994
 1792SOL    HW2 6276   0.873   2.425   4.072
 1793SOL     OW 6277   6.795   0.142   3.480
 1793SOL    HW1 6278   6.800   0.234   3.441
 1793SOL    HW2 6279   6.732   0.086   3.426
 1794SOL     OW 6280   5.195   6.181   6.634
 1794SOL    HW1 6281   5.101   6.146   6.627
 1794SOL    HW2 6282   5.204   6.265   6.580
 1795SOL     OW 6283   0.507   4.434   2.470
 1795SOL    HW1 6284   0.543   4.525   2.451
 1795SOL    HW2 6285   0.583   4.369   2.479
 1796SOL     OW 6286   1.888   1.460   4.723
 1796SOL    HW1 6287   1.910   1.532   4.788
 1796SOL    HW2 6288   1.799   1.421   4.746
 1797SOL     OW 6289   1.378   0.606   6.158
 1797SOL    HW1 6290   1.417   0.515   6.171
 1797SOL    HW2 6291   1.356   0.620   6.062
 1798SOL     OW 6292   4.715   2.844   5.404
 1798SOL    HW1 6293   4.721   2.793   5.317
 1798SOL    HW2 6294   4.652   2.796   5.465
 1799SOL     OW 6295   6.560   1.997   6.385
 1799SOL    HW1 6296   6.587   2.037   6.297
 1799SOL    HW2 6297   6.612   2.039   6.459
 1800SOL     OW 6298   4.586   5.283   3.578
 1800SOL    HW1 6299   4.494   5.307   3.547
 1800SOL    HW2 6300   4.641   5.256   3.499
 1801SOL     OW 6301   1.038   1.610   2.296
 1801SOL    HW1 6302   0.948   1.638   2.329
 1801SOL    HW2 6303   1.062   1.521   2.335
 1802SOL     OW 6304   5.627   5.192   3.019
 1802SOL    HW1 6305   5.702   5.128   3.031
 1802SOL    HW2 6306   5.551   5.166   3.080
 1803SOL     OW 6307   6.581   5.934   0.480
 1803SOL    HW1 6308   6.605   6.019   0.433
 1803SOL    HW2 6309   6.665   5.886   0.506
 1804SOL     OW 6310   2.721   3.048   6.000
 1804SOL    HW1 6311   2.724   3.082   6.094
 1804SOL    HW2 6312   2.697   3.123   5.939
 1805SOL     OW 6313   0.595   4.198   5.684
 1805SOL    HW1 6314   0.535   4.181   5.605
 1805SOL    HW2 6315   0.647   4.114   5.703
 1806SOL     OW 6316   1.389   0.953   1.418
 1806SOL    HW1 6317   1.331   1.003   1.481
 1806SOL    HW2 6318   1.453   0.895   1.469
 1807SOL     OW 6319   5.438   2.498   6.488
 1807SOL    HW1 6320   5.494   2.562   6.436
 1807SOL    HW2 6321   5.342   2.523   6.480
 1808SOL     OW 6322   6.093   3.651   4.804
 1808SOL    HW1 6323   6.045   3.716   4.746
 1808SOL    HW2 6324   6.027   3.606   4.865
 1809SOL     OW 6325   2.167   2.913   4.631
 1809SOL    HW1 6326   2.199   2.907   4.725
 1809SOL    HW2 6327   2.076   2.874   4.624
 1810SOL     OW 6328   2.652   0.109   5.692
 1810SOL    HW1 6329   2.605   0.129   5.778
 1810SOL    HW2 6330   2.621   0.172   5.621
 1811SOL     OW 6331   4.035   4.796   3.400
 1811SOL    HW1 6332   4.045   4.806   3.499
 1811SOL    HW2 6333   4.109   4.738   3.365
 1812SOL     OW 6334   4.333   0.285   5.974
 1812SOL    HW1 6335   4.374   0.212   6.028
 1812SOL    HW2 6336   4.367   0.374   6.005
 1813SOL     OW 6337   4.156   4.959   1.587
 1813SOL    HW1 6338   4.218   5.024   1.542
 1813SOL    HW2 6339   4.080   4.938   1.525
 1814SOL     OW 6340   6.933   0.467   6.876
 1814SOL    HW1 6341   6.844   0.466   6.923
 1814SOL    HW2 6342   6.918   0.455   6.778
 1815SOL     OW 6343   6.554   1.980   1.506
 1815SOL    HW1 6344   6.580   1.948   1.416
 1815SOL    HW2 6345   6.633   2.020   1.552
 1816SOL     OW 6346   1.588   4.201   0.813
 1816SOL    HW1 6347   1.642   4.211   0.729
 1816SOL    HW2 6348   1.647   4.212   0.893
 1817SOL     OW 6349   3.727   6.539   2.936
 1817SOL    HW1 6350   3.746   6.464   2.873
 1817SOL    HW2 6351   3.755   6.513   3.028
 1818SOL     OW 6352   2.499   5.791   1.938
 1818SOL    HW1 6353   2.458   5.702   1.924
 1818SOL    HW2 6354   2.546   5.793   2.026
 1819SOL     OW 6355   0.775   5.451   1.702
 1819SOL    HW1 6356   0.853   5.443   1.640
 1819SOL    HW2 6357   0.697   5.401   1.665
 1820SOL     OW 6358   2.390   0.639   2.195
 1820SOL    HW1 6359   2.397   0.581   2.114
 1820SOL    HW2 6360   2.428   0.591   2.274
 1821SOL     OW 6361   2.343   0.469   1.967
 1821SOL    HW1 6362   2.438   0.464   1.998
 1821SOL    HW2 6363   2.340   0.506   1.874
 1822SOL     OW 6364   1.485   3.708   1.026
 1822SOL    HW1 6365   1.417   3.782   1.030
 1822SOL    HW2 6366   1.454   3.631   1.081
 1823SOL     OW 6367   2.718   5.597   2.990
 1823SOL    HW1 6368   2.737   5.681   3.040
 1823SOL    HW2 6369   2.670   5.619   2.905
 1824SOL     OW 6370   3.483   3.620   1.156
 1824SOL    HW1 6371   3.508   3.709   1.116
 1824SOL    HW2 6372   3.437   3.565   1.087
 1825SOL     OW 6373   1.519   2.239   4.442
 1825SOL    HW1 6374   1.526   2.152   4.393
 1825SOL    HW2 6375   1.477   2.222   4.532
 1826SOL     OW 6376   3.351   0.964   1.445
 1826SOL    HW1 6377   3.352   0.869   1.477
 1826SOL    HW2 6378   3.359   1.025   1.524
 1827SOL     OW 6379   0.058   5.846   1.517
 1827SOL    HW1 6380   0.156   5.860   1.506
 1827SOL    HW2 6381   0.039   5.801   1.604
 1828SOL     OW 6382   1.498   2.280   0.394
 1828SOL    HW1 6383   1.478   2.278   0.296
 1828SOL    HW2 6384   1.418   2.314   0.444
 1829SOL     OW 6385   2.762   0.916   3.321
 1829SOL    HW1 6386   2.737   0.819   3.316
 1829SOL    HW2 6387   2.765   0.954   3.229
 1830SOL     OW 6388   6.044   6.376   3.583
 1830SOL    HW1 6389   6.104   6.440   3.632
 1830SOL    HW2 6390   6.082   6.284   3.589
 1831SOL     OW 6391   5.995   0.342   1.945
 1831SOL    HW1 6392   6.039   0.254   1.931
 1831SOL    HW2 6393   5.898   0.328   1.965
 1832SOL     OW 6394   4.488   1.494   1.235
 1832SOL    HW1 6395   4.486   1.554   1.316
 1832SOL    HW2 6396   4.577   1.451   1.227
 1833SOL     OW 6397   5.381   0.970   0.482
 1833SOL    HW1 6398   5.425   0.904   0.421
 1833SOL    HW2 6399   5.411   1.062   0.458
 1834SOL     OW 6400   2.782   3.234   0.836
 1834SOL    HW1 6401   2.745   3.250   0.744
 1834SOL    HW2 6402   2.707   3.211   0.898
 1835SOL     OW 6403   0.322   5.066   2.243
 1835SOL    HW1 6404   0.264   4.996   2.200
 1835SOL    HW2 6405   0.291   5.083   2.336
 1836SOL     OW 6406   5.110   1.622   1.654
 1836SOL    HW1 6407   5.074   1.553   1.590
 1836SOL    HW2 6408   5.205   1.641   1.631
 1837SOL     OW 6409   0.878   7.006   4.659
 1837SOL    HW1 6410   0.919   0.063   4.700
 1837SOL    HW2 6411   0.818   0.010   4.584
 1838SOL     OW 6412   6.590   1.266   4.777
 1838SOL    HW1 6413   6.526   1.189   4.767
 1838SOL    HW2 6414   6.595   1.316   4.690
 1839SOL     OW 6415   6.336   2.000   5.009
 1839SOL    HW1 6416   6.375   1.929   4.950
 1839SOL    HW2 6417   6.387   2.003   5.095
 1840SOL     OW 6418   4.010   0.179   1.397
 1840SOL    HW1 6419   3.965   0.140   1.317
 1840SOL    HW2 6420   3.941   0.204   1.465
 1841SOL     OW 6421   1.938   1.511   3.372
 1841SOL    HW1 6422   1.929   1.417   3.403
 1841SOL    HW2 6423   1.848   1.548   3.349
 1842SOL     OW 6424   1.642   5.851   0.279
 1842SOL    HW1 6425   1.653   5.936   0.330
 1842SOL    HW2 6426   1.586   5.788   0.332
 1843SOL     OW 6427   6.302   2.179   3.251
 1843SOL    HW1 6428   6.308   2.137   3.341
 1843SOL    HW2 6429   6.206   2.188   3.225
 1844SOL     OW 6430   3.266   6.424   5.297
 1844SOL    HW1 6431   3.323   6.503   5.318
 1844SOL    HW2 6432   3.174   6.438   5.334
 1845SOL     OW 6433   3.242   0.139   4.320
 1845SOL    HW1 6434   3.171   0.073   4.346
 1845SOL    HW2 6435   3.260   0.132   4.222
 1846SOL     OW 6436   3.563   1.547   1.632
 1846SOL    HW1 6437   3.484   1.586   1.584
 1846SOL    HW2 6438   3.542   1.539   1.729
 1847SOL     OW 6439   1.543   0.753   6.737
 1847SOL    HW1 6440   1.623   0.713   6.781
 1847SOL    HW2 6441   1.493   0.810   6.804
 1848SOL     OW 6442   1.492   6.040   3.828
 1848SOL    HW1 6443   1.422   6.008   3.764
 1848SOL    HW2 6444   1.564   6.087   3.777
 1849SOL     OW 6445   3.775   2.311   1.413
 1849SOL    HW1 6446   3.873   2.319   1.430
 1849SOL    HW2 6447   3.760   2.280   1.319
 1850SOL     OW 6448   0.201   2.832   1.888
 1850SOL    HW1 6449   0.258   2.755   1.858
 1850SOL    HW2 6450   0.167   2.814   1.980
 1851SOL     OW 6451   0.472   2.534   0.256
 1851SOL    HW1 6452   0.402   2.503   0.321
 1851SOL    HW2 6453   0.513   2.619   0.288
 1852SOL     OW 6454   6.643   4.455   2.798
 1852SOL    HW1 6455   6.668   4.544   2.837
 1852SOL    HW2 6456   6.652   4.385   2.868
 1853SOL     OW 6457   0.390   2.548   2.970
 1853SOL    HW1 6458   0.400   2.451   2.994
 1853SOL    HW2 6459   0.410   2.604   3.050
 1854SOL     OW 6460   2.374   5.842   3.040
 1854SOL    HW1 6461   2.464   5.836   3.083
 1854SOL    HW2 6462   2.306   5.801   3.101
 1855SOL     OW 6463   5.025   3.183   5.405
 1855SOL    HW1 6464   4.992   3.250   5.339
 1855SOL    HW2 6465   5.082   3.115   5.358
 1856SOL     OW 6466   6.065   4.390   5.815
 1856SOL    HW1 6467   6.135   4.321   5.794
 1856SOL    HW2 6468   6.003   4.354   5.885
 1857SOL     OW 6469   4.762   1.911   6.038
 1857SOL    HW1 6470   4.741   1.817   6.011
 1857SOL    HW2 6471   4.776   1.915   6.137
 1858SOL     OW 6472   5.701   4.143   3.999
 1858SOL    HW1 6473   5.610   4.150   4.039
 1858SOL    HW2 6474   5.697   4.160   3.901
 1859SOL     OW 6475   5.808   2.396   3.861
 1859SOL    HW1 6476   5.731   2.454   3.835
 1859SOL    HW2 6477   5.851   2.432   3.943
 1860SOL     OW 6478   0.064   0.639   5.460
 1860SOL    HW1 6479   6.995   0.632   5.498
 1860SOL    HW2 6480   0.090   0.735   5.451
 1861SOL     OW 6481   6.362   6.884   1.924
 1861SOL    HW1 6482   6.351   6.903   2.021
 1861SOL    HW2 6483   6.307   6.805   1.899
 1862SOL     OW 6484   3.771   0.097   6.113
 1862SOL    HW1 6485   3.671   0.094   6.105
 1862SOL    HW2 6486   3.803   0.189   6.095
 1863SOL     OW 6487   0.732   3.221   3.990
 1863SOL    HW1 6488   0.763   3.240   3.897
 1863SOL    HW2 6489   0.647   3.168   3.986
 1864SOL     OW 6490   1.680   6.700   4.784
 1864SOL    HW1 6491   1.677   6.800   4.783
 1864SOL    HW2 6492   1.730   6.669   4.865
 1865SOL     OW 6493   3.482   6.674   6.965
 1865SOL    HW1 6494   3.480   6.589   7.019
 1865SOL    HW2 6495   3.391   6.716   6.968
 1866SOL     OW 6496   5.085   4.934   3.479
 1866SOL    HW1 6497   5.109   5.031   3.489
 1866SOL    HW2 6498   5.082   4.911   3.381
 1867SOL     OW 6499   0.747   4.342   6.894
 1867SOL    HW1 6500   0.659   4.381   6.919
 1867SOL    HW2 6501   0.732   4.261   6.837
 1868SOL     OW 6502   4.996   2.964   5.839
 1868SOL    HW1 6503   5.075   2.902   5.836
 1868SOL    HW2 6504   4.951   2.965   5.750
 1869SOL     OW 6505   5.987   3.257   5.637
 1869SOL    HW1 6506   5.890   3.282   5.632
 1869SOL    HW2 6507   5.996   3.169   5.685
 1870SOL     OW 6508   1.571   2.579   4.887
 1870SOL    HW1 6509   1.571   2.588   4.788
 1870SOL    HW2 6510   1.665   2.585   4.921
 1871SOL     OW 6511   0.595   0.353   6.608
 1871SOL    HW1 6512   0.618   0.450   6.613
 1871SOL    HW2 6513   0.509   0.336   6.656
 1872SOL     OW 6514   4.169   1.618   6.804
 1872SOL    HW1 6515   4.255   1.636   6.853
 1872SOL    HW2 6516   4.163   1.520   6.784
 1873SOL     OW 6517   5.214   1.170   6.087
 1873SOL    HW1 6518   5.130   1.219   6.063
 1873SOL    HW2 6519   5.196   1.072   6.087
 1874SOL     OW 6520   2.777   0.962   0.598
 1874SOL    HW1 6521   2.756   1.053   0.636
 1874SOL    HW2 6522   2.720   0.946   0.517
 1875SOL     OW 6523   0.194   0.422   0.105
 1875SOL    HW1 6524   0.245   0.495   0.149
 1875SOL    HW2 6525   0.196   0.435   0.006
 1876SOL     OW 6526   3.550   5.910   6.456
 1876SOL    HW1 6527   3.529   5.947   6.365
 1876SOL    HW2 6528   3.547   5.810   6.453
 1877SOL     OW 6529   0.821   1.445   3.105
 1877SOL    HW1 6530   0.779   1.360   3.075
 1877SOL    HW2 6531   0.886   1.477   3.037
 1878SOL     OW 6532   6.327   3.344   3.695
 1878SOL    HW1 6533   6.426   3.349   3.687
 1878SOL    HW2 6534   6.293   3.264   3.646
 1879SOL     OW 6535   1.741   5.326   3.540
 1879SOL    HW1 6536   1.828   5.359   3.577
 1879SOL    HW2 6537   1.666   5.358   3.597
 1880SOL     OW 6538   6.581   0.803   3.909
 1880SOL    HW1 6539   6.597   0.888   3.860
 1880SOL    HW2 6540   6.616   0.726   3.855
 1881SOL     OW 6541   0.091   3.147   2.994
 1881SOL    HW1 6542   0.152   3.161   2.917
 1881SOL    HW2 6543   0.144   3.145   3.079
 1882SOL     OW 6544   1.136   3.980   0.065
 1882SOL    HW1 6545   1.044   3.955   0.033
 1882SOL    HW2 6546   1.132   4.001   0.162
 1883SOL     OW 6547   1.347   3.041   3.855
 1883SOL    HW1 6548   1.353   3.024   3.757
 1883SOL    HW2 6549   1.280   3.114   3.871
 1884SOL     OW 6550   6.231   2.914   6.821
 1884SOL    HW1 6551   6.218   3.007   6.855
 1884SOL    HW2 6552   6.324   2.904   6.786
 1885SOL     OW 6553   0.841   2.339   5.868
 1885SOL    HW1 6554   0.854   2.368   5.962
 1885SOL    HW2 6555   0.930   2.328   5.824
 1886SOL     OW 6556   2.305   0.419   1.291
 1886SOL    HW1 6557   2.394   0.396   1.331
 1886SOL    HW2 6558   2.302   0.388   1.196
 1887SOL     OW 6559   1.732   5.874   5.940
 1887SOL    HW1 6560   1.653   5.828   5.979
 1887SOL    HW2 6561   1.781   5.810   5.880
 1888SOL     OW 6562   2.932   2.333   6.540
 1888SOL    HW1 6563   2.997   2.323   6.615
 1888SOL    HW2 6564   2.843   2.361   6.575
 1889SOL     OW 6565   6.253   3.294   6.416
 1889SOL    HW1 6566   6.220   3.378   6.372
 1889SOL    HW2 6567   6.178   3.229   6.424
 1890SOL     OW 6568   1.806   5.914   4.502
 1890SOL    HW1 6569   1.737   5.846   4.525
 1890SOL    HW2 6570   1.797   5.941   4.406
 1891SOL     OW 6571   5.978   2.431   3.132
 1891SOL    HW1 6572   6.057   2.487   3.107
 1891SOL    HW2 6573   5.937   2.467   3.215
 1892SOL     OW 6574   3.005   1.367   0.830
 1892SOL    HW1 6575   2.976   1.334   0.740
 1892SOL    HW2 6576   3.099   1.399   0.826
 1893SOL     OW 6577   3.184   2.670   0.415
 1893SOL    HW1 6578   3.262   2.607   0.403
 1893SOL    HW2 6579   3.144   2.655   0.505
 1894SOL     OW 6580   3.808   3.712   3.415
 1894SOL    HW1 6581   3.722   3.739   3.459
 1894SOL    HW2 6582   3.876   3.784   3.429
 1895SOL     OW 6583   6.259   0.938   1.961
 1895SOL    HW1 6584   6.335   1.002   1.972
 1895SOL    HW2 6585   6.283   0.850   2.001
 1896SOL     OW 6586   6.823   0.520   1.314
 1896SOL    HW1 6587   6.755   0.491   1.381
 1896SOL    HW2 6588   6.877   0.595   1.351
 1897SOL     OW 6589   1.286   4.491   2.404
 1897SOL    HW1 6590   1.282   4.583   2.442
 1897SOL    HW2 6591   1.353   4.437   2.454
 1898SOL     OW 6592   3.008   5.023   2.619
 1898SOL    HW1 6593   3.099   5.054   2.645
 1898SOL    HW2 6594   2.949   5.102   2.600
 1899SOL     OW 6595   1.003   1.938   2.037
 1899SOL    HW1 6596   1.027   1.848   2.073
 1899SOL    HW2 6597   1.062   1.959   1.959
 1900SOL     OW 6598   1.508   0.562   6.556
 1900SOL    HW1 6599   1.412   0.557   6.526
 1900SOL    HW2 6600   1.516   0.628   6.631
 1901SOL     OW 6601   1.997   2.095   1.450
 1901SOL    HW1 6602   2.033   2.006   1.478
 1901SOL    HW2 6603   2.063   2.141   1.391
 1902SOL     OW 6604   2.298   2.051   4.640
 1902SOL    HW1 6605   2.286   2.042   4.541
 1902SOL    HW2 6606   2.360   2.128   4.659
 1903SOL     OW 6607   6.456   3.239   3.169
 1903SOL    HW1 6608   6.480   3.160   3.112
 1903SOL    HW2 6609   6.472   3.323   3.119
 1904SOL     OW 6610   5.665   6.391   4.704
 1904SOL    HW1 6611   5.736   6.461   4.702
 1904SOL    HW2 6612   5.585   6.423   4.652
 1905SOL     OW 6613   1.568   0.584   3.955
 1905SOL    HW1 6614   1.542   0.679   3.938
 1905SOL    HW2 6615   1.661   0.580   3.991
 1906SOL     OW 6616   2.258   0.498   5.308
 1906SOL    HW1 6617   2.264   0.403   5.276
 1906SOL    HW2 6618   2.217   0.554   5.237
 1907SOL     OW 6619   3.467   6.718   2.958
 1907SOL    HW1 6620   3.490   6.662   2.878
 1907SOL    HW2 6621   3.481   6.665   3.041
 1908SOL     OW 6622   3.554   0.076   5.129
 1908SOL    HW1 6623   3.514   0.158   5.089
 1908SOL    HW2 6624   3.498   7.020   5.107
 1909SOL     OW 6625   0.694   4.256   2.513
 1909SOL    HW1 6626   0.772   4.318   2.524
 1909SOL    HW2 6627   0.725   4.161   2.519
 1910SOL     OW 6628   6.591   2.839   6.131
 1910SOL    HW1 6629   6.579   2.775   6.055
 1910SOL    HW2 6630   6.509   2.894   6.143
 1911SOL     OW 6631   5.674   3.262   5.053
 1911SOL    HW1 6632   5.600   3.328   5.064
 1911SOL    HW2 6633   5.744   3.299   4.992
 1912SOL     OW 6634   3.296   6.185   0.773
 1912SOL    HW1 6635   3.214   6.174   0.716
 1912SOL    HW2 6636   3.376   6.153   0.722
 1913SOL     OW 6637   1.608   5.703   4.824
 1913SOL    HW1 6638   1.594   5.622   4.767
 1913SOL    HW2 6639   1.533   5.767   4.810
 1914SOL     OW 6640   4.000   3.018   6.394
 1914SOL    HW1 6641   3.958   3.084   6.331
 1914SOL    HW2 6642   4.097   3.039   6.404
 1915SOL     OW 6643   4.174   2.198   5.240
 1915SOL    HW1 6644   4.216   2.130   5.299
 1915SOL    HW2 6645   4.147   2.155   5.154
 1916SOL     OW 6646   4.137   5.677   1.323
 1916SOL    HW1 6647   4.182   5.699   1.236
 1916SOL    HW2 6648   4.131   5.578   1.333
 1917SOL     OW 6649   2.870   3.137   5.245
 1917SOL    HW1 6650   2.772   3.154   5.234
 1917SOL    HW2 6651   2.884   3.059   5.305
 1918SOL     OW 6652   0.869   1.066   5.057
 1918SOL    HW1 6653   0.810   1.135   5.016
 1918SOL    HW2 6654   0.881   1.087   5.154
 1919SOL     OW 6655   2.457   0.627   1.578
 1919SOL    HW1 6656   2.475   0.587   1.488
 1919SOL    HW2 6657   2.383   0.575   1.623
 1920SOL     OW 6658   1.507   4.382   2.510
 1920SOL    HW1 6659   1.491   4.340   2.599
 1920SOL    HW2 6660   1.519   4.481   2.521
 1921SOL     OW 6661   1.343   5.125   6.765
 1921SOL    HW1 6662   1.293   5.105   6.849
 1921SOL    HW2 6663   1.299   5.201   6.717
 1922SOL     OW 6664   1.795   4.231   1.072
 1922SOL    HW1 6665   1.777   4.316   1.121
 1922SOL    HW2 6666   1.893   4.227   1.050
 1923SOL     OW 6667   3.308   0.652   5.422
 1923SOL    HW1 6668   3.228   0.651   5.482
 1923SOL    HW2 6669   3.365   0.731   5.443
 1924SOL     OW 6670   4.567   5.433   1.278
 1924SOL    HW1 6671   4.538   5.514   1.328
 1924SOL    HW2 6672   4.487   5.389   1.236
 1925SOL     OW 6673   2.006   4.733   0.368
 1925SOL    HW1 6674   1.976   4.710   0.460
 1925SOL    HW2 6675   2.062   4.659   0.331
 1926SOL     OW 6676   2.314   6.972   3.241
 1926SOL    HW1 6677   2.332   0.016   3.312
 1926SOL    HW2 6678   2.400   6.943   3.199
 1927SOL     OW 6679   2.765   4.767   6.421
 1927SOL    HW1 6680   2.703   4.809   6.488
 1927SOL    HW2 6681   2.713   4.740   6.340
 1928SOL     OW 6682   6.600   4.626   6.049
 1928SOL    HW1 6683   6.551   4.710   6.074
 1928SOL    HW2 6684   6.685   4.621   6.100
 1929SOL     OW 6685   1.558   5.169   1.221
 1929SOL    HW1 6686   1.644   5.140   1.180
 1929SOL    HW2 6687   1.572   5.193   1.317
 1930SOL     OW 6688   3.522   3.821   6.454
 1930SOL    HW1 6689   3.470   3.901   6.425
 1930SOL    HW2 6690   3.460   3.748   6.482
 1931SOL     OW 6691   0.769   4.002   2.426
 1931SOL    HW1 6692   0.852   4.033   2.380
 1931SOL    HW2 6693   0.694   3.997   2.361
 1932SOL     OW 6694   5.002   3.415   3.131
 1932SOL    HW1 6695   4.972   3.483   3.199
 1932SOL    HW2 6696   5.017   3.327   3.176
 1933SOL     OW 6697   2.124   3.614   0.650
 1933SOL    HW1 6698   2.032   3.639   0.680
 1933SOL    HW2 6699   2.191   3.667   0.702
 1934SOL     OW 6700   0.444   0.116   5.124
 1934SOL    HW1 6701   0.375   0.056   5.084
 1934SOL    HW2 6702   0.525   0.062   5.147
 1935SOL     OW 6703   4.162   6.115   3.736
 1935SOL    HW1 6704   4.064   6.112   3.714
 1935SOL    HW2 6705   4.211   6.165   3.665
 1936SOL     OW 6706   5.968   3.796   3.930
 1936SOL    HW1 6707   5.916   3.758   4.006
 1936SOL    HW2 6708   5.946   3.747   3.846
 1937SOL     OW 6709   4.012   6.918   1.329
 1937SOL    HW1 6710   3.913   6.918   1.336
 1937SOL    HW2 6711   4.051   6.981   1.397
 1938SOL     OW 6712   2.385   1.765   1.800
 1938SOL    HW1 6713   2.385   1.727   1.892
 1938SOL    HW2 6714   2.449   1.714   1.742
 1939SOL     OW 6715   6.384   0.452   4.416
 1939SOL    HW1 6716   6.292   0.417   4.397
 1939SOL    HW2 6717   6.429   0.393   4.483
 1940SOL     OW 6718   5.532   4.741   0.746
 1940SOL    HW1 6719   5.581   4.655   0.730
 1940SOL    HW2 6720   5.534   4.796   0.663
 1941SOL     OW 6721   0.769   3.547   4.306
 1941SOL    HW1 6722   0.717   3.511   4.228
 1941SOL    HW2 6723   0.778   3.476   4.376
 1942SOL     OW 6724   5.163   2.025   1.599
 1942SOL    HW1 6725   5.181   2.084   1.520
 1942SOL    HW2 6726   5.100   1.952   1.572
 1943SOL     OW 6727   2.001   6.116   3.944
 1943SOL    HW1 6728   2.050   6.113   4.031
 1943SOL    HW2 6729   1.975   6.211   3.924
 1944SOL     OW 6730   6.318   2.744   0.042
 1944SOL    HW1 6731   6.387   2.675   0.062
 1944SOL    HW2 6732   6.298   2.743   6.968
 1945SOL     OW 6733   3.814   5.249   0.696
 1945SOL    HW1 6734   3.880   5.211   0.631
 1945SOL    HW2 6735   3.783   5.338   0.664
 1946SOL     OW 6736   6.204   6.738   0.743
 1946SOL    HW1 6737   6.286   6.776   0.786
 1946SOL    HW2 6738   6.160   6.808   0.687
 1947SOL     OW 6739   5.015   6.557   4.364
 1947SOL    HW1 6740   5.102   6.572   4.318
 1947SOL    HW2 6741   4.961   6.641   4.363
 1948SOL     OW 6742   5.673   5.511   3.889
 1948SOL    HW1 6743   5.604   5.540   3.822
 1948SOL    HW2 6744   5.737   5.448   3.845
 1949SOL     OW 6745   3.484   3.833   6.138
 1949SOL    HW1 6746   3.526   3.906   6.192
 1949SOL    HW2 6747   3.410   3.791   6.190
 1950SOL     OW 6748   4.032   3.216   0.476
 1950SOL    HW1 6749   3.953   3.155   0.471
 1950SOL    HW2 6750   4.049   3.255   0.385
 1951SOL     OW 6751   6.137   3.902   0.314
 1951SOL    HW1 6752   6.044   3.930   0.290
 1951SOL    HW2 6753   6.161   3.937   0.404
 1952SOL     OW 6754   4.912   3.658   1.332
 1952SOL    HW1 6755   4.812   3.654   1.320
 1952SOL    HW2 6756   4.937   3.610   1.416
 1953SOL     OW 6757   6.446   1.571   5.588
 1953SOL    HW1 6758   6.427   1.510   5.666
 1953SOL    HW2 6759   6.476   1.660   5.622
 1954SOL     OW 6760   0.027   0.750   2.608
 1954SOL    HW1 6761   0.078   0.676   2.563
 1954SOL    HW2 6762   0.070   0.838   2.588
 1955SOL     OW 6763   0.323   1.185   2.440
 1955SOL    HW1 6764   0.372   1.259   2.394
 1955SOL    HW2 6765   0.368   1.165   2.528
 1956SOL     OW 6766   4.975   0.320   2.256
 1956SOL    HW1 6767   4.910   0.268   2.310
 1956SOL    HW2 6768   5.055   0.342   2.313
 1957SOL     OW 6769   5.788   4.215   4.454
 1957SOL    HW1 6770   5.788   4.155   4.533
 1957SOL    HW2 6771   5.847   4.176   4.382
 1958SOL     OW 6772   4.942   1.477   2.199
 1958SOL    HW1 6773   4.989   1.514   2.119
 1958SOL    HW2 6774   4.948   1.542   2.275
 1959SOL     OW 6775   1.468   7.013   4.074
 1959SOL    HW1 6776   1.505   6.947   4.008
 1959SOL    HW2 6777   1.529   0.068   4.080
 1960SOL     OW 6778   6.976   5.088   1.710
 1960SOL    HW1 6779   6.929   5.056   1.628
 1960SOL    HW2 6780   6.911   5.094   1.785
 1961SOL     OW 6781   5.940   3.993   4.530
 1961SOL    HW1 6782   5.994   3.914   4.500
 1961SOL    HW2 6783   6.001   4.066   4.560
 1962SOL     OW 6784   1.014   6.607   3.098
 1962SOL    HW1 6785   0.935   6.545   3.100
 1962SOL    HW2 6786   1.098   6.555   3.111
 1963SOL     OW 6787   1.004   1.904   1.093
 1963SOL    HW1 6788   0.990   1.812   1.129
 1963SOL    HW2 6789   1.086   1.944   1.134
 1964SOL     OW 6790   4.836   4.402   1.340
 1964SOL    HW1 6791   4.838   4.473   1.410
 1964SOL    HW2 6792   4.747   4.402   1.295
 1965SOL     OW 6793   1.984   2.895   4.925
 1965SOL    HW1 6794   1.929   2.978   4.923
 1965SOL    HW2 6795   1.925   2.815   4.917
 1966SOL     OW 6796   0.369   6.457   0.797
 1966SOL    HW1 6797   0.445   6.397   0.820
 1966SOL    HW2 6798   0.289   6.402   0.775
 1967SOL     OW 6799   5.644   2.813   5.661
 1967SOL    HW1 6800   5.694   2.728   5.680
 1967SOL    HW2 6801   5.660   2.840   5.566
 1968SOL     OW 6802   1.254   6.878   5.197
 1968SOL    HW1 6803   1.338   6.900   5.147
 1968SOL    HW2 6804   1.175   6.904   5.142
 1969SOL     OW 6805   1.768   1.882   0.791
 1969SOL    HW1 6806   1.793   1.934   0.709
 1969SOL    HW2 6807   1.837   1.811   0.807
 1970SOL     OW 6808   2.876   6.415   6.372
 1970SOL    HW1 6809   2.778   6.434   6.365
 1970SOL    HW2 6810   2.924   6.462   6.298
 1971SOL     OW 6811   0.478   0.292   5.712
 1971SOL    HW1 6812   0.543   0.266   5.783
 1971SOL    HW2 6813   0.525   0.294   5.624
 1972SOL     OW 6814   5.372   1.995   2.178
 1972SOL    HW1 6815   5.284   2.025   2.216
 1972SOL    HW2 6816   5.357   1.916   2.119
 1973SOL     OW 6817   2.970   2.724   0.108
 1973SOL    HW1 6818   3.055   2.704   0.058
 1973SOL    HW2 6819   2.965   2.823   0.126
 1974SOL     OW 6820   5.486   6.746   5.057
 1974SOL    HW1 6821   5.446   6.830   5.020
 1974SOL    HW2 6822   5.469   6.670   4.994
 1975SOL     OW 6823   1.961   1.711   4.003
 1975SOL    HW1 6824   1.891   1.709   4.075
 1975SOL    HW2 6825   1.996   1.804   3.993
 1976SOL     OW 6826   6.324   0.159   0.365
 1976SOL    HW1 6827   6.327   0.187   0.269
 1976SOL    HW2 6828   6.268   0.077   0.374
 1977SOL     OW 6829   1.724   3.237   5.175
 1977SOL    HW1 6830   1.760   3.224   5.083
 1977SOL    HW2 6831   1.800   3.261   5.236
 1978SOL     OW 6832   1.726   6.259   3.054
 1978SOL    HW1 6833   1.780   6.233   2.974
 1978SOL    HW2 6834   1.770   6.336   3.101
 1979SOL     OW 6835   5.912   4.017   0.171
 1979SOL    HW1 6836   5.825   4.041   0.212
 1979SOL    HW2 6837   5.899   3.997   0.074
 1980SOL     OW 6838   3.369   6.720   4.319
 1980SOL    HW1 6839   3.297   6.770   4.271
 1980SOL    HW2 6840   3.447   6.707   4.258
 1981SOL     OW 6841   6.862   2.878   2.074
 1981SOL    HW1 6842   6.878   2.780   2.078
 1981SOL    HW2 6843   6.937   2.926   2.121
 1982SOL     OW 6844   0.855   4.232   4.351
 1982SOL    HW1 6845   0.820   4.223   4.444
 1982SOL    HW2 6846   0.856   4.142   4.307
 1983SOL     OW 6847   0.950   0.821   2.424
 1983SOL    HW1 6848   0.979   0.729   2.449
 1983SOL    HW2 6849   1.010   0.888   2.467
 1984SOL     OW 6850   4.890   1.982   4.964
 1984SOL    HW1 6851   4.924   2.067   4.924
 1984SOL    HW2 6852   4.845   2.002   5.051
 1985SOL     OW 6853   0.986   6.352   2.165
 1985SOL    HW1 6854   1.032   6.418   2.224
 1985SOL    HW2 6855   0.900   6.323   2.207
 1986SOL     OW 6856   2.885   1.078   7.001
 1986SOL    HW1 6857   2.818   1.006   6.983
 1986SOL    HW2 6858   2.838   1.163   7.022
 1987SOL     OW 6859   1.800   1.938   2.869
 1987SOL    HW1 6860   1.870   1.937   2.798
 1987SOL    HW2 6861   1.819   1.866   2.936
 1988SOL     OW 6862   6.251   3.557   0.467
 1988SOL    HW1 6863   6.256   3.471   0.416
 1988SOL    HW2 6864   6.334   3.570   0.520
 1989SOL     OW 6865   1.883   5.425   4.820
 1989SOL    HW1 6866   1.967   5.448   4.772
 1989SOL    HW2 6867   1.902   5.413   4.917
 1990SOL     OW 6868   3.872   5.612   0.551
 1990SOL    HW1 6869   3.944   5.613   0.483
 1990SOL    HW2 6870   3.894   5.676   0.625
 1991SOL     OW 6871   2.908   4.775   6.948
 1991SOL    HW1 6872   2.878   4.842   7.016
 1991SOL    HW2 6873   2.959   4.821   6.876
 1992SOL     OW 6874   0.312   0.848   0.287
 1992SOL    HW1 6875   0.261   0.935   0.287
 1992SOL    HW2 6876   0.394   0.858   0.343
 1993SOL     OW 6877   3.696   2.489   5.336
 1993SOL    HW1 6878   3.778   2.443   5.301
 1993SOL    HW2 6879   3.615   2.435   5.313
 1994SOL     OW 6880   0.469   1.902   0.172
 1994SOL    HW1 6881   0.534   1.838   0.213
 1994SOL    HW2 6882   0.511   1.946   0.093
 1995SOL     OW 6883   5.547   2.513   3.799
 1995SOL    HW1 6884   5.504   2.483   3.714
 1995SOL    HW2 6885   5.487   2.492   3.876
 1996SOL     OW 6886   2.391   2.766   0.272
 1996SOL    HW1 6887   2.429   2.842   0.325
 1996SOL    HW2 6888   2.373   2.689   0.332
 1997SOL     OW 6889   2.995   2.024   4.945
 1997SOL    HW1 6890   3.044   1.945   4.907
 1997SOL    HW2 6891   3.055   2.104   4.945
 1998SOL     OW 6892   2.996   3.805   0.303
 1998SOL    HW1 6893   2.971   3.715   0.268
 1998SOL    HW2 6894   3.086   3.830   0.269
 1999SOL     OW 6895   2.211   6.438   6.194
 1999SOL    HW1 6896   2.254   6.481   6.273
 1999SOL    HW2 6897   2.260   6.354   6.171
 2000SOL     OW 6898   4.336   2.626   5.324
 2000SOL    HW1 6899   4.256   2.597   5.270
 2000SOL    HW2 6900   4.349   2.724   5.312
 2001SOL     OW 6901   2.960   6.965   1.785
 2001SOL    HW1 6902   2.866   6.951   1.754
 2001SOL    HW2 6903   2.979   6.905   1.863
 2002SOL     OW 6904   0.576   4.672   0.047
 2002SOL    HW1 6905   0.543   4.578   0.051
 2002SOL    HW2 6906   0.632   4.690   0.129
 2003SOL     OW 6907   6.052   5.366   2.800
 2003SOL    HW1 6908   6.106   5.317   2.732
 2003SOL    HW2 6909   5.965   5.319   2.814
 2004SOL     OW 6910   5.104   1.596   4.285
 2004SOL    HW1 6911   5.035   1.668   4.276
 2004SOL    HW2 6912   5.059   1.507   4.291
 2005SOL     OW 6913   0.094   5.268   0.292
 2005SOL    HW1 6914   0.165   5.310   0.236
 2005SOL    HW2 6915   0.004   5.300   0.261
 2006SOL     OW 6916   5.729   6.883   2.941
 2006SOL    HW1 6917   5.761   6.902   2.849
 2006SOL    HW2 6918   5.757   6.791   2.968
 2007SOL     OW 6919   4.355   4.189   0.937
 2007SOL    HW1 6920   4.367   4.278   0.894
 2007SOL    HW2 6921   4.437   4.134   0.923
 2008SOL     OW 6922   2.078   4.081   3.985
 2008SOL    HW1 6923   2.136   4.156   3.952
 2008SOL    HW2 6924   2.036   4.106   4.072
 2009SOL     OW 6925   5.459   6.875   2.423
 2009SOL    HW1 6926   5.468   6.845   2.329
 2009SOL    HW2 6927   5.477   6.973   2.428
 2010SOL     OW 6928   2.944   1.846   2.056
 2010SOL    HW1 6929   2.908   1.771   2.111
 2010SOL    HW2 6930   2.951   1.928   2.112
 2011SOL     OW 6931   0.271   7.009   4.962
 2011SOL    HW1 6932   0.339   0.011   4.893
 2011SOL    HW2 6933   0.224   6.926   4.932
 2012SOL     OW 6934   0.998   4.650   1.932
 2012SOL    HW1 6935   1.033   4.710   2.005
 2012SOL    HW2 6936   0.991   4.556   1.967
 2013SOL     OW 6937   6.476   2.546   3.157
 2013SOL    HW1 6938   6.510   2.596   3.237
 2013SOL    HW2 6939   6.482   2.448   3.174
 2014SOL     OW 6940   2.565   6.496   3.459
 2014SOL    HW1 6941   2.598   6.440   3.384
 2014SOL    HW2 6942   2.466   6.508   3.451
 2015SOL     OW 6943   1.928   0.719   0.274
 2015SOL    HW1 6944   1.941   0.629   0.317
 2015SOL    HW2 6945   1.982   0.787   0.324
 2016SOL     OW 6946   1.667   6.126   5.902
 2016SOL    HW1 6947   1.588   6.153   5.957
 2016SOL    HW2 6948   1.687   6.029   5.919
 2017SOL     OW 6949   3.708   0.120   3.983
 2017SOL    HW1 6950   3.633   0.106   4.047
 2017SOL    HW2 6951   3.792   0.139   4.033
 2018SOL     OW 6952   5.593   1.883   4.489
 2018SOL    HW1 6953   5.686   1.904   4.457
 2018SOL    HW2 6954   5.562   1.955   4.551
 2019SOL     OW 6955   5.078   3.499   6.220
 2019SOL    HW1 6956   5.173   3.528   6.208
 2019SOL    HW2 6957   5.034   3.491   6.130
 2020SOL     OW 6958   1.799   6.914   5.054
 2020SOL    HW1 6959   1.749   6.929   4.969
 2020SOL    HW2 6960   1.827   6.818   5.059
 2021SOL     OW 6961   0.308   6.378   4.617
 2021SOL    HW1 6962   0.236   6.405   4.553
 2021SOL    HW2 6963   0.384   6.444   4.611
 2022SOL     OW 6964   1.338   4.990   3.462
 2022SOL    HW1 6965   1.427   4.946   3.473
 2022SOL    HW2 6966   1.270   4.940   3.517
 2023SOL     OW 6967   0.033   0.483   6.410
 2023SOL    HW1 6968   0.028   0.543   6.331
 2023SOL    HW2 6969   0.128   0.478   6.443
 2024SOL     OW 6970   0.362   6.053   3.140
 2024SOL    HW1 6971   0.441   6.115   3.145
 2024SOL    HW2 6972   0.368   5.986   3.214
 2025SOL     OW 6973   3.216   1.355   3.621
 2025SOL    HW1 6974   3.183   1.449   3.612
 2025SOL    HW2 6975   3.316   1.355   3.610
 2026SOL     OW 6976   6.657   3.488   5.564
 2026SOL    HW1 6977   6.700   3.412   5.515
 2026SOL    HW2 6978   6.558   3.474   5.567
 2027SOL     OW 6979   1.418   0.103   0.335
 2027SOL    HW1 6980   1.378   0.140   0.252
 2027SOL    HW2 6981   1.349   0.102   0.408
 2028SOL     OW 6982   2.804   5.490   4.595
 2028SOL    HW1 6983   2.887   5.507   4.542
 2028SOL    HW2 6984   2.751   5.574   4.603
 2029SOL     OW 6985   6.086   1.439   0.092
 2029SOL    HW1 6986   6.169   1.489   0.068
 2029SOL    HW2 6987   6.006   1.490   0.060
 2030SOL     OW 6988   2.911   0.987   3.677
 2030SOL    HW1 6989   2.904   1.028   3.586
 2030SOL    HW2 6990   2.910   1.059   3.746
 2031SOL     OW 6991   6.693   5.689   1.253
 2031SOL    HW1 6992   6.714   5.634   1.334
 2031SOL    HW2 6993   6.778   5.719   1.209
 2032SOL     OW 6994   4.467   0.732   2.116
 2032SOL    HW1 6995   4.416   0.692   2.192
 2032SOL    HW2 6996   4.474   0.666   2.042
 2033SOL     OW 6997   3.396   2.717   6.559
 2033SOL    HW1 6998   3.462   2.786   6.531
 2033SOL    HW2 6999   3.387   2.648   6.488
 2034SOL     OW 7000   2.356   5.051   5.623
 2034SOL    HW1 7001   2.387   5.010   5.537
 2034SOL    HW2 7002   2.398   5.141   5.635
 2035SOL     OW 7003   6.387   6.215   3.757
 2035SOL    HW1 7004   6.434   6.146   3.702
 2035SOL    HW2 7005   6.418   6.209   3.851
 2036SOL     OW 7006   0.821   4.277   3.190
 2036SOL    HW1 7007   0.894   4.344   3.207
 2036SOL    HW2 7008   0.849   4.216   3.116
 2037SOL     OW 7009   6.258   3.055   5.924
 2037SOL    HW1 7010   6.211   3.109   5.994
 2037SOL    HW2 7011   6.327   3.113   5.878
 2038SOL     OW 7012   2.005   1.792   0.114
 2038SOL    HW1 7013   2.062   1.711   0.129
 2038SOL    HW2 7014   2.018   1.856   0.189
 2039SOL     OW 7015   0.251   5.677   3.598
 2039SOL    HW1 7016   0.261   5.719   3.509
 2039SOL    HW2 7017   0.169   5.620   3.600
 2040SOL     OW 7018   2.343   3.061   6.019
 2040SOL    HW1 7019   2.290   3.055   5.934
 2040SOL    HW2 7020   2.441   3.053   5.998
 2041SOL     OW 7021   0.942   6.410   5.823
 2041SOL    HW1 7022   1.019   6.466   5.793
 2041SOL    HW2 7023   0.976   6.319   5.849
 2042SOL     OW 7024   4.811   6.430   6.979
 2042SOL    HW1 7025   4.872   6.483   0.013
 2042SOL    HW2 7026   4.721   6.422   7.023
 2043SOL     OW 7027   6.185   3.680   3.052
 2043SOL    HW1 7028   6.223   3.612   2.989
 2043SOL    HW2 7029   6.222   3.665   3.144
 2044SOL     OW 7030   0.035   0.709   1.537
 2044SOL    HW1 7031   0.002   0.636   1.596
 2044SOL    HW2 7032   0.118   0.679   1.489
 2045SOL     OW 7033   1.821   5.124   4.243
 2045SOL    HW1 7034   1.747   5.123   4.176
 2045SOL    HW2 7035   1.783   5.135   4.334
 2046SOL     OW 7036   6.826   1.771   4.377
 2046SOL    HW1 7037   6.808   1.759   4.279
 2046SOL    HW2 7038   6.924   1.760   4.393
 2047SOL     OW 7039   6.879   3.021   0.489
 2047SOL    HW1 7040   6.822   3.059   0.417
 2047SOL    HW2 7041   6.887   2.922   0.477
 2048SOL     OW 7042   1.463   6.411   5.730
 2048SOL    HW1 7043   1.535   6.477   5.709
 2048SOL    HW2 7044   1.444   6.355   5.650
 2049SOL     OW 7045   5.671   1.599   4.045
 2049SOL    HW1 7046   5.638   1.522   3.991
 2049SOL    HW2 7047   5.632   1.684   4.008
 2050SOL     OW 7048   6.337   2.752   3.985
 2050SOL    HW1 7049   6.351   2.657   4.014
 2050SOL    HW2 7050   6.239   2.769   3.973
 2051SOL     OW 7051   1.225   6.267   6.862
 2051SOL    HW1 7052   1.243   6.177   6.901
 2051SOL    HW2 7053   1.261   6.338   6.923
 2052SOL     OW 7054   1.740   3.120   1.191
 2052SOL    HW1 7055   1.653   3.071   1.187
 2052SOL    HW2 7056   1.784   3.101   1.279
 2053SOL     OW 7057   6.238   6.128   4.640
 2053SOL    HW1 7058   6.162   6.161   4.696
 2053SOL    HW2 7059   6.285   6.054   4.688
 2054SOL     OW 7060   3.412   4.157   3.386
 2054SOL    HW1 7061   3.349   4.191   3.457
 2054SOL    HW2 7062   3.360   4.134   3.304
 2055SOL     OW 7063   5.512   3.433   4.067
 2055SOL    HW1 7064   5.523   3.503   3.997
 2055SOL    HW2 7065   5.583   3.364   4.057
 2056SOL     OW 7066   4.246   5.714   1.041
 2056SOL    HW1 7067   4.227   5.635   0.982
 2056SOL    HW2 7068   4.341   5.708   1.074
 2057SOL     OW 7069   5.466   4.473   5.890
 2057SOL    HW1 7070   5.541   4.482   5.956
 2057SOL    HW2 7071   5.502   4.475   5.797
 2058SOL     OW 7072   0.475   0.296   3.201
 2058SOL    HW1 7073   0.526   0.307   3.287
 2058SOL    HW2 7074   0.377   0.290   3.221
 2059SOL     OW 7075   1.754   5.755   6.299
 2059SOL    HW1 7076   1.695   5.716   6.229
 2059SOL    HW2 7077   1.799   5.837   6.264
 2060SOL     OW 7078   0.354   4.240   1.630
 2060SOL    HW1 7079   0.386   4.228   1.536
 2060SOL    HW2 7080   0.323   4.153   1.666
 2061SOL     OW 7081   1.395   1.883   2.260
 2061SOL    HW1 7082   1.491   1.888   2.231
 2061SOL    HW2 7083   1.376   1.790   2.294
 2062SOL     OW 7084   0.100   5.233   5.314
 2062SOL    HW1 7085   0.104   5.332   5.295
 2062SOL    HW2 7086   0.040   5.217   5.392
 2063SOL     OW 7087   1.159   6.610   5.215
 2063SOL    HW1 7088   1.204   6.699   5.208
 2063SOL    HW2 7089   1.061   6.621   5.195
 2064SOL     OW 7090   6.929   2.533   4.676
 2064SOL    HW1 7091   6.953   2.477   4.597
 2064SOL    HW2 7092   6.919   2.628   4.649
 2065SOL     OW 7093   5.899   2.404   5.606
 2065SOL    HW1 7094   5.850   2.334   5.658
 2065SOL    HW2 7095   5.922   2.480   5.666
 2066SOL     OW 7096   0.185   4.557   5.164
 2066SOL    HW1 7097   0.155   4.499   5.239
 2066SOL    HW2 7098   0.284   4.572   5.170
 2067SOL     OW 7099   6.943   5.220   0.587
 2067SOL    HW1 7100   7.018   5.187   0.644
 2067SOL    HW2 7101   6.970   5.306   0.543
 2068SOL     OW 7102   2.069   0.337   4.525
 2068SOL    HW1 7103   2.047   0.242   4.544
 2068SOL    HW2 7104   1.984   0.390   4.522
 2069SOL     OW 7105   6.593   2.675   4.065
 2069SOL    HW1 7106   6.679   2.727   4.064
 2069SOL    HW2 7107   6.555   2.677   4.157
 2070SOL     OW 7108   1.105   1.303   0.654
 2070SOL    HW1 7109   1.147   1.385   0.613
 2070SOL    HW2 7110   1.175   1.253   0.706
 2071SOL     OW 7111   6.067   0.734   5.711
 2071SOL    HW1 7112   6.095   0.639   5.724
 2071SOL    HW2 7113   6.026   0.769   5.795
 2072SOL     OW 7114   4.365   5.303   5.013
 2072SOL    HW1 7115   4.450   5.310   5.065
 2072SOL    HW2 7116   4.305   5.236   5.057
 2073SOL     OW 7117   4.340   6.782   4.803
 2073SOL    HW1 7118   4.286   6.734   4.872
 2073SOL    HW2 7119   4.399   6.850   4.848
 2074SOL     OW 7120   2.156   2.083   5.802
 2074SOL    HW1 7121   2.150   2.001   5.859
 2074SOL    HW2 7122   2.180   2.161   5.860
 2075SOL     OW 7123   6.901   2.605   3.185
 2075SOL    HW1 7124   6.918   2.640   3.092
 2075SOL    HW2 7125   6.985   2.614   3.239
 2076SOL     OW 7126   5.182   6.770   6.269
 2076SOL    HW1 7127   5.144   6.721   6.190
 2076SOL    HW2 7128   5.153   6.865   6.266
 2077SOL     OW 7129   0.015   1.815   2.387
 2077SOL    HW1 7130   6.963   1.823   2.452
 2077SOL    HW2 7131   0.060   1.726   2.398
 2078SOL     OW 7132   1.784   5.347   6.346
 2078SOL    HW1 7133   1.845   5.424   6.330
 2078SOL    HW2 7134   1.714   5.372   6.413
 2079SOL     OW 7135   0.191   1.700   2.955
 2079SOL    HW1 7136   0.170   1.794   2.979
 2079SOL    HW2 7137   0.237   1.697   2.866
 2080SOL     OW 7138   1.953   0.719   4.688
 2080SOL    HW1 7139   1.981   0.698   4.595
 2080SOL    HW2 7140   1.927   0.634   4.735
 2081SOL     OW 7141   0.614   6.421   4.464
 2081SOL    HW1 7142   0.626   6.489   4.536
 2081SOL    HW2 7143   0.692   6.424   4.402
 2082SOL     OW 7144   1.043   6.826   2.928
 2082SOL    HW1 7145   0.972   6.830   2.859
 2082SOL    HW2 7146   1.022   6.754   2.994
 2083SOL     OW 7147   1.290   5.113   5.392
 2083SOL    HW1 7148   1.242   5.168   5.324
 2083SOL    HW2 7149   1.284   5.158   5.481
 2084SOL     OW 7150   0.956   4.439   2.539
 2084SOL    HW1 7151   1.024   4.500   2.580
 2084SOL    HW2 7152   0.985   4.344   2.551
 2085SOL     OW 7153   4.673   0.897   1.046
 2085SOL    HW1 7154   4.576   0.914   1.065
 2085SOL    HW2 7155   4.719   0.984   1.030
 2086SOL     OW 7156   3.629   6.405   6.813
 2086SOL    HW1 7157   3.697   6.436   6.745
 2086SOL    HW2 7158   3.604   6.482   6.872
 2087SOL     OW 7159   5.458   1.472   1.836
 2087SOL    HW1 7160   5.459   1.459   1.935
 2087SOL    HW2 7161   5.443   1.384   1.791
 2088SOL     OW 7162   1.319   5.995   6.986
 2088SOL    HW1 7163   1.342   5.913   6.932
 2088SOL    HW2 7164   1.403   6.033   0.002
 2089SOL     OW 7165   4.612   2.833   6.098
 2089SOL    HW1 7166   4.644   2.918   6.055
 2089SOL    HW2 7167   4.647   2.828   6.191
 2090SOL     OW 7168   4.357   3.314   5.785
 2090SOL    HW1 7169   4.419   3.237   5.771
 2090SOL    HW2 7170   4.410   3.395   5.810
 2091SOL     OW 7171   6.509   4.723   0.845
 2091SOL    HW1 7172   6.447   4.685   0.913
 2091SOL    HW2 7173   6.600   4.733   0.885
 2092SOL     OW 7174   5.211   3.727   0.468
 2092SOL    HW1 7175   5.221   3.782   0.386
 2092SOL    HW2 7176   5.166   3.780   0.540
 2093SOL     OW 7177   3.092   2.464   1.631
 2093SOL    HW1 7178   3.187   2.433   1.638
 2093SOL    HW2 7179   3.050   2.463   1.722
 2094SOL     OW 7180   5.665   1.491   1.550
 2094SOL    HW1 7181   5.641   1.568   1.610
 2094SOL    HW2 7182   5.647   1.405   1.598
 2095SOL     OW 7183   6.310   6.439   4.958
 2095SOL    HW1 7184   6.369   6.515   4.934
 2095SOL    HW2 7185   6.262   6.460   5.044
 2096SOL     OW 7186   4.794   5.152   3.730
 2096SOL    HW1 7187   4.829   5.059   3.721
 2096SOL    HW2 7188   4.723   5.168   3.662
 2097SOL     OW 7189   3.176   2.787   6.243
 2097SOL    HW1 7190   3.267   2.829   6.244
 2097SOL    HW2 7191   3.160   2.739   6.329
 2098SOL     OW 7192   4.542   5.847   1.881
 2098SOL    HW1 7193   4.459   5.882   1.837
 2098SOL    HW2 7194   4.529   5.751   1.907
 2099SOL     OW 7195   3.552   1.503   0.038
 2099SOL    HW1 7196   3.457   1.493   0.068
 2099SOL    HW2 7197   3.596   1.413   0.034
 2100SOL     OW 7198   5.667   1.546   0.821
 2100SOL    HW1 7199   5.621   1.635   0.822
 2100SOL    HW2 7200   5.706   1.529   0.912
 2101SOL     OW 7201   0.502   6.834   1.078
 2101SOL    HW1 7202   0.466   6.742   1.064
 2101SOL    HW2 7203   0.432   6.901   1.056
 2102SOL     OW 7204   5.239   4.116   2.047
 2102SOL    HW1 7205   5.270   4.133   2.141
 2102SOL    HW2 7206   5.140   4.125   2.042
 2103SOL     OW 7207   3.198   3.515   6.924
 2103SOL    HW1 7208   3.293   3.492   6.903
 2103SOL    HW2 7209   3.142   3.432   6.920
 2104SOL     OW 7210   1.842   4.490   2.380
 2104SOL    HW1 7211   1.822   4.414   2.318
 2104SOL    HW2 7212   1.776   4.491   2.455
 2105SOL     OW 7213   4.634   4.438   6.043
 2105SOL    HW1 7214   4.542   4.423   6.008
 2105SOL    HW2 7215   4.680   4.350   6.055
 2106SOL     OW 7216   5.223   3.846   1.504
 2106SOL    HW1 7217   5.140   3.794   1.526
 2106SOL    HW2 7218   5.201   3.944   1.503
 2107SOL     OW 7219   6.203   2.088   5.696
 2107SOL    HW1 7220   6.228   2.171   5.745
 2107SOL    HW2 7221   6.190   2.109   5.599
 2108SOL     OW 7222   6.010   5.053   5.311
 2108SOL    HW1 7223   5.934   5.112   5.339
 2108SOL    HW2 7224   6.086   5.111   5.279
 2109SOL     OW 7225   3.695   6.138   2.429
 2109SOL    HW1 7226   3.788   6.139   2.467
 2109SOL    HW2 7227   3.651   6.051   2.451
 2110SOL     OW 7228   3.020   0.871   0.609
 2110SOL    HW1 7229   3.043   0.918   0.694
 2110SOL    HW2 7230   2.921   0.876   0.594
 2111SOL     OW 7231   2.095   3.304   6.689
 2111SOL    HW1 7232   2.188   3.333   6.711
 2111SOL    HW2 7233   2.039   3.306   6.772
 2112SOL     OW 7234   5.079   1.802   0.888
 2112SOL    HW1 7235   4.982   1.793   0.865
 2112SOL    HW2 7236   5.106   1.726   0.947
 2113SOL     OW 7237   2.474   0.919   5.014
 2113SOL    HW1 7238   2.397   0.960   5.063
 2113SOL    HW2 7239   2.456   0.822   5.000
 2114SOL     OW 7240   2.549   1.700   6.422
 2114SOL    HW1 7241   2.617   1.773   6.417
 2114SOL    HW2 7242   2.592   1.613   6.396
 2115SOL     OW 7243   0.537   4.499   1.942
 2115SOL    HW1 7244   0.439   4.506   1.963
 2115SOL    HW2 7245   0.547   4.478   1.844
 2116SOL     OW 7246   1.281   3.644   2.508
 2116SOL    HW1 7247   1.193   3.645   2.461
 2116SOL    HW2 7248   1.297   3.554   2.549
 2117SOL     OW 7249   5.973   3.861   1.569
 2117SOL    HW1 7250   6.020   3.882   1.484
 2117SOL    HW2 7251   5.942   3.766   1.567
 2118SOL     OW 7252   6.286   3.410   3.297
 2118SOL    HW1 7253   6.366   3.354   3.275
 2118SOL    HW2 7254   6.203   3.360   3.274
 2119SOL     OW 7255   2.062   0.091   0.803
 2119SOL    HW1 7256   2.033   0.001   0.835
 2119SOL    HW2 7257   2.024   0.162   0.863
 2120SOL     OW 7258   0.762   4.376   2.838
 2120SOL    HW1 7259   0.860   4.356   2.830
 2120SOL    HW2 7260   0.713   4.293   2.862
 2121SOL     OW 7261   1.388   2.498   5.600
 2121SOL    HW1 7262   1.403   2.404   5.630
 2121SOL    HW2 7263   1.455   2.521   5.528
 2122SOL     OW 7264   5.711   6.005   6.667
 2122SOL    HW1 7265   5.623   6.053   6.664
 2122SOL    HW2 7266   5.780   6.059   6.620
 2123SOL     OW 7267   6.437   5.757   1.289
 2123SOL    HW1 7268   6.531   5.740   1.260
 2123SOL    HW2 7269   6.436   5.834   1.353
 2124SOL     OW 7270   2.799   1.577   0.238
 2124SOL    HW1 7271   2.768   1.622   0.155
 2124SOL    HW2 7272   2.788   1.639   0.316
 2125SOL     OW 7273   1.043   6.041   1.881
 2125SOL    HW1 7274   1.026   5.946   1.856
 2125SOL    HW2 7275   1.021   6.055   1.977
 2126SOL     OW 7276   3.391   2.347   6.899
 2126SOL    HW1 7277   3.365   2.267   6.845
 2126SOL    HW2 7278   3.422   2.420   6.839
 2127SOL     OW 7279   0.617   1.793   5.577
 2127SOL    HW1 7280   0.537   1.737   5.595
 2127SOL    HW2 7281   0.697   1.753   5.623
 2128SOL     OW 7282   6.328   2.723   2.565
 2128SOL    HW1 7283   6.295   2.650   2.505
 2128SOL    HW2 7284   6.281   2.719   2.653
 2129SOL     OW 7285   4.620   4.478   5.013
 2129SOL    HW1 7286   4.526   4.500   5.039
 2129SOL    HW2 7287   4.659   4.414   5.078
 2130SOL     OW 7288   2.967   0.241   2.487
 2130SOL    HW1 7289   2.923   0.168   2.434
 2130SOL    HW2 7290   3.065   0.225   2.491
 2131SOL     OW 7291   5.120   1.476   0.811
 2131SOL    HW1 7292   5.058   1.399   0.794
 2131SOL    HW2 7293   5.079   1.560   0.776
 2132SOL     OW 7294   2.816   1.918   6.730
 2132SOL    HW1 7295   2.796   1.821   6.737
 2132SOL    HW2 7296   2.883   1.933   6.657
 2133SOL     OW 7297   3.368   2.820   0.865
 2133SOL    HW1 7298   3.460   2.780   0.867
 2133SOL    HW2 7299   3.303   2.751   0.833
 2134SOL     OW 7300   0.726   0.881   4.528
 2134SOL    HW1 7301   0.645   0.918   4.481
 2134SOL    HW2 7302   0.697   0.831   4.609
 2135SOL     OW 7303   0.571   1.470   4.331
 2135SOL    HW1 7304   0.539   1.385   4.372
 2135SOL    HW2 7305   0.664   1.457   4.297
 2136SOL     OW 7306   1.318   4.165   4.861
 2136SOL    HW1 7307   1.232   4.202   4.898
 2136SOL    HW2 7308   1.302   4.073   4.825
 2137SOL     OW 7309   6.741   6.049   4.507
 2137SOL    HW1 7310   6.692   6.036   4.594
 2137SOL    HW2 7311   6.834   6.014   4.516
 2138SOL     OW 7312   6.580   1.592   1.762
 2138SOL    HW1 7313   6.521   1.644   1.700
 2138SOL    HW2 7314   6.537   1.505   1.784
 2139SOL     OW 7315   3.700   0.805   3.045
 2139SOL    HW1 7316   3.718   0.825   3.141
 2139SOL    HW2 7317   3.710   0.889   2.991
 2140SOL     OW 7318   3.004   5.506   3.121
 2140SOL    HW1 7319   3.076   5.564   3.083
 2140SOL    HW2 7320   2.915   5.537   3.087
 2141SOL     OW 7321   6.919   4.051   1.036
 2141SOL    HW1 7322   6.902   4.123   0.968
 2141SOL    HW2 7323   6.914   3.962   0.992
 2142SOL     OW 7324   1.238   2.173   2.788
 2142SOL    HW1 7325   1.262   2.079   2.810
 2142SOL    HW2 7326   1.321   2.228   2.779
 2143SOL     OW 7327   3.785   5.220   1.424
 2143SOL    HW1 7328   3.741   5.215   1.514
 2143SOL    HW2 7329   3.730   5.277   1.363
 2144SOL     OW 7330   1.246   6.848   3.163
 2144SOL    HW1 7331   1.169   6.887   3.213
 2144SOL    HW2 7332   1.216   6.822   3.071
 2145SOL     OW 7333   3.418   5.937   3.952
 2145SOL    HW1 7334   3.397   5.892   3.866
 2145SOL    HW2 7335   3.435   6.035   3.936
 2146SOL     OW 7336   3.144   3.079   2.387
 2146SOL    HW1 7337   3.083   3.011   2.346
 2146SOL    HW2 7338   3.165   3.150   2.321
 2147SOL     OW 7339   0.294   0.668   6.712
 2147SOL    HW1 7340   0.204   0.713   6.711
 2147SOL    HW2 7341   0.341   0.685   6.626
 2148SOL     OW 7342   5.158   2.707   4.318
 2148SOL    HW1 7343   5.252   2.697   4.286
 2148SOL    HW2 7344   5.146   2.797   4.359
 2149SOL     OW 7345   3.714   0.975   1.589
 2149SOL    HW1 7346   3.641   1.000   1.653
 2149SOL    HW2 7347   3.709   0.877   1.570
 2150SOL     OW 7348   2.257   2.423   2.718
 2150SOL    HW1 7349   2.167   2.383   2.738
 2150SOL    HW2 7350   2.315   2.354   2.676
 2151SOL     OW 7351   1.735   1.573   3.915
 2151SOL    HW1 7352   1.822   1.622   3.929
 2151SOL    HW2 7353   1.730   1.496   3.979
 2152SOL     OW 7354   3.730   6.204   1.380
 2152SOL    HW1 7355   3.808   6.192   1.319
 2152SOL    HW2 7356   3.708   6.117   1.423
 2153SOL     OW 7357   3.991   0.165   3.182
 2153SOL    HW1 7358   3.946   0.108   3.113
 2153SOL    HW2 7359   3.986   0.261   3.154
 2154SOL     OW 7360   5.056   0.580   4.547
 2154SOL    HW1 7361   5.144   0.540   4.521
 2154SOL    HW2 7362   5.058   0.604   4.644
 2155SOL     OW 7363   2.120   5.457   0.497
 2155SOL    HW1 7364   2.077   5.432   0.584
 2155SOL    HW2 7365   2.060   5.431   0.422
 2156SOL     OW 7366   2.482   0.517   2.745
 2156SOL    HW1 7367   2.520   0.594   2.797
 2156SOL    HW2 7368   2.553   0.448   2.730
 2157SOL     OW 7369   6.105   1.350   3.127
 2157SOL    HW1 7370   6.182   1.299   3.164
 2157SOL    HW2 7371   6.020   1.317   3.168
 2158SOL     OW 7372   4.381   6.066   0.980
 2158SOL    HW1 7373   4.337   5.978   0.959
 2158SOL    HW2 7374   4.463   6.050   1.035
 2159SOL     OW 7375   1.854   5.234   5.592
 2159SOL    HW1 7376   1.835   5.173   5.515
 2159SOL    HW2 7377   1.768   5.255   5.639
 2160SOL     OW 7378   4.445   3.296   1.412
 2160SOL    HW1 7379   4.514   3.368   1.406
 2160SOL    HW2 7380   4.422   3.264   1.320
 2161SOL     OW 7381   5.418   2.869   3.649
 2161SOL    HW1 7382   5.490   2.836   3.711
 2161SOL    HW2 7383   5.330   2.831   3.676
 2162SOL     OW 7384   2.720   0.554   0.132
 2162SOL    HW1 7385   2.764   0.596   0.054
 2162SOL    HW2 7386   2.787   0.502   0.185
 2163SOL     OW 7387   0.555   5.509   6.209
 2163SOL    HW1 7388   0.459   5.516   6.237
 2163SOL    HW2 7389   0.566   5.551   6.119
 2164SOL     OW 7390   1.561   2.213   0.099
 2164SOL    HW1 7391   1.524   2.198   0.007
 2164SOL    HW2 7392   1.594   2.307   0.106
 2165SOL     OW 7393   1.339   1.641   2.359
 2165SOL    HW1 7394   1.400   1.587   2.301
 2165SOL    HW2 7395   1.245   1.632   2.327
 2166SOL     OW 7396   1.789   1.926   5.184
 2166SOL    HW1 7397   1.706   1.981   5.180
 2166SOL    HW2 7398   1.828   1.917   5.092
 2167SOL     OW 7399   2.020   1.051   3.532
 2167SOL    HW1 7400   1.971   1.008   3.457
 2167SOL    HW2 7401   1.971   1.134   3.560
 2168SOL     OW 7402   0.350   2.192   3.456
 2168SOL    HW1 7403   0.274   2.162   3.514
 2168SOL    HW2 7404   0.342   2.150   3.366
 2169SOL     OW 7405   5.950   2.156   5.809
 2169SOL    HW1 7406   6.000   2.069   5.807
 2169SOL    HW2 7407   6.010   2.230   5.779
 2170SOL     OW 7408   5.576   4.910   5.737
 2170SOL    HW1 7409   5.619   4.837   5.684
 2170SOL    HW2 7410   5.537   4.872   5.820
 2171SOL     OW 7411   6.261   3.092   1.003
 2171SOL    HW1 7412   6.259   3.008   1.058
 2171SOL    HW2 7413   6.173   3.139   1.012
 2172SOL     OW 7414   2.414   1.524   0.537
 2172SOL    HW1 7415   2.499   1.553   0.581
 2172SOL    HW2 7416   2.411   1.424   0.534
 2173SOL     OW 7417   3.860   0.003   5.551
 2173SOL    HW1 7418   3.793   7.018   5.478
 2173SOL    HW2 7419   3.813   0.023   5.637
 2174SOL     OW 7420   5.864   5.245   5.925
 2174SOL    HW1 7421   5.795   5.263   5.855
 2174SOL    HW2 7422   5.914   5.162   5.902
 2175SOL     OW 7423   3.153   2.189   3.458
 2175SOL    HW1 7424   3.234   2.130   3.449
 2175SOL    HW2 7425   3.153   2.257   3.385
 2176SOL     OW 7426   0.758   2.764   0.606
 2176SOL    HW1 7427   0.847   2.730   0.577
 2176SOL    HW2 7428   0.756   2.777   0.705
 2177SOL     OW 7429   6.850   0.523   3.043
 2177SOL    HW1 7430   6.754   0.523   3.072
 2177SOL    HW2 7431   6.867   0.441   2.987
 2178SOL     OW 7432   1.965   4.645   0.622
 2178SOL    HW1 7433   1.874   4.609   0.642
 2178SOL    HW2 7434   1.970   4.740   0.653
 2179SOL     OW 7435   1.732   5.416   4.592
 2179SOL    HW1 7436   1.699   5.330   4.553
 2179SOL    HW2 7437   1.766   5.399   4.684
 2180SOL     OW 7438   2.877   3.402   2.098
 2180SOL    HW1 7439   2.932   3.478   2.062
 2180SOL    HW2 7440   2.780   3.422   2.084
 2181SOL     OW 7441   5.700   4.595   5.990
 2181SOL    HW1 7442   5.704   4.583   5.891
 2181SOL    HW2 7443   5.786   4.635   6.022
 2182SOL     OW 7444   6.086   3.171   5.106
 2182SOL    HW1 7445   6.181   3.141   5.100
 2182SOL    HW2 7446   6.027   3.099   5.069
 2183SOL     OW 7447   3.210   3.660   6.540
 2183SOL    HW1 7448   3.244   3.567   6.558
 2183SOL    HW2 7449   3.210   3.712   6.625
 2184SOL     OW 7450   3.486   1.389   5.339
 2184SOL    HW1 7451   3.573   1.432   5.315
 2184SOL    HW2 7452   3.478   1.382   5.438
 2185SOL     OW 7453   1.434   2.401   0.769
 2185SOL    HW1 7454   1.343   2.413   0.728
 2185SOL    HW2 7455   1.424   2.358   0.859
 2186SOL     OW 7456   0.172   4.744   2.338
 2186SOL    HW1 7457   0.204   4.772   2.248
 2186SOL    HW2 7458   0.075   4.766   2.347
 2187SOL     OW 7459   0.438   1.981   1.856
 2187SOL    HW1 7460   0.537   1.977   1.871
 2187SOL    HW2 7461   0.419   2.021   1.766
 2188SOL     OW 7462   5.660   5.969   4.316
 2188SOL    HW1 7463   5.658   5.984   4.415
 2188SOL    HW2 7464   5.576   5.922   4.289
 2189SOL     OW 7465   1.822   6.440   6.413
 2189SOL    HW1 7466   1.885   6.490   6.353
 2189SOL    HW2 7467   1.798   6.497   6.492
 2190SOL     OW 7468   0.331   2.327   2.263
 2190SOL    HW1 7469   0.342   2.229   2.249
 2190SOL    HW2 7470   0.234   2.352   2.257
 2191SOL     OW 7471   3.078   1.597   6.140
 2191SOL    HW1 7472   3.142   1.574   6.067
 2191SOL    HW2 7473   2.990   1.553   6.121
 2192SOL     OW 7474   3.791   6.690   3.934
 2192SOL    HW1 7475   3.863   6.620   3.929
 2192SOL    HW2 7476   3.750   6.701   3.844
 2193SOL     OW 7477   0.170   6.159   6.007
 2193SOL    HW1 7478   0.230   6.093   5.961
 2193SOL    HW2 7479   0.140   6.228   5.941
 2194SOL     OW 7480   2.448   4.400   6.846
 2194SOL    HW1 7481   2.350   4.419   6.841
 2194SOL    HW2 7482   2.499   4.477   6.806
 2195SOL     OW 7483   0.642   6.672   3.013
 2195SOL    HW1 7484   0.677   6.603   3.077
 2195SOL    HW2 7485   0.542   6.672   3.015
 2196SOL     OW 7486   3.307   0.275   5.488
 2196SOL    HW1 7487   3.229   0.335   5.468
 2196SOL    HW2 7488   3.314   0.206   5.416
 2197SOL     OW 7489   4.564   3.560   1.569
 2197SOL    HW1 7490   4.624   3.484   1.594
 2197SOL    HW2 7491   4.476   3.550   1.616
 2198SOL     OW 7492   6.865   1.508   0.021
 2198SOL    HW1 7493   6.893   1.548   6.958
 2198SOL    HW2 7494   6.938   1.519   0.088
 2199SOL     OW 7495   5.635   1.033   2.066
 2199SOL    HW1 7496   5.667   0.941   2.041
 2199SOL    HW2 7497   5.560   1.025   2.131
 2200SOL     OW 7498   4.366   0.373   4.642
 2200SOL    HW1 7499   4.380   0.295   4.703
 2200SOL    HW2 7500   4.271   0.404   4.649
 2201SOL     OW 7501   6.631   2.944   2.198
 2201SOL    HW1 7502   6.638   2.992   2.285
 2201SOL    HW2 7503   6.722   2.915   2.169
 2202SOL     OW 7504   3.393   5.226   4.127
 2202SOL    HW1 7505   3.329   5.194   4.057
 2202SOL    HW2 7506   3.446   5.303   4.090
 2203SOL     OW 7507   2.188   2.410   1.945
 2203SOL    HW1 7508   2.106   2.403   2.002
 2203SOL    HW2 7509   2.171   2.476   1.871
 2204SOL     OW 7510   3.488   1.107   6.755
 2204SOL    HW1 7511   3.431   1.091   6.674
 2204SOL    HW2 7512   3.431   1.134   6.831
 2205SOL     OW 7513   1.882   0.051   6.292
 2205SOL    HW1 7514   1.945   0.073   6.367
 2205SOL    HW2 7515   1.797   0.101   6.304
 2206SOL     OW 7516   2.970   4.047   5.114
 2206SOL    HW1 7517   2.892   4.043   5.176
 2206SOL    HW2 7518   2.940   4.033   5.020
 2207SOL     OW 7519   2.012   3.788   6.329
 2207SOL    HW1 7520   2.084   3.852   6.302
 2207SOL    HW2 7521   2.027   3.700   6.285
 2208SOL     OW 7522   1.764   4.919   2.310
 2208SOL    HW1 7523   1.739   4.873   2.225
 2208SOL    HW2 7524   1.862   4.941   2.308
 2209SOL     OW 7525   1.359   5.417   6.011
 2209SOL    HW1 7526   1.458   5.430   6.016
 2209SOL    HW2 7527   1.316   5.496   5.968
 2210SOL     OW 7528   0.333   4.965   3.634
 2210SOL    HW1 7529   0.373   4.875   3.649
 2210SOL    HW2 7530   0.236   4.955   3.610
 2211SOL     OW 7531   5.350   1.251   6.968
 2211SOL    HW1 7532   5.444   1.217   6.966
 2211SOL    HW2 7533   5.311   1.235   0.035
 2212SOL     OW 7534   1.741   6.175   0.801
 2212SOL    HW1 7535   1.837   6.160   0.820
 2212SOL    HW2 7536   1.731   6.251   0.736
 2213SOL     OW 7537   4.055   2.772   5.361
 2213SOL    HW1 7538   4.080   2.683   5.323
 2213SOL    HW2 7539   3.990   2.817   5.299
 2214SOL     OW 7540   4.726   1.272   5.217
 2214SOL    HW1 7541   4.668   1.191   5.222
 2214SOL    HW2 7542   4.772   1.275   5.128
 2215SOL     OW 7543   6.887   1.961   5.952
 2215SOL    HW1 7544   6.902   1.949   6.051
 2215SOL    HW2 7545   6.960   1.913   5.902
 2216SOL     OW 7546   1.745   0.609   6.831
 2216SOL    HW1 7547   1.831   0.626   6.783
 2216SOL    HW2 7548   1.764   0.576   6.923
 2217SOL     OW 7549   3.096   0.185   1.774
 2217SOL    HW1 7550   3.062   0.243   1.848
 2217SOL    HW2 7551   3.044   0.100   1.771
 2218SOL     OW 7552   1.450   6.997   1.230
 2218SOL    HW1 7553   1.388   0.023   1.290
 2218SOL    HW2 7554   1.544   7.017   1.255
 2219SOL     OW 7555   0.677   4.121   3.365
 2219SOL    HW1 7556   0.746   4.119   3.437
 2219SOL    HW2 7557   0.710   4.173   3.287
 2220SOL     OW 7558   0.147   1.252   4.458
 2220SOL    HW1 7559   0.201   1.221   4.380
 2220SOL    HW2 7560   0.155   1.185   4.532
 2221SOL     OW 7561   6.949   1.062   6.710
 2221SOL    HW1 7562   6.866   1.098   6.668
 2221SOL    HW2 7563   7.003   1.138   6.747
 2222SOL     OW 7564   3.536   0.814   1.103
 2222SOL    HW1 7565   3.621   0.795   1.152
 2222SOL    HW2 7566   3.527   0.912   1.089
 2223SOL     OW 7567   5.543   6.536   3.924
 2223SOL    HW1 7568   5.551   6.636   3.930
 2223SOL    HW2 7569   5.558   6.496   4.014
 2224SOL     OW 7570   2.217   4.456   1.832
 2224SOL    HW1 7571   2.268   4.430   1.914
 2224SOL    HW2 7572   2.134   4.505   1.859
 2225SOL     OW 7573   5.960   5.820   3.001
 2225SOL    HW1 7574   5.924   5.815   3.093
 2225SOL    HW2 7575   6.056   5.849   3.004
 2226SOL     OW 7576   4.273   3.506   0.851
 2226SOL    HW1 7577   4.251   3.600   0.826
 2226SOL    HW2 7578   4.196   3.447   0.828
 2227SOL     OW 7579   6.133   4.219   0.385
 2227SOL    HW1 7580   6.103   4.225   0.290
 2227SOL    HW2 7581   6.233   4.220   0.388
 2228SOL     OW 7582   3.057   5.922   0.758
 2228SOL    HW1 7583   3.108   5.998   0.716
 2228SOL    HW2 7584   3.105   5.836   0.738
 2229SOL     OW 7585   4.536   1.122   4.592
 2229SOL    HW1 7586   4.484   1.133   4.677
 2229SOL    HW2 7587   4.617   1.181   4.595
 2230SOL     OW 7588   0.787   5.888   4.784
 2230SOL    HW1 7589   0.804   5.913   4.688
 2230SOL    HW2 7590   0.852   5.816   4.810
 2231SOL     OW 7591   1.535   1.216   1.237
 2231SOL    HW1 7592   1.591   1.267   1.172
 2231SOL    HW2 7593   1.588   1.202   1.321
 2232SOL     OW 7594   0.981   2.136   3.864
 2232SOL    HW1 7595   0.971   2.154   3.962
 2232SOL    HW2 7596   1.047   2.063   3.850
 2233SOL     OW 7597   2.336   4.307   0.743
 2233SOL    HW1 7598   2.371   4.292   0.651
 2233SOL    HW2 7599   2.408   4.290   0.810
 2234SOL     OW 7600   5.032   2.412   1.629
 2234SOL    HW1 7601   5.015   2.413   1.728
 2234SOL    HW2 7602   5.036   2.505   1.595
 2235SOL     OW 7603   1.848   0.068   0.523
 2235SOL    HW1 7604   1.813   0.108   0.607
 2235SOL    HW2 7605   1.782   0.082   0.449
 2236SOL     OW 7606   0.793   4.604   0.504
 2236SOL    HW1 7607   0.762   4.612   0.409
 2236SOL    HW2 7608   0.890   4.577   0.505
 2237SOL     OW 7609   5.402   4.177   4.116
 2237SOL    HW1 7610   5.437   4.203   4.206
 2237SOL    HW2 7611   5.365   4.084   4.120
 2238SOL     OW 7612   6.284   5.793   2.702
 2238SOL    HW1 7613   6.362   5.732   2.718
 2238SOL    HW2 7614   6.203   5.738   2.683
 2239SOL     OW 7615   3.631   5.407   3.915
 2239SOL    HW1 7616   3.553   5.467   3.898
 2239SOL    HW2 7617   3.645   5.346   3.837
 2240SOL     OW 7618   5.799   5.921   4.062
 2240SOL    HW1 7619   5.737   5.962   3.995
 2240SOL    HW2 7620   5.768   5.943   4.154
 2241SOL     OW 7621   0.247   6.713   2.137
 2241SOL    HW1 7622   0.316   6.766   2.088
 2241SOL    HW2 7623   0.277   6.617   2.142
 2242SOL     OW 7624   5.777   2.359   2.974
 2242SOL    HW1 7625   5.852   2.404   3.023
 2242SOL    HW2 7626   5.695   2.416   2.980
 2243SOL     OW 7627   2.833   6.217   5.207
 2243SOL    HW1 7628   2.829   6.183   5.301
 2243SOL    HW2 7629   2.799   6.146   5.145
 2244SOL     OW 7630   3.474   0.919   3.392
 2244SOL    HW1 7631   3.567   0.885   3.401
 2244SOL    HW2 7632   3.440   0.900   3.300
 2245SOL     OW 7633   0.284   2.270   1.413
 2245SOL    HW1 7634   0.321   2.354   1.373
 2245SOL    HW2 7635   0.356   2.200   1.414
 2246SOL     OW 7636   1.603   1.520   4.519
 2246SOL    HW1 7637   1.695   1.482   4.525
 2246SOL    HW2 7638   1.602   1.592   4.449
 2247SOL     OW 7639   2.236   2.439   6.351
 2247SOL    HW1 7640   2.302   2.515   6.346
 2247SOL    HW2 7641   2.159   2.466   6.410
 2248SOL     OW 7642   4.778   3.826   6.125
 2248SOL    HW1 7643   4.851   3.887   6.094
 2248SOL    HW2 7644   4.806   3.780   6.210
 2249SOL     OW 7645   5.094   6.614   3.247
 2249SOL    HW1 7646   5.081   6.591   3.151
 2249SOL    HW2 7647   5.032   6.688   3.272
 2250SOL     OW 7648   5.394   3.883   1.277
 2250SOL    HW1 7649   5.343   3.839   1.203
 2250SOL    HW2 7650   5.339   3.881   1.361
 2251SOL     OW 7651   5.675   1.634   0.234
 2251SOL    HW1 7652   5.580   1.604   0.249
 2251SOL    HW2 7653   5.709   1.594   0.149
 2252SOL     OW 7654   6.649   2.376   4.328
 2252SOL    HW1 7655   6.549   2.382   4.323
 2252SOL    HW2 7656   6.681   2.421   4.411
 2253SOL     OW 7657   1.198   3.124   0.366
 2253SOL    HW1 7658   1.178   3.202   0.425
 2253SOL    HW2 7659   1.278   3.145   0.310
 2254SOL     OW 7660   2.345   2.952   5.680
 2254SOL    HW1 7661   2.336   2.864   5.635
 2254SOL    HW2 7662   2.441   2.966   5.707
 2255SOL     OW 7663   6.579   2.447   0.729
 2255SOL    HW1 7664   6.524   2.488   0.802
 2255SOL    HW2 7665   6.540   2.358   0.704
 2256SOL     OW 7666   4.107   5.776   1.577
 2256SOL    HW1 7667   4.145   5.869   1.577
 2256SOL    HW2 7668   4.119   5.735   1.487
 2257SOL     OW 7669   0.196   2.992   4.408
 2257SOL    HW1 7670   0.167   2.897   4.421
 2257SOL    HW2 7671   0.288   3.003   4.446
 2258SOL     OW 7672   1.190   5.651   4.980
 2258SOL    HW1 7673   1.200   5.651   5.080
 2258SOL    HW2 7674   1.236   5.571   4.942
 2259SOL     OW 7675   4.523   3.448   6.050
 2259SOL    HW1 7676   4.595   3.390   6.087
 2259SOL    HW2 7677   4.434   3.417   6.083
 2260SOL     OW 7678   4.715   4.507   3.358
 2260SOL    HW1 7679   4.624   4.517   3.317
 2260SOL    HW2 7680   4.761   4.596   3.359
 2261SOL     OW 7681   6.131   6.951   0.970
 2261SOL    HW1 7682   6.146   6.943   1.069
 2261SOL    HW2 7683   6.148   6.862   0.927
 2262SOL     OW 7684   6.176   3.097   2.575
 2262SOL    HW1 7685   6.156   3.001   2.596
 2262SOL    HW2 7686   6.096   3.139   2.531
 2263SOL     OW 7687   3.038   5.659   6.146
 2263SOL    HW1 7688   3.120   5.676   6.200
 2263SOL    HW2 7689   2.958   5.655   6.207
 2264SOL     OW 7690   3.100   3.937   2.273
 2264SOL    HW1 7691   3.140   3.960   2.362
 2264SOL    HW2 7692   3.052   3.850   2.279
 2265SOL     OW 7693   0.335   0.663   3.820
 2265SOL    HW1 7694   0.267   0.589   3.829
 2265SOL    HW2 7695   0.354   0.678   3.723
 2266SOL     OW 7696   6.206   1.188   1.046
 2266SOL    HW1 7697   6.251   1.150   0.965
 2266SOL    HW2 7698   6.243   1.143   1.128
 2267SOL     OW 7699   5.608   2.676   5.076
 2267SOL    HW1 7700   5.671   2.601   5.056
 2267SOL    HW2 7701   5.612   2.742   5.001
 2268SOL     OW 7702   6.648   4.839   0.062
 2268SOL    HW1 7703   6.715   4.805   0.128
 2268SOL    HW2 7704   6.597   4.762   0.023
 2269SOL     OW 7705   6.013   5.713   5.463
 2269SOL    HW1 7706   6.063   5.750   5.542
 2269SOL    HW2 7707   6.043   5.760   5.380
 2270SOL     OW 7708   3.897   3.247   0.015
 2270SOL    HW1 7709   3.853   3.158   0.016
 2270SOL    HW2 7710   3.904   3.280   6.945
 2271SOL     OW 7711   5.850   4.026   1.057
 2271SOL    HW1 7712   5.940   3.987   1.074
 2271SOL    HW2 7713   5.791   3.957   1.014
 2272SOL     OW 7714   6.022   2.080   5.021
 2272SOL    HW1 7715   6.051   1.987   4.998
 2272SOL    HW2 7716   5.931   2.096   4.982
 2273SOL     OW 7717   1.804   1.541   1.462
 2273SOL    HW1 7718   1.814   1.522   1.560
 2273SOL    HW2 7719   1.721   1.496   1.428
 2274SOL     OW 7720   1.018   3.361   6.010
 2274SOL    HW1 7721   1.050   3.385   5.919
 2274SOL    HW2 7722   0.922   3.333   6.006
 2275SOL     OW 7723   5.282   0.172   4.492
 2275SOL    HW1 7724   5.245   0.087   4.529
 2275SOL    HW2 7725   5.300   0.161   4.394
 2276SOL     OW 7726   3.371   5.195   1.491
 2276SOL    HW1 7727   3.289   5.252   1.481
 2276SOL    HW2 7728   3.448   5.253   1.518
 2277SOL     OW 7729   2.963   3.894   4.456
 2277SOL    HW1 7730   2.963   3.812   4.514
 2277SOL    HW2 7731   2.978   3.975   4.512
 2278SOL     OW 7732   5.012   6.798   4.118
 2278SOL    HW1 7733   5.026   6.712   4.069
 2278SOL    HW2 7734   4.915   6.808   4.141
 2279SOL     OW 7735   5.447   5.481   4.313
 2279SOL    HW1 7736   5.362   5.505   4.358
 2279SOL    HW2 7737   5.428   5.447   4.221
 2280SOL     OW 7738   6.611   6.496   5.072
 2280SOL    HW1 7739   6.550   6.566   5.034
 2280SOL    HW2 7740   6.671   6.460   5.000
 2281SOL     OW 7741   3.806   1.178   2.001
 2281SOL    HW1 7742   3.888   1.227   1.973
 2281SOL    HW2 7743   3.752   1.155   1.920
 2282SOL     OW 7744   5.397   0.133   4.963
 2282SOL    HW1 7745   5.352   0.045   4.946
 2282SOL    HW2 7746   5.462   0.152   4.890
 2283SOL     OW 7747   6.882   4.562   1.088
 2283SOL    HW1 7748   6.957   4.496   1.089
 2283SOL    HW2 7749   6.815   4.536   1.019
 2284SOL     OW 7750   1.873   1.431   0.478
 2284SOL    HW1 7751   1.913   1.449   0.568
 2284SOL    HW2 7752   1.854   1.518   0.432
 2285SOL     OW 7753   1.765   3.665   6.903
 2285SOL    HW1 7754   1.782   3.595   6.972
 2285SOL    HW2 7755   1.761   3.622   6.813
 2286SOL     OW 7756   6.280   6.709   4.098
 2286SOL    HW1 7757   6.231   6.625   4.074
 2286SOL    HW2 7758   6.250   6.740   4.188
 2287SOL     OW 7759   2.608   2.477   2.017
 2287SOL    HW1 7760   2.521   2.525   2.025
 2287SOL    HW2 7761   2.644   2.488   1.924
 2288SOL     OW 7762   6.634   5.164   4.553
 2288SOL    HW1 7763   6.686   5.206   4.627
 2288SOL    HW2 7764   6.587   5.236   4.501
 2289SOL     OW 7765   6.495   3.614   2.700
 2289SOL    HW1 7766   6.558   3.691   2.712
 2289SOL    HW2 7767   6.546   3.529   2.696
 2290SOL     OW 7768   2.080   3.697   1.952
 2290SOL    HW1 7769   2.002   3.695   1.890
 2290SOL    HW2 7770   2.115   3.605   1.966
 2291SOL     OW 7771   2.121   1.935   0.285
 2291SOL    HW1 7772   2.149   2.025   0.253
 2291SOL    HW2 7773   2.116   1.935   0.385
 2292SOL     OW 7774   4.949   2.635   3.182
 2292SOL    HW1 7775   4.856   2.673   3.183
 2292SOL    HW2 7776   4.944   2.535   3.183
 2293SOL     OW 7777   6.217   0.217   0.846
 2293SOL    HW1 7778   6.198   0.146   0.914
 2293SOL    HW2 7779   6.188   0.306   0.882
 2294SOL     OW 7780   3.276   1.855   6.064
 2294SOL    HW1 7781   3.263   1.879   5.968
 2294SOL    HW2 7782   3.365   1.810   6.075
 2295SOL     OW 7783   0.272   1.052   3.234
 2295SOL    HW1 7784   0.274   1.126   3.166
 2295SOL    HW2 7785   0.186   1.002   3.227
 2296SOL     OW 7786   2.808   4.914   2.872
 2296SOL    HW1 7787   2.801   4.856   2.952
 2296SOL    HW2 7788   2.732   4.978   2.870
 2297SOL     OW 7789   5.159   4.725   6.114
 2297SOL    HW1 7790   5.180   4.689   6.205
 2297SOL    HW2 7791   5.126   4.652   6.055
 2298SOL     OW 7792   3.558   3.728   2.995
 2298SOL    HW1 7793   3.652   3.695   2.990
 2298SOL    HW2 7794   3.537   3.782   2.914
 2299SOL     OW 7795   4.984   4.409   5.141
 2299SOL    HW1 7796   4.971   4.368   5.232
 2299SOL    HW2 7797   4.968   4.340   5.071
 2300SOL     OW 7798   2.953   6.534   3.425
 2300SOL    HW1 7799   3.025   6.468   3.407
 2300SOL    HW2 7800   2.892   6.539   3.345
 2301SOL     OW 7801   3.826   3.046   3.628
 2301SOL    HW1 7802   3.823   3.010   3.722
 2301SOL    HW2 7803   3.920   3.048   3.596
 2302SOL     OW 7804   3.240   0.535   1.493
 2302SOL    HW1 7805   3.300   0.459   1.520
 2302SOL    HW2 7806   3.257   0.558   1.397
 2303SOL     OW 7807   2.153   3.296   1.038
 2303SOL    HW1 7808   2.193   3.219   1.087
 2303SOL    HW2 7809   2.059   3.275   1.011
 2304SOL     OW 7810   5.593   5.837   4.622
 2304SOL    HW1 7811   5.508   5.868   4.580
 2304SOL    HW2 7812   5.573   5.793   4.710
 2305SOL     OW 7813   2.175   0.296   3.461
 2305SOL    HW1 7814   2.250   0.233   3.440
 2305SOL    HW2 7815   2.190   0.383   3.413
 2306SOL     OW 7816   1.750   5.480   1.762
 2306SOL    HW1 7817   1.703   5.405   1.809
 2306SOL    HW2 7818   1.835   5.501   1.809
 2307SOL     OW 7819   0.196   3.289   5.376
 2307SOL    HW1 7820   0.283   3.286   5.327
 2307SOL    HW2 7821   0.168   3.385   5.386
 2308SOL     OW 7822   2.567   4.784   1.338
 2308SOL    HW1 7823   2.609   4.699   1.370
 2308SOL    HW2 7824   2.556   4.847   1.415
 2309SOL     OW 7825   1.940   0.972   4.613
 2309SOL    HW1 7826   1.890   1.034   4.674
 2309SOL    HW2 7827   1.928   0.877   4.644
 2310SOL     OW 7828   5.547   6.217   2.542
 2310SOL    HW1 7829   5.567   6.255   2.452
 2310SOL    HW2 7830   5.497   6.284   2.596
 2311SOL     OW 7831   2.825   5.998   6.870
 2311SOL    HW1 7832   2.919   6.033   6.876
 2311SOL    HW2 7833   2.824   5.916   6.813
 2312SOL     OW 7834   4.203   5.852   3.467
 2312SOL    HW1 7835   4.159   5.778   3.519
 2312SOL    HW2 7836   4.302   5.850   3.483
 2313SOL     OW 7837   4.622   5.059   2.332
 2313SOL    HW1 7838   4.598   5.013   2.247
 2313SOL    HW2 7839   4.549   5.123   2.357
 2314SOL     OW 7840   4.326   6.798   2.675
 2314SOL    HW1 7841   4.229   6.787   2.652
 2314SOL    HW2 7842   4.334   6.843   2.764
 2315SOL     OW 7843   5.389   3.271   5.992
 2315SOL    HW1 7844   5.342   3.250   6.078
 2315SOL    HW2 7845   5.375   3.195   5.928
 2316SOL     OW 7846   5.017   2.309   3.779
 2316SOL    HW1 7847   4.965   2.321   3.864
 2316SOL    HW2 7848   4.973   2.238   3.724
 2317SOL     OW 7849   0.098   5.652   3.206
 2317SOL    HW1 7850   0.030   5.676   3.275
 2317SOL    HW2 7851   0.142   5.566   3.230
 2318SOL     OW 7852   0.230   3.092   3.574
 2318SOL    HW1 7853   0.277   3.177   3.551
 2318SOL    HW2 7854   0.296   3.027   3.611
 2319SOL     OW 7855   1.383   4.736   4.554
 2319SOL    HW1 7856   1.478   4.721   4.579
 2319SOL    HW2 7857   1.324   4.693   4.622
 2320SOL     OW 7858   1.278   2.883   4.202
 2320SOL    HW1 7859   1.291   2.785   4.217
 2320SOL    HW2 7860   1.185   2.900   4.170
 2321SOL     OW 7861   3.277   1.222   5.218
 2321SOL    HW1 7862   3.221   1.221   5.300
 2321SOL    HW2 7863   3.358   1.279   5.233
 2322SOL     OW 7864   2.526   1.628   5.204
 2322SOL    HW1 7865   2.617   1.669   5.208
 2322SOL    HW2 7866   2.468   1.681   5.142
 2323SOL     OW 7867   2.775   4.673   2.408
 2323SOL    HW1 7868   2.814   4.675   2.500
 2323SOL    HW2 7869   2.709   4.598   2.401
 2324SOL     OW 7870   0.410   6.420   2.921
 2324SOL    HW1 7871   0.405   6.515   2.953
 2324SOL    HW2 7872   0.505   6.392   2.912
 2325SOL     OW 7873   0.899   3.942   1.442
 2325SOL    HW1 7874   0.935   3.867   1.497
 2325SOL    HW2 7875   0.806   3.963   1.471
 2326SOL     OW 7876   2.858   3.993   6.240
 2326SOL    HW1 7877   2.791   3.957   6.174
 2326SOL    HW2 7878   2.812   4.055   6.303
 2327SOL     OW 7879   5.296   2.396   4.807
 2327SOL    HW1 7880   5.357   2.431   4.736
 2327SOL    HW2 7881   5.321   2.436   4.895
 2328SOL     OW 7882   5.179   1.375   3.809
 2328SOL    HW1 7883   5.251   1.409   3.747
 2328SOL    HW2 7884   5.155   1.447   3.874
 2329SOL     OW 7885   1.662   5.198   4.942
 2329SOL    HW1 7886   1.759   5.198   4.967
 2329SOL    HW2 7887   1.653   5.171   4.846
 2330SOL     OW 7888   0.288   4.472   1.997
 2330SOL    HW1 7889   0.287   4.377   1.966
 2330SOL    HW2 7890   0.288   4.475   2.097
 2331SOL     OW 7891   6.082   5.095   6.639
 2331SOL    HW1 7892   6.085   5.005   6.594
 2331SOL    HW2 7893   6.157   5.151   6.603
 2332SOL     OW 7894   4.778   2.098   5.344
 2332SOL    HW1 7895   4.776   2.170   5.413
 2332SOL    HW2 7896   4.685   2.065   5.328
 2333SOL     OW 7897   0.029   5.033   2.961
 2333SOL    HW1 7898   6.962   5.067   2.988
 2333SOL    HW2 7899   0.039   5.042   2.862
 2334SOL     OW 7900   2.545   6.852   0.172
 2334SOL    HW1 7901   2.506   6.782   0.231
 2334SOL    HW2 7902   2.562   6.814   0.081
 2335SOL     OW 7903   6.354   0.849   3.282
 2335SOL    HW1 7904   6.307   0.866   3.195
 2335SOL    HW2 7905   6.448   0.883   3.276
 2336SOL     OW 7906   4.648   1.447   5.425
 2336SOL    HW1 7907   4.723   1.513   5.432
 2336SOL    HW2 7908   4.658   1.394   5.340
 2337SOL     OW 7909   5.038   0.787   3.552
 2337SOL    HW1 7910   4.984   0.756   3.474
 2337SOL    HW2 7911   4.982   0.849   3.609
 2338SOL     OW 7912   1.039   0.133   6.413
 2338SOL    HW1 7913   0.966   0.187   6.455
 2338SOL    HW2 7914   1.128   0.173   6.435
 2339SOL     OW 7915   3.793   3.601   5.265
 2339SOL    HW1 7916   3.708   3.635   5.304
 2339SOL    HW2 7917   3.869   3.657   5.297
 2340SOL     OW 7918   4.684   6.774   5.643
 2340SOL    HW1 7919   4.704   6.818   5.556
 2340SOL    HW2 7920   4.732   6.687   5.650
 2341SOL     OW 7921   5.116   4.002   1.046
 2341SOL    HW1 7922   5.042   3.985   1.112
 2341SOL    HW2 7923   5.106   4.093   1.007
 2342SOL     OW 7924   0.776   6.280   5.505
 2342SOL    HW1 7925   0.777   6.181   5.522
 2342SOL    HW2 7926   0.714   6.324   5.569
 2343SOL     OW 7927   1.946   6.703   1.196
 2343SOL    HW1 7928   2.029   6.757   1.209
 2343SOL    HW2 7929   1.958   6.642   1.117
 2344SOL     OW 7930   2.097   1.513   1.468
 2344SOL    HW1 7931   2.045   1.435   1.433
 2344SOL    HW2 7932   2.047   1.597   1.450
 2345SOL     OW 7933   1.940   6.545   5.541
 2345SOL    HW1 7934   1.970   6.627   5.490
 2345SOL    HW2 7935   1.841   6.549   5.555
 2346SOL     OW 7936   4.668   2.736   5.154
 2346SOL    HW1 7937   4.595   2.694   5.100
 2346SOL    HW2 7938   4.741   2.767   5.094
 2347SOL     OW 7939   1.564   4.339   1.903
 2347SOL    HW1 7940   1.479   4.389   1.887
 2347SOL    HW2 7941   1.545   4.260   1.960
 2348SOL     OW 7942   2.288   6.118   3.475
 2348SOL    HW1 7943   2.239   6.205   3.467
 2348SOL    HW2 7944   2.235   6.055   3.532
 2349SOL     OW 7945   0.999   6.616   0.120
 2349SOL    HW1 7946   0.903   6.608   0.148
 2349SOL    HW2 7947   1.055   6.635   0.200
 2350SOL     OW 7948   3.851   6.649   5.650
 2350SOL    HW1 7949   3.815   6.712   5.719
 2350SOL    HW2 7950   3.950   6.640   5.662
 2351SOL     OW 7951   3.276   5.349   3.294
 2351SOL    HW1 7952   3.319   5.387   3.376
 2351SOL    HW2 7953   3.214   5.275   3.321
 2352SOL     OW 7954   0.736   4.798   3.252
 2352SOL    HW1 7955   0.707   4.779   3.346
 2352SOL    HW2 7956   0.800   4.728   3.222
 2353SOL     OW 7957   2.505   4.560   4.542
 2353SOL    HW1 7958   2.554   4.589   4.624
 2353SOL    HW2 7959   2.504   4.635   4.476
 2354SOL     OW 7960   3.787   1.928   6.631
 2354SOL    HW1 7961   3.854   1.952   6.560
 2354SOL    HW2 7962   3.780   1.828   6.638
 2355SOL     OW 7963   0.372   5.984   0.630
 2355SOL    HW1 7964   0.455   5.986   0.574
 2355SOL    HW2 7965   0.314   6.063   0.607
 2356SOL     OW 7966   2.510   3.696   1.699
 2356SOL    HW1 7967   2.609   3.683   1.696
 2356SOL    HW2 7968   2.468   3.618   1.746
 2357SOL     OW 7969   4.301   5.277   3.922
 2357SOL    HW1 7970   4.264   5.353   3.870
 2357SOL    HW2 7971   4.280   5.290   4.019
 2358SOL     OW 7972   3.072   6.538   4.113
 2358SOL    HW1 7973   3.104   6.517   4.205
 2358SOL    HW2 7974   3.150   6.540   4.050
 2359SOL     OW 7975   1.852   0.621   6.049
 2359SOL    HW1 7976   1.775   0.590   6.106
 2359SOL    HW2 7977   1.826   0.703   5.999
 2360SOL     OW 7978   4.455   4.675   6.413
 2360SOL    HW1 7979   4.541   4.679   6.464
 2360SOL    HW2 7980   4.405   4.760   6.425
 2361SOL     OW 7981   2.966   6.783   3.999
 2361SOL    HW1 7982   2.873   6.799   4.033
 2361SOL    HW2 7983   2.999   6.695   4.034
 2362SOL     OW 7984   4.335   6.274   5.003
 2362SOL    HW1 7985   4.340   6.323   4.917
 2362SOL    HW2 7986   4.250   6.220   5.006
 2363SOL     OW 7987   4.947   2.578   5.205
 2363SOL    HW1 7988   4.899   2.494   5.182
 2363SOL    HW2 7989   4.923   2.605   5.298
 2364SOL     OW 7990   6.171   2.157   2.395
 2364SOL    HW1 7991   6.202   2.149   2.300
 2364SOL    HW2 7992   6.073   2.177   2.396
 2365SOL     OW 7993   5.670   4.536   5.694
 2365SOL    HW1 7994   5.753   4.480   5.693
 2365SOL    HW2 7995   5.688   4.622   5.648
 2366SOL     OW 7996   1.185   4.005   5.835
 2366SOL    HW1 7997   1.255   3.939   5.862
 2366SOL    HW2 7998   1.193   4.024   5.737
 2367SOL     OW 7999   1.013   3.372   6.388
 2367SOL    HW1 8000   0.972   3.462   6.405
 2367SOL    HW2 8001   1.098   3.383   6.336
 2368SOL     OW 8002   4.464   1.111   5.201
 2368SOL    HW1 8003   4.482   1.090   5.297
 2368SOL    HW2 8004   4.405   1.040   5.162
 2369SOL     OW 8005   2.000   2.006   4.078
 2369SOL    HW1 8006   2.071   2.075   4.087
 2369SOL    HW2 8007   1.917   2.036   4.125
 2370SOL     OW 8008   4.348   3.182   0.829
 2370SOL    HW1 8009   4.272   3.214   0.773
 2370SOL    HW2 8010   4.413   3.257   0.843
 2371SOL     OW 8011   1.441   5.904   2.453
 2371SOL    HW1 8012   1.447   5.829   2.520
 2371SOL    HW2 8013   1.407   5.868   2.366
 2372SOL     OW 8014   0.347   1.443   0.088
 2372SOL    HW1 8015   0.309   1.468   0.178
 2372SOL    HW2 8016   0.286   1.378   0.044
 2373SOL     OW 8017   6.683   1.493   6.276
 2373SOL    HW1 8018   6.777   1.489   6.308
 2373SOL    HW2 8019   6.647   1.586   6.289
 2374SOL     OW 8020   6.040   5.722   3.271
 2374SOL    HW1 8021   6.123   5.778   3.267
 2374SOL    HW2 8022   6.058   5.640   3.326
 2375SOL     OW 8023   0.879   0.520   4.137
 2375SOL    HW1 8024   0.787   0.549   4.109
 2375SOL    HW2 8025   0.947   0.579   4.094
 2376SOL     OW 8026   6.186   2.569   3.100
 2376SOL    HW1 8027   6.174   2.645   3.037
 2376SOL    HW2 8028   6.283   2.558   3.121
 2377SOL     OW 8029   3.195   3.799   4.345
 2377SOL    HW1 8030   3.184   3.737   4.267
 2377SOL    HW2 8031   3.110   3.803   4.397
 2378SOL     OW 8032   5.483   1.880   0.108
 2378SOL    HW1 8033   5.403   1.829   0.138
 2378SOL    HW2 8034   5.463   1.978   0.107
 2379SOL     OW 8035   6.408   3.541   0.010
 2379SOL    HW1 8036   6.459   3.496   0.083
 2379SOL    HW2 8037   6.434   3.501   6.946
 2380SOL     OW 8038   6.292   1.001   5.363
 2380SOL    HW1 8039   6.360   1.068   5.394
 2380SOL    HW2 8040   6.202   1.044   5.362
 2381SOL     OW 8041   1.547   4.394   4.904
 2381SOL    HW1 8042   1.555   4.300   4.937
 2381SOL    HW2 8043   1.636   4.426   4.871
 2382SOL     OW 8044   2.222   5.683   2.815
 2382SOL    HW1 8045   2.300   5.621   2.818
 2382SOL    HW2 8046   2.159   5.662   2.890
 2383SOL     OW 8047   5.541   6.376   6.514
 2383SOL    HW1 8048   5.448   6.404   6.492
 2383SOL    HW2 8049   5.605   6.421   6.452
 2384SOL     OW 8050   1.445   2.567   1.174
 2384SOL    HW1 8051   1.420   2.664   1.176
 2384SOL    HW2 8052   1.541   2.558   1.147
 2385SOL     OW 8053   0.469   0.663   0.841
 2385SOL    HW1 8054   0.490   0.676   0.744
 2385SOL    HW2 8055   0.528   0.591   0.878
 2386SOL     OW 8056   2.983   5.431   4.145
 2386SOL    HW1 8057   2.999   5.346   4.195
 2386SOL    HW2 8058   2.914   5.485   4.191
 2387SOL     OW 8059   6.752   3.266   4.428
 2387SOL    HW1 8060   6.734   3.363   4.446
 2387SOL    HW2 8061   6.829   3.257   4.366
 2388SOL     OW 8062   0.823   1.880   5.724
 2388SOL    HW1 8063   0.741   1.898   5.669
 2388SOL    HW2 8064   0.809   1.916   5.816
 2389SOL     OW 8065   4.258   4.644   3.697
 2389SOL    HW1 8066   4.332   4.710   3.710
 2389SOL    HW2 8067   4.292   4.567   3.643
 2390SOL     OW 8068   3.734   3.653   4.581
 2390SOL    HW1 8069   3.681   3.721   4.631
 2390SOL    HW2 8070   3.829   3.655   4.612
 2391SOL     OW 8071   3.543   4.056   6.273
 2391SOL    HW1 8072   3.604   4.122   6.229
 2391SOL    HW2 8073   3.473   4.105   6.324
 2392SOL     OW 8074   3.133   4.032   6.221
 2392SOL    HW1 8075   3.156   4.021   6.125
 2392SOL    HW2 8076   3.035   4.050   6.230
 2393SOL     OW 8077   3.940   5.227   1.088
 2393SOL    HW1 8078   4.001   5.151   1.065
 2393SOL    HW2 8079   3.846   5.193   1.095
 2394SOL     OW 8080   0.682   3.832   4.111
 2394SOL    HW1 8081   0.582   3.842   4.114
 2394SOL    HW2 8082   0.709   3.794   4.022
 2395SOL     OW 8083   6.936   3.025   6.514
 2395SOL    HW1 8084   6.901   3.089   6.583
 2395SOL    HW2 8085   6.880   2.942   6.514
 2396SOL     OW 8086   5.868   6.318   0.446
 2396SOL    HW1 8087   5.937   6.357   0.507
 2396SOL    HW2 8088   5.849   6.383   0.372
 2397SOL     OW 8089   6.609   4.906   0.388
 2397SOL    HW1 8090   6.669   4.986   0.379
 2397SOL    HW2 8091   6.563   4.889   0.301
 2398SOL     OW 8092   2.835   4.783   4.832
 2398SOL    HW1 8093   2.897   4.789   4.754
 2398SOL    HW2 8094   2.883   4.740   4.909
 2399SOL     OW 8095   3.557   1.831   3.547
 2399SOL    HW1 8096   3.590   1.925   3.532
 2399SOL    HW2 8097   3.606   1.768   3.486
 2400SOL     OW 8098   2.734   3.708   0.812
 2400SOL    HW1 8099   2.691   3.653   0.883
 2400SOL    HW2 8100   2.685   3.697   0.726
 2401SOL     OW 8101   3.428   0.335   4.473
 2401SOL    HW1 8102   3.527   0.340   4.458
 2401SOL    HW2 8103   3.394   0.245   4.448
 2402SOL     OW 8104   0.134   1.356   3.974
 2402SOL    HW1 8105   0.054   1.406   4.008
 2402SOL    HW2 8106   0.200   1.421   3.936
 2403SOL     OW 8107   3.143   2.910   0.291
 2403SOL    HW1 8108   3.166   2.824   0.336
 2403SOL    HW2 8109   3.084   2.965   0.350
 2404SOL     OW 8110   5.704   1.847   1.939
 2404SOL    HW1 8111   5.642   1.837   2.016
 2404SOL    HW2 8112   5.721   1.944   1.922
 2405SOL     OW 8113   3.623   3.823   5.601
 2405SOL    HW1 8114   3.616   3.740   5.656
 2405SOL    HW2 8115   3.713   3.864   5.613
 2406SOL     OW 8116   2.189   0.164   4.214
 2406SOL    HW1 8117   2.270   0.149   4.270
 2406SOL    HW2 8118   2.123   0.090   4.228
 2407SOL     OW 8119   4.621   2.544   2.931
 2407SOL    HW1 8120   4.628   2.634   2.975
 2407SOL    HW2 8121   4.638   2.553   2.833
 2408SOL     OW 8122   3.134   4.923   2.953
 2408SOL    HW1 8123   3.196   4.938   2.876
 2408SOL    HW2 8124   3.044   4.894   2.919
 2409SOL     OW 8125   2.045   2.847   1.010
 2409SOL    HW1 8126   2.016   2.766   0.959
 2409SOL    HW2 8127   2.026   2.929   0.958
 2410SOL     OW 8128   6.120   3.425   5.449
 2410SOL    HW1 8129   6.084   3.420   5.355
 2410SOL    HW2 8130   6.098   3.341   5.497
 2411SOL     OW 8131   3.222   3.379   5.519
 2411SOL    HW1 8132   3.240   3.333   5.605
 2411SOL    HW2 8133   3.133   3.352   5.484
 2412SOL     OW 8134   2.864   3.165   0.394
 2412SOL    HW1 8135   2.848   3.168   0.295
 2412SOL    HW2 8136   2.780   3.191   0.442
 2413SOL     OW 8137   5.408   3.697   6.290
 2413SOL    HW1 8138   5.469   3.618   6.287
 2413SOL    HW2 8139   5.410   3.745   6.203
 2414SOL     OW 8140   5.514   3.646   3.180
 2414SOL    HW1 8141   5.588   3.598   3.133
 2414SOL    HW2 8142   5.426   3.605   3.154
 2415SOL     OW 8143   2.081   0.261   1.867
 2415SOL    HW1 8144   2.012   0.245   1.796
 2415SOL    HW2 8145   2.058   0.205   1.947
 2416SOL     OW 8146   1.334   1.971   4.775
 2416SOL    HW1 8147   1.330   1.990   4.677
 2416SOL    HW2 8148   1.340   1.872   4.790
 2417SOL     OW 8149   5.198   2.136   0.963
 2417SOL    HW1 8150   5.190   2.045   1.005
 2417SOL    HW2 8151   5.218   2.126   0.866
 2418SOL     OW 8152   3.301   3.207   4.919
 2418SOL    HW1 8153   3.291   3.284   4.856
 2418SOL    HW2 8154   3.380   3.152   4.892
 2419SOL     OW 8155   1.651   6.998   4.793
 2419SOL    HW1 8156   1.557   7.011   4.764
 2419SOL    HW2 8157   1.713   0.007   4.722
 2420SOL     OW 8158   3.917   6.688   2.051
 2420SOL    HW1 8159   3.847   6.620   2.072
 2420SOL    HW2 8160   3.877   6.779   2.051
 2421SOL     OW 8161   3.391   6.925   4.077
 2421SOL    HW1 8162   3.319   6.968   4.022
 2421SOL    HW2 8163   3.433   6.994   4.136
 2422SOL     OW 8164   4.867   0.282   0.531
 2422SOL    HW1 8165   4.948   0.314   0.483
 2422SOL    HW2 8166   4.843   0.346   0.604
 2423SOL     OW 8167   1.884   5.202   1.802
 2423SOL    HW1 8168   1.787   5.226   1.801
 2423SOL    HW2 8169   1.901   5.128   1.737
 2424SOL     OW 8170   5.597   6.701   6.880
 2424SOL    HW1 8171   5.516   6.736   6.831
 2424SOL    HW2 8172   5.629   6.618   6.836
 2425SOL     OW 8173   5.954   6.669   6.191
 2425SOL    HW1 8174   5.919   6.690   6.282
 2425SOL    HW2 8175   6.053   6.680   6.189
 2426SOL     OW 8176   0.917   5.422   4.520
 2426SOL    HW1 8177   0.905   5.477   4.437
 2426SOL    HW2 8178   1.010   5.385   4.522
 2427SOL     OW 8179   5.409   5.803   0.271
 2427SOL    HW1 8180   5.410   5.844   0.180
 2427SOL    HW2 8181   5.497   5.818   0.315
 2428SOL     OW 8182   0.545   0.662   2.890
 2428SOL    HW1 8183   0.633   0.673   2.844
 2428SOL    HW2 8184   0.476   0.717   2.843
 2429SOL     OW 8185   6.118   4.636   3.187
 2429SOL    HW1 8186   6.113   4.562   3.254
 2429SOL    HW2 8187   6.186   4.612   3.117
 2430SOL     OW 8188   5.320   3.067   0.435
 2430SOL    HW1 8189   5.264   3.000   0.386
 2430SOL    HW2 8190   5.370   3.123   0.370
 2431SOL     OW 8191   4.415   0.977   0.809
 2431SOL    HW1 8192   4.502   0.958   0.854
 2431SOL    HW2 8193   4.399   0.909   0.737
 2432SOL     OW 8194   3.241   6.504   2.460
 2432SOL    HW1 8195   3.170   6.521   2.391
 2432SOL    HW2 8196   3.203   6.447   2.533
 2433SOL     OW 8197   1.902   6.476   0.084
 2433SOL    HW1 8198   1.894   6.381   0.114
 2433SOL    HW2 8199   1.940   6.479   7.016
 2434SOL     OW 8200   5.398   1.647   2.993
 2434SOL    HW1 8201   5.477   1.624   3.049
 2434SOL    HW2 8202   5.322   1.674   3.052
 2435SOL     OW 8203   5.175   4.783   0.667
 2435SOL    HW1 8204   5.095   4.723   0.672
 2435SOL    HW2 8205   5.175   4.830   0.579
 2436SOL     OW 8206   2.026   6.933   1.553
 2436SOL    HW1 8207   1.963   6.855   1.550
 2436SOL    HW2 8208   2.078   6.937   1.467
 2437SOL     OW 8209   5.077   6.842   1.572
 2437SOL    HW1 8210   5.027   6.841   1.658
 2437SOL    HW2 8211   5.165   6.795   1.584
 2438SOL     OW 8212   4.080   0.955   4.425
 2438SOL    HW1 8213   4.126   0.978   4.339
 2438SOL    HW2 8214   4.077   1.036   4.483
 2439SOL     OW 8215   0.693   4.192   0.461
 2439SOL    HW1 8216   0.758   4.265   0.438
 2439SOL    HW2 8217   0.730   4.105   0.430
 2440SOL     OW 8218   3.850   6.327   5.574
 2440SOL    HW1 8219   3.834   6.368   5.664
 2440SOL    HW2 8220   3.926   6.263   5.579
 2441SOL     OW 8221   6.200   0.848   6.697
 2441SOL    HW1 8222   6.119   0.825   6.751
 2441SOL    HW2 8223   6.224   0.771   6.638
 2442SOL     OW 8224   5.422   5.421   3.107
 2442SOL    HW1 8225   5.433   5.334   3.155
 2442SOL    HW2 8226   5.483   5.489   3.148
 2443SOL     OW 8227   3.253   0.119   6.457
 2443SOL    HW1 8228   3.204   0.128   6.370
 2443SOL    HW2 8229   3.264   0.023   6.480
 2444SOL     OW 8230   3.557   3.700   0.526
 2444SOL    HW1 8231   3.617   3.633   0.484
 2444SOL    HW2 8232   3.462   3.668   0.522
 2445SOL     OW 8233   6.238   1.469   1.738
 2445SOL    HW1 8234   6.199   1.420   1.660
 2445SOL    HW2 8235   6.329   1.432   1.757
 2446SOL     OW 8236   0.859   3.222   4.726
 2446SOL    HW1 8237   0.856   3.270   4.639
 2446SOL    HW2 8238   0.948   3.238   4.770
 2447SOL     OW 8239   2.680   1.257   1.215
 2447SOL    HW1 8240   2.669   1.159   1.228
 2447SOL    HW2 8241   2.686   1.302   1.305
 2448SOL     OW 8242   6.509   1.429   3.897
 2448SOL    HW1 8243   6.559   1.504   3.854
 2448SOL    HW2 8244   6.544   1.414   3.989
 2449SOL     OW 8245   0.712   4.078   2.108
 2449SOL    HW1 8246   0.784   4.024   2.153
 2449SOL    HW2 8247   0.747   4.169   2.088
 2450SOL     OW 8248   3.865   4.674   6.448
 2450SOL    HW1 8249   3.881   4.661   6.545
 2450SOL    HW2 8250   3.812   4.597   6.412
 2451SOL     OW 8251   1.577   6.887   3.557
 2451SOL    HW1 8252   1.486   6.880   3.599
 2451SOL    HW2 8253   1.570   6.869   3.459
 2452SOL     OW 8254   2.890   1.974   4.269
 2452SOL    HW1 8255   2.908   2.065   4.306
 2452SOL    HW2 8256   2.802   1.940   4.304
 2453SOL     OW 8257   0.482   3.596   0.625
 2453SOL    HW1 8258   0.407   3.557   0.572
 2453SOL    HW2 8259   0.565   3.542   0.611
 2454SOL     OW 8260   3.107   0.401   6.960
 2454SOL    HW1 8261   3.112   0.345   0.019
 2454SOL    HW2 8262   3.161   0.359   6.887
 2455SOL     OW 8263   4.018   0.345   0.493
 2455SOL    HW1 8264   3.940   0.285   0.474
 2455SOL    HW2 8265   3.984   0.436   0.518
 2456SOL     OW 8266   6.758   2.604   6.993
 2456SOL    HW1 8267   6.782   2.629   6.900
 2456SOL    HW2 8268   6.799   2.516   7.016
 2457SOL     OW 8269   6.822   1.017   6.137
 2457SOL    HW1 8270   6.778   0.928   6.136
 2457SOL    HW2 8271   6.903   1.014   6.195
 2458SOL     OW 8272   1.461   6.651   3.957
 2458SOL    HW1 8273   1.449   6.554   3.979
 2458SOL    HW2 8274   1.486   6.701   4.039
 2459SOL     OW 8275   3.050   5.860   5.964
 2459SOL    HW1 8276   2.957   5.896   5.956
 2459SOL    HW2 8277   3.057   5.803   6.046
 2460SOL     OW 8278   1.073   1.127   1.437
 2460SOL    HW1 8279   1.145   1.195   1.436
 2460SOL    HW2 8280   1.062   1.087   1.346
 2461SOL     OW 8281   5.141   0.630   3.191
 2461SOL    HW1 8282   5.205   0.576   3.137
 2461SOL    HW2 8283   5.072   0.670   3.131
 2462SOL     OW 8284   2.252   5.400   0.016
 2462SOL    HW1 8285   2.308   5.365   6.964
 2462SOL    HW2 8286   2.312   5.430   0.090
 2463SOL     OW 8287   5.751   1.830   6.902
 2463SOL    HW1 8288   5.658   1.846   6.870
 2463SOL    HW2 8289   5.814   1.836   6.825
 2464SOL     OW 8290   1.957   4.212   2.447
 2464SOL    HW1 8291   1.969   4.278   2.520
 2464SOL    HW2 8292   2.041   4.159   2.435
 2465SOL     OW 8293   1.004   6.890   6.420
 2465SOL    HW1 8294   0.924   6.863   6.365
 2465SOL    HW2 8295   1.010   6.989   6.424
 2466SOL     OW 8296   2.595   1.688   3.357
 2466SOL    HW1 8297   2.693   1.687   3.372
 2466SOL    HW2 8298   2.555   1.601   3.387
 2467SOL     OW 8299   5.110   1.673   4.579
 2467SOL    HW1 8300   5.100   1.644   4.484
 2467SOL    HW2 8301   5.207   1.692   4.598
 2468SOL     OW 8302   4.618   6.707   1.537
 2468SOL    HW1 8303   4.676   6.641   1.488
 2468SOL    HW2 8304   4.529   6.711   1.493
 2469SOL     OW 8305   4.217   3.791   5.303
 2469SOL    HW1 8306   4.314   3.770   5.295
 2469SOL    HW2 8307   4.166   3.742   5.232
 2470SOL     OW 8308   4.753   4.178   6.057
 2470SOL    HW1 8309   4.674   4.153   6.114
 2470SOL    HW2 8310   4.775   4.103   5.996
 2471SOL     OW 8311   2.798   5.944   0.707
 2471SOL    HW1 8312   2.809   5.978   0.614
 2471SOL    HW2 8313   2.888   5.933   0.749
 2472SOL     OW 8314   4.629   2.229   3.207
 2472SOL    HW1 8315   4.574   2.301   3.249
 2472SOL    HW2 8316   4.595   2.211   3.114
 2473SOL     OW 8317   2.129   3.517   4.870
 2473SOL    HW1 8318   2.225   3.496   4.890
 2473SOL    HW2 8319   2.124   3.587   4.799
 2474SOL     OW 8320   0.360   5.894   1.529
 2474SOL    HW1 8321   0.373   5.972   1.468
 2474SOL    HW2 8322   0.347   5.925   1.623
 2475SOL     OW 8323   3.751   0.844   3.329
 2475SOL    HW1 8324   3.844   0.881   3.323
 2475SOL    HW2 8325   3.752   0.757   3.377
 2476SOL     OW 8326   6.785   1.218   2.673
 2476SOL    HW1 8327   6.824   1.127   2.679
 2476SOL    HW2 8328   6.701   1.222   2.727
 2477SOL     OW 8329   4.318   1.469   1.995
 2477SOL    HW1 8330   4.374   1.427   1.924
 2477SOL    HW2 8331   4.260   1.399   2.037
 2478SOL     OW 8332   6.306   0.904   1.676
 2478SOL    HW1 8333   6.233   0.949   1.625
 2478SOL    HW2 8334   6.306   0.937   1.770
 2479SOL     OW 8335   1.204   3.572   2.124
 2479SOL    HW1 8336   1.196   3.666   2.156
 2479SOL    HW2 8337   1.119   3.544   2.080
 2480SOL     OW 8338   4.595   4.073   0.917
 2480SOL    HW1 8339   4.656   4.152   0.907
 2480SOL    HW2 8340   4.649   3.991   0.936
 2481SOL     OW 8341   3.045   6.770   0.571
 2481SOL    HW1 8342   3.104   6.699   0.534
 2481SOL    HW2 8343   2.980   6.799   0.501
 2482SOL     OW 8344   5.394   3.580   5.911
 2482SOL    HW1 8345   5.390   3.483   5.935
 2482SOL    HW2 8346   5.473   3.622   5.955
 2483SOL     OW 8347   1.686   1.039   0.810
 2483SOL    HW1 8348   1.782   1.027   0.836
 2483SOL    HW2 8349   1.680   1.055   0.711
 2484SOL     OW 8350   3.667   0.804   0.243
 2484SOL    HW1 8351   3.591   0.749   0.207
 2484SOL    HW2 8352   3.654   0.818   0.341
 2485SOL     OW 8353   6.349   3.735   1.487
 2485SOL    HW1 8354   6.417   3.689   1.544
 2485SOL    HW2 8355   6.280   3.669   1.458
 2486SOL     OW 8356   1.905   4.749   4.493
 2486SOL    HW1 8357   1.934   4.654   4.505
 2486SOL    HW2 8358   1.819   4.751   4.442
 2487SOL     OW 8359   3.790   6.046   0.670
 2487SOL    HW1 8360   3.863   5.985   0.640
 2487SOL    HW2 8361   3.824   6.140   0.671
 2488SOL     OW 8362   1.679   4.726   2.521
 2488SOL    HW1 8363   1.718   4.777   2.444
 2488SOL    HW2 8364   1.591   4.766   2.546
 2489SOL     OW 8365   1.456   5.596   3.116
 2489SOL    HW1 8366   1.486   5.686   3.148
 2489SOL    HW2 8367   1.392   5.608   3.040
 2490SOL     OW 8368   6.751   4.686   1.589
 2490SOL    HW1 8369   6.830   4.655   1.536
 2490SOL    HW2 8370   6.782   4.749   1.660
 2491SOL     OW 8371   1.988   5.493   0.987
 2491SOL    HW1 8372   1.901   5.453   1.014
 2491SOL    HW2 8373   2.051   5.490   1.064
 2492SOL     OW 8374   4.444   2.354   0.775
 2492SOL    HW1 8375   4.509   2.327   0.846
 2492SOL    HW2 8376   4.476   2.321   0.686
 2493SOL     OW 8377   5.609   0.508   1.830
 2493SOL    HW1 8378   5.526   0.454   1.818
 2493SOL    HW2 8379   5.682   0.450   1.865
 2494SOL     OW 8380   5.587   4.225   2.379
 2494SOL    HW1 8381   5.660   4.182   2.433
 2494SOL    HW2 8382   5.561   4.164   2.304
 2495SOL     OW 8383   5.700   0.390   4.577
 2495SOL    HW1 8384   5.695   0.368   4.480
 2495SOL    HW2 8385   5.767   0.463   4.591
 2496SOL     OW 8386   6.651   3.546   6.088
 2496SOL    HW1 8387   6.654   3.489   6.171
 2496SOL    HW2 8388   6.719   3.513   6.023
 2497SOL     OW 8389   0.352   0.404   0.656
 2497SOL    HW1 8390   0.308   0.380   0.742
 2497SOL    HW2 8391   0.357   0.504   0.648
 2498SOL     OW 8392   2.560   1.667   4.273
 2498SOL    HW1 8393   2.543   1.689   4.369
 2498SOL    HW2 8394   2.637   1.604   4.267
 2499SOL     OW 8395   6.513   2.201   2.365
 2499SOL    HW1 8396   6.576   2.229   2.292
 2499SOL    HW2 8397   6.459   2.123   2.334
 2500SOL     OW 8398   4.298   3.156   6.962
 2500SOL    HW1 8399   4.207   3.130   6.994
 2500SOL    HW2 8400   4.307   3.256   6.965
 2501SOL     OW 8401   5.641   5.208   0.558
 2501SOL    HW1 8402   5.567   5.177   0.498
 2501SOL    HW2 8403   5.681   5.292   0.520
 2502SOL     OW 8404   1.340   5.716   3.483
 2502SOL    HW1 8405   1.265   5.670   3.436
 2502SOL    HW2 8406   1.364   5.665   3.565
 2503SOL     OW 8407   2.802   5.870   3.985
 2503SOL    HW1 8408   2.716   5.864   3.933
 2503SOL    HW2 8409   2.802   5.802   4.058
 2504SOL     OW 8410   4.006   5.507   4.388
 2504SOL    HW1 8411   3.928   5.449   4.409
 2504SOL    HW2 8412   4.047   5.539   4.474
 2505SOL     OW 8413   1.176   6.345   3.009
 2505SOL    HW1 8414   1.132   6.258   2.984
 2505SOL    HW2 8415   1.180   6.352   3.108
 2506SOL     OW 8416   6.758   4.165   4.975
 2506SOL    HW1 8417   6.690   4.231   5.009
 2506SOL    HW2 8418   6.814   4.134   5.051
 2507SOL     OW 8419   1.145   4.273   0.853
 2507SOL    HW1 8420   1.115   4.209   0.782
 2507SOL    HW2 8421   1.230   4.316   0.825
 2508SOL     OW 8422   2.489   1.389   2.363
 2508SOL    HW1 8423   2.527   1.297   2.363
 2508SOL    HW2 8424   2.518   1.437   2.280
 2509SOL     OW 8425   6.636   2.488   1.561
 2509SOL    HW1 8426   6.600   2.482   1.654
 2509SOL    HW2 8427   6.703   2.563   1.556
 2510SOL     OW 8428   3.018   4.509   1.445
 2510SOL    HW1 8429   2.973   4.596   1.428
 2510SOL    HW2 8430   3.053   4.508   1.539
 2511SOL     OW 8431   2.950   2.220   4.387
 2511SOL    HW1 8432   2.942   2.243   4.484
 2511SOL    HW2 8433   2.896   2.285   4.333
 2512SOL     OW 8434   5.296   4.217   5.148
 2512SOL    HW1 8435   5.373   4.236   5.087
 2512SOL    HW2 8436   5.251   4.302   5.173
 2513SOL     OW 8437   1.510   3.909   5.093
 2513SOL    HW1 8438   1.578   3.846   5.131
 2513SOL    HW2 8439   1.444   3.857   5.039
 2514SOL     OW 8440   6.340   3.690   4.570
 2514SOL    HW1 8441   6.321   3.645   4.657
 2514SOL    HW2 8442   6.376   3.623   4.505
 2515SOL     OW 8443   1.686   6.325   0.595
 2515SOL    HW1 8444   1.741   6.330   0.512
 2515SOL    HW2 8445   1.598   6.370   0.581
 2516SOL     OW 8446   6.417   0.747   2.721
 2516SOL    HW1 8447   6.347   0.693   2.676
 2516SOL    HW2 8448   6.375   0.827   2.765
 2517SOL     OW 8449   1.043   5.790   5.657
 2517SOL    HW1 8450   1.140   5.797   5.680
 2517SOL    HW2 8451   1.003   5.881   5.652
 2518SOL     OW 8452   1.189   4.640   0.187
 2518SOL    HW1 8453   1.195   4.546   0.223
 2518SOL    HW2 8454   1.281   4.678   0.180
 2519SOL     OW 8455   4.694   6.844   3.237
 2519SOL    HW1 8456   4.784   6.876   3.268
 2519SOL    HW2 8457   4.703   6.803   3.146
 2520SOL     OW 8458   2.382   2.164   0.283
 2520SOL    HW1 8459   2.391   2.068   0.255
 2520SOL    HW2 8460   2.423   2.223   0.215
 2521SOL     OW 8461   1.264   0.144   4.900
 2521SOL    HW1 8462   1.281   0.072   4.832
 2521SOL    HW2 8463   1.304   0.230   4.868
 2522SOL     OW 8464   0.380   3.843   5.175
 2522SOL    HW1 8465   0.433   3.826   5.093
 2522SOL    HW2 8466   0.340   3.757   5.208
 2523SOL     OW 8467   0.038   2.877   1.612
 2523SOL    HW1 8468   0.066   2.837   1.699
 2523SOL    HW2 8469   6.965   2.857   1.595
 2524SOL     OW 8470   1.437   6.285   4.888
 2524SOL    HW1 8471   1.484   6.371   4.867
 2524SOL    HW2 8472   1.359   6.273   4.827
 2525SOL     OW 8473   0.805   2.374   5.268
 2525SOL    HW1 8474   0.901   2.367   5.240
 2525SOL    HW2 8475   0.760   2.444   5.213
 2526SOL     OW 8476   1.943   3.948   5.885
 2526SOL    HW1 8477   1.938   4.040   5.924
 2526SOL    HW2 8478   1.949   3.954   5.785
 2527SOL     OW 8479   4.882   6.004   4.711
 2527SOL    HW1 8480   4.933   6.024   4.627
 2527SOL    HW2 8481   4.941   5.951   4.773
 2528SOL     OW 8482   5.679   5.076   1.215
 2528SOL    HW1 8483   5.654   5.161   1.169
 2528SOL    HW2 8484   5.621   5.001   1.182
 2529SOL     OW 8485   0.175   6.722   6.054
 2529SOL    HW1 8486   0.167   6.751   6.149
 2529SOL    HW2 8487   0.126   6.785   5.995
 2530SOL     OW 8488   2.581   6.915   5.524
 2530SOL    HW1 8489   2.595   7.001   5.573
 2530SOL    HW2 8490   2.529   6.852   5.582
 2531SOL     OW 8491   4.887   6.013   4.316
 2531SOL    HW1 8492   4.952   6.029   4.389
 2531SOL    HW2 8493   4.794   6.020   4.352
 2532SOL     OW 8494   1.037   0.059   1.163
 2532SOL    HW1 8495   1.029   0.046   1.262
 2532SOL    HW2 8496   1.060   0.154   1.143
 2533SOL     OW 8497   3.182   6.715   3.070
 2533SOL    HW1 8498   3.239   6.769   3.132
 2533SOL    HW2 8499   3.190   6.753   2.977
 2534SOL     OW 8500   3.428   0.286   3.538
 2534SOL    HW1 8501   3.497   0.248   3.600
 2534SOL    HW2 8502   3.430   0.385   3.543
 2535SOL     OW 8503   3.237   2.075   5.563
 2535SOL    HW1 8504   3.161   2.015   5.587
 2535SOL    HW2 8505   3.252   2.141   5.636
 2536SOL     OW 8506   0.631   2.248   4.662
 2536SOL    HW1 8507   0.550   2.264   4.605
 2536SOL    HW2 8508   0.692   2.327   4.656
 2537SOL     OW 8509   3.726   0.467   6.178
 2537SOL    HW1 8510   3.784   0.446   6.256
 2537SOL    HW2 8511   3.703   0.565   6.179
 2538SOL     OW 8512   1.325   4.913   5.152
 2538SOL    HW1 8513   1.321   4.938   5.249
 2538SOL    HW2 8514   1.250   4.850   5.131
 2539SOL     OW 8515   5.144   0.931   5.463
 2539SOL    HW1 8516   5.147   0.926   5.363
 2539SOL    HW2 8517   5.237   0.927   5.499
 2540SOL     OW 8518   3.707   0.992   2.629
 2540SOL    HW1 8519   3.653   0.989   2.713
 2540SOL    HW2 8520   3.646   0.999   2.550
 2541SOL     OW 8521   2.441   6.884   4.883
 2541SOL    HW1 8522   2.460   6.868   4.786
 2541SOL    HW2 8523   2.418   6.797   4.927
 2542SOL     OW 8524   4.599   0.907   5.823
 2542SOL    HW1 8525   4.527   0.964   5.863
 2542SOL    HW2 8526   4.633   0.843   5.891
 2543SOL     OW 8527   1.429   1.410   3.035
 2543SOL    HW1 8528   1.485   1.366   2.965
 2543SOL    HW2 8529   1.335   1.376   3.029
 2544SOL     OW 8530   0.239   6.078   1.127
 2544SOL    HW1 8531   0.318   6.025   1.098
 2544SOL    HW2 8532   0.169   6.075   1.056
 2545SOL     OW 8533   2.134   0.973   1.576
 2545SOL    HW1 8534   2.137   1.018   1.487
 2545SOL    HW2 8535   2.177   1.031   1.645
 2546SOL     OW 8536   6.838   1.399   1.116
 2546SOL    HW1 8537   6.866   1.487   1.155
 2546SOL    HW2 8538   6.910   1.331   1.133
 2547SOL     OW 8539   6.024   4.308   0.731
 2547SOL    HW1 8540   6.111   4.260   0.718
 2547SOL    HW2 8541   6.016   4.380   0.663
 2548SOL     OW 8542   2.456   6.469   5.490
 2548SOL    HW1 8543   2.402   6.395   5.450
 2548SOL    HW2 8544   2.534   6.431   5.539
 2549SOL     OW 8545   1.954   0.992   0.890
 2549SOL    HW1 8546   1.923   0.954   0.977
 2549SOL    HW2 8547   2.000   1.080   0.907
 2550SOL     OW 8548   0.045   0.480   5.929
 2550SOL    HW1 8549   0.068   0.536   5.849
 2550SOL    HW2 8550   0.060   0.383   5.908
 2551SOL     OW 8551   3.629   4.516   0.604
 2551SOL    HW1 8552   3.567   4.535   0.680
 2551SOL    HW2 8553   3.594   4.438   0.552
 2552SOL     OW 8554   2.044   5.982   5.770
 2552SOL    HW1 8555   1.964   5.922   5.761
 2552SOL    HW2 8556   2.015   6.070   5.808
 2553SOL     OW 8557   4.028   3.129   5.986
 2553SOL    HW1 8558   4.020   3.162   5.892
 2553SOL    HW2 8559   4.031   3.029   5.985
 2554SOL     OW 8560   1.943   5.852   0.306
 2554SOL    HW1 8561   1.905   5.900   0.384
 2554SOL    HW2 8562   1.871   5.799   0.260
 2555SOL     OW 8563   6.072   0.191   6.637
 2555SOL    HW1 8564   6.012   0.205   6.715
 2555SOL    HW2 8565   6.047   0.254   6.564
 2556SOL     OW 8566   4.699   5.591   0.355
 2556SOL    HW1 8567   4.693   5.667   0.290
 2556SOL    HW2 8568   4.700   5.627   0.448
 2557SOL     OW 8569   2.659   3.275   6.262
 2557SOL    HW1 8570   2.612   3.355   6.301
 2557SOL    HW2 8571   2.757   3.295   6.255
 2558SOL     OW 8572   4.641   2.636   5.815
 2558SOL    HW1 8573   4.729   2.649   5.769
 2558SOL    HW2 8574   4.633   2.701   5.890
 2559SOL     OW 8575   6.085   4.275   3.724
 2559SOL    HW1 8576   6.080   4.207   3.651
 2559SOL    HW2 8577   5.993   4.298   3.754
 2560SOL     OW 8578   5.684   3.223   4.037
 2560SOL    HW1 8579   5.771   3.197   3.996
 2560SOL    HW2 8580   5.616   3.152   4.020
 2561SOL     OW 8581   2.552   6.485   4.898
 2561SOL    HW1 8582   2.493   6.561   4.926
 2561SOL    HW2 8583   2.646   6.517   4.891
 2562SOL     OW 8584   1.112   5.675   2.219
 2562SOL    HW1 8585   1.038   5.682   2.152
 2562SOL    HW2 8586   1.073   5.671   2.311
 2563SOL     OW 8587   4.024   1.958   0.588
 2563SOL    HW1 8588   3.980   1.899   0.519
 2563SOL    HW2 8589   4.039   2.048   0.549
 2564SOL     OW 8590   1.957   6.195   5.912
 2564SOL    HW1 8591   1.956   6.277   5.969
 2564SOL    HW2 8592   1.863   6.170   5.888
 2565SOL     OW 8593   0.399   0.023   6.856
 2565SOL    HW1 8594   0.332   0.027   6.930
 2565SOL    HW2 8595   0.386   0.101   6.795
 2566SOL     OW 8596   2.354   0.075   1.304
 2566SOL    HW1 8597   2.331   0.119   1.391
 2566SOL    HW2 8598   2.377   7.003   1.320
 2567SOL     OW 8599   0.895   1.661   1.129
 2567SOL    HW1 8600   0.907   1.662   1.030
 2567SOL    HW2 8601   0.799   1.676   1.152
 2568SOL     OW 8602   3.246   6.584   0.214
 2568SOL    HW1 8603   3.204   6.579   0.124
 2568SOL    HW2 8604   3.308   6.662   0.218
 2569SOL     OW 8605   2.733   1.211   1.663
 2569SOL    HW1 8606   2.711   1.266   1.583
 2569SOL    HW2 8607   2.792   1.135   1.637
 2570SOL     OW 8608   5.695   0.048   6.187
 2570SOL    HW1 8609   5.606   0.059   6.231
 2570SOL    HW2 8610   5.766   0.087   6.245
 2571SOL     OW 8611   2.312   4.545   4.951
 2571SOL    HW1 8612   2.258   4.589   5.022
 2571SOL    HW2 8613   2.408   4.544   4.979
 2572SOL     OW 8614   2.393   5.403   0.249
 2572SOL    HW1 8615   2.371   5.312   0.285
 2572SOL    HW2 8616   2.385   5.471   0.322
 2573SOL     OW 8617   6.377   2.210   1.559
 2573SOL    HW1 8618   6.431   2.131   1.527
 2573SOL    HW2 8619   6.397   2.227   1.655
 2574SOL     OW 8620   6.305   4.085   6.904
 2574SOL    HW1 8621   6.287   4.077   7.002
 2574SOL    HW2 8622   6.302   3.994   6.862
 2575SOL     OW 8623   5.584   5.584   0.381
 2575SOL    HW1 8624   5.495   5.619   0.410
 2575SOL    HW2 8625   5.571   5.497   0.334
 2576SOL     OW 8626   3.356   0.190   4.086
 2576SOL    HW1 8627   3.438   0.195   4.143
 2576SOL    HW2 8628   3.313   0.280   4.079
 2577SOL     OW 8629   3.384   0.119   1.748
 2577SOL    HW1 8630   3.374   0.164   1.836
 2577SOL    HW2 8631   3.334   0.032   1.748
 2578SOL     OW 8632   4.862   1.640   3.740
 2578SOL    HW1 8633   4.905   1.580   3.672
 2578SOL    HW2 8634   4.763   1.642   3.724
 2579SOL     OW 8635   1.062   6.312   2.478
 2579SOL    HW1 8636   1.128   6.239   2.498
 2579SOL    HW2 8637   0.995   6.279   2.411
 2580SOL     OW 8638   2.658   2.782   6.379
 2580SOL    HW1 8639   2.730   2.759   6.313
 2580SOL    HW2 8640   2.618   2.870   6.355
 2581SOL     OW 8641   0.651   4.678   0.899
 2581SOL    HW1 8642   0.629   4.607   0.832
 2581SOL    HW2 8643   0.741   4.660   0.938
 2582SOL     OW 8644   0.740   4.864   2.153
 2582SOL    HW1 8645   0.733   4.815   2.067
 2582SOL    HW2 8646   0.814   4.931   2.148
 2583SOL     OW 8647   0.551   0.949   0.358
 2583SOL    HW1 8648   0.517   1.043   0.368
 2583SOL    HW2 8649   0.619   0.931   0.429
 2584SOL     OW 8650   4.164   5.430   0.486
 2584SOL    HW1 8651   4.075   5.438   0.441
 2584SOL    HW2 8652   4.236   5.458   0.423
 2585SOL     OW 8653   5.007   2.189   0.490
 2585SOL    HW1 8654   5.002   2.141   0.578
 2585SOL    HW2 8655   5.060   2.135   0.426
 2586SOL     OW 8656   3.569   1.375   3.789
 2586SOL    HW1 8657   3.518   1.393   3.704
 2586SOL    HW2 8658   3.603   1.462   3.825
 2587SOL     OW 8659   0.383   0.773   3.557
 2587SOL    HW1 8660   0.474   0.755   3.518
 2587SOL    HW2 8661   0.361   0.870   3.545
 2588SOL     OW 8662   4.373   0.664   6.488
 2588SOL    HW1 8663   4.289   0.609   6.487
 2588SOL    HW2 8664   4.410   0.671   6.395
 2589SOL     OW 8665   0.506   6.216   6.252
 2589SOL    HW1 8666   0.507   6.209   6.153
 2589SOL    HW2 8667   0.421   6.177   6.288
 2590SOL     OW 8668   3.750   5.833   0.856
 2590SOL    HW1 8669   3.667   5.855   0.907
 2590SOL    HW2 8670   3.756   5.893   0.776
 2591SOL     OW 8671   6.718   5.766   2.815
 2591SOL    HW1 8672   6.764   5.696   2.870
 2591SOL    HW2 8673   6.781   5.800   2.745
 2592SOL     OW 8674   3.490   5.234   0.463
 2592SOL    HW1 8675   3.482   5.286   0.547
 2592SOL    HW2 8676   3.505   5.296   0.386
 2593SOL     OW 8677   3.327   5.435   0.625
 2593SOL    HW1 8678   3.234   5.401   0.636
 2593SOL    HW2 8679   3.333   5.490   0.541
 2594SOL     OW 8680   1.342   5.312   6.288
 2594SOL    HW1 8681   1.344   5.347   6.194
 2594SOL    HW2 8682   1.259   5.257   6.301
 2595SOL     OW 8683   6.470   1.774   3.964
 2595SOL    HW1 8684   6.398   1.832   3.925
 2595SOL    HW2 8685   6.523   1.733   3.891
 2596SOL     OW 8686   3.126   1.532   1.902
 2596SOL    HW1 8687   3.206   1.592   1.893
 2596SOL    HW2 8688   3.104   1.520   1.999
 2597SOL     OW 8689   1.521   4.721   5.869
 2597SOL    HW1 8690   1.494   4.663   5.792
 2597SOL    HW2 8691   1.513   4.670   5.954
 2598SOL     OW 8692   6.646   1.180   2.994
 2598SOL    HW1 8693   6.652   1.251   3.063
 2598SOL    HW2 8694   6.579   1.206   2.925
 2599SOL     OW 8695   2.421   6.560   1.381
 2599SOL    HW1 8696   2.460   6.532   1.293
 2599SOL    HW2 8697   2.372   6.483   1.422
 2600SOL     OW 8698   5.433   3.203   4.866
 2600SOL    HW1 8699   5.368   3.277   4.885
 2600SOL    HW2 8700   5.519   3.242   4.834
 2601SOL     OW 8701   2.642   1.373   1.465
 2601SOL    HW1 8702   2.573   1.388   1.537
 2601SOL    HW2 8703   2.661   1.460   1.419
 2602SOL     OW 8704   1.123   4.206   4.495
 2602SOL    HW1 8705   1.170   4.118   4.498
 2602SOL    HW2 8706   1.190   4.279   4.482
 2603SOL     OW 8707   2.233   1.050   4.170
 2603SOL    HW1 8708   2.312   1.111   4.178
 2603SOL    HW2 8709   2.179   1.074   4.090
 2604SOL     OW 8710   4.483   1.756   2.681
 2604SOL    HW1 8711   4.390   1.793   2.681
 2604SOL    HW2 8712   4.484   1.669   2.631
 2605SOL     OW 8713   1.900   3.492   2.876
 2605SOL    HW1 8714   1.845   3.419   2.835
 2605SOL    HW2 8715   1.935   3.460   2.964
 2606SOL     OW 8716   5.596   4.568   2.187
 2606SOL    HW1 8717   5.607   4.588   2.090
 2606SOL    HW2 8718   5.544   4.642   2.230
 2607SOL     OW 8719   1.486   1.682   1.051
 2607SOL    HW1 8720   1.418   1.731   0.997
 2607SOL    HW2 8721   1.441   1.610   1.104
 2608SOL     OW 8722   4.757   5.233   1.284
 2608SOL    HW1 8723   4.730   5.144   1.321
 2608SOL    HW2 8724   4.676   5.289   1.268
 2609SOL     OW 8725   6.545   0.859   1.151
 2609SOL    HW1 8726   6.632   0.839   1.196
 2609SOL    HW2 8727   6.471   0.812   1.199
 2610SOL     OW 8728   1.121   4.282   5.008
 2610SOL    HW1 8729   1.091   4.375   5.027
 2610SOL    HW2 8730   1.129   4.231   5.093
 2611SOL     OW 8731   4.382   6.803   1.276
 2611SOL    HW1 8732   4.311   6.841   1.216
 2611SOL    HW2 8733   4.377   6.704   1.273
 2612SOL     OW 8734   6.377   0.148   6.009
 2612SOL    HW1 8735   6.282   0.176   6.023
 2612SOL    HW2 8736   6.404   0.169   5.915
 2613SOL     OW 8737   2.868   6.148   6.359
 2613SOL    HW1 8738   2.881   6.247   6.349
 2613SOL    HW2 8739   2.845   6.128   6.454
 2614SOL     OW 8740   6.708   0.948   5.654
 2614SOL    HW1 8741   6.646   0.998   5.714
 2614SOL    HW2 8742   6.665   0.936   5.564
 2615SOL     OW 8743   6.775   3.157   2.854
 2615SOL    HW1 8744   6.804   3.094   2.782
 2615SOL    HW2 8745   6.778   3.110   2.942
 2616SOL     OW 8746   3.348   2.785   5.884
 2616SOL    HW1 8747   3.248   2.793   5.894
 2616SOL    HW2 8748   3.374   2.689   5.898
 2617SOL     OW 8749   3.964   6.781   0.507
 2617SOL    HW1 8750   4.002   6.742   0.423
 2617SOL    HW2 8751   3.972   6.714   0.581
 2618SOL     OW 8752   6.812   0.474   4.053
 2618SOL    HW1 8753   6.809   0.454   3.955
 2618SOL    HW2 8754   6.752   0.551   4.074
 2619SOL     OW 8755   3.829   1.888   3.183
 2619SOL    HW1 8756   3.754   1.951   3.205
 2619SOL    HW2 8757   3.842   1.885   3.084
 2620SOL     OW 8758   6.772   6.725   3.667
 2620SOL    HW1 8759   6.691   6.776   3.639
 2620SOL    HW2 8760   6.773   6.636   3.622
 2621SOL     OW 8761   0.985   5.299   2.409
 2621SOL    HW1 8762   0.892   5.322   2.379
 2621SOL    HW2 8763   1.029   5.380   2.447
 2622SOL     OW 8764   1.629   3.545   5.370
 2622SOL    HW1 8765   1.562   3.510   5.304
 2622SOL    HW2 8766   1.677   3.468   5.412
 2623SOL     OW 8767   1.098   1.089   5.635
 2623SOL    HW1 8768   1.121   1.034   5.715
 2623SOL    HW2 8769   1.111   1.186   5.655
 2624SOL     OW 8770   6.940   1.133   5.607
 2624SOL    HW1 8771   6.939   1.039   5.642
 2624SOL    HW2 8772   6.885   1.192   5.666
 2625SOL     OW 8773   2.427   3.300   5.445
 2625SOL    HW1 8774   2.364   3.232   5.409
 2625SOL    HW2 8775   2.509   3.255   5.480
 2626SOL     OW 8776   0.387   0.493   5.864
 2626SOL    HW1 8777   0.419   0.480   5.958
 2626SOL    HW2 8778   0.422   0.418   5.807
 2627SOL     OW 8779   0.438   0.985   6.049
 2627SOL    HW1 8780   0.460   0.966   5.953
 2627SOL    HW2 8781   0.510   0.947   6.107
 2628SOL     OW 8782   2.177   4.549   6.074
 2628SOL    HW1 8783   2.222   4.465   6.104
 2628SOL    HW2 8784   2.192   4.561   5.976
 2629SOL     OW 8785   3.458   3.356   2.049
 2629SOL    HW1 8786   3.551   3.351   2.085
 2629SOL    HW2 8787   3.416   3.442   2.079
 2630SOL     OW 8788   3.261   1.976   2.694
 2630SOL    HW1 8789   3.288   2.022   2.610
 2630SOL    HW2 8790   3.169   2.006   2.719
 2631SOL     OW 8791   5.361   0.802   5.984
 2631SOL    HW1 8792   5.290   0.762   5.926
 2631SOL    HW2 8793   5.318   0.853   6.059
 2632SOL     OW 8794   5.236   3.119   6.241
 2632SOL    HW1 8795   5.204   3.049   6.304
 2632SOL    HW2 8796   5.303   3.177   6.288
 2633SOL     OW 8797   0.279   2.534   4.546
 2633SOL    HW1 8798   0.313   2.584   4.625
 2633SOL    HW2 8799   0.261   2.439   4.571
 2634SOL     OW 8800   0.662   4.760   3.536
 2634SOL    HW1 8801   0.724   4.805   3.600
 2634SOL    HW2 8802   0.576   4.738   3.582
 2635SOL     OW 8803   6.669   5.755   5.467
 2635SOL    HW1 8804   6.678   5.666   5.421
 2635SOL    HW2 8805   6.604   5.747   5.542
 2636SOL     OW 8806   3.841   0.542   4.679
 2636SOL    HW1 8807   3.751   0.584   4.694
 2636SOL    HW2 8808   3.909   0.615   4.670
 2637SOL     OW 8809   5.558   1.447   3.225
 2637SOL    HW1 8810   5.475   1.475   3.273
 2637SOL    HW2 8811   5.561   1.347   3.219
 2638SOL     OW 8812   6.890   0.099   3.981
 2638SOL    HW1 8813   6.802   0.115   4.025
 2638SOL    HW2 8814   6.884   0.019   3.921
 2639SOL     OW 8815   0.427   5.915   0.987
 2639SOL    HW1 8816   0.432   5.829   1.037
 2639SOL    HW2 8817   0.416   5.896   0.889
 2640SOL     OW 8818   0.675   5.958   5.454
 2640SOL    HW1 8819   0.623   5.875   5.473
 2640SOL    HW2 8820   0.613   6.034   5.438
 2641SOL     OW 8821   5.895   2.988   2.090
 2641SOL    HW1 8822   5.933   3.023   2.004
 2641SOL    HW2 8823   5.965   2.993   2.162
 2642SOL     OW 8824   5.378   0.034   3.665
 2642SOL    HW1 8825   5.319   0.058   3.587
 2642SOL    HW2 8826   5.399   6.960   3.662
 2643SOL     OW 8827   0.728   3.722   3.571
 2643SOL    HW1 8828   0.755   3.797   3.632
 2643SOL    HW2 8829   0.688   3.648   3.625
 2644SOL     OW 8830   4.887   6.408   5.425
 2644SOL    HW1 8831   4.796   6.371   5.407
 2644SOL    HW2 8832   4.944   6.397   5.343
 2645SOL     OW 8833   3.751   5.701   3.831
 2645SOL    HW1 8834   3.715   5.633   3.896
 2645SOL    HW2 8835   3.718   5.792   3.856
 2646SOL     OW 8836   5.875   1.106   6.868
 2646SOL    HW1 8837   5.920   1.150   6.790
 2646SOL    HW2 8838   5.922   1.133   6.952
 2647SOL     OW 8839   6.393   6.979   2.206
 2647SOL    HW1 8840   6.333   6.902   2.228
 2647SOL    HW2 8841   6.481   6.966   2.253
 2648SOL     OW 8842   0.814   6.983   3.514
 2648SOL    HW1 8843   0.902   6.969   3.561
 2648SOL    HW2 8844   0.827   0.021   3.437
 2649SOL     OW 8845   6.538   3.327   0.144
 2649SOL    HW1 8846   6.472   3.258   0.171
 2649SOL    HW2 8847   6.565   3.312   0.049
 2650SOL     OW 8848   0.929   4.747   3.941
 2650SOL    HW1 8849   1.014   4.696   3.933
 2650SOL    HW2 8850   0.860   4.690   3.986
 2651SOL     OW 8851   2.032   1.558   1.096
 2651SOL    HW1 8852   2.110   1.497   1.105
 2651SOL    HW2 8853   1.948   1.505   1.097
 2652SOL     OW 8854   4.024   3.597   4.915
 2652SOL    HW1 8855   4.065   3.678   4.958
 2652SOL    HW2 8856   3.926   3.613   4.901
 2653SOL     OW 8857   4.714   6.934   5.882
 2653SOL    HW1 8858   4.801   6.927   5.931
 2653SOL    HW2 8859   4.714   6.870   5.805
 2654SOL     OW 8860   4.499   0.221   2.463
 2654SOL    HW1 8861   4.500   0.321   2.473
 2654SOL    HW2 8862   4.593   0.188   2.458
 2655SOL     OW 8863   5.241   6.575   4.241
 2655SOL    HW1 8864   5.268   6.644   4.174
 2655SOL    HW2 8865   5.316   6.511   4.255
 2656SOL     OW 8866   3.573   5.254   4.564
 2656SOL    HW1 8867   3.613   5.173   4.522
 2656SOL    HW2 8868   3.497   5.287   4.508
 2657SOL     OW 8869   0.957   4.343   0.071
 2657SOL    HW1 8870   1.039   4.286   0.074
 2657SOL    HW2 8871   0.906   4.323   7.012
 2658SOL     OW 8872   4.873   4.594   1.006
 2658SOL    HW1 8873   4.905   4.679   1.049
 2658SOL    HW2 8874   4.859   4.525   1.077
 2659SOL     OW 8875   5.109   2.978   4.422
 2659SOL    HW1 8876   5.127   2.962   4.519
 2659SOL    HW2 8877   5.017   3.013   4.409
 2660SOL     OW 8878   1.825   6.752   1.856
 2660SOL    HW1 8879   1.916   6.730   1.893
 2660SOL    HW2 8880   1.823   6.729   1.759
 2661SOL     OW 8881   2.670   6.872   1.774
 2661SOL    HW1 8882   2.648   6.872   1.676
 2661SOL    HW2 8883   2.704   6.783   1.801
 2662SOL     OW 8884   4.073   6.388   5.317
 2662SOL    HW1 8885   4.001   6.435   5.368
 2662SOL    HW2 8886   4.076   6.422   5.223
 2663SOL     OW 8887   3.484   4.260   6.465
 2663SOL    HW1 8888   3.436   4.275   6.551
 2663SOL    HW2 8889   3.441   4.315   6.393
 2664SOL     OW 8890   4.582   3.301   5.523
 2664SOL    HW1 8891   4.674   3.340   5.533
 2664SOL    HW2 8892   4.516   3.375   5.512
 2665SOL     OW 8893   2.662   2.895   5.413
 2665SOL    HW1 8894   2.601   2.913   5.335
 2665SOL    HW2 8895   2.743   2.846   5.380
 2666SOL     OW 8896   6.833   5.025   1.493
 2666SOL    HW1 8897   6.752   4.971   1.471
 2666SOL    HW2 8898   6.809   5.122   1.494
 2667SOL     OW 8899   0.558   5.736   4.348
 2667SOL    HW1 8900   0.502   5.721   4.267
 2667SOL    HW2 8901   0.548   5.658   4.410
 2668SOL     OW 8902   0.316   3.596   4.897
 2668SOL    HW1 8903   0.243   3.579   4.964
 2668SOL    HW2 8904   0.275   3.606   4.806
 2669SOL     OW 8905   3.044   4.690   5.829
 2669SOL    HW1 8906   2.986   4.681   5.910
 2669SOL    HW2 8907   3.012   4.767   5.774
 2670SOL     OW 8908   5.372   3.485   5.611
 2670SOL    HW1 8909   5.335   3.567   5.568
 2670SOL    HW2 8910   5.392   3.503   5.707
 2671SOL     OW 8911   4.429   5.323   6.657
 2671SOL    HW1 8912   4.425   5.224   6.645
 2671SOL    HW2 8913   4.357   5.352   6.720
 2672SOL     OW 8914   2.178   4.958   0.439
 2672SOL    HW1 8915   2.158   4.867   0.404
 2672SOL    HW2 8916   2.098   5.017   0.428
 2673SOL     OW 8917   6.765   1.190   1.962
 2673SOL    HW1 8918   6.832   1.124   1.928
 2673SOL    HW2 8919   6.806   1.243   2.037
 2674SOL     OW 8920   1.509   4.932   3.834
 2674SOL    HW1 8921   1.541   4.896   3.746
 2674SOL    HW2 8922   1.463   4.859   3.885
 2675SOL     OW 8923   6.027   5.224   4.154
 2675SOL    HW1 8924   6.021   5.137   4.203
 2675SOL    HW2 8925   5.938   5.270   4.158
 2676SOL     OW 8926   4.047   2.526   1.214
 2676SOL    HW1 8927   3.978   2.555   1.148
 2676SOL    HW2 8928   4.111   2.463   1.170
 2677SOL     OW 8929   2.603   3.786   0.185
 2677SOL    HW1 8930   2.593   3.875   0.229
 2677SOL    HW2 8931   2.554   3.717   0.238
 2678SOL     OW 8932   0.087   2.245   1.587
 2678SOL    HW1 8933   0.158   2.260   1.517
 2678SOL    HW2 8934   7.021   2.244   1.543
 2679SOL     OW 8935   1.751   4.507   1.697
 2679SOL    HW1 8936   1.655   4.510   1.670
 2679SOL    HW2 8937   1.759   4.518   1.796
 2680SOL     OW 8938   1.260   1.764   0.860
 2680SOL    HW1 8939   1.271   1.860   0.886
 2680SOL    HW2 8940   1.164   1.747   0.837
 2681SOL     OW 8941   1.632   2.189   5.144
 2681SOL    HW1 8942   1.648   2.286   5.163
 2681SOL    HW2 8943   1.601   2.144   5.227
 2682SOL     OW 8944   4.706   4.220   3.364
 2682SOL    HW1 8945   4.732   4.207   3.268
 2682SOL    HW2 8946   4.676   4.315   3.377
 2683SOL     OW 8947   2.859   5.685   1.790
 2683SOL    HW1 8948   2.785   5.742   1.755
 2683SOL    HW2 8949   2.835   5.652   1.882
 2684SOL     OW 8950   4.602   6.070   1.701
 2684SOL    HW1 8951   4.547   6.002   1.749
 2684SOL    HW2 8952   4.542   6.136   1.656
 2685SOL     OW 8953   5.907   6.127   6.109
 2685SOL    HW1 8954   5.940   6.055   6.170
 2685SOL    HW2 8955   5.916   6.216   6.154
 2686SOL     OW 8956   1.872   1.310   5.669
 2686SOL    HW1 8957   1.939   1.383   5.686
 2686SOL    HW2 8958   1.806   1.308   5.743
 2687SOL     OW 8959   5.230   5.142   1.274
 2687SOL    HW1 8960   5.266   5.169   1.363
 2687SOL    HW2 8961   5.283   5.186   1.202
 2688SOL     OW 8962   3.060   3.654   0.556
 2688SOL    HW1 8963   3.003   3.573   0.569
 2688SOL    HW2 8964   3.003   3.731   0.527
 2689SOL     OW 8965   1.107   4.319   3.159
 2689SOL    HW1 8966   1.134   4.222   3.157
 2689SOL    HW2 8967   1.156   4.365   3.233
 2690SOL     OW 8968   3.826   3.164   5.124
 2690SOL    HW1 8969   3.922   3.154   5.150
 2690SOL    HW2 8970   3.809   3.256   5.090
 2691SOL     OW 8971   1.023   5.140   3.766
 2691SOL    HW1 8972   1.055   5.185   3.682
 2691SOL    HW2 8973   1.008   5.210   3.837
 2692SOL     OW 8974   2.644   5.920   3.030
 2692SOL    HW1 8975   2.684   5.963   3.111
 2692SOL    HW2 8976   2.690   5.954   2.948
 2693SOL     OW 8977   2.048   5.160   3.524
 2693SOL    HW1 8978   2.032   5.241   3.581
 2693SOL    HW2 8979   2.130   5.173   3.469
 2694SOL     OW 8980   4.124   6.379   2.818
 2694SOL    HW1 8981   4.167   6.291   2.838
 2694SOL    HW2 8982   4.146   6.407   2.725
 2695SOL     OW 8983   5.895   1.295   1.733
 2695SOL    HW1 8984   5.909   1.377   1.788
 2695SOL    HW2 8985   5.973   1.282   1.672
 2696SOL     OW 8986   3.624   3.081   5.613
 2696SOL    HW1 8987   3.578   2.992   5.611
 2696SOL    HW2 8988   3.555   3.153   5.613
 2697SOL     OW 8989   3.497   1.206   3.344
 2697SOL    HW1 8990   3.499   1.118   3.390
 2697SOL    HW2 8991   3.481   1.192   3.246
 2698SOL     OW 8992   1.998   4.906   0.771
 2698SOL    HW1 8993   1.984   4.999   0.738
 2698SOL    HW2 8994   2.079   4.903   0.829
 2699SOL     OW 8995   2.495   5.449   0.653
 2699SOL    HW1 8996   2.593   5.459   0.670
 2699SOL    HW2 8997   2.443   5.482   0.732
 2700SOL     OW 8998   3.174   3.081   0.086
 2700SOL    HW1 8999   3.185   3.008   0.153
 2700SOL    HW2 9000   3.127   3.046   0.005
 2701SOL     OW 9001   5.273   1.510   5.616
 2701SOL    HW1 9002   5.199   1.511   5.549
 2701SOL    HW2 9003   5.361   1.518   5.569
 2702SOL     OW 9004   0.160   2.908   3.373
 2702SOL    HW1 9005   0.167   2.956   3.460
 2702SOL    HW2 9006   0.206   2.961   3.301
 2703SOL     OW 9007   1.149   0.500   0.787
 2703SOL    HW1 9008   1.243   0.516   0.815
 2703SOL    HW2 9009   1.143   0.504   0.687
 2704SOL     OW 9010   6.653   5.617   1.802
 2704SOL    HW1 9011   6.632   5.538   1.859
 2704SOL    HW2 9012   6.586   5.623   1.728
 2705SOL     OW 9013   0.091   6.299   4.251
 2705SOL    HW1 9014   0.145   6.234   4.304
 2705SOL    HW2 9015   0.060   6.256   4.166
 2706SOL     OW 9016   6.697   5.041   2.638
 2706SOL    HW1 9017   6.781   5.029   2.586
 2706SOL    HW2 9018   6.643   5.115   2.598
 2707SOL     OW 9019   3.864   0.533   4.228
 2707SOL    HW1 9020   3.914   0.457   4.187
 2707SOL    HW2 9021   3.929   0.599   4.267
 2708SOL     OW 9022   0.307   2.711   1.184
 2708SOL    HW1 9023   0.287   2.808   1.200
 2708SOL    HW2 9024   0.243   2.674   1.117
 2709SOL     OW 9025   5.097   0.221   6.964
 2709SOL    HW1 9026   5.036   0.291   7.002
 2709SOL    HW2 9027   5.091   0.138   7.019
 2710SOL     OW 9028   1.083   3.777   4.354
 2710SOL    HW1 9029   1.111   3.768   4.258
 2710SOL    HW2 9030   1.097   3.690   4.401
 2711SOL     OW 9031   2.196   0.512   3.808
 2711SOL    HW1 9032   2.253   0.474   3.881
 2711SOL    HW2 9033   2.249   0.579   3.756
 2712SOL     OW 9034   2.747   4.118   1.667
 2712SOL    HW1 9035   2.744   4.218   1.665
 2712SOL    HW2 9036   2.659   4.081   1.637
 2713SOL     OW 9037   2.129   2.576   5.140
 2713SOL    HW1 9038   2.113   2.524   5.057
 2713SOL    HW2 9039   2.166   2.515   5.211
 2714SOL     OW 9040   3.843   2.828   0.240
 2714SOL    HW1 9041   3.884   2.835   0.331
 2714SOL    HW2 9042   3.838   2.732   0.212
 2715SOL     OW 9043   4.859   2.259   1.144
 2715SOL    HW1 9044   4.761   2.258   1.123
 2715SOL    HW2 9045   4.902   2.336   1.097
 2716SOL     OW 9046   5.743   3.204   2.784
 2716SOL    HW1 9047   5.827   3.250   2.755
 2716SOL    HW2 9048   5.664   3.259   2.758
 2717SOL     OW 9049   0.368   0.392   2.369
 2717SOL    HW1 9050   0.420   0.472   2.399
 2717SOL    HW2 9051   0.270   0.410   2.376
 2718SOL     OW 9052   1.649   1.363   4.813
 2718SOL    HW1 9053   1.569   1.401   4.766
 2718SOL    HW2 9054   1.630   1.355   4.910
 2719SOL     OW 9055   0.399   5.061   1.680
 2719SOL    HW1 9056   0.451   5.146   1.671
 2719SOL    HW2 9057   0.456   4.990   1.721
 2720SOL     OW 9058   2.108   5.893   1.857
 2720SOL    HW1 9059   2.126   5.953   1.935
 2720SOL    HW2 9060   2.173   5.818   1.857
 2721SOL     OW 9061   3.335   6.574   3.454
 2721SOL    HW1 9062   3.251   6.625   3.471
 2721SOL    HW2 9063   3.382   6.558   3.541
 2722SOL     OW 9064   6.469   5.199   0.422
 2722SOL    HW1 9065   6.545   5.214   0.358
 2722SOL    HW2 9066   6.393   5.157   0.374
 2723SOL     OW 9067   1.060   5.999   6.435
 2723SOL    HW1 9068   1.123   6.024   6.508
 2723SOL    HW2 9069   1.075   6.058   6.356
 2724SOL     OW 9070   2.009   6.030   6.989
 2724SOL    HW1 9071   1.943   5.971   6.943
 2724SOL    HW2 9072   2.052   5.980   0.041
 2725SOL     OW 9073   4.882   4.817   4.765
 2725SOL    HW1 9074   4.874   4.719   4.748
 2725SOL    HW2 9075   4.976   4.847   4.749
 2726SOL     OW 9076   6.943   1.824   1.045
 2726SOL    HW1 9077   6.901   1.909   1.014
 2726SOL    HW2 9078   7.010   1.845   1.117
 2727SOL     OW 9079   1.063   4.929   3.513
 2727SOL    HW1 9080   1.089   4.837   3.485
 2727SOL    HW2 9081   0.982   4.924   3.572
 2728SOL     OW 9082   4.418   6.315   5.535
 2728SOL    HW1 9083   4.347   6.385   5.542
 2728SOL    HW2 9084   4.461   6.302   5.624
 2729SOL     OW 9085   6.992   6.249   0.518
 2729SOL    HW1 9086   0.022   6.166   0.503
 2729SOL    HW2 9087   6.903   6.240   0.474
 2730SOL     OW 9088   2.102   5.668   1.544
 2730SOL    HW1 9089   2.138   5.626   1.627
 2730SOL    HW2 9090   2.081   5.596   1.477
 2731SOL     OW 9091   2.971   3.578   3.031
 2731SOL    HW1 9092   2.948   3.662   3.080
 2731SOL    HW2 9093   3.009   3.601   2.942
 2732SOL     OW 9094   5.425   2.648   2.041
 2732SOL    HW1 9095   5.369   2.708   2.098
 2732SOL    HW2 9096   5.416   2.553   2.073
 2733SOL     OW 9097   6.403   1.976   4.377
 2733SOL    HW1 9098   6.479   2.031   4.410
 2733SOL    HW2 9099   6.395   1.893   4.432
 2734SOL     OW 9100   3.516   5.392   0.843
 2734SOL    HW1 9101   3.592   5.455   0.859
 2734SOL    HW2 9102   3.440   5.441   0.801
 2735SOL     OW 9103   1.482   3.713   1.666
 2735SOL    HW1 9104   1.447   3.642   1.604
 2735SOL    HW2 9105   1.575   3.691   1.693
 2736SOL     OW 9106   5.432   6.337   5.020
 2736SOL    HW1 9107   5.418   6.344   5.119
 2736SOL    HW2 9108   5.522   6.298   5.003
 2737SOL     OW 9109   2.767   3.947   5.600
 2737SOL    HW1 9110   2.797   3.878   5.666
 2737SOL    HW2 9111   2.846   4.002   5.571
 2738SOL     OW 9112   4.792   6.150   1.875
 2738SOL    HW1 9113   4.713   6.165   1.817
 2738SOL    HW2 9114   4.871   6.123   1.819
 2739SOL     OW 9115   1.373   4.752   1.374
 2739SOL    HW1 9116   1.356   4.727   1.279
 2739SOL    HW2 9117   1.441   4.825   1.378
 2740SOL     OW 9118   6.707   4.340   2.039
 2740SOL    HW1 9119   6.747   4.336   1.948
 2740SOL    HW2 9120   6.760   4.282   2.102
 2741SOL     OW 9121   6.641   0.896   4.896
 2741SOL    HW1 9122   6.649   0.991   4.867
 2741SOL    HW2 9123   6.728   0.867   4.937
 2742SOL     OW 9124   2.383   5.107   0.297
 2742SOL    HW1 9125   2.421   5.031   0.243
 2742SOL    HW2 9126   2.305   5.074   0.350
 2743SOL     OW 9127   6.203   4.602   2.280
 2743SOL    HW1 9128   6.243   4.574   2.193
 2743SOL    HW2 9129   6.146   4.683   2.266
 2744SOL     OW 9130   4.149   2.148   0.439
 2744SOL    HW1 9131   4.141   2.140   0.340
 2744SOL    HW2 9132   4.186   2.239   0.462
 2745SOL     OW 9133   6.818   0.590   5.538
 2745SOL    HW1 9134   6.822   0.491   5.525
 2745SOL    HW2 9135   6.750   0.612   5.607
 2746SOL     OW 9136   1.431   2.227   4.729
 2746SOL    HW1 9137   1.402   2.308   4.780
 2746SOL    HW2 9138   1.384   2.146   4.765
 2747SOL     OW 9139   5.248   4.465   6.762
 2747SOL    HW1 9140   5.309   4.538   6.792
 2747SOL    HW2 9141   5.199   4.427   6.840
 2748SOL     OW 9142   4.872   1.229   2.125
 2748SOL    HW1 9143   4.883   1.328   2.137
 2748SOL    HW2 9144   4.956   1.182   2.151
 2749SOL     OW 9145   0.246   4.610   1.467
 2749SOL    HW1 9146   0.278   4.641   1.557
 2749SOL    HW2 9147   0.256   4.684   1.401
 2750SOL     OW 9148   1.013   4.213   1.353
 2750SOL    HW1 9149   0.987   4.128   1.399
 2750SOL    HW2 9150   1.096   4.199   1.299
 2751SOL     OW 9151   1.069   3.588   1.770
 2751SOL    HW1 9152   1.139   3.517   1.779
 2751SOL    HW2 9153   1.009   3.585   1.849
 2752SOL     OW 9154   3.782   5.170   5.431
 2752SOL    HW1 9155   3.871   5.142   5.467
 2752SOL    HW2 9156   3.710   5.140   5.493
 2753SOL     OW 9157   0.599   6.372   5.174
 2753SOL    HW1 9158   0.530   6.435   5.208
 2753SOL    HW2 9159   0.620   6.393   5.078
 2754SOL     OW 9160   0.666   0.705   1.607
 2754SOL    HW1 9161   0.663   0.605   1.598
 2754SOL    HW2 9162   0.583   0.737   1.652
 2755SOL     OW 9163   1.991   0.147   2.733
 2755SOL    HW1 9164   2.085   0.141   2.700
 2755SOL    HW2 9165   1.929   0.111   2.664
 2756SOL     OW 9166   5.824   5.471   0.145
 2756SOL    HW1 9167   5.842   5.373   0.136
 2756SOL    HW2 9168   5.771   5.502   0.066
 2757SOL     OW 9169   2.388   0.317   6.513
 2757SOL    HW1 9170   2.475   0.361   6.488
 2757SOL    HW2 9171   2.363   0.344   6.606
 2758SOL     OW 9172   3.846   6.424   3.863
 2758SOL    HW1 9173   3.747   6.429   3.880
 2758SOL    HW2 9174   3.894   6.411   3.949
 2759SOL     OW 9175   5.455   0.178   5.762
 2759SOL    HW1 9176   5.542   0.224   5.745
 2759SOL    HW2 9177   5.403   0.229   5.831
 2760SOL     OW 9178   0.237   6.018   2.061
 2760SOL    HW1 9179   0.145   5.979   2.073
 2760SOL    HW2 9180   0.305   5.954   2.097
 2761SOL     OW 9181   1.991   5.670   4.918
 2761SOL    HW1 9182   1.925   5.694   4.990
 2761SOL    HW2 9183   1.950   5.604   4.856
 2762SOL     OW 9184   1.335   1.396   4.942
 2762SOL    HW1 9185   1.371   1.429   5.030
 2762SOL    HW2 9186   1.333   1.472   4.877
 2763SOL     OW 9187   4.902   1.695   3.253
 2763SOL    HW1 9188   4.873   1.756   3.180
 2763SOL    HW2 9189   4.904   1.601   3.219
 2764SOL     OW 9190   5.599   0.905   1.146
 2764SOL    HW1 9191   5.564   0.936   1.057
 2764SOL    HW2 9192   5.571   0.810   1.161
 2765SOL     OW 9193   5.839   0.304   1.057
 2765SOL    HW1 9194   5.812   0.399   1.046
 2765SOL    HW2 9195   5.817   0.273   1.150
 2766SOL     OW 9196   5.065   2.837   1.136
 2766SOL    HW1 9197   5.045   2.789   1.051
 2766SOL    HW2 9198   5.036   2.781   1.214
 2767SOL     OW 9199   7.008   5.546   0.069
 2767SOL    HW1 9200   6.955   5.469   0.032
 2767SOL    HW2 9201   0.079   5.519   0.080
 2768SOL     OW 9202   4.195   0.585   1.196
 2768SOL    HW1 9203   4.184   0.678   1.160
 2768SOL    HW2 9204   4.290   0.571   1.222
 2769SOL     OW 9205   2.142   4.503   4.302
 2769SOL    HW1 9206   2.122   4.578   4.240
 2769SOL    HW2 9207   2.241   4.498   4.317
 2770SOL     OW 9208   5.055   6.220   6.021
 2770SOL    HW1 9209   4.995   6.204   6.099
 2770SOL    HW2 9210   5.003   6.207   5.936
 2771SOL     OW 9211   6.915   0.966   4.227
 2771SOL    HW1 9212   6.922   1.029   4.149
 2771SOL    HW2 9213   7.002   0.964   4.275
 2772SOL     OW 9214   4.122   1.277   0.846
 2772SOL    HW1 9215   4.183   1.265   0.767
 2772SOL    HW2 9216   4.031   1.241   0.824
 2773SOL     OW 9217   6.351   1.676   5.345
 2773SOL    HW1 9218   6.379   1.616   5.419
 2773SOL    HW2 9219   6.262   1.716   5.365
 2774SOL     OW 9220   5.482   3.346   2.773
 2774SOL    HW1 9221   5.427   3.341   2.857
 2774SOL    HW2 9222   5.495   3.442   2.748
 2775SOL     OW 9223   6.674   5.101   5.801
 2775SOL    HW1 9224   6.680   5.159   5.882
 2775SOL    HW2 9225   6.582   5.106   5.763
 2776SOL     OW 9226   4.168   5.049   5.709
 2776SOL    HW1 9227   4.084   5.085   5.670
 2776SOL    HW2 9228   4.227   5.014   5.636
 2777SOL     OW 9229   2.973   1.317   2.129
 2777SOL    HW1 9230   2.957   1.318   2.030
 2777SOL    HW2 9231   3.021   1.401   2.156
 2778SOL     OW 9232   1.870   6.939   5.500
 2778SOL    HW1 9233   1.853   6.992   5.583
 2778SOL    HW2 9234   1.782   6.920   5.454
 2779SOL     OW 9235   4.817   6.509   1.359
 2779SOL    HW1 9236   4.870   6.453   1.296
 2779SOL    HW2 9237   4.772   6.584   1.309
 2780SOL     OW 9238   6.350   6.420   6.948
 2780SOL    HW1 9239   6.373   6.460   0.013
 2780SOL    HW2 9240   6.361   6.489   6.876
 2781SOL     OW 9241   5.608   6.595   1.774
 2781SOL    HW1 9242   5.550   6.587   1.693
 2781SOL    HW2 9243   5.559   6.646   1.845
 2782SOL     OW 9244   4.766   1.971   6.321
 2782SOL    HW1 9245   4.747   1.894   6.382
 2782SOL    HW2 9246   4.684   2.027   6.312
 2783SOL     OW 9247   5.234   3.998   3.714
 2783SOL    HW1 9248   5.226   4.096   3.736
 2783SOL    HW2 9249   5.308   3.985   3.649
 2784SOL     OW 9250   3.344   1.600   2.302
 2784SOL    HW1 9251   3.383   1.682   2.261
 2784SOL    HW2 9252   3.410   1.561   2.366
 2785SOL     OW 9253   5.155   1.881   0.644
 2785SOL    HW1 9254   5.177   1.793   0.603
 2785SOL    HW2 9255   5.130   1.868   0.740
 2786SOL     OW 9256   4.842   0.097   2.359
 2786SOL    HW1 9257   4.774   0.044   2.308
 2786SOL    HW2 9258   4.876   0.042   2.436
 2787SOL     OW 9259   4.744   1.370   6.151
 2787SOL    HW1 9260   4.781   1.341   6.239
 2787SOL    HW2 9261   4.808   1.344   6.078
 2788SOL     OW 9262   2.503   5.354   6.160
 2788SOL    HW1 9263   2.485   5.452   6.162
 2788SOL    HW2 9264   2.423   5.306   6.123
 2789SOL     OW 9265   1.503   2.294   3.641
 2789SOL    HW1 9266   1.573   2.224   3.637
 2789SOL    HW2 9267   1.546   2.384   3.654
 2790SOL     OW 9268   3.253   5.541   2.329
 2790SOL    HW1 9269   3.351   5.562   2.323
 2790SOL    HW2 9270   3.241   5.455   2.379
 2791SOL     OW 9271   0.458   2.945   3.710
 2791SOL    HW1 9272   0.521   2.918   3.637
 2791SOL    HW2 9273   0.404   2.865   3.738
 2792SOL     OW 9274   1.895   6.801   3.809
 2792SOL    HW1 9275   1.897   6.828   3.713
 2792SOL    HW2 9276   1.851   6.712   3.817
 2793SOL     OW 9277   5.839   4.208   2.135
 2793SOL    HW1 9278   5.809   4.148   2.061
 2793SOL    HW2 9279   5.774   4.202   2.211
 2794SOL     OW 9280   6.924   2.709   6.497
 2794SOL    HW1 9281   7.010   2.759   6.489
 2794SOL    HW2 9282   6.903   2.664   6.409
 2795SOL     OW 9283   1.353   3.479   0.792
 2795SOL    HW1 9284   1.380   3.383   0.799
 2795SOL    HW2 9285   1.434   3.536   0.777
 2796SOL     OW 9286   6.851   6.265   3.296
 2796SOL    HW1 9287   6.828   6.339   3.359
 2796SOL    HW2 9288   6.925   6.294   3.236
 2797SOL     OW 9289   5.110   5.476   4.215
 2797SOL    HW1 9290   5.090   5.550   4.150
 2797SOL    HW2 9291   5.025   5.448   4.261
 2798SOL     OW 9292   0.310   5.362   1.825
 2798SOL    HW1 9293   0.215   5.386   1.841
 2798SOL    HW2 9294   0.338   5.292   1.891
 2799SOL     OW 9295   6.081   5.513   6.620
 2799SOL    HW1 9296   6.097   5.474   6.711
 2799SOL    HW2 9297   6.023   5.451   6.567
 2800SOL     OW 9298   4.738   6.494   0.277
 2800SOL    HW1 9299   4.645   6.530   0.268
 2800SOL    HW2 9300   4.803   6.567   0.259
 2801SOL     OW 9301   6.725   5.632   6.137
 2801SOL    HW1 9302   6.796   5.639   6.207
 2801SOL    HW2 9303   6.726   5.714   6.080
 2802SOL     OW 9304   4.890   1.001   5.196
 2802SOL    HW1 9305   4.853   1.054   5.273
 2802SOL    HW2 9306   4.845   0.912   5.192
 2803SOL     OW 9307   4.041   5.356   7.003
 2803SOL    HW1 9308   4.105   5.362   0.056
 2803SOL    HW2 9309   4.053   5.268   6.957
 2804SOL     OW 9310   0.424   5.102   5.188
 2804SOL    HW1 9311   0.338   5.073   5.146
 2804SOL    HW2 9312   0.441   5.046   5.269
 2805SOL     OW 9313   5.967   3.089   1.841
 2805SOL    HW1 9314   5.930   3.177   1.810
 2805SOL    HW2 9315   6.065   3.099   1.860
 2806SOL     OW 9316   6.817   4.622   6.215
 2806SOL    HW1 9317   6.834   4.718   6.235
 2806SOL    HW2 9318   6.789   4.575   6.299
 2807SOL     OW 9319   4.395   6.292   4.558
 2807SOL    HW1 9320   4.425   6.201   4.585
 2807SOL    HW2 9321   4.444   6.321   4.476
 2808SOL     OW 9322   5.910   4.778   1.963
 2808SOL    HW1 9323   6.009   4.790   1.969
 2808SOL    HW2 9324   5.877   4.818   1.878
 2809SOL     OW 9325   5.779   2.921   1.060
 2809SOL    HW1 9326   5.794   2.827   1.029
 2809SOL    HW2 9327   5.755   2.978   0.982
 2810SOL     OW 9328   3.533   4.994   3.828
 2810SOL    HW1 9329   3.628   4.985   3.859
 2810SOL    HW2 9330   3.471   4.957   3.897
 2811SOL     OW 9331   1.033   2.018   3.134
 2811SOL    HW1 9332   0.951   2.020   3.077
 2811SOL    HW2 9333   1.010   2.048   3.227
 2812SOL     OW 9334   5.432   4.016   6.739
 2812SOL    HW1 9335   5.442   3.917   6.726
 2812SOL    HW2 9336   5.384   4.055   6.661
 2813SOL     OW 9337   0.214   0.162   6.491
 2813SOL    HW1 9338   0.230   0.071   6.454
 2813SOL    HW2 9339   0.122   0.192   6.468
 2814SOL     OW 9340   3.944   3.819   5.415
 2814SOL    HW1 9341   4.044   3.816   5.407
 2814SOL    HW2 9342   3.908   3.896   5.363
 2815SOL     OW 9343   6.307   0.254   5.391
 2815SOL    HW1 9344   6.376   0.315   5.353
 2815SOL    HW2 9345   6.326   0.238   5.488
 2816SOL     OW 9346   6.537   5.508   3.472
 2816SOL    HW1 9347   6.479   5.590   3.470
 2816SOL    HW2 9348   6.504   5.442   3.404
 2817SOL     OW 9349   3.027   6.656   1.882
 2817SOL    HW1 9350   2.976   6.582   1.839
 2817SOL    HW2 9351   3.125   6.643   1.865
 2818SOL     OW 9352   0.725   0.650   1.044
 2818SOL    HW1 9353   0.825   0.651   1.046
 2818SOL    HW2 9354   0.689   0.699   1.124
 2819SOL     OW 9355   0.594   0.995   1.497
 2819SOL    HW1 9356   0.624   0.934   1.570
 2819SOL    HW2 9357   0.591   0.945   1.411
 2820SOL     OW 9358   0.762   2.762   2.946
 2820SOL    HW1 9359   0.679   2.780   2.997
 2820SOL    HW2 9360   0.743   2.765   2.848
 2821SOL     OW 9361   4.479   3.487   6.711
 2821SOL    HW1 9362   4.575   3.498   6.686
 2821SOL    HW2 9363   4.428   3.567   6.680
 2822SOL     OW 9364   3.744   1.974   0.179
 2822SOL    HW1 9365   3.721   2.051   0.238
 2822SOL    HW2 9366   3.675   1.965   0.107
 2823SOL     OW 9367   4.510   0.499   0.231
 2823SOL    HW1 9368   4.580   0.551   0.182
 2823SOL    HW2 9369   4.428   0.556   0.242
 2824SOL     OW 9370   2.146   1.350   3.652
 2824SOL    HW1 9371   2.220   1.287   3.673
 2824SOL    HW2 9372   2.060   1.314   3.687
 2825SOL     OW 9373   5.853   0.524   6.576
 2825SOL    HW1 9374   5.910   0.558   6.651
 2825SOL    HW2 9375   5.770   0.580   6.570
 2826SOL     OW 9376   4.782   1.066   6.498
 2826SOL    HW1 9377   4.705   1.047   6.559
 2826SOL    HW2 9378   4.866   1.029   6.538
 2827SOL     OW 9379   0.386   1.000   5.439
 2827SOL    HW1 9380   0.434   0.914   5.423
 2827SOL    HW2 9381   0.451   1.076   5.435
 2828SOL     OW 9382   2.232   0.906   0.602
 2828SOL    HW1 9383   2.243   0.926   0.700
 2828SOL    HW2 9384   2.316   0.866   0.567
 2829SOL     OW 9385   3.322   3.538   5.059
 2829SOL    HW1 9386   3.370   3.567   4.976
 2829SOL    HW2 9387   3.362   3.451   5.091
 2830SOL     OW 9388   1.579   2.843   5.617
 2830SOL    HW1 9389   1.567   2.757   5.666
 2830SOL    HW2 9390   1.561   2.829   5.519
 2831SOL     OW 9391   0.840   4.843   3.694
 2831SOL    HW1 9392   0.888   4.790   3.764
 2831SOL    HW2 9393   0.807   4.929   3.734
 2832SOL     OW 9394   1.130   2.985   2.230
 2832SOL    HW1 9395   1.163   3.079   2.221
 2832SOL    HW2 9396   1.158   2.947   2.318
 2833SOL     OW 9397   3.253   2.106   2.447
 2833SOL    HW1 9398   3.242   2.147   2.356
 2833SOL    HW2 9399   3.164   2.101   2.492
 2834SOL     OW 9400   3.881   5.451   6.092
 2834SOL    HW1 9401   3.903   5.466   6.189
 2834SOL    HW2 9402   3.942   5.381   6.054
 2835SOL     OW 9403   0.562   6.654   2.144
 2835SOL    HW1 9404   0.506   6.585   2.190
 2835SOL    HW2 9405   0.537   6.745   2.178
 2836SOL     OW 9406   6.649   0.034   2.271
 2836SOL    HW1 9407   6.650   0.129   2.238
 2836SOL    HW2 9408   6.737   7.015   2.252
 2837SOL     OW 9409   5.195   4.956   2.491
 2837SOL    HW1 9410   5.151   5.012   2.561
 2837SOL    HW2 9411   5.295   4.967   2.496
 2838SOL     OW 9412   2.815   3.944   0.922
 2838SOL    HW1 9413   2.773   3.937   1.012
 2838SOL    HW2 9414   2.789   3.865   0.867
 2839SOL     OW 9415   6.685   2.258   2.794
 2839SOL    HW1 9416   6.753   2.205   2.846
 2839SOL    HW2 9417   6.709   2.355   2.798
 2840SOL     OW 9418   1.250   0.258   3.057
 2840SOL    HW1 9419   1.332   0.219   3.100
 2840SOL    HW2 9420   1.181   0.187   3.046
 2841SOL     OW 9421   0.580   0.905   6.260
 2841SOL    HW1 9422   0.491   0.903   6.307
 2841SOL    HW2 9423   0.645   0.850   6.312
 2842SOL     OW 9424   0.408   4.189   4.017
 2842SOL    HW1 9425   0.313   4.213   3.999
 2842SOL    HW2 9426   0.422   4.175   4.115
 2843SOL     OW 9427   2.481   2.523   2.800
 2843SOL    HW1 9428   2.395   2.474   2.792
 2843SOL    HW2 9429   2.497   2.578   2.717
 2844SOL     OW 9430   6.801   5.093   0.390
 2844SOL    HW1 9431   6.801   5.153   0.310
 2844SOL    HW2 9432   6.853   5.135   0.464
 2845SOL     OW 9433   6.296   2.899   1.209
 2845SOL    HW1 9434   6.242   2.925   1.289
 2845SOL    HW2 9435   6.319   2.802   1.214
 2846SOL     OW 9436   4.040   1.429   0.011
 2846SOL    HW1 9437   3.975   1.505   0.023
 2846SOL    HW2 9438   4.127   1.453   0.054
 2847SOL     OW 9439   5.035   3.357   3.435
 2847SOL    HW1 9440   4.975   3.410   3.495
 2847SOL    HW2 9441   5.095   3.420   3.385
 2848SOL     OW 9442   1.857   2.555   5.139
 2848SOL    HW1 9443   1.942   2.539   5.189
 2848SOL    HW2 9444   1.782   2.504   5.182
 2849SOL     OW 9445   4.344   6.487   0.701
 2849SOL    HW1 9446   4.442   6.469   0.694
 2849SOL    HW2 9447   4.304   6.426   0.768
 2850SOL     OW 9448   1.452   0.142   2.563
 2850SOL    HW1 9449   1.428   0.045   2.551
 2850SOL    HW2 9450   1.391   0.184   2.629
 2851SOL     OW 9451   6.212   1.301   6.085
 2851SOL    HW1 9452   6.236   1.350   6.001
 2851SOL    HW2 9453   6.157   1.361   6.143
 2852SOL     OW 9454   6.083   4.192   6.762
 2852SOL    HW1 9455   6.114   4.214   6.669
 2852SOL    HW2 9456   6.156   4.145   6.811
 2853SOL     OW 9457   1.227   1.259   6.498
 2853SOL    HW1 9458   1.150   1.195   6.500
 2853SOL    HW2 9459   1.288   1.236   6.423
 2854SOL     OW 9460   4.156   1.272   4.839
 2854SOL    HW1 9461   4.211   1.312   4.913
 2854SOL    HW2 9462   4.080   1.219   4.879
 2855SOL     OW 9463   2.334   1.341   6.174
 2855SOL    HW1 9464   2.326   1.385   6.264
 2855SOL    HW2 9465   2.263   1.272   6.164
 2856SOL     OW 9466   0.809   2.920   5.215
 2856SOL    HW1 9467   0.885   2.973   5.177
 2856SOL    HW2 9468   0.841   2.828   5.237
 2857SOL     OW 9469   2.308   2.160   2.618
 2857SOL    HW1 9470   2.391   2.112   2.646
 2857SOL    HW2 9471   2.228   2.112   2.653
 2858SOL     OW 9472   4.729   4.259   2.174
 2858SOL    HW1 9473   4.655   4.254   2.107
 2858SOL    HW2 9474   4.815   4.235   2.130
 2859SOL     OW 9475   5.516   0.846   6.684
 2859SOL    HW1 9476   5.587   0.873   6.749
 2859SOL    HW2 9477   5.488   0.926   6.630
 2860SOL     OW 9478   3.103   1.312   1.660
 2860SOL    HW1 9479   3.076   1.372   1.735
 2860SOL    HW2 9480   3.082   1.356   1.573
 2861SOL     OW 9481   4.259   4.094   5.895
 2861SOL    HW1 9482   4.280   4.052   5.983
 2861SOL    HW2 9483   4.173   4.145   5.903
 2862SOL     OW 9484   6.031   1.569   2.518
 2862SOL    HW1 9485   6.039   1.483   2.468
 2862SOL    HW2 9486   6.065   1.644   2.461
 2863SOL     OW 9487   4.967   1.344   6.768
 2863SOL    HW1 9488   4.958   1.398   6.684
 2863SOL    HW2 9489   4.976   1.247   6.744
 2864SOL     OW 9490   4.312   1.731   1.959
 2864SOL    HW1 9491   4.328   1.633   1.969
 2864SOL    HW2 9492   4.234   1.758   2.016
 2865SOL     OW 9493   4.086   4.769   6.295
 2865SOL    HW1 9494   4.002   4.737   6.340
 2865SOL    HW2 9495   4.118   4.699   6.231
 2866SOL     OW 9496   6.687   5.574   6.822
 2866SOL    HW1 9497   6.762   5.632   6.789
 2866SOL    HW2 9498   6.608   5.631   6.842
 2867SOL     OW 9499   6.985   5.772   3.005
 2867SOL    HW1 9500   7.012   5.868   3.009
 2867SOL    HW2 9501   0.036   5.715   3.039
 2868SOL     OW 9502   0.961   1.456   5.459
 2868SOL    HW1 9503   0.949   1.540   5.512
 2868SOL    HW2 9504   0.943   1.377   5.516
 2869SOL     OW 9505   6.925   1.284   3.747
 2869SOL    HW1 9506   6.864   1.350   3.703
 2869SOL    HW2 9507   7.012   1.327   3.768
 2870SOL     OW 9508   0.456   1.721   4.905
 2870SOL    HW1 9509   0.509   1.704   4.988
 2870SOL    HW2 9510   0.380   1.783   4.927
 2871SOL     OW 9511   0.145   2.013   6.589
 2871SOL    HW1 9512   0.202   2.072   6.645
 2871SOL    HW2 9513   0.199   1.975   6.513
 2872SOL     OW 9514   2.525   2.058   2.783
 2872SOL    HW1 9515   2.592   2.132   2.774
 2872SOL    HW2 9516   2.572   1.970   2.785
 2873SOL     OW 9517   0.083   5.417   2.976
 2873SOL    HW1 9518   7.008   5.401   2.971
 2873SOL    HW2 9519   0.131   5.331   2.994
 2874SOL     OW 9520   4.378   6.456   3.046
 2874SOL    HW1 9521   4.381   6.534   3.109
 2874SOL    HW2 9522   4.398   6.487   2.953
 2875SOL     OW 9523   4.510   6.970   0.655
 2875SOL    HW1 9524   4.436   6.902   0.651
 2875SOL    HW2 9525   4.495   0.008   0.732
 2876SOL     OW 9526   1.568   0.304   2.184
 2876SOL    HW1 9527   1.505   0.255   2.123
 2876SOL    HW2 9528   1.516   0.358   2.250
 2877SOL     OW 9529   2.960   2.483   5.333
 2877SOL    HW1 9530   3.033   2.456   5.270
 2877SOL    HW2 9531   2.980   2.447   5.424
 2878SOL     OW 9532   3.501   4.887   5.241
 2878SOL    HW1 9533   3.433   4.815   5.255
 2878SOL    HW2 9534   3.575   4.875   5.308
 2879SOL     OW 9535   5.388   4.970   0.100
 2879SOL    HW1 9536   5.293   4.981   0.131
 2879SOL    HW2 9537   5.394   4.995   0.004
 2880SOL     OW 9538   6.843   0.959   1.713
 2880SOL    HW1 9539   6.917   0.983   1.777
 2880SOL    HW2 9540   6.814   0.865   1.729
 2881SOL     OW 9541   5.450   6.169   6.691
 2881SOL    HW1 9542   5.480   6.223   6.612
 2881SOL    HW2 9543   5.351   6.176   6.700
 2882SOL     OW 9544   0.737   5.333   2.336
 2882SOL    HW1 9545   0.710   5.236   2.341
 2882SOL    HW2 9546   0.660   5.390   2.366
 2883SOL     OW 9547   5.405   0.173   3.206
 2883SOL    HW1 9548   5.468   0.245   3.178
 2883SOL    HW2 9549   5.453   0.085   3.205
 2884SOL     OW 9550   1.056   0.051   2.446
 2884SOL    HW1 9551   0.978   0.112   2.433
 2884SOL    HW2 9552   1.041   6.990   2.396
 2885SOL     OW 9553   1.089   3.620   3.856
 2885SOL    HW1 9554   1.033   3.619   3.939
 2885SOL    HW2 9555   1.102   3.714   3.824
 2886SOL     OW 9556   1.662   4.184   5.995
 2886SOL    HW1 9557   1.612   4.215   6.076
 2886SOL    HW2 9558   1.760   4.195   6.010
 2887SOL     OW 9559   0.446   0.325   4.946
 2887SOL    HW1 9560   0.363   0.375   4.920
 2887SOL    HW2 9561   0.426   0.263   5.021
 2888SOL     OW 9562   0.556   4.200   0.118
 2888SOL    HW1 9563   0.639   4.179   0.169
 2888SOL    HW2 9564   0.506   4.115   0.100
 2889SOL     OW 9565   2.347   6.062   2.531
 2889SOL    HW1 9566   2.367   5.964   2.526
 2889SOL    HW2 9567   2.352   6.101   2.439
 2890SOL     OW 9568   2.248   5.914   0.728
 2890SOL    HW1 9569   2.216   5.955   0.642
 2890SOL    HW2 9570   2.199   5.829   0.745
 2891SOL     OW 9571   0.997   4.603   3.615
 2891SOL    HW1 9572   0.913   4.656   3.604
 2891SOL    HW2 9573   1.035   4.583   3.525
 2892SOL     OW 9574   5.548   3.010   0.021
 2892SOL    HW1 9575   5.453   3.009   0.050
 2892SOL    HW2 9576   5.578   2.916   0.003
 2893SOL     OW 9577   6.974   6.291   4.682
 2893SOL    HW1 9578   7.014   6.199   4.675
 2893SOL    HW2 9579   6.919   6.309   4.600
 2894SOL     OW 9580   1.206   3.242   2.294
 2894SOL    HW1 9581   1.146   3.252   2.214
 2894SOL    HW2 9582   1.298   3.273   2.271
 2895SOL     OW 9583   5.221   2.620   5.260
 2895SOL    HW1 9584   5.130   2.608   5.219
 2895SOL    HW2 9585   5.265   2.700   5.221
 2896SOL     OW 9586   4.847   5.633   6.180
 2896SOL    HW1 9587   4.787   5.707   6.148
 2896SOL    HW2 9588   4.796   5.547   6.179
 2897SOL     OW 9589   4.361   4.940   3.199
 2897SOL    HW1 9590   4.433   4.938   3.130
 2897SOL    HW2 9591   4.304   4.858   3.191
 2898SOL     OW 9592   4.695   5.012   4.694
 2898SOL    HW1 9593   4.740   4.923   4.702
 2898SOL    HW2 9594   4.607   5.001   4.648
 2899SOL     OW 9595   1.192   1.684   7.002
 2899SOL    HW1 9596   1.268   1.721   0.031
 2899SOL    HW2 9597   1.220   1.598   6.958
 2900SOL     OW 9598   2.185   3.490   5.901
 2900SOL    HW1 9599   2.170   3.588   5.913
 2900SOL    HW2 9600   2.111   3.452   5.845
 2901SOL     OW 9601   2.814   5.090   3.387
 2901SOL    HW1 9602   2.843   5.137   3.304
 2901SOL    HW2 9603   2.860   5.131   3.466
 2902SOL     OW 9604   5.110   6.542   2.979
 2902SOL    HW1 9605   5.179   6.600   2.936
 2902SOL    HW2 9606   5.038   6.521   2.913
 2903SOL     OW 9607   2.979   0.565   0.523
 2903SOL    HW1 9608   3.021   0.649   0.489
 2903SOL    HW2 9609   2.997   0.556   0.621
 2904SOL     OW 9610   2.103   3.926   4.559
 2904SOL    HW1 9611   2.140   3.838   4.587
 2904SOL    HW2 9612   2.118   3.994   4.631
 2905SOL     OW 9613   1.554   2.895   4.728
 2905SOL    HW1 9614   1.651   2.916   4.718
 2905SOL    HW2 9615   1.521   2.844   4.648
 2906SOL     OW 9616   4.181   5.512   1.699
 2906SOL    HW1 9617   4.147   5.605   1.712
 2906SOL    HW2 9618   4.106   5.452   1.670
 2907SOL     OW 9619   0.733   1.441   3.386
 2907SOL    HW1 9620   0.755   1.455   3.289
 2907SOL    HW2 9621   0.735   1.343   3.406
 2908SOL     OW 9622   4.909   6.238   3.660
 2908SOL    HW1 9623   4.926   6.165   3.725
 2908SOL    HW2 9624   4.873   6.200   3.575
 2909SOL     OW 9625   1.525   5.394   3.687
 2909SOL    HW1 9626   1.485   5.485   3.676
 2909SOL    HW2 9627   1.454   5.329   3.712
 2910SOL     OW 9628   4.907   0.267   4.513
 2910SOL    HW1 9629   4.989   0.214   4.490
 2910SOL    HW2 9630   4.895   0.340   4.446
 2911SOL     OW 9631   0.612   5.341   3.673
 2911SOL    HW1 9632   0.609   5.441   3.669
 2911SOL    HW2 9633   0.685   5.308   3.613
 2912SOL     OW 9634   4.586   0.658   7.018
 2912SOL    HW1 9635   4.603   0.576   6.965
 2912SOL    HW2 9636   4.529   0.721   6.965
 2913SOL     OW 9637   2.863   4.735   2.672
 2913SOL    HW1 9638   2.960   4.746   2.655
 2913SOL    HW2 9639   2.829   4.813   2.725
 2914SOL     OW 9640   6.695   6.241   6.751
 2914SOL    HW1 9641   6.778   6.297   6.752
 2914SOL    HW2 9642   6.719   6.146   6.728
 2915SOL     OW 9643   5.173   1.611   3.977
 2915SOL    HW1 9644   5.082   1.648   3.961
 2915SOL    HW2 9645   5.232   1.684   4.013
 2916SOL     OW 9646   1.154   6.612   0.371
 2916SOL    HW1 9647   1.168   6.514   0.387
 2916SOL    HW2 9648   1.228   6.663   0.414
 2917SOL     OW 9649   2.647   0.022   3.568
 2917SOL    HW1 9650   2.615   6.967   3.516
 2917SOL    HW2 9651   2.687   7.015   3.655
 2918SOL     OW 9652   6.268   5.021   5.107
 2918SOL    HW1 9653   6.320   4.942   5.072
 2918SOL    HW2 9654   6.187   5.034   5.051
 2919SOL     OW 9655   6.899   0.974   2.141
 2919SOL    HW1 9656   6.939   0.920   2.215
 2919SOL    HW2 9657   6.826   1.031   2.177
 2920SOL     OW 9658   2.611   1.622   1.736
 2920SOL    HW1 9659   2.654   1.634   1.647
 2920SOL    HW2 9660   2.681   1.600   1.804
 2921SOL     OW 9661   0.800   0.261   4.235
 2921SOL    HW1 9662   0.853   0.342   4.211
 2921SOL    HW2 9663   0.743   0.234   4.157
 2922SOL     OW 9664   5.092   0.897   0.482
 2922SOL    HW1 9665   5.052   0.824   0.536
 2922SOL    HW2 9666   5.183   0.920   0.517
 2923SOL     OW 9667   6.588   5.144   2.306
 2923SOL    HW1 9668   6.639   5.220   2.347
 2923SOL    HW2 9669   6.522   5.180   2.240
 2924SOL     OW 9670   6.737   2.461   5.640
 2924SOL    HW1 9671   6.823   2.503   5.611
 2924SOL    HW2 9672   6.664   2.486   5.576
 2925SOL     OW 9673   4.705   0.872   2.397
 2925SOL    HW1 9674   4.694   0.887   2.299
 2925SOL    HW2 9675   4.616   0.887   2.442
 2926SOL     OW 9676   6.936   1.984   4.143
 2926SOL    HW1 9677   6.838   1.972   4.129
 2926SOL    HW2 9678   6.983   1.897   4.123
 2927SOL     OW 9679   1.322   3.448   1.913
 2927SOL    HW1 9680   1.290   3.495   1.995
 2927SOL    HW2 9681   1.407   3.400   1.932
 2928SOL     OW 9682   0.070   1.707   6.420
 2928SOL    HW1 9683   0.138   1.658   6.475
 2928SOL    HW2 9684   7.019   1.738   6.479
 2929SOL     OW 9685   0.371   2.354   0.074
 2929SOL    HW1 9686   0.421   2.407   0.142
 2929SOL    HW2 9687   0.436   2.318   0.006
 2930SOL     OW 9688   4.276   0.680   4.657
 2930SOL    HW1 9689   4.314   0.671   4.566
 2930SOL    HW2 9690   4.178   0.703   4.650
 2931SOL     OW 9691   5.529   4.889   0.514
 2931SOL    HW1 9692   5.544   4.839   0.429
 2931SOL    HW2 9693   5.486   4.977   0.495
 2932SOL     OW 9694   0.904   5.688   1.404
 2932SOL    HW1 9695   0.842   5.648   1.337
 2932SOL    HW2 9696   0.852   5.741   1.470
 2933SOL     OW 9697   0.210   5.223   3.118
 2933SOL    HW1 9698   0.206   5.123   3.118
 2933SOL    HW2 9699   0.298   5.252   3.080
 2934SOL     OW 9700   4.646   1.249   0.226
 2934SOL    HW1 9701   4.563   1.238   0.171
 2934SOL    HW2 9702   4.691   1.160   0.236
 2935SOL     OW 9703   6.110   3.640   0.255
 2935SOL    HW1 9704   6.158   3.609   0.337
 2935SOL    HW2 9705   6.113   3.740   0.249
 2936SOL     OW 9706   4.091   6.661   0.985
 2936SOL    HW1 9707   4.169   6.691   1.040
 2936SOL    HW2 9708   4.017   6.727   0.993
 2937SOL     OW 9709   5.053   4.411   0.559
 2937SOL    HW1 9710   4.974   4.356   0.532
 2937SOL    HW2 9711   5.021   4.491   0.610
 2938SOL     OW 9712   4.949   4.664   6.501
 2938SOL    HW1 9713   5.011   4.741   6.514
 2938SOL    HW2 9714   5.001   4.585   6.467
 2939SOL     OW 9715   1.284   1.033   2.907
 2939SOL    HW1 9716   1.240   1.122   2.892
 2939SOL    HW2 9717   1.384   1.045   2.906
 2940SOL     OW 9718   5.529   5.303   6.139
 2940SOL    HW1 9719   5.617   5.321   6.184
 2940SOL    HW2 9720   5.455   5.316   6.204
 2941SOL     OW 9721   1.985   2.720   4.573
 2941SOL    HW1 9722   1.928   2.665   4.512
 2941SOL    HW2 9723   2.040   2.660   4.630
 2942SOL     OW 9724   2.900   2.842   0.434
 2942SOL    HW1 9725   2.853   2.882   0.356
 2942SOL    HW2 9726   2.875   2.745   0.441
 2943SOL     OW 9727   4.458   4.530   3.287
 2943SOL    HW1 9728   4.435   4.512   3.191
 2943SOL    HW2 9729   4.422   4.620   3.313
 2944SOL     OW 9730   3.020   5.920   4.636
 2944SOL    HW1 9731   3.075   5.969   4.704
 2944SOL    HW2 9732   2.962   5.985   4.587
 2945SOL     OW 9733   3.599   4.139   3.762
 2945SOL    HW1 9734   3.524   4.143   3.828
 2945SOL    HW2 9735   3.684   4.116   3.809
 2946SOL     OW 9736   1.047   4.922   6.193
 2946SOL    HW1 9737   1.041   4.879   6.103
 2946SOL    HW2 9738   1.143   4.936   6.217
 2947SOL     OW 9739   0.241   3.816   0.866
 2947SOL    HW1 9740   0.218   3.877   0.942
 2947SOL    HW2 9741   0.233   3.866   0.780
 2948SOL     OW 9742   0.948   4.138   5.925
 2948SOL    HW1 9743   1.046   4.119   5.915
 2948SOL    HW2 9744   0.902   4.122   5.838
 2949SOL     OW 9745   3.070   5.217   1.041
 2949SOL    HW1 9746   3.053   5.315   1.049
 2949SOL    HW2 9747   3.149   5.192   1.097
 2950SOL     OW 9748   5.220   4.376   4.198
 2950SOL    HW1 9749   5.173   4.316   4.262
 2950SOL    HW2 9750   5.287   4.323   4.145
 2951SOL     OW 9751   5.630   1.166   0.744
 2951SOL    HW1 9752   5.684   1.242   0.707
 2951SOL    HW2 9753   5.689   1.086   0.758
 2952SOL     OW 9754   0.973   5.065   5.377
 2952SOL    HW1 9755   1.001   4.972   5.353
 2952SOL    HW2 9756   0.909   5.099   5.308
 2953SOL     OW 9757   5.189   2.950   2.269
 2953SOL    HW1 9758   5.240   3.015   2.212
 2953SOL    HW2 9759   5.099   2.987   2.290
 2954SOL     OW 9760   0.563   5.558   1.871
 2954SOL    HW1 9761   0.570   5.503   1.954
 2954SOL    HW2 9762   0.643   5.541   1.813
 2955SOL     OW 9763   0.583   4.441   1.657
 2955SOL    HW1 9764   0.490   4.423   1.624
 2955SOL    HW2 9765   0.645   4.372   1.619
 2956SOL     OW 9766   5.533   6.564   3.486
 2956SOL    HW1 9767   5.567   6.521   3.569
 2956SOL    HW2 9768   5.589   6.536   3.408
 2957SOL     OW 9769   6.134   2.918   1.436
 2957SOL    HW1 9770   6.045   2.914   1.391
 2957SOL    HW2 9771   6.151   3.011   1.468
 2958SOL     OW 9772   2.034   5.116   3.975
 2958SOL    HW1 9773   2.024   5.030   4.025
 2958SOL    HW2 9774   2.015   5.193   4.036
 2959SOL     OW 9775   4.779   4.374   0.617
 2959SOL    HW1 9776   4.769   4.279   0.586
 2959SOL    HW2 9777   4.793   4.375   0.716
 2960SOL     OW 9778   2.875   0.600   6.913
 2960SOL    HW1 9779   2.887   0.628   6.818
 2960SOL    HW2 9780   2.943   0.531   6.936
 2961SOL     OW 9781   4.938   3.610   2.745
 2961SOL    HW1 9782   4.920   3.641   2.652
 2961SOL    HW2 9783   4.928   3.686   2.808
 2962SOL     OW 9784   4.625   0.422   3.284
 2962SOL    HW1 9785   4.557   0.448   3.352
 2962SOL    HW2 9786   4.638   0.323   3.284
 2963SOL     OW 9787   2.232   0.327   6.295
 2963SOL    HW1 9788   2.275   0.305   6.382
 2963SOL    HW2 9789   2.136   0.351   6.311
 2964SOL     OW 9790   0.772   0.539   3.218
 2964SOL    HW1 9791   0.862   0.555   3.260
 2964SOL    HW2 9792   0.776   0.560   3.121
 2965SOL     OW 9793   6.697   2.001   4.465
 2965SOL    HW1 9794   6.739   1.933   4.406
 2965SOL    HW2 9795   6.670   1.959   4.552
 2966SOL     OW 9796   5.314   6.370   3.922
 2966SOL    HW1 9797   5.256   6.450   3.937
 2966SOL    HW2 9798   5.406   6.401   3.896
 2967SOL     OW 9799   6.581   0.476   4.907
 2967SOL    HW1 9800   6.650   0.490   4.836
 2967SOL    HW2 9801   6.517   0.553   4.907
 2968SOL     OW 9802   0.994   3.116   6.503
 2968SOL    HW1 9803   1.073   3.125   6.564
 2968SOL    HW2 9804   0.990   3.195   6.442
 2969SOL     OW 9805   4.917   1.130   3.959
 2969SOL    HW1 9806   4.978   1.180   4.021
 2969SOL    HW2 9807   4.927   1.166   3.866
 2970SOL     OW 9808   1.761   4.728   6.027
 2970SOL    HW1 9809   1.809   4.641   6.019
 2970SOL    HW2 9810   1.705   4.743   5.945
 2971SOL     OW 9811   4.782   4.115   0.490
 2971SOL    HW1 9812   4.804   4.102   0.394
 2971SOL    HW2 9813   4.808   4.034   0.542
 2972SOL     OW 9814   6.402   4.896   6.612
 2972SOL    HW1 9815   6.416   4.810   6.661
 2972SOL    HW2 9816   6.323   4.887   6.551
 2973SOL     OW 9817   5.254   6.955   2.843
 2973SOL    HW1 9818   5.289   6.864   2.862
 2973SOL    HW2 9819   5.161   6.964   2.878
 2974SOL     OW 9820   1.000   4.639   2.894
 2974SOL    HW1 9821   0.949   4.690   2.824
 2974SOL    HW2 9822   1.076   4.592   2.851
 2975SOL     OW 9823   5.504   3.619   4.289
 2975SOL    HW1 9824   5.405   3.606   4.281
 2975SOL    HW2 9825   5.549   3.592   4.204
 2976SOL     OW 9826   4.334   2.188   3.265
 2976SOL    HW1 9827   4.291   2.213   3.178
 2976SOL    HW2 9828   4.421   2.141   3.247
 2977SOL     OW 9829   2.736   0.063   2.992
 2977SOL    HW1 9830   2.753   0.143   3.050
 2977SOL    HW2 9831   2.770   0.081   2.899
 2978SOL     OW 9832   4.833   4.401   0.283
 2978SOL    HW1 9833   4.739   4.390   0.315
 2978SOL    HW2 9834   4.868   4.312   0.251
 2979SOL     OW 9835   3.888   0.875   4.218
 2979SOL    HW1 9836   3.964   0.900   4.279
 2979SOL    HW2 9837   3.802   0.883   4.267
 2980SOL     OW 9838   1.280   5.890   4.339
 2980SOL    HW1 9839   1.301   5.876   4.243
 2980SOL    HW2 9840   1.217   5.819   4.370
 2981SOL     OW 9841   1.673   0.986   5.789
 2981SOL    HW1 9842   1.588   0.978   5.841
 2981SOL    HW2 9843   1.682   1.080   5.754
 2982SOL     OW 9844   3.991   4.829   3.017
 2982SOL    HW1 9845   3.985   4.925   3.041
 2982SOL    HW2 9846   4.031   4.819   2.925
 2983SOL     OW 9847   0.926   1.320   2.608
 2983SOL    HW1 9848   0.947   1.417   2.608
 2983SOL    HW2 9849   1.005   1.268   2.574
 2984SOL     OW 9850   5.570   5.642   1.376
 2984SOL    HW1 9851   5.613   5.703   1.310
 2984SOL    HW2 9852   5.511   5.577   1.327
 2985SOL     OW 9853   1.466   2.636   5.840
 2985SOL    HW1 9854   1.520   2.556   5.865
 2985SOL    HW2 9855   1.401   2.612   5.769
 2986SOL     OW 9856   3.065   4.044   4.669
 2986SOL    HW1 9857   3.029   4.001   4.752
 2986SOL    HW2 9858   3.146   4.098   4.692
 2987SOL     OW 9859   6.516   1.456   4.192
 2987SOL    HW1 9860   6.534   1.365   4.231
 2987SOL    HW2 9861   6.423   1.484   4.217
 2988SOL     OW 9862   1.064   6.121   2.896
 2988SOL    HW1 9863   1.153   6.108   2.852
 2988SOL    HW2 9864   0.998   6.057   2.857
 2989SOL     OW 9865   6.274   5.614   6.249
 2989SOL    HW1 9866   6.368   5.599   6.282
 2989SOL    HW2 9867   6.240   5.701   6.284
 2990SOL     OW 9868   3.646   1.986   4.663
 2990SOL    HW1 9869   3.681   1.902   4.705
 2990SOL    HW2 9870   3.615   2.048   4.734
 2991SOL     OW 9871   6.622   4.509   5.768
 2991SOL    HW1 9872   6.628   4.564   5.851
 2991SOL    HW2 9873   6.685   4.545   5.699
 2992SOL     OW 9874   2.965   5.691   4.767
 2992SOL    HW1 9875   2.910   5.631   4.709
 2992SOL    HW2 9876   2.990   5.773   4.717
 2993SOL     OW 9877   0.427   5.079   1.339
 2993SOL    HW1 9878   0.516   5.115   1.311
 2993SOL    HW2 9879   0.417   5.091   1.438
 2994SOL     OW 9880   4.418   6.626   6.955
 2994SOL    HW1 9881   4.444   6.542   7.004
 2994SOL    HW2 9882   4.500   6.677   6.931
 2995SOL     OW 9883   3.005   2.132   5.968
 2995SOL    HW1 9884   3.054   2.059   5.922
 2995SOL    HW2 9885   2.911   2.137   5.932
 2996SOL     OW 9886   1.542   0.799   3.367
 2996SOL    HW1 9887   1.563   0.894   3.347
 2996SOL    HW2 9888   1.467   0.794   3.434
 2997SOL     OW 9889   5.798   0.294   2.807
 2997SOL    HW1 9890   5.735   0.372   2.800
 2997SOL    HW2 9891   5.833   0.288   2.900
 2998SOL     OW 9892   4.215   6.887   4.345
 2998SOL    HW1 9893   4.310   6.857   4.338
 2998SOL    HW2 9894   4.194   6.908   4.441
 2999SOL     OW 9895   3.006   4.844   4.611
 2999SOL    HW1 9896   2.997   4.778   4.537
 2999SOL    HW2 9897   3.082   4.906   4.591
 3000SOL     OW 9898   2.796   3.248   6.767
 3000SOL    HW1 9899   2.766   3.310   6.695
 3000SOL    HW2 9900   2.731   3.173   6.775
 3001SOL     OW 9901   5.385   0.147   6.543
 3001SOL    HW1 9902   5.393   0.245   6.522
 3001SOL    HW2 9903   5.288   0.123   6.553
 3002SOL     OW 9904   3.684   1.265   0.024
 3002SOL    HW1 9905   3.717   1.269   6.953
 3002SOL    HW2 9906   3.739   1.200   0.076
 3003SOL     OW 9907   1.879   6.341   0.381
 3003SOL    HW1 9908   1.975   6.369   0.379
 3003SOL    HW2 9909   1.856   6.295   0.295
 3004SOL     OW 9910   1.240   4.751   2.460
 3004SOL    HW1 9911   1.276   4.801   2.382
 3004SOL    HW2 9912   1.159   4.798   2.495
 3005SOL     OW 9913   3.379   1.803   0.455
 3005SOL    HW1 9914   3.290   1.838   0.484
 3005SOL    HW2 9915   3.369   1.756   0.367
 3006SOL     OW 9916   4.909   1.558   5.523
 3006SOL    HW1 9917   4.979   1.602   5.468
 3006SOL    HW2 9918   4.860   1.627   5.578
 3007SOL     OW 9919   5.944   5.289   1.486
 3007SOL    HW1 9920   5.917   5.196   1.513
 3007SOL    HW2 9921   6.042   5.301   1.505
 3008SOL     OW 9922   4.040   1.909   5.991
 3008SOL    HW1 9923   4.108   1.979   6.013
 3008SOL    HW2 9924   3.956   1.926   6.042
 3009SOL     OW 9925   0.685   1.794   2.666
 3009SOL    HW1 9926   0.662   1.807   2.569
 3009SOL    HW2 9927   0.726   1.879   2.701
 3010SOL     OW 9928   3.657   4.963   3.477
 3010SOL    HW1 9929   3.612   5.053   3.479
 3010SOL    HW2 9930   3.730   4.961   3.545
 3011SOL     OW 9931   6.179   1.732   1.168
 3011SOL    HW1 9932   6.228   1.798   1.111
 3011SOL    HW2 9933   6.215   1.735   1.261
 3012SOL     OW 9934   1.582   3.865   5.991
 3012SOL    HW1 9935   1.628   3.954   5.990
 3012SOL    HW2 9936   1.645   3.795   5.955
 3013SOL     OW 9937   5.632   6.177   4.899
 3013SOL    HW1 9938   5.613   6.251   4.834
 3013SOL    HW2 9939   5.702   6.117   4.860
 3014SOL     OW 9940   4.504   2.483   4.504
 3014SOL    HW1 9941   4.575   2.542   4.466
 3014SOL    HW2 9942   4.440   2.456   4.432
 3015SOL     OW 9943   3.343   1.692   0.857
 3015SOL    HW1 9944   3.321   1.595   0.868
 3015SOL    HW2 9945   3.370   1.709   0.762
 3016SOL     OW 9946   2.104   6.126   3.687
 3016SOL    HW1 9947   2.051   6.139   3.771
 3016SOL    HW2 9948   2.196   6.164   3.701
 3017SOL     OW 9949   6.909   4.730   2.358
 3017SOL    HW1 9950   6.897   4.657   2.425
 3017SOL    HW2 9951   6.874   4.816   2.395
 3018SOL     OW 9952   3.460   6.251   5.922
 3018SOL    HW1 9953   3.541   6.200   5.951
 3018SOL    HW2 9954   3.410   6.198   5.853
 3019SOL     OW 9955   0.557   6.945   6.611
 3019SOL    HW1 9956   0.548   7.003   6.692
 3019SOL    HW2 9957   0.606   6.995   6.540
 3020SOL     OW 9958   4.218   2.991   1.474
 3020SOL    HW1 9959   4.291   3.033   1.528
 3020SOL    HW2 9960   4.245   2.897   1.450
 3021SOL     OW 9961   3.108   6.771   6.535
 3021SOL    HW1 9962   3.151   6.683   6.517
 3021SOL    HW2 9963   3.179   6.838   6.556
 3022SOL     OW 9964   3.422   5.829   4.215
 3022SOL    HW1 9965   3.508   5.801   4.258
 3022SOL    HW2 9966   3.442   5.887   4.136
 3023SOL     OW 9967   4.230   0.695   3.107
 3023SOL    HW1 9968   4.194   0.653   3.190
 3023SOL    HW2 9969   4.234   0.794   3.118
 3024SOL     OW 9970   4.181   6.673   5.000
 3024SOL    HW1 9971   4.132   6.728   5.067
 3024SOL    HW2 9972   4.153   6.577   5.008
 3025SOL     OW 9973   3.158   0.753   0.415
 3025SOL    HW1 9974   3.140   0.787   0.323
 3025SOL    HW2 9975   3.112   0.812   0.482
 3026SOL     OW 9976   1.467   0.387   0.466
 3026SOL    HW1 9977   1.436   0.298   0.499
 3026SOL    HW2 9978   1.400   0.424   0.402
 3027SOL     OW 9979   3.946   0.432   3.199
 3027SOL    HW1 9980   3.896   0.401   3.279
 3027SOL    HW2 9981   4.014   0.501   3.226
 3028SOL     OW 9982   1.319   3.901   5.324
 3028SOL    HW1 9983   1.278   3.824   5.371
 3028SOL    HW2 9984   1.383   3.868   5.255
 3029SOL     OW 9985   0.068   2.874   5.229
 3029SOL    HW1 9986   0.126   2.907   5.154
 3029SOL    HW2 9987   0.061   2.945   5.299
 3030SOL     OW 9988   0.364   3.365   6.511
 3030SOL    HW1 9989   0.414   3.451   6.512
 3030SOL    HW2 9990   0.326   3.350   6.420
 3031SOL     OW 9991   0.422   4.156   0.469
 3031SOL    HW1 9992   0.410   4.073   0.414
 3031SOL    HW2 9993   0.509   4.199   0.447
 3032SOL     OW 9994   3.404   7.006   1.381
 3032SOL    HW1 9995   3.375   6.965   1.294
 3032SOL    HW2 9996   3.499   0.013   1.374
 3033SOL     OW 9997   6.009   1.950   1.629
 3033SOL    HW1 9998   5.910   1.939   1.619
 3033SOL    HW2 9999   6.046   1.872   1.680
 3034SOL     OW10000   1.506   5.875   2.912
 3034SOL    HW110001   1.413   5.892   2.945
 3034SOL    HW210002   1.564   5.851   2.989
 3035SOL     OW10003   0.223   3.087   6.564
 3035SOL    HW110004   0.257   3.177   6.536
 3035SOL    HW210005   0.275   3.055   6.644
 3036SOL     OW10006   1.577   1.233   6.537
 3036SOL    HW110007   1.580   1.201   6.632
 3036SOL    HW210008   1.660   1.204   6.489
 3037SOL     OW10009   6.001   5.289   5.607
 3037SOL    HW110010   6.084   5.345   5.600
 3037SOL    HW210011   6.027   5.193   5.617
 3038SOL     OW10012   5.661   6.429   6.264
 3038SOL    HW110013   5.621   6.338   6.258
 3038SOL    HW210014   5.606   6.493   6.211
 3039SOL     OW10015   6.870   4.001   0.642
 3039SOL    HW110016   6.865   3.943   0.723
 3039SOL    HW210017   6.868   3.943   0.560
 3040SOL     OW10018   3.786   3.354   5.993
 3040SOL    HW110019   3.814   3.409   5.914
 3040SOL    HW210020   3.686   3.357   6.002
 3041SOL     OW10021   2.274   2.857   4.249
 3041SOL    HW110022   2.197   2.827   4.194
 3041SOL    HW210023   2.244   2.926   4.314
 3042SOL     OW10024   4.504   6.088   2.029
 3042SOL    HW110025   4.514   5.998   1.987
 3042SOL    HW210026   4.593   6.117   2.065
 3043SOL     OW10027   2.449   4.815   1.717
 3043SOL    HW110028   2.547   4.803   1.736
 3043SOL    HW210029   2.434   4.905   1.675
 3044SOL     OW10030   3.850   3.849   5.908
 3044SOL    HW110031   3.774   3.788   5.931
 3044SOL    HW210032   3.854   3.924   5.973
 3045SOL     OW10033   4.964   0.698   3.004
 3045SOL    HW110034   4.930   0.719   2.912
 3045SOL    HW210035   4.893   0.649   3.055
 3046SOL     OW10036   2.035   0.655   6.325
 3046SOL    HW110037   2.052   0.725   6.255
 3046SOL    HW210038   2.011   0.569   6.281
 3047SOL     OW10039   6.122   0.592   1.898
 3047SOL    HW110040   6.060   0.530   1.946
 3047SOL    HW210041   6.156   0.548   1.815
 3048SOL     OW10042   3.978   2.294   1.832
 3048SOL    HW110043   3.881   2.319   1.826
 3048SOL    HW210044   4.035   2.373   1.811
 3049SOL     OW10045   1.466   6.664   2.398
 3049SOL    HW110046   1.492   6.606   2.476
 3049SOL    HW210047   1.458   6.759   2.428
 3050SOL     OW10048   3.259   1.236   1.907
 3050SOL    HW110049   3.214   1.298   1.843
 3050SOL    HW210050   3.190   1.184   1.957
 3051SOL     OW10051   2.295   4.035   7.023
 3051SOL    HW110052   2.207   4.082   0.009
 3051SOL    HW210053   2.278   3.939   6.998
 3052SOL     OW10054   5.404   6.957   1.746
 3052SOL    HW110055   5.327   7.015   1.773
 3052SOL    HW210056   5.370   6.870   1.711
 3053SOL     OW10057   7.012   1.595   6.818
 3053SOL    HW110058   7.021   1.690   6.848
 3053SOL    HW210059   6.985   1.592   6.722
 3054SOL     OW10060   6.623   2.063   0.464
 3054SOL    HW110061   6.523   2.062   0.458
 3054SOL    HW210062   6.659   1.975   0.435
 3055SOL     OW10063   5.300   0.283   4.191
 3055SOL    HW110064   5.385   0.270   4.141
 3055SOL    HW210065   5.240   0.344   4.140
 3056SOL     OW10066   6.194   0.440   4.666
 3056SOL    HW110067   6.234   0.349   4.675
 3056SOL    HW210068   6.265   0.509   4.678
 3057SOL     OW10069   4.027   5.966   2.736
 3057SOL    HW110070   3.943   5.937   2.782
 3057SOL    HW210071   4.079   6.027   2.796
 3058SOL     OW10072   0.299   4.825   1.289
 3058SOL    HW110073   0.224   4.832   1.223
 3058SOL    HW210074   0.336   4.917   1.306
 3059SOL     OW10075   2.209   2.468   4.346
 3059SOL    HW110076   2.284   2.506   4.400
 3059SOL    HW210077   2.192   2.526   4.266
 3060SOL     OW10078   0.800   5.908   0.229
 3060SOL    HW110079   0.886   5.859   0.245
 3060SOL    HW210080   0.809   6.002   0.262
 3061SOL     OW10081   0.004   0.084   5.071
 3061SOL    HW110082   0.068   0.007   5.067
 3061SOL    HW210083   7.019   0.124   4.979
 3062SOL     OW10084   2.050   0.211   0.414
 3062SOL    HW110085   2.130   0.238   0.467
 3062SOL    HW210086   1.993   0.149   0.470
 3063SOL     OW10087   2.678   5.053   1.905
 3063SOL    HW110088   2.701   4.959   1.880
 3063SOL    HW210089   2.593   5.080   1.860
 3064SOL     OW10090   5.938   4.067   2.857
 3064SOL    HW110091   5.976   4.146   2.904
 3064SOL    HW210092   5.984   4.055   2.769
 3065SOL     OW10093   2.451   0.825   0.484
 3065SOL    HW110094   2.402   0.804   0.398
 3065SOL    HW210095   2.532   0.767   0.490
 3066SOL     OW10096   5.176   5.210   0.836
 3066SOL    HW110097   5.237   5.269   0.890
 3066SOL    HW210098   5.207   5.116   0.841
 3067SOL     OW10099   3.505   2.292   5.330
 3067SOL    HW110100   3.549   2.237   5.401
 3067SOL    HW210101   3.430   2.239   5.288
 3068SOL     OW10102   6.332   0.087   1.164
 3068SOL    HW110103   6.336   7.014   1.187
 3068SOL    HW210104   6.425   0.121   1.148
 3069SOL     OW10105   6.514   6.510   1.622
 3069SOL    HW110106   6.575   6.561   1.682
 3069SOL    HW210107   6.449   6.572   1.579
 3070SOL     OW10108   1.953   1.444   0.737
 3070SOL    HW110109   1.951   1.527   0.792
 3070SOL    HW210110   1.963   1.364   0.796
 3071SOL     OW10111   5.667   6.404   3.201
 3071SOL    HW110112   5.723   6.454   3.267
 3071SOL    HW210113   5.708   6.315   3.183
 3072SOL     OW10114   1.855   6.207   0.140
 3072SOL    HW110115   1.762   6.171   0.130
 3072SOL    HW210116   1.917   6.155   0.082
 3073SOL     OW10117   6.085   3.284   4.016
 3073SOL    HW110118   6.125   3.223   4.085
 3073SOL    HW210119   6.026   3.351   4.062
 3074SOL     OW10120   6.097   3.933   1.324
 3074SOL    HW110121   6.150   3.997   1.379
 3074SOL    HW210122   6.115   3.950   1.227
 3075SOL     OW10123   2.805   6.156   1.800
 3075SOL    HW110124   2.741   6.192   1.868
 3075SOL    HW210125   2.795   6.206   1.714
 3076SOL     OW10126   6.743   0.492   4.705
 3076SOL    HW110127   6.831   0.447   4.723
 3076SOL    HW210128   6.757   0.566   4.640
 3077SOL     OW10129   5.026   6.005   2.356
 3077SOL    HW110130   4.993   5.924   2.406
 3077SOL    HW210131   4.952   6.071   2.349
 3078SOL     OW10132   0.183   2.670   2.484
 3078SOL    HW110133   0.245   2.593   2.466
 3078SOL    HW210134   0.106   2.639   2.539
 3079SOL     OW10135   2.318   2.801   3.352
 3079SOL    HW110136   2.372   2.879   3.322
 3079SOL    HW210137   2.378   2.721   3.361
 3080SOL     OW10138   4.790   4.123   2.825
 3080SOL    HW110139   4.822   4.062   2.753
 3080SOL    HW210140   4.862   4.187   2.850
 3081SOL     OW10141   0.567   2.689   5.702
 3081SOL    HW110142   0.571   2.590   5.714
 3081SOL    HW210143   0.521   2.731   5.780
 3082SOL     OW10144   2.896   6.126   4.029
 3082SOL    HW110145   2.862   6.034   4.010
 3082SOL    HW210146   2.822   6.181   4.069
 3083SOL     OW10147   3.292   5.809   3.725
 3083SOL    HW110148   3.195   5.798   3.743
 3083SOL    HW210149   3.306   5.884   3.660
 3084SOL     OW10150   6.536   4.112   4.746
 3084SOL    HW110151   6.607   4.151   4.806
 3084SOL    HW210152   6.548   4.012   4.742
 3085SOL     OW10153   6.166   4.257   1.226
 3085SOL    HW110154   6.246   4.317   1.219
 3085SOL    HW210155   6.084   4.309   1.205
 3086SOL     OW10156   4.475   1.220   1.124
 3086SOL    HW110157   4.574   1.223   1.107
 3086SOL    HW210158   4.448   1.299   1.180
 3087SOL     OW10159   0.515   5.234   3.932
 3087SOL    HW110160   0.529   5.268   3.839
 3087SOL    HW210161   0.528   5.309   3.997
 3088SOL     OW10162   2.205   4.851   4.925
 3088SOL    HW110163   2.272   4.919   4.954
 3088SOL    HW210164   2.186   4.789   5.001
 3089SOL     OW10165   1.126   3.369   6.739
 3089SOL    HW110166   1.146   3.272   6.729
 3089SOL    HW210167   1.110   3.409   6.648
 3090SOL     OW10168   2.424   2.208   2.062
 3090SOL    HW110169   2.349   2.274   2.055
 3090SOL    HW210170   2.499   2.247   2.114
 3091SOL     OW10171   1.472   0.919   0.991
 3091SOL    HW110172   1.418   0.996   1.024
 3091SOL    HW210173   1.553   0.952   0.944
 3092SOL     OW10174   4.792   0.806   0.070
 3092SOL    HW110175   4.708   0.787   0.019
 3092SOL    HW210176   4.805   0.737   0.141
 3093SOL     OW10177   5.827   6.706   5.683
 3093SOL    HW110178   5.737   6.701   5.639
 3093SOL    HW210179   5.821   6.674   5.777
 3094SOL     OW10180   1.784   6.545   4.276
 3094SOL    HW110181   1.837   6.579   4.354
 3094SOL    HW210182   1.688   6.538   4.301
 3095SOL     OW10183   1.989   4.875   5.421
 3095SOL    HW110184   2.048   4.795   5.431
 3095SOL    HW210185   1.981   4.922   5.508
 3096SOL     OW10186   1.611   5.637   5.426
 3096SOL    HW110187   1.707   5.612   5.441
 3096SOL    HW210188   1.589   5.630   5.329
 3097SOL     OW10189   6.263   1.948   0.132
 3097SOL    HW110190   6.181   1.922   0.081
 3097SOL    HW210191   6.249   2.037   0.176
 3098SOL     OW10192   2.546   3.185   0.938
 3098SOL    HW110193   2.555   3.227   1.029
 3098SOL    HW210194   2.465   3.127   0.936
 3099SOL     OW10195   0.739   7.016   3.069
 3099SOL    HW110196   0.730   6.921   3.042
 3099SOL    HW210197   0.697   0.051   2.999
 3100SOL     OW10198   6.396   6.076   4.440
 3100SOL    HW110199   6.323   6.087   4.507
 3100SOL    HW210200   6.458   6.155   4.445
 3101SOL     OW10201   5.448   6.890   6.688
 3101SOL    HW110202   5.487   6.981   6.700
 3101SOL    HW210203   5.457   6.861   6.593
 3102SOL     OW10204   0.055   5.405   1.905
 3102SOL    HW110205   6.998   5.368   1.859
 3102SOL    HW210206   0.029   5.486   1.958
 3103SOL     OW10207   4.295   0.626   2.307
 3103SOL    HW110208   4.349   0.608   2.389
 3103SOL    HW210209   4.211   0.571   2.310
 3104SOL     OW10210   4.925   0.341   4.955
 3104SOL    HW110211   4.877   0.345   4.867
 3104SOL    HW210212   4.870   0.385   5.025
 3105SOL     OW10213   6.295   4.673   1.624
 3105SOL    HW110214   6.212   4.620   1.608
 3105SOL    HW210215   6.373   4.624   1.586
 3106SOL     OW10216   6.664   0.982   3.373
 3106SOL    HW110217   6.744   1.024   3.415
 3106SOL    HW210218   6.681   0.967   3.276
 3107SOL     OW10219   4.410   1.113   4.836
 3107SOL    HW110220   4.364   1.199   4.858
 3107SOL    HW210221   4.342   1.040   4.824
 3108SOL     OW10222   1.043   6.177   4.306
 3108SOL    HW110223   1.066   6.144   4.398
 3108SOL    HW210224   1.009   6.102   4.250
 3109SOL     OW10225   5.692   6.157   2.832
 3109SOL    HW110226   5.726   6.073   2.791
 3109SOL    HW210227   5.615   6.136   2.893
 3110SOL     OW10228   1.681   2.447   2.665
 3110SOL    HW110229   1.704   2.351   2.648
 3110SOL    HW210230   1.687   2.498   2.579
 3111SOL     OW10231   6.459   5.470   3.779
 3111SOL    HW110232   6.489   5.384   3.738
 3111SOL    HW210233   6.362   5.465   3.802
 3112SOL     OW10234   5.218   2.269   6.848
 3112SOL    HW110235   5.313   2.301   6.845
 3112SOL    HW210236   5.164   2.323   6.784
 3113SOL     OW10237   2.779   6.104   3.281
 3113SOL    HW110238   2.809   6.094   3.376
 3113SOL    HW210239   2.857   6.090   3.220
 3114SOL     OW10240   4.189   1.221   1.080
 3114SOL    HW110241   4.288   1.223   1.090
 3114SOL    HW210242   4.164   1.253   0.988
 3115SOL     OW10243   3.760   3.415   6.568
 3115SOL    HW110244   3.839   3.407   6.507
 3115SOL    HW210245   3.676   3.397   6.517
 3116SOL     OW10246   0.857   3.028   6.913
 3116SOL    HW110247   0.770   3.040   6.866
 3116SOL    HW210248   0.897   3.118   6.932
 3117SOL     OW10249   4.476   3.714   5.327
 3117SOL    HW110250   4.467   3.640   5.395
 3117SOL    HW210251   4.541   3.685   5.256
 3118SOL     OW10252   0.837   5.756   2.041
 3118SOL    HW110253   0.810   5.660   2.054
 3118SOL    HW210254   0.892   5.764   1.958
 3119SOL     OW10255   1.903   3.446   5.992
 3119SOL    HW110256   1.892   3.387   5.912
 3119SOL    HW210257   1.854   3.532   5.977
 3120SOL     OW10258   3.087   6.539   4.662
 3120SOL    HW110259   3.031   6.457   4.670
 3120SOL    HW210260   3.051   6.611   4.721
 3121SOL     OW10261   0.478   1.084   3.720
 3121SOL    HW110262   0.390   1.094   3.674
 3121SOL    HW210263   0.470   1.017   3.794
 3122SOL     OW10264   4.066   6.409   5.905
 3122SOL    HW110265   3.976   6.438   5.871
 3122SOL    HW210266   4.138   6.454   5.853
 3123SOL     OW10267   3.096   1.768   3.642
 3123SOL    HW110268   3.119   1.700   3.572
 3123SOL    HW210269   3.174   1.780   3.704
 3124SOL     OW10270   3.791   6.938   4.661
 3124SOL    HW110271   3.850   7.000   4.713
 3124SOL    HW210272   3.772   6.856   4.716
 3125SOL     OW10273   6.609   2.172   4.917
 3125SOL    HW110274   6.524   2.121   4.926
 3125SOL    HW210275   6.678   2.115   4.872
 3126SOL     OW10276   4.963   4.961   5.692
 3126SOL    HW110277   5.029   4.900   5.648
 3126SOL    HW210278   5.007   5.050   5.708
 3127SOL     OW10279   1.447   3.308   4.769
 3127SOL    HW110280   1.540   3.339   4.753
 3127SOL    HW210281   1.436   3.284   4.866
 3128SOL     OW10282   2.625   0.590   5.748
 3128SOL    HW110283   2.567   0.509   5.756
 3128SOL    HW210284   2.617   0.645   5.831
 3129SOL     OW10285   6.284   3.555   6.267
 3129SOL    HW110286   6.315   3.584   6.177
 3129SOL    HW210287   6.354   3.576   6.336
 3130SOL     OW10288   1.638   4.296   1.335
 3130SOL    HW110289   1.560   4.293   1.397
 3130SOL    HW210290   1.665   4.391   1.320
 3131SOL     OW10291   0.134   2.167   1.196
 3131SOL    HW110292   0.123   2.068   1.193
 3131SOL    HW210293   0.169   2.194   1.286
 3132SOL     OW10294   4.013   5.236   5.981
 3132SOL    HW110295   4.026   5.150   6.031
 3132SOL    HW210296   4.000   5.216   5.884
 3133SOL     OW10297   3.420   1.835   4.611
 3133SOL    HW110298   3.514   1.865   4.626
 3133SOL    HW210299   3.360   1.915   4.606
 3134SOL     OW10300   4.669   4.138   1.619
 3134SOL    HW110301   4.580   4.097   1.642
 3134SOL    HW210302   4.672   4.232   1.653
 3135SOL     OW10303   4.815   0.657   5.577
 3135SOL    HW110304   4.895   0.639   5.521
 3135SOL    HW210305   4.761   0.730   5.536
 3136SOL     OW10306   5.246   0.809   0.910
 3136SOL    HW110307   5.259   0.812   1.009
 3136SOL    HW210308   5.302   0.879   0.867
 3137SOL     OW10309   6.738   0.691   3.522
 3137SOL    HW110310   6.805   0.689   3.449
 3137SOL    HW210311   6.678   0.771   3.511
 3138SOL     OW10312   6.247   4.184   3.981
 3138SOL    HW110313   6.177   4.224   4.041
 3138SOL    HW210314   6.214   4.183   3.887
 3139SOL     OW10315   5.162   6.842   0.533
 3139SOL    HW110316   5.211   6.804   0.612
 3139SOL    HW210317   5.150   6.771   0.463
 3140SOL     OW10318   6.104   0.393   6.907
 3140SOL    HW110319   6.156   0.388   6.821
 3140SOL    HW210320   6.146   0.461   6.967
 3141SOL     OW10321   6.894   6.085   6.387
 3141SOL    HW110322   6.798   6.063   6.373
 3141SOL    HW210323   6.905   6.183   6.401
 3142SOL     OW10324   3.575   6.786   1.895
 3142SOL    HW110325   3.495   6.807   1.951
 3142SOL    HW210326   3.559   6.703   1.842
 3143SOL     OW10327   6.599   1.792   6.844
 3143SOL    HW110328   6.546   1.794   6.759
 3143SOL    HW210329   6.539   1.813   6.921
 3144SOL     OW10330   4.432   3.997   1.674
 3144SOL    HW110331   4.417   4.065   1.746
 3144SOL    HW210332   4.361   4.006   1.604
 3145SOL     OW10333   2.178   5.937   1.430
 3145SOL    HW110334   2.154   5.996   1.508
 3145SOL    HW210335   2.155   5.843   1.452
 3146SOL     OW10336   1.089   6.863   3.483
 3146SOL    HW110337   1.188   6.874   3.471
 3146SOL    HW210338   1.044   6.873   3.394
 3147SOL     OW10339   3.777   4.768   0.650
 3147SOL    HW110340   3.734   4.835   0.591
 3147SOL    HW210341   3.733   4.679   0.638
 3148SOL     OW10342   5.229   5.952   4.757
 3148SOL    HW110343   5.137   5.919   4.778
 3148SOL    HW210344   5.291   5.930   4.833
 3149SOL     OW10345   2.373   1.112   5.811
 3149SOL    HW110346   2.408   1.167   5.735
 3149SOL    HW210347   2.407   1.149   5.898
 3150SOL     OW10348   5.884   6.173   4.182
 3150SOL    HW110349   5.927   6.152   4.095
 3150SOL    HW210350   5.948   6.152   4.257
 3151SOL     OW10351   5.531   1.295   5.495
 3151SOL    HW110352   5.547   1.385   5.536
 3151SOL    HW210353   5.489   1.307   5.404
 3152SOL     OW10354   1.463   5.785   0.589
 3152SOL    HW110355   1.373   5.745   0.610
 3152SOL    HW210356   1.509   5.730   0.520
 3153SOL     OW10357   5.940   5.125   2.042
 3153SOL    HW110358   5.860   5.145   1.985
 3153SOL    HW210359   5.921   5.044   2.098
 3154SOL     OW10360   5.899   1.023   6.139
 3154SOL    HW110361   5.992   1.004   6.109
 3154SOL    HW210362   5.872   0.956   6.209
 3155SOL     OW10363   6.394   4.226   1.514
 3155SOL    HW110364   6.381   4.268   1.424
 3155SOL    HW210365   6.338   4.143   1.520
 3156SOL     OW10366   3.247   3.014   3.350
 3156SOL    HW110367   3.293   3.070   3.419
 3156SOL    HW210368   3.163   2.976   3.390
 3157SOL     OW10369   2.458   2.271   4.622
 3157SOL    HW110370   2.463   2.369   4.638
 3157SOL    HW210371   2.503   2.248   4.536
 3158SOL     OW10372   4.528   1.014   3.016
 3158SOL    HW110373   4.557   0.936   3.071
 3158SOL    HW210374   4.605   1.077   3.006
 3159SOL     OW10375   5.319   1.485   6.345
 3159SOL    HW110376   5.369   1.443   6.269
 3159SOL    HW210377   5.323   1.584   6.338
 3160SOL     OW10378   0.379   6.339   5.491
 3160SOL    HW110379   0.435   6.359   5.570
 3160SOL    HW210380   0.379   6.240   5.474
 3161SOL     OW10381   1.681   1.534   3.229
 3161SOL    HW110382   1.724   1.604   3.171
 3161SOL    HW210383   1.614   1.577   3.289
 3162SOL     OW10384   1.303   6.418   2.021
 3162SOL    HW110385   1.402   6.428   2.032
 3162SOL    HW210386   1.258   6.437   2.108
 3163SOL     OW10387   4.339   2.801   6.341
 3163SOL    HW110388   4.324   2.881   6.399
 3163SOL    HW210389   4.340   2.829   6.245
 3164SOL     OW10390   4.626   4.463   1.097
 3164SOL    HW110391   4.550   4.511   1.141
 3164SOL    HW210392   4.609   4.365   1.098
 3165SOL     OW10393   0.799   6.559   1.058
 3165SOL    HW110394   0.873   6.591   0.999
 3165SOL    HW210395   0.814   6.593   1.151
 3166SOL     OW10396   4.364   2.021   4.892
 3166SOL    HW110397   4.461   2.042   4.904
 3166SOL    HW210398   4.323   2.086   4.827
 3167SOL     OW10399   6.703   3.986   1.472
 3167SOL    HW110400   6.783   4.013   1.418
 3167SOL    HW210401   6.640   3.933   1.414
 3168SOL     OW10402   4.255   2.414   6.893
 3168SOL    HW110403   4.305   2.341   6.848
 3168SOL    HW210404   4.159   2.389   6.902
 3169SOL     OW10405   1.341   3.665   5.095
 3169SOL    HW110406   1.306   3.572   5.109
 3169SOL    HW210407   1.347   3.684   4.997
 3170SOL     OW10408   3.801   0.775   1.226
 3170SOL    HW110409   3.839   0.687   1.198
 3170SOL    HW210410   3.838   0.801   1.315
 3171SOL     OW10411   0.729   6.960   1.138
 3171SOL    HW110412   0.788   6.991   1.064
 3171SOL    HW210413   0.652   6.909   1.100
 3172SOL     OW10414   0.292   4.853   0.118
 3172SOL    HW110415   0.256   4.764   0.145
 3172SOL    HW210416   0.266   4.873   0.024
 3173SOL     OW10417   2.641   2.132   0.427
 3173SOL    HW110418   2.572   2.205   0.428
 3173SOL    HW210419   2.651   2.097   0.334
 3174SOL     OW10420   2.825   2.598   6.228
 3174SOL    HW110421   2.912   2.592   6.277
 3174SOL    HW210422   2.841   2.577   6.131
 3175SOL     OW10423   6.774   0.580   0.283
 3175SOL    HW110424   6.694   0.567   0.342
 3175SOL    HW210425   6.796   0.677   0.277
 3176SOL     OW10426   1.255   4.648   4.844
 3176SOL    HW110427   1.158   4.636   4.863
 3176SOL    HW210428   1.283   4.740   4.871
 3177SOL     OW10429   4.785   4.150   4.256
 3177SOL    HW110430   4.753   4.192   4.171
 3177SOL    HW210431   4.723   4.174   4.330
 3178SOL     OW10432   6.108   1.662   0.341
 3178SOL    HW110433   6.181   1.651   0.408
 3178SOL    HW210434   6.041   1.589   0.353
 3179SOL     OW10435   1.819   3.363   2.460
 3179SOL    HW110436   1.776   3.277   2.435
 3179SOL    HW210437   1.767   3.406   2.534
 3180SOL     OW10438   4.301   1.508   0.078
 3180SOL    HW110439   4.336   1.565   0.004
 3180SOL    HW210440   4.360   1.517   0.158
 3181SOL     OW10441   0.518   1.395   2.318
 3181SOL    HW110442   0.587   1.350   2.374
 3181SOL    HW210443   0.562   1.463   2.259
 3182SOL     OW10444   2.500   1.528   4.822
 3182SOL    HW110445   2.455   1.439   4.827
 3182SOL    HW210446   2.468   1.577   4.741
 3183SOL     OW10447   4.211   4.203   1.637
 3183SOL    HW110448   4.115   4.175   1.641
 3183SOL    HW210449   4.252   4.196   1.728
 3184SOL     OW10450   1.390   2.630   2.509
 3184SOL    HW110451   1.297   2.593   2.512
 3184SOL    HW210452   1.423   2.630   2.414
 3185SOL     OW10453   6.414   5.874   0.230
 3185SOL    HW110454   6.420   5.963   0.186
 3185SOL    HW210455   6.477   5.871   0.308
 3186SOL     OW10456   4.087   1.663   2.132
 3186SOL    HW110457   4.003   1.630   2.175
 3186SOL    HW210458   4.102   1.759   2.157
 3187SOL     OW10459   4.550   3.889   0.624
 3187SOL    HW110460   4.548   3.803   0.572
 3187SOL    HW210461   4.506   3.875   0.713
 3188SOL     OW10462   3.553   6.585   4.787
 3188SOL    HW110463   3.527   6.599   4.882
 3188SOL    HW210464   3.476   6.612   4.728
 3189SOL     OW10465   1.638   1.688   1.972
 3189SOL    HW110466   1.641   1.776   1.925
 3189SOL    HW210467   1.635   1.614   1.905
 3190SOL     OW10468   0.031   6.519   0.549
 3190SOL    HW110469   0.006   6.427   0.518
 3190SOL    HW210470   0.077   6.567   0.474
 3191SOL     OW10471   4.506   6.757   0.970
 3191SOL    HW110472   4.555   6.771   0.884
 3191SOL    HW210473   4.413   6.794   0.962
 3192SOL     OW10474   6.945   2.754   0.841
 3192SOL    HW110475   6.933   2.853   0.855
 3192SOL    HW210476   6.862   2.716   0.801
 3193SOL     OW10477   4.098   1.691   6.543
 3193SOL    HW110478   4.176   1.692   6.480
 3193SOL    HW210479   4.131   1.671   6.636
 3194SOL     OW10480   0.551   3.449   5.488
 3194SOL    HW110481   0.607   3.372   5.521
 3194SOL    HW210482   0.509   3.424   5.401
 3195SOL     OW10483   2.565   2.348   3.470
 3195SOL    HW110484   2.574   2.263   3.420
 3195SOL    HW210485   2.527   2.330   3.561
 3196SOL     OW10486   0.815   0.654   5.339
 3196SOL    HW110487   0.880   0.659   5.264
 3196SOL    HW210488   0.862   0.624   5.422
 3197SOL     OW10489   1.657   6.207   3.687
 3197SOL    HW110490   1.715   6.256   3.622
 3197SOL    HW210491   1.568   6.251   3.691
 3198SOL     OW10492   6.150   1.823   5.708
 3198SOL    HW110493   6.119   1.785   5.621
 3198SOL    HW210494   6.157   1.923   5.700
 3199SOL     OW10495   4.795   2.747   2.011
 3199SOL    HW110496   4.782   2.712   2.104
 3199SOL    HW210497   4.749   2.835   2.002
 3200SOL     OW10498   6.960   2.645   1.785
 3200SOL    HW110499   0.005   2.575   1.770
 3200SOL    HW210500   6.950   2.662   1.883
 3201SOL     OW10501   5.044   4.232   4.337
 3201SOL    HW110502   5.059   4.155   4.399
 3201SOL    HW210503   4.969   4.211   4.275
 3202SOL     OW10504   1.168   4.560   1.470
 3202SOL    HW110505   1.183   4.524   1.562
 3202SOL    HW210506   1.242   4.622   1.445
 3203SOL     OW10507   6.299   2.694   6.440
 3203SOL    HW110508   6.393   2.711   6.470
 3203SOL    HW210509   6.240   2.681   6.519
 3204SOL     OW10510   4.863   6.383   1.603
 3204SOL    HW110511   4.837   6.435   1.522
 3204SOL    HW210512   4.810   6.415   1.682
 3205SOL     OW10513   0.093   3.446   6.878
 3205SOL    HW110514   0.106   3.543   6.900
 3205SOL    HW210515   0.038   3.403   6.949
 3206SOL     OW10516   0.287   6.682   5.767
 3206SOL    HW110517   0.300   6.696   5.865
 3206SOL    HW210518   0.189   6.682   5.747
 3207SOL     OW10519   1.011   0.786   5.754
 3207SOL    HW110520   0.941   0.856   5.767
 3207SOL    HW210521   1.100   0.820   5.783
 3208SOL     OW10522   4.817   6.523   5.672
 3208SOL    HW110523   4.907   6.541   5.712
 3208SOL    HW210524   4.827   6.468   5.590
 3209SOL     OW10525   4.070   5.460   3.418
 3209SOL    HW110526   4.104   5.452   3.324
 3209SOL    HW210527   3.978   5.420   3.423
 3210SOL     OW10528   0.456   4.022   1.383
 3210SOL    HW110529   0.363   3.989   1.365
 3210SOL    HW210530   0.513   4.006   1.303
 3211SOL     OW10531   1.530   3.488   1.188
 3211SOL    HW110532   1.446   3.438   1.205
 3211SOL    HW210533   1.609   3.427   1.199
 3212SOL     OW10534   2.956   1.121   0.252
 3212SOL    HW110535   2.945   1.125   0.153
 3212SOL    HW210536   2.940   1.028   0.284
 3213SOL     OW10537   6.370   5.985   2.566
 3213SOL    HW110538   6.334   5.965   2.475
 3213SOL    HW210539   6.323   5.929   2.634
 3214SOL     OW10540   4.745   5.710   0.591
 3214SOL    HW110541   4.840   5.678   0.587
 3214SOL    HW210542   4.710   5.698   0.684
 3215SOL     OW10543   0.594   3.378   0.939
 3215SOL    HW110544   0.601   3.333   1.028
 3215SOL    HW210545   0.561   3.471   0.951
 3216SOL     OW10546   5.708   5.742   1.588
 3216SOL    HW110547   5.784   5.681   1.566
 3216SOL    HW210548   5.633   5.726   1.524
 3217SOL     OW10549   0.198   5.513   2.764
 3217SOL    HW110550   0.190   5.612   2.756
 3217SOL    HW210551   0.152   5.483   2.848
 3218SOL     OW10552   3.916   6.929   4.250
 3218SOL    HW110553   3.937   6.921   4.152
 3218SOL    HW210554   3.994   6.897   4.303
 3219SOL     OW10555   0.320   2.062   3.239
 3219SOL    HW110556   0.259   2.032   3.166
 3219SOL    HW210557   0.332   1.988   3.305
 3220SOL     OW10558   6.717   6.383   5.866
 3220SOL    HW110559   6.782   6.317   5.903
 3220SOL    HW210560   6.662   6.421   5.941
 3221SOL     OW10561   3.236   6.908   1.698
 3221SOL    HW110562   3.140   6.935   1.693
 3221SOL    HW210563   3.257   6.848   1.621
 3222SOL     OW10564   4.236   1.672   2.984
 3222SOL    HW110565   4.286   1.585   2.994
 3222SOL    HW210566   4.170   1.681   3.058
 3223SOL     OW10567   2.401   5.361   6.814
 3223SOL    HW110568   2.416   5.382   6.718
 3223SOL    HW210569   2.488   5.338   6.857
 3224SOL     OW10570   4.653   3.240   6.210
 3224SOL    HW110571   4.712   3.262   6.288
 3224SOL    HW210572   4.565   3.206   6.243
 3225SOL     OW10573   4.413   3.517   5.528
 3225SOL    HW110574   4.314   3.505   5.536
 3225SOL    HW210575   4.452   3.538   5.618
 3226SOL     OW10576   1.312   2.006   4.496
 3226SOL    HW110577   1.298   2.085   4.436
 3226SOL    HW210578   1.245   1.935   4.473
 3227SOL     OW10579   2.767   2.000   6.169
 3227SOL    HW110580   2.769   2.052   6.084
 3227SOL    HW210581   2.728   2.057   6.241
 3228SOL     OW10582   5.682   4.069   2.946
 3228SOL    HW110583   5.780   4.076   2.928
 3228SOL    HW210584   5.639   4.158   2.933
 3229SOL     OW10585   3.204   1.789   5.249
 3229SOL    HW110586   3.149   1.814   5.329
 3229SOL    HW210587   3.164   1.709   5.204
 3230SOL     OW10588   1.349   3.421   4.358
 3230SOL    HW110589   1.344   3.321   4.362
 3230SOL    HW210590   1.374   3.450   4.266
 3231SOL     OW10591   2.567   0.195   1.892
 3231SOL    HW110592   2.469   0.180   1.911
 3231SOL    HW210593   2.577   0.251   1.811
 3232SOL     OW10594   3.847   5.228   4.823
 3232SOL    HW110595   3.896   5.211   4.909
 3232SOL    HW210596   3.779   5.300   4.837
 3233SOL     OW10597   0.822   2.702   1.823
 3233SOL    HW110598   0.852   2.700   1.918
 3233SOL    HW210599   0.811   2.797   1.794
 3234SOL     OW10600   0.047   1.523   0.511
 3234SOL    HW110601   0.042   1.453   0.582
 3234SOL    HW210602   0.110   1.595   0.539
 3235SOL     OW10603   4.899   0.795   1.520
 3235SOL    HW110604   4.911   0.854   1.440
 3235SOL    HW210605   4.985   0.748   1.539
 3236SOL     OW10606   1.228   3.367   0.512
 3236SOL    HW110607   1.325   3.387   0.493
 3236SOL    HW210608   1.175   3.451   0.505
 3237SOL     OW10609   5.463   1.360   3.641
 3237SOL    HW110610   5.380   1.320   3.601
 3237SOL    HW210611   5.480   1.318   3.730
 3238SOL     OW10612   0.159   5.124   0.692
 3238SOL    HW110613   0.149   5.025   0.679
 3238SOL    HW210614   0.246   5.153   0.653
 3239SOL     OW10615   6.262   1.543   0.568
 3239SOL    HW110616   6.252   1.460   0.623
 3239SOL    HW210617   6.356   1.577   0.578
 3240SOL     OW10618   1.287   5.907   5.749
 3240SOL    HW110619   1.316   5.985   5.805
 3240SOL    HW210620   1.363   5.877   5.691
 3241SOL     OW10621   4.764   1.302   4.616
 3241SOL    HW110622   4.841   1.250   4.577
 3241SOL    HW210623   4.800   1.382   4.665
 3242SOL     OW10624   3.175   4.781   1.068
 3242SOL    HW110625   3.176   4.785   1.168
 3242SOL    HW210626   3.228   4.858   1.031
 3243SOL     OW10627   5.350   4.599   0.513
 3243SOL    HW110628   5.356   4.652   0.429
 3243SOL    HW210629   5.271   4.630   0.566
 3244SOL     OW10630   5.173   6.068   0.670
 3244SOL    HW110631   5.113   6.056   0.592
 3244SOL    HW210632   5.181   5.982   0.721
 3245SOL     OW10633   4.837   2.303   5.179
 3245SOL    HW110634   4.936   2.298   5.169
 3245SOL    HW210635   4.805   2.227   5.235
 3246SOL     OW10636   6.197   0.761   3.046
 3246SOL    HW110637   6.245   0.801   2.968
 3246SOL    HW210638   6.142   0.683   3.014
 3247SOL     OW10639   6.163   4.430   3.429
 3247SOL    HW110640   6.181   4.339   3.466
 3247SOL    HW210641   6.249   4.480   3.419
 3248SOL     OW10642   6.470   3.284   1.427
 3248SOL    HW110643   6.502   3.338   1.505
 3248SOL    HW210644   6.456   3.190   1.456
 3249SOL     OW10645   3.439   3.699   4.580
 3249SOL    HW110646   3.408   3.744   4.496
 3249SOL    HW210647   3.467   3.605   4.558
 3250SOL     OW10648   5.051   6.927   2.275
 3250SOL    HW110649   4.986   6.991   2.234
 3250SOL    HW210650   5.049   6.937   2.375
 3251SOL     OW10651   3.789   0.737   2.159
 3251SOL    HW110652   3.829   0.805   2.221
 3251SOL    HW210653   3.756   0.783   2.077
 3252SOL     OW10654   2.660   1.830   2.338
 3252SOL    HW110655   2.617   1.804   2.425
 3252SOL    HW210656   2.624   1.918   2.308
 3253SOL     OW10657   5.975   3.455   2.420
 3253SOL    HW110658   5.911   3.409   2.482
 3253SOL    HW210659   6.068   3.443   2.453
 3254SOL     OW10660   4.800   5.748   5.813
 3254SOL    HW110661   4.876   5.810   5.833
 3254SOL    HW210662   4.816   5.702   5.726
 3255SOL     OW10663   5.043   6.075   1.767
 3255SOL    HW110664   5.082   5.983   1.758
 3255SOL    HW210665   5.046   6.121   1.678
 3256SOL     OW10666   4.855   0.652   0.373
 3256SOL    HW110667   4.872   0.738   0.324
 3256SOL    HW210668   4.903   0.654   0.461
 3257SOL     OW10669   1.511   2.175   1.360
 3257SOL    HW110670   1.589   2.120   1.390
 3257SOL    HW210671   1.430   2.147   1.412
 3258SOL     OW10672   3.860   4.855   1.900
 3258SOL    HW110673   3.766   4.831   1.922
 3258SOL    HW210674   3.902   4.781   1.848
 3259SOL     OW10675   4.543   5.808   3.683
 3259SOL    HW110676   4.535   5.865   3.766
 3259SOL    HW210677   4.535   5.712   3.708
 3260SOL     OW10678   1.726   1.809   1.047
 3260SOL    HW110679   1.742   1.826   0.949
 3260SOL    HW210680   1.635   1.769   1.059
 3261SOL     OW10681   4.685   6.577   0.557
 3261SOL    HW110682   4.779   6.556   0.531
 3261SOL    HW210683   4.638   6.622   0.481
 3262SOL     OW10684   3.483   1.919   2.859
 3262SOL    HW110685   3.418   1.941   2.786
 3262SOL    HW210686   3.546   1.848   2.827
 3263SOL     OW10687   3.382   1.573   4.003
 3263SOL    HW110688   3.357   1.483   4.041
 3263SOL    HW210689   3.481   1.583   4.004
 3264SOL     OW10690   1.404   4.335   1.138
 3264SOL    HW110691   1.341   4.258   1.151
 3264SOL    HW210692   1.497   4.305   1.158
 3265SOL     OW10693   4.671   1.643   5.792
 3265SOL    HW110694   4.695   1.592   5.874
 3265SOL    HW210695   4.749   1.700   5.765
 3266SOL     OW10696   0.564   2.753   0.393
 3266SOL    HW110697   0.617   2.779   0.312
 3266SOL    HW210698   0.611   2.784   0.475
 3267SOL     OW10699   3.961   1.172   0.133
 3267SOL    HW110700   3.999   1.256   0.093
 3267SOL    HW210701   3.986   1.167   0.230
 3268SOL     OW10702   1.642   4.521   0.351
 3268SOL    HW110703   1.593   4.525   0.438
 3268SOL    HW210704   1.668   4.614   0.324
 3269SOL     OW10705   4.484   4.839   1.750
 3269SOL    HW110706   4.437   4.761   1.792
 3269SOL    HW210707   4.582   4.828   1.761
 3270SOL     OW10708   1.365   4.340   5.260
 3270SOL    HW110709   1.284   4.282   5.275
 3270SOL    HW210710   1.411   4.312   5.176
 3271SOL     OW10711   5.468   3.907   2.882
 3271SOL    HW110712   5.557   3.946   2.906
 3271SOL    HW210713   5.400   3.980   2.878
 3272SOL     OW10714   3.515   3.966   6.738
 3272SOL    HW110715   3.563   3.940   6.822
 3272SOL    HW210716   3.492   4.063   6.743
 3273SOL     OW10717   0.402   6.445   2.255
 3273SOL    HW110718   0.350   6.380   2.200
 3273SOL    HW210719   0.469   6.396   2.310
 3274SOL     OW10720   3.923   1.209   1.117
 3274SOL    HW110721   3.887   1.294   1.155
 3274SOL    HW210722   4.023   1.211   1.118
 3275SOL     OW10723   0.779   0.706   6.402
 3275SOL    HW110724   0.829   0.623   6.377
 3275SOL    HW210725   0.752   0.700   6.499
 3276SOL     OW10726   3.706   5.847   0.363
 3276SOL    HW110727   3.659   5.815   0.445
 3276SOL    HW210728   3.795   5.801   0.356
 3277SOL     OW10729   5.373   0.258   6.994
 3277SOL    HW110730   5.397   0.166   7.023
 3277SOL    HW210731   5.280   0.258   6.956
 3278SOL     OW10732   0.240   0.849   5.639
 3278SOL    HW110733   0.191   0.764   5.658
 3278SOL    HW210734   0.309   0.832   5.569
 3279SOL     OW10735   6.882   0.738   0.985
 3279SOL    HW110736   6.797   0.699   1.021
 3279SOL    HW210737   6.883   0.837   1.000
 3280SOL     OW10738   3.750   4.785   5.500
 3280SOL    HW110739   3.769   4.701   5.550
 3280SOL    HW210740   3.735   4.860   5.564
 3281SOL     OW10741   1.979   5.374   0.714
 3281SOL    HW110742   1.982   5.387   0.813
 3281SOL    HW210743   1.931   5.289   0.693
 3282SOL     OW10744   1.413   5.537   4.571
 3282SOL    HW110745   1.344   5.586   4.518
 3282SOL    HW210746   1.482   5.500   4.510
 3283SOL     OW10747   3.109   1.238   1.091
 3283SOL    HW110748   3.163   1.175   1.147
 3283SOL    HW210749   3.143   1.234   0.996
 3284SOL     OW10750   6.015   6.180   6.935
 3284SOL    HW110751   6.010   6.082   6.956
 3284SOL    HW210752   6.076   6.225   7.001
 3285SOL     OW10753   5.652   2.810   3.166
 3285SOL    HW110754   5.612   2.875   3.100
 3285SOL    HW210755   5.579   2.769   3.221
 3286SOL     OW10756   3.742   3.629   2.638
 3286SOL    HW110757   3.694   3.590   2.560
 3286SOL    HW210758   3.768   3.556   2.701
 3287SOL     OW10759   1.702   5.936   6.912
 3287SOL    HW110760   1.678   6.011   6.973
 3287SOL    HW210761   1.711   5.971   6.819
 3288SOL     OW10762   0.921   5.702   6.663
 3288SOL    HW110763   0.909   5.760   6.583
 3288SOL    HW210764   0.938   5.758   6.743
 3289SOL     OW10765   2.379   6.646   5.033
 3289SOL    HW110766   2.309   6.576   5.043
 3289SOL    HW210767   2.425   6.660   5.121
 3290SOL     OW10768   0.434   6.690   1.645
 3290SOL    HW110769   0.474   6.718   1.557
 3290SOL    HW210770   0.507   6.671   1.710
 3291SOL     OW10771   1.099   6.196   0.183
 3291SOL    HW110772   1.016   6.247   0.163
 3291SOL    HW210773   1.173   6.259   0.208
 3292SOL     OW10774   0.405   1.062   7.020
 3292SOL    HW110775   0.372   0.983   0.047
 3292SOL    HW210776   0.356   1.069   6.933
 3293SOL     OW10777   6.613   3.572   3.276
 3293SOL    HW110778   6.564   3.514   3.211
 3293SOL    HW210779   6.562   3.656   3.291
 3294SOL     OW10780   0.613   1.384   6.211
 3294SOL    HW110781   0.706   1.398   6.177
 3294SOL    HW210782   0.608   1.412   6.307
 3295SOL     OW10783   1.828   3.027   2.144
 3295SOL    HW110784   1.925   3.035   2.166
 3295SOL    HW210785   1.819   2.982   2.055
 3296SOL     OW10786   1.895   6.261   2.002
 3296SOL    HW110787   1.821   6.257   1.936
 3296SOL    HW210788   1.858   6.271   2.094
 3297SOL     OW10789   2.972   0.022   4.704
 3297SOL    HW110790   3.032   6.986   4.651
 3297SOL    HW210791   2.960   0.109   4.657
 3298SOL     OW10792   6.043   2.066   4.143
 3298SOL    HW110793   6.130   2.114   4.153
 3298SOL    HW210794   5.974   2.128   4.107
 3299SOL     OW10795   1.838   6.292   4.175
 3299SOL    HW110796   1.880   6.339   4.098
 3299SOL    HW210797   1.792   6.359   4.234
 3300SOL     OW10798   0.636   0.734   6.042
 3300SOL    HW110799   0.625   0.772   6.133
 3300SOL    HW210800   0.604   0.639   6.041
 3301SOL     OW10801   2.168   3.355   3.323
 3301SOL    HW110802   2.204   3.269   3.287
 3301SOL    HW210803   2.183   3.428   3.257
 3302SOL     OW10804   1.612   5.609   5.709
 3302SOL    HW110805   1.603   5.608   5.609
 3302SOL    HW210806   1.690   5.667   5.734
 3303SOL     OW10807   3.915   2.766   1.430
 3303SOL    HW110808   3.908   2.677   1.386
 3303SOL    HW210809   3.824   2.800   1.452
 3304SOL     OW10810   1.866   5.566   4.280
 3304SOL    HW110811   1.870   5.501   4.356
 3304SOL    HW210812   1.780   5.617   4.285
 3305SOL     OW10813   2.140   1.247   3.324
 3305SOL    HW110814   2.112   1.260   3.419
 3305SOL    HW210815   2.204   1.320   3.298
 3306SOL     OW10816   1.982   5.427   3.645
 3306SOL    HW110817   1.952   5.522   3.637
 3306SOL    HW210818   2.008   5.409   3.740
 3307SOL     OW10819   7.023   5.892   6.212
 3307SOL    HW110820   0.009   5.919   6.116
 3307SOL    HW210821   6.970   5.962   6.261
 3308SOL     OW10822   4.553   6.110   6.815
 3308SOL    HW110823   4.559   6.015   6.783
 3308SOL    HW210824   4.547   6.111   6.915
 3309SOL     OW10825   0.868   5.087   2.530
 3309SOL    HW110826   0.900   5.166   2.478
 3309SOL    HW210827   0.788   5.113   2.585
 3310SOL     OW10828   6.584   4.379   5.004
 3310SOL    HW110829   6.634   4.466   5.000
 3310SOL    HW210830   6.515   4.383   5.076
 3311SOL     OW10831   2.346   4.092   1.854
 3311SOL    HW110832   2.399   4.057   1.777
 3311SOL    HW210833   2.390   4.174   1.890
 3312SOL     OW10834   3.675   4.426   5.750
 3312SOL    HW110835   3.768   4.431   5.788
 3312SOL    HW210836   3.609   4.442   5.824
 3313SOL     OW10837   0.069   5.738   2.340
 3313SOL    HW110838   7.022   5.785   2.393
 3313SOL    HW210839   0.037   5.726   2.246
 3314SOL     OW10840   1.805   1.664   4.223
 3314SOL    HW110841   1.719   1.618   4.203
 3314SOL    HW210842   1.869   1.598   4.263
 3315SOL     OW10843   6.231   3.716   4.046
 3315SOL    HW110844   6.283   3.688   3.966
 3315SOL    HW210845   6.150   3.768   4.016
 3316SOL     OW10846   3.808   1.462   6.315
 3316SOL    HW110847   3.825   1.436   6.220
 3316SOL    HW210848   3.780   1.381   6.367
 3317SOL     OW10849   4.665   3.298   1.663
 3317SOL    HW110850   4.640   3.224   1.725
 3317SOL    HW210851   4.730   3.264   1.595
 3318SOL     OW10852   3.133   0.185   0.755
 3318SOL    HW110853   3.143   0.086   0.750
 3318SOL    HW210854   3.083   0.208   0.839
 3319SOL     OW10855   6.103   6.915   4.743
 3319SOL    HW110856   6.108   6.821   4.776
 3319SOL    HW210857   6.028   6.962   4.789
 3320SOL     OW10858   5.541   0.940   5.268
 3320SOL    HW110859   5.489   0.949   5.353
 3320SOL    HW210860   5.635   0.973   5.284
 3321SOL     OW10861   3.604   2.238   1.645
 3321SOL    HW110862   3.619   2.278   1.736
 3321SOL    HW210863   3.684   2.257   1.587
 3322SOL     OW10864   5.364   3.358   1.553
 3322SOL    HW110865   5.378   3.453   1.527
 3322SOL    HW210866   5.424   3.299   1.499
 3323SOL     OW10867   2.528   4.051   6.244
 3323SOL    HW110868   2.538   4.137   6.293
 3323SOL    HW210869   2.517   3.976   6.310
 3324SOL     OW10870   1.329   3.985   6.368
 3324SOL    HW110871   1.261   3.983   6.295
 3324SOL    HW210872   1.395   3.911   6.354
 3325SOL     OW10873   2.390   2.661   6.358
 3325SOL    HW110874   2.487   2.671   6.340
 3325SOL    HW210875   2.364   2.718   6.436
 3326SOL     OW10876   6.081   1.338   2.391
 3326SOL    HW110877   6.011   1.289   2.339
 3326SOL    HW210878   6.121   1.277   2.459
 3327SOL     OW10879   3.449   6.628   1.726
 3327SOL    HW110880   3.378   6.613   1.795
 3327SOL    HW210881   3.440   6.559   1.654
 3328SOL     OW10882   4.235   1.724   2.480
 3328SOL    HW110883   4.166   1.797   2.476
 3328SOL    HW210884   4.306   1.742   2.413
 3329SOL     OW10885   5.274   0.571   4.214
 3329SOL    HW110886   5.311   0.528   4.295
 3329SOL    HW210887   5.227   0.656   4.240
 3330SOL     OW10888   6.233   6.270   1.410
 3330SOL    HW110889   6.323   6.287   1.372
 3330SOL    HW210890   6.180   6.355   1.410
 3331SOL     OW10891   0.728   3.528   2.209
 3331SOL    HW110892   0.631   3.549   2.196
 3331SOL    HW210893   0.754   3.547   2.304
 3332SOL     OW10894   6.314   4.387   0.715
 3332SOL    HW110895   6.404   4.431   0.711
 3332SOL    HW210896   6.256   4.423   0.642
 3333SOL     OW10897   2.841   3.740   7.011
 3333SOL    HW110898   2.770   3.764   0.053
 3333SOL    HW210899   2.837   3.642   6.991
 3334SOL     OW10900   2.236   3.952   2.368
 3334SOL    HW110901   2.196   3.934   2.278
 3334SOL    HW210902   2.312   4.015   2.359
 3335SOL     OW10903   4.532   0.062   6.074
 3335SOL    HW110904   4.617   0.053   6.022
 3335SOL    HW210905   4.549   0.034   6.169
 3336SOL     OW10906   2.013   6.382   4.406
 3336SOL    HW110907   1.940   6.386   4.338
 3336SOL    HW210908   2.012   6.292   4.451
 3337SOL     OW10909   2.851   4.127   1.276
 3337SOL    HW110910   2.837   4.225   1.291
 3337SOL    HW210911   2.865   4.082   1.365
 3338SOL     OW10912   0.115   2.642   1.436
 3338SOL    HW110913   0.074   2.705   1.501
 3338SOL    HW210914   0.184   2.691   1.382
 3339SOL     OW10915   1.456   0.006   6.602
 3339SOL    HW110916   1.443   6.939   6.641
 3339SOL    HW210917   1.487   0.069   6.674
 3340SOL     OW10918   3.420   1.136   3.782
 3340SOL    HW110919   3.490   1.067   3.765
 3340SOL    HW210920   3.460   1.227   3.778
 3341SOL     OW10921   1.976   4.387   3.896
 3341SOL    HW110922   2.016   4.304   3.858
 3341SOL    HW210923   2.049   4.453   3.916
 3342SOL     OW10924   1.167   0.070   3.688
 3342SOL    HW110925   1.123   0.058   3.778
 3342SOL    HW210926   1.144   7.016   3.629
 3343SOL     OW10927   5.759   4.472   6.681
 3343SOL    HW110928   5.731   4.567   6.699
 3343SOL    HW210929   5.696   4.430   6.616
 3344SOL     OW10930   5.873   3.860   4.246
 3344SOL    HW110931   5.792   3.862   4.305
 3344SOL    HW210932   5.910   3.952   4.239
 3345SOL     OW10933   1.250   4.498   6.504
 3345SOL    HW110934   1.248   4.515   6.602
 3345SOL    HW210935   1.225   4.403   6.486
 3346SOL     OW10936   1.062   1.041   6.929
 3346SOL    HW110937   0.964   1.045   6.947
 3346SOL    HW210938   1.086   0.950   6.896
 3347SOL     OW10939   0.850   3.059   5.956
 3347SOL    HW110940   0.803   2.980   5.995
 3347SOL    HW210941   0.945   3.035   5.936
 3348SOL     OW10942   4.134   3.401   4.550
 3348SOL    HW110943   4.110   3.323   4.607
 3348SOL    HW210944   4.233   3.417   4.554
 3349SOL     OW10945   2.058   5.252   3.174
 3349SOL    HW110946   2.065   5.337   3.226
 3349SOL    HW210947   2.074   5.270   3.077
 3350SOL     OW10948   0.263   3.109   5.586
 3350SOL    HW110949   0.318   3.027   5.568
 3350SOL    HW210950   0.256   3.163   5.503
 3351SOL     OW10951   4.636   1.121   2.041
 3351SOL    HW110952   4.624   1.029   2.079
 3351SOL    HW210953   4.715   1.165   2.084
 3352SOL     OW10954   6.423   2.628   0.901
 3352SOL    HW110955   6.333   2.615   0.859
 3352SOL    HW210956   6.426   2.716   0.947
 3353SOL     OW10957   3.227   5.896   1.558
 3353SOL    HW110958   3.153   5.959   1.535
 3353SOL    HW210959   3.189   5.805   1.578
 3354SOL     OW10960   4.396   2.247   5.470
 3354SOL    HW110961   4.416   2.157   5.511
 3354SOL    HW210962   4.353   2.305   5.539
 3355SOL     OW10963   1.745   1.720   5.931
 3355SOL    HW110964   1.763   1.800   5.988
 3355SOL    HW210965   1.829   1.665   5.924
 3356SOL     OW10966   0.992   5.578   5.809
 3356SOL    HW110967   0.991   5.664   5.757
 3356SOL    HW210968   0.925   5.515   5.770
 3357SOL     OW10969   2.724   3.350   1.855
 3357SOL    HW110970   2.821   3.360   1.833
 3357SOL    HW210971   2.687   3.271   1.807
 3358SOL     OW10972   4.675   1.724   2.876
 3358SOL    HW110973   4.736   1.653   2.842
 3358SOL    HW210974   4.607   1.746   2.806
 3359SOL     OW10975   0.087   6.045   3.018
 3359SOL    HW110976   0.176   6.028   3.061
 3359SOL    HW210977   0.049   6.131   3.052
 3360SOL     OW10978   0.988   1.418   6.453
 3360SOL    HW110979   1.015   1.322   6.445
 3360SOL    HW210980   1.023   1.469   6.375
 3361SOL     OW10981   6.740   5.636   4.716
 3361SOL    HW110982   6.817   5.604   4.771
 3361SOL    HW210983   6.766   5.640   4.620
 3362SOL     OW10984   3.610   1.730   2.671
 3362SOL    HW110985   3.667   1.779   2.605
 3362SOL    HW210986   3.548   1.668   2.622
 3363SOL     OW10987   6.792   2.029   1.652
 3363SOL    HW110988   6.823   2.022   1.747
 3363SOL    HW210989   6.815   2.119   1.616
 3364SOL     OW10990   2.238   4.828   3.783
 3364SOL    HW110991   2.150   4.861   3.747
 3364SOL    HW210992   2.307   4.832   3.711
 3365SOL     OW10993   6.614   3.190   4.849
 3365SOL    HW110994   6.551   3.252   4.894
 3365SOL    HW210995   6.708   3.213   4.874
 3366SOL     OW10996   5.537   4.820   4.196
 3366SOL    HW110997   5.451   4.774   4.219
 3366SOL    HW210998   5.543   4.907   4.245
 3367SOL     OW10999   3.726   3.868   2.786
 3367SOL    HW111000   3.799   3.884   2.852
 3367SOL    HW211001   3.735   3.777   2.747
 3368SOL     OW11002   0.608   5.709   6.583
 3368SOL    HW111003   0.664   5.668   6.510
 3368SOL    HW211004   0.640   5.802   6.602
 3369SOL     OW11005   4.018   2.203   0.790
 3369SOL    HW111006   3.929   2.173   0.754
 3369SOL    HW211007   4.076   2.123   0.806
 3370SOL     OW11008   6.860   6.598   1.522
 3370SOL    HW111009   6.958   6.585   1.510
 3370SOL    HW211010   6.812   6.575   1.438
 3371SOL     OW11011   2.258   2.926   1.532
 3371SOL    HW111012   2.312   2.948   1.614
 3371SOL    HW211013   2.211   3.008   1.501
 3372SOL     OW11014   6.984   2.075   0.274
 3372SOL    HW111015   6.909   2.141   0.267
 3372SOL    HW211016   6.950   1.983   0.254
 3373SOL     OW11017   0.200   2.362   4.264
 3373SOL    HW111018   0.272   2.300   4.296
 3373SOL    HW211019   0.241   2.443   4.223
 3374SOL     OW11020   0.978   6.660   4.063
 3374SOL    HW111021   1.057   6.629   4.009
 3374SOL    HW211022   1.001   6.747   4.107
 3375SOL     OW11023   6.896   4.867   0.541
 3375SOL    HW111024   6.868   4.874   0.445
 3375SOL    HW211025   6.820   4.895   0.600
 3376SOL     OW11026   3.239   2.918   4.952
 3376SOL    HW111027   3.239   3.017   4.962
 3376SOL    HW211028   3.285   2.876   5.030
 3377SOL     OW11029   0.195   5.322   5.997
 3377SOL    HW111030   0.096   5.328   6.007
 3377SOL    HW211031   0.236   5.299   6.085
 3378SOL     OW11032   1.429   6.700   0.067
 3378SOL    HW111033   1.507   6.684   0.006
 3378SOL    HW211034   1.384   6.786   0.041
 3379SOL     OW11035   0.708   2.102   5.017
 3379SOL    HW111036   0.748   2.077   4.930
 3379SOL    HW211037   0.622   2.151   5.001
 3380SOL     OW11038   4.525   6.623   5.291
 3380SOL    HW111039   4.541   6.528   5.263
 3380SOL    HW211040   4.428   6.645   5.279
 3381SOL     OW11041   6.839   2.761   1.229
 3381SOL    HW111042   6.895   2.827   1.279
 3381SOL    HW211043   6.743   2.771   1.255
 3382SOL     OW11044   0.640   2.626   6.214
 3382SOL    HW111045   0.702   2.661   6.284
 3382SOL    HW211046   0.550   2.669   6.225
 3383SOL     OW11047   3.546   5.120   0.804
 3383SOL    HW111048   3.541   5.220   0.806
 3383SOL    HW211049   3.638   5.092   0.777
 3384SOL     OW11050   1.740   3.218   0.733
 3384SOL    HW111051   1.642   3.213   0.750
 3384SOL    HW211052   1.779   3.298   0.779
 3385SOL     OW11053   6.842   3.948   4.567
 3385SOL    HW111054   6.922   3.990   4.525
 3385SOL    HW211055   6.763   4.010   4.560
 3386SOL     OW11056   5.412   4.235   0.241
 3386SOL    HW111057   5.412   4.196   0.333
 3386SOL    HW211058   5.333   4.295   0.229
 3387SOL     OW11059   4.607   0.226   3.632
 3387SOL    HW111060   4.574   0.262   3.719
 3387SOL    HW211061   4.529   0.201   3.574
 3388SOL     OW11062   6.102   3.186   2.243
 3388SOL    HW111063   6.033   3.180   2.315
 3388SOL    HW211064   6.077   3.258   2.178
 3389SOL     OW11065   6.543   5.717   5.727
 3389SOL    HW111066   6.473   5.646   5.730
 3389SOL    HW211067   6.534   5.776   5.807
 3390SOL     OW11068   5.130   0.251   6.171
 3390SOL    HW111069   5.182   0.335   6.152
 3390SOL    HW211070   5.105   0.208   6.084
 3391SOL     OW11071   4.392   2.366   3.487
 3391SOL    HW111072   4.404   2.292   3.420
 3391SOL    HW211073   4.306   2.414   3.468
 3392SOL     OW11074   3.390   6.297   4.200
 3392SOL    HW111075   3.344   6.282   4.287
 3392SOL    HW211076   3.419   6.393   4.194
 3393SOL     OW11077   6.353   6.375   0.537
 3393SOL    HW111078   6.354   6.277   0.517
 3393SOL    HW211079   6.428   6.397   0.599
 3394SOL     OW11080   5.164   3.584   1.244
 3394SOL    HW111081   5.074   3.603   1.282
 3394SOL    HW211082   5.187   3.654   1.176
 3395SOL     OW11083   5.167   2.370   3.066
 3395SOL    HW111084   5.203   2.279   3.044
 3395SOL    HW211085   5.069   2.362   3.087
 3396SOL     OW11086   5.703   1.003   3.573
 3396SOL    HW111087   5.679   0.907   3.559
 3396SOL    HW211088   5.790   1.022   3.528
 3397SOL     OW11089   3.547   4.778   6.509
 3397SOL    HW111090   3.596   4.863   6.531
 3397SOL    HW211091   3.561   4.712   6.583
 3398SOL     OW11092   1.204   0.467   4.576
 3398SOL    HW111093   1.300   0.496   4.572
 3398SOL    HW211094   1.186   0.404   4.501
 3399SOL     OW11095   5.557   5.373   3.503
 3399SOL    HW111096   5.459   5.366   3.485
 3399SOL    HW211097   5.608   5.358   3.419
 3400SOL     OW11098   5.542   3.563   0.011
 3400SOL    HW111099   5.488   3.595   0.088
 3400SOL    HW211100   5.502   3.479   6.998
 3401SOL     OW11101   6.426   3.859   6.699
 3401SOL    HW111102   6.335   3.840   6.736
 3401SOL    HW211103   6.423   3.943   6.644
 3402SOL     OW11104   5.614   5.735   6.479
 3402SOL    HW111105   5.566   5.798   6.541
 3402SOL    HW211106   5.643   5.654   6.530
 3403SOL     OW11107   4.871   5.580   6.794
 3403SOL    HW111108   4.914   5.515   6.857
 3403SOL    HW211109   4.924   5.665   6.794
 3404SOL     OW11110   5.029   2.303   0.789
 3404SOL    HW111111   5.064   2.256   0.870
 3404SOL    HW211112   5.087   2.381   0.767
 3405SOL     OW11113   5.945   3.989   6.610
 3405SOL    HW111114   5.995   4.064   6.569
 3405SOL    HW211115   5.967   3.984   6.708
 3406SOL     OW11116   1.091   3.159   2.538
 3406SOL    HW111117   0.996   3.129   2.541
 3406SOL    HW211118   1.106   3.217   2.458
 3407SOL     OW11119   1.744   4.318   0.207
 3407SOL    HW111120   1.688   4.383   0.258
 3407SOL    HW211121   1.838   4.321   0.241
 3408SOL     OW11122   5.105   2.455   4.441
 3408SOL    HW111123   5.007   2.433   4.450
 3408SOL    HW211124   5.115   2.539   4.389
 3409SOL     OW11125   4.139   6.036   0.292
 3409SOL    HW111126   4.097   6.082   0.214
 3409SOL    HW211127   4.213   5.976   0.260
 3410SOL     OW11128   6.695   6.519   1.892
 3410SOL    HW111129   6.691   6.612   1.856
 3410SOL    HW211130   6.766   6.467   1.844
 3411SOL     OW11131   0.286   2.802   0.529
 3411SOL    HW111132   0.375   2.782   0.488
 3411SOL    HW211133   0.283   2.766   0.622
 3412SOL     OW11134   4.905   3.522   1.556
 3412SOL    HW111135   4.879   3.551   1.648
 3412SOL    HW211136   4.908   3.422   1.552
 3413SOL     OW11137   6.342   1.474   1.035
 3413SOL    HW111138   6.287   1.406   0.988
 3413SOL    HW211139   6.324   1.471   1.133
 3414SOL     OW11140   3.586   1.994   5.839
 3414SOL    HW111141   3.490   1.972   5.826
 3414SOL    HW211142   3.629   1.923   5.895
 3415SOL     OW11143   1.967   2.406   4.069
 3415SOL    HW111144   1.903   2.440   4.137
 3415SOL    HW211145   1.918   2.384   3.984
 3416SOL     OW11146   5.147   0.162   0.371
 3416SOL    HW111147   5.189   0.168   0.461
 3416SOL    HW211148   5.112   0.252   0.344
 3417SOL     OW11149   0.226   6.076   4.333
 3417SOL    HW111150   0.222   5.996   4.274
 3417SOL    HW211151   0.302   6.135   4.306
 3418SOL     OW11152   4.142   5.630   3.620
 3418SOL    HW111153   4.125   5.564   3.547
 3418SOL    HW211154   4.204   5.589   3.687
 3419SOL     OW11155   3.421   5.322   6.081
 3419SOL    HW111156   3.371   5.378   6.014
 3419SOL    HW211157   3.511   5.299   6.045
 3420SOL     OW11158   5.937   3.598   3.466
 3420SOL    HW111159   5.845   3.630   3.444
 3420SOL    HW211160   5.960   3.521   3.405
 3421SOL     OW11161   5.017   1.553   3.461
 3421SOL    HW111162   5.003   1.460   3.428
 3421SOL    HW211163   5.015   1.616   3.383
 3422SOL     OW11164   2.534   0.206   6.930
 3422SOL    HW111165   2.621   0.204   6.879
 3422SOL    HW211166   2.523   0.297   6.971
 3423SOL     OW11167   0.054   4.764   6.467
 3423SOL    HW111168   7.004   4.808   6.416
 3423SOL    HW211169   0.141   4.781   6.421
 3424SOL     OW11170   2.708   6.453   1.145
 3424SOL    HW111171   2.735   6.418   1.235
 3424SOL    HW211172   2.770   6.526   1.118
 3425SOL     OW11173   4.915   4.693   2.573
 3425SOL    HW111174   4.826   4.726   2.605
 3425SOL    HW211175   4.907   4.597   2.548
 3426SOL     OW11176   4.998   2.726   1.379
 3426SOL    HW111177   4.915   2.780   1.392
 3426SOL    HW211178   5.036   2.701   1.468
 3427SOL     OW11179   0.726   1.928   1.000
 3427SOL    HW111180   0.699   1.844   0.953
 3427SOL    HW211181   0.725   1.912   1.099
 3428SOL     OW11182   3.855   4.558   0.355
 3428SOL    HW111183   3.845   4.475   0.409
 3428SOL    HW211184   3.859   4.535   0.258
 3429SOL     OW11185   0.697   2.196   0.999
 3429SOL    HW111186   0.678   2.230   0.907
 3429SOL    HW211187   0.703   2.096   0.997
 3430SOL     OW11188   2.300   5.343   5.397
 3430SOL    HW111189   2.373   5.297   5.448
 3430SOL    HW211190   2.236   5.384   5.461
 3431SOL     OW11191   1.699   6.007   1.939
 3431SOL    HW111192   1.691   6.087   1.879
 3431SOL    HW211193   1.779   6.018   1.997
 3432SOL     OW11194   2.608   4.414   5.927
 3432SOL    HW111195   2.702   4.391   5.953
 3432SOL    HW211196   2.609   4.475   5.848
 3433SOL     OW11197   1.090   0.658   5.121
 3433SOL    HW111198   1.175   0.614   5.090
 3433SOL    HW211199   1.111   0.749   5.157
 3434SOL     OW11200   3.649   1.805   2.030
 3434SOL    HW111201   3.710   1.882   2.012
 3434SOL    HW211202   3.609   1.773   1.944
 3435SOL     OW11203   2.344   1.426   0.966
 3435SOL    HW111204   2.329   1.523   0.985
 3435SOL    HW211205   2.441   1.404   0.980
 3436SOL     OW11206   3.575   5.834   0.116
 3436SOL    HW111207   3.601   5.850   0.211
 3436SOL    HW211208   3.537   5.918   0.077
 3437SOL     OW11209   2.668   6.110   5.707
 3437SOL    HW111210   2.626   6.090   5.619
 3437SOL    HW211211   2.717   6.029   5.740
 3438SOL     OW11212   0.550   3.387   1.473
 3438SOL    HW111213   0.559   3.481   1.439
 3438SOL    HW211214   0.476   3.384   1.540
 3439SOL     OW11215   3.181   5.965   4.259
 3439SOL    HW111216   3.190   5.871   4.227
 3439SOL    HW211217   3.202   6.028   4.183
 3440SOL     OW11218   3.535   2.896   2.198
 3440SOL    HW111219   3.487   2.979   2.169
 3440SOL    HW211220   3.475   2.842   2.257
 3441SOL     OW11221   6.639   5.988   6.252
 3441SOL    HW111222   6.624   6.081   6.218
 3441SOL    HW211223   6.679   5.932   6.179
 3442SOL     OW11224   2.379   3.663   1.193
 3442SOL    HW111225   2.373   3.762   1.205
 3442SOL    HW211226   2.293   3.629   1.153
 3443SOL     OW11227   3.707   6.224   2.181
 3443SOL    HW111228   3.799   6.229   2.144
 3443SOL    HW211229   3.711   6.212   2.280
 3444SOL     OW11230   4.902   5.358   0.200
 3444SOL    HW111231   4.852   5.330   0.118
 3444SOL    HW211232   4.854   5.434   0.244
 3445SOL     OW11233   5.791   5.254   2.779
 3445SOL    HW111234   5.747   5.222   2.863
 3445SOL    HW211235   5.794   5.179   2.712
 3446SOL     OW11236   5.901   0.168   1.349
 3446SOL    HW111237   5.904   0.264   1.377
 3446SOL    HW211238   5.985   0.144   1.301
 3447SOL     OW11239   4.966   6.538   0.596
 3447SOL    HW111240   5.042   6.589   0.556
 3447SOL    HW211241   5.003   6.467   0.656
 3448SOL     OW11242   3.398   6.633   6.165
 3448SOL    HW111243   3.374   6.537   6.149
 3448SOL    HW211244   3.497   6.641   6.179
 3449SOL     OW11245   5.659   5.065   4.373
 3449SOL    HW111246   5.642   5.096   4.280
 3449SOL    HW211247   5.600   5.115   4.436
 3450SOL     OW11248   0.807   2.046   6.278
 3450SOL    HW111249   0.848   2.011   6.194
 3450SOL    HW211250   0.838   1.992   6.356
 3451SOL     OW11251   2.563   6.192   6.931
 3451SOL    HW111252   2.494   6.190   6.859
 3451SOL    HW211253   2.563   6.106   6.981
 3452SOL     OW11254   5.609   0.650   6.528
 3452SOL    HW111255   5.542   0.668   6.456
 3452SOL    HW211256   5.585   0.702   6.610
 3453SOL     OW11257   5.724   5.491   6.566
 3453SOL    HW111258   5.726   5.451   6.474
 3453SOL    HW211259   5.800   5.556   6.574
 3454SOL     OW11260   0.944   3.716   5.339
 3454SOL    HW111261   0.980   3.707   5.431
 3454SOL    HW211262   0.881   3.641   5.319
 3455SOL     OW11263   2.446   1.370   3.922
 3455SOL    HW111264   2.362   1.424   3.928
 3455SOL    HW211265   2.501   1.403   3.845
 3456SOL     OW11266   5.803   4.897   2.167
 3456SOL    HW111267   5.866   4.887   2.244
 3456SOL    HW211268   5.844   4.858   2.084
 3457SOL     OW11269   4.610   5.867   3.993
 3457SOL    HW111270   4.540   5.816   4.044
 3457SOL    HW211271   4.617   5.959   4.031
 3458SOL     OW11272   4.382   1.537   2.259
 3458SOL    HW111273   4.298   1.518   2.310
 3458SOL    HW211274   4.370   1.510   2.164
 3459SOL     OW11275   4.888   2.376   3.194
 3459SOL    HW111276   4.902   2.311   3.269
 3459SOL    HW211277   4.849   2.328   3.116
 3460SOL     OW11278   3.295   1.869   6.809
 3460SOL    HW111279   3.330   1.804   6.741
 3460SOL    HW211280   3.357   1.873   6.887
 3461SOL     OW11281   4.729   3.466   0.020
 3461SOL    HW111282   4.734   3.531   0.096
 3461SOL    HW211283   4.635   3.433   0.011
 3462SOL     OW11284   0.892   3.977   5.262
 3462SOL    HW111285   0.925   3.891   5.302
 3462SOL    HW211286   0.835   3.957   5.182
 3463SOL     OW11287   0.567   4.319   1.305
 3463SOL    HW111288   0.552   4.220   1.307
 3463SOL    HW211289   0.642   4.341   1.243
 3464SOL     OW11290   6.921   4.612   6.923
 3464SOL    HW111291   7.001   4.553   6.931
 3464SOL    HW211292   6.947   4.707   6.941
 3465SOL     OW11293   1.703   2.514   1.977
 3465SOL    HW111294   1.623   2.572   1.991
 3465SOL    HW211295   1.720   2.504   1.879
 3466SOL     OW11296   6.864   4.995   6.069
 3466SOL    HW111297   6.935   4.934   6.034
 3466SOL    HW211298   6.898   5.088   6.071
 3467SOL     OW11299   1.788   2.871   6.007
 3467SOL    HW111300   1.821   2.944   5.948
 3467SOL    HW211301   1.863   2.838   6.064
 3468SOL     OW11302   4.179   6.502   2.562
 3468SOL    HW111303   4.278   6.508   2.551
 3468SOL    HW211304   4.143   6.430   2.502
 3469SOL     OW11305   6.266   0.956   2.820
 3469SOL    HW111306   6.312   1.038   2.854
 3469SOL    HW211307   6.167   0.968   2.828
 3470SOL     OW11308   0.243   4.550   0.712
 3470SOL    HW111309   0.289   4.563   0.800
 3470SOL    HW211310   0.232   4.452   0.694
 3471SOL     OW11311   4.347   5.436   4.675
 3471SOL    HW111312   4.412   5.445   4.751
 3471SOL    HW211313   4.274   5.504   4.684
 3472SOL     OW11314   2.238   0.577   2.765
 3472SOL    HW111315   2.191   0.613   2.684
 3472SOL    HW211316   2.333   0.555   2.741
 3473SOL     OW11317   6.722   1.589   6.669
 3473SOL    HW111318   6.668   1.505   6.677
 3473SOL    HW211319   6.679   1.661   6.724
 3474SOL     OW11320   3.143   5.124   2.100
 3474SOL    HW111321   3.194   5.137   2.185
 3474SOL    HW211322   3.060   5.071   2.120
 3475SOL     OW11323   1.289   6.230   4.677
 3475SOL    HW111324   1.211   6.181   4.639
 3475SOL    HW211325   1.374   6.184   4.650
 3476SOL     OW11326   3.761   1.420   3.207
 3476SOL    HW111327   3.841   1.477   3.189
 3476SOL    HW211328   3.702   1.465   3.274
 3477SOL     OW11329   3.309   5.566   1.222
 3477SOL    HW111330   3.286   5.523   1.309
 3477SOL    HW211331   3.342   5.496   1.159
 3478SOL     OW11332   2.491   5.582   5.375
 3478SOL    HW111333   2.548   5.597   5.456
 3478SOL    HW211334   2.544   5.530   5.307
 3479SOL     OW11335   0.327   0.529   3.380
 3479SOL    HW111336   0.425   0.547   3.377
 3479SOL    HW211337   0.278   0.615   3.399
 3480SOL     OW11338   6.972   0.388   4.758
 3480SOL    HW111339   0.008   0.411   4.835
 3480SOL    HW211340   7.016   0.319   4.701
 3481SOL     OW11341   4.411   0.226   0.265
 3481SOL    HW111342   4.478   0.235   0.339
 3481SOL    HW211343   4.419   0.304   0.203
 3482SOL     OW11344   5.547   1.786   0.833
 3482SOL    HW111345   5.558   1.884   0.815
 3482SOL    HW211346   5.525   1.772   0.930
 3483SOL     OW11347   3.657   1.234   1.776
 3483SOL    HW111348   3.653   1.233   1.676
 3483SOL    HW211349   3.690   1.323   1.807
 3484SOL     OW11350   2.756   3.603   1.758
 3484SOL    HW111351   2.713   3.519   1.790
 3484SOL    HW211352   2.828   3.630   1.823
 3485SOL     OW11353   1.516   0.077   4.387
 3485SOL    HW111354   1.551   0.034   4.304
 3485SOL    HW211355   1.474   0.165   4.365
 3486SOL     OW11356   3.260   1.590   2.585
 3486SOL    HW111357   3.267   1.574   2.487
 3486SOL    HW211358   3.289   1.508   2.635
 3487SOL     OW11359   6.053   2.129   6.140
 3487SOL    HW111360   6.098   2.084   6.216
 3487SOL    HW211361   5.954   2.114   6.146
 3488SOL     OW11362   5.541   2.526   4.302
 3488SOL    HW111363   5.526   2.439   4.254
 3488SOL    HW211364   5.634   2.527   4.338
 3489SOL     OW11365   2.577   6.752   0.721
 3489SOL    HW111366   2.507   6.755   0.793
 3489SOL    HW211367   2.550   6.812   0.646
 3490SOL     OW11368   4.714   4.320   6.399
 3490SOL    HW111369   4.709   4.283   6.492
 3490SOL    HW211370   4.810   4.327   6.371
 3491SOL     OW11371   5.563   2.899   4.430
 3491SOL    HW111372   5.492   2.932   4.369
 3491SOL    HW211373   5.595   2.974   4.488
 3492SOL     OW11374   0.922   5.975   1.247
 3492SOL    HW111375   0.913   6.061   1.196
 3492SOL    HW211376   0.831   5.937   1.265
 3493SOL     OW11377   6.414   5.467   6.581
 3493SOL    HW111378   6.412   5.564   6.557
 3493SOL    HW211379   6.356   5.451   6.661
 3494SOL     OW11380   3.850   0.402   1.454
 3494SOL    HW111381   3.802   0.402   1.366
 3494SOL    HW211382   3.789   0.436   1.525
 3495SOL     OW11383   4.210   4.730   2.385
 3495SOL    HW111384   4.259   4.652   2.348
 3495SOL    HW211385   4.273   4.806   2.401
 3496SOL     OW11386   0.391   2.931   1.529
 3496SOL    HW111387   0.300   2.897   1.504
 3496SOL    HW211388   0.381   3.019   1.575
 3497SOL     OW11389   4.221   0.014   3.111
 3497SOL    HW111390   4.183   0.090   3.163
 3497SOL    HW211391   4.273   0.050   3.033
 3498SOL     OW11392   2.320   2.162   6.905
 3498SOL    HW111393   2.291   2.070   6.881
 3498SOL    HW211394   2.416   2.174   6.881
 3499SOL     OW11395   5.378   2.506   4.552
 3499SOL    HW111396   5.297   2.497   4.494
 3499SOL    HW211397   5.460   2.497   4.495
 3500SOL     OW11398   0.631   4.433   5.438
 3500SOL    HW111399   0.536   4.404   5.425
 3500SOL    HW211400   0.690   4.353   5.448
 3501SOL     OW11401   0.575   5.466   4.142
 3501SOL    HW111402   0.587   5.391   4.207
 3501SOL    HW211403   0.483   5.504   4.151
 3502SOL     OW11404   6.928   2.620   2.071
 3502SOL    HW111405   6.855   2.575   2.123
 3502SOL    HW211406   7.015   2.575   2.090
 3503SOL     OW11407   5.793   6.478   5.154
 3503SOL    HW111408   5.752   6.402   5.203
 3503SOL    HW211409   5.782   6.562   5.207
 3504SOL     OW11410   2.314   2.589   1.210
 3504SOL    HW111411   2.240   2.532   1.175
 3504SOL    HW211412   2.341   2.655   1.139
 3505SOL     OW11413   5.602   5.064   4.883
 3505SOL    HW111414   5.678   5.060   4.948
 3505SOL    HW211415   5.622   5.004   4.805
 3506SOL     OW11416   4.359   5.677   5.611
 3506SOL    HW111417   4.390   5.654   5.519
 3506SOL    HW211418   4.438   5.692   5.670
 3507SOL     OW11419   2.303   0.371   6.757
 3507SOL    HW111420   2.318   0.313   6.837
 3507SOL    HW211421   2.206   0.397   6.753
 3508SOL     OW11422   4.011   2.562   6.291
 3508SOL    HW111423   3.940   2.505   6.251
 3508SOL    HW211424   4.056   2.615   6.219
 3509SOL     OW11425   4.954   6.438   6.528
 3509SOL    HW111426   5.024   6.502   6.560
 3509SOL    HW211427   4.872   6.448   6.585
 3510SOL     OW11428   1.987   2.676   1.534
 3510SOL    HW111429   2.063   2.632   1.581
 3510SOL    HW211430   2.021   2.727   1.456
 3511SOL     OW11431   1.764   4.649   6.832
 3511SOL    HW111432   1.721   4.568   6.872
 3511SOL    HW211433   1.864   4.640   6.840
 3512SOL     OW11434   0.229   4.256   0.650
 3512SOL    HW111435   0.210   4.203   0.733
 3512SOL    HW211436   0.316   4.226   0.610
 3513SOL     OW11437   5.601   4.257   0.568
 3513SOL    HW111438   5.526   4.206   0.526
 3513SOL    HW211439   5.598   4.352   0.537
 3514SOL     OW11440   0.667   1.097   1.770
 3514SOL    HW111441   0.678   1.184   1.722
 3514SOL    HW211442   0.741   1.035   1.744
 3515SOL     OW11443   3.881   6.926   2.521
 3515SOL    HW111444   3.938   6.847   2.540
 3515SOL    HW211445   3.792   6.915   2.565
 3516SOL     OW11446   4.262   1.138   0.669
 3516SOL    HW111447   4.198   1.075   0.625
 3516SOL    HW211448   4.320   1.088   0.733
 3517SOL     OW11449   0.561   2.217   6.951
 3517SOL    HW111450   0.557   2.249   6.857
 3517SOL    HW211451   0.577   2.118   6.951
 3518SOL     OW11452   5.075   4.210   5.491
 3518SOL    HW111453   5.060   4.123   5.444
 3518SOL    HW211454   5.172   4.231   5.493
 3519SOL     OW11455   1.877   0.342   6.592
 3519SOL    HW111456   1.919   0.417   6.642
 3519SOL    HW211457   1.948   0.292   6.541
 3520SOL     OW11458   3.242   4.780   0.728
 3520SOL    HW111459   3.277   4.851   0.667
 3520SOL    HW211460   3.148   4.758   0.703
 3521SOL     OW11461   5.603   3.187   1.800
 3521SOL    HW111462   5.680   3.249   1.785
 3521SOL    HW211463   5.603   3.116   1.729
 3522SOL     OW11464   3.901   5.632   2.422
 3522SOL    HW111465   3.986   5.594   2.459
 3522SOL    HW211466   3.840   5.558   2.396
 3523SOL     OW11467   3.080   4.270   5.614
 3523SOL    HW111468   3.171   4.307   5.632
 3523SOL    HW211469   3.013   4.344   5.610
 3524SOL     OW11470   2.744   0.972   1.325
 3524SOL    HW111471   2.807   1.001   1.397
 3524SOL    HW211472   2.661   0.935   1.366
 3525SOL     OW11473   0.786   3.574   2.480
 3525SOL    HW111474   0.800   3.653   2.540
 3525SOL    HW211475   0.729   3.506   2.527
 3526SOL     OW11476   1.333   6.594   3.622
 3526SOL    HW111477   1.248   6.571   3.575
 3526SOL    HW211478   1.317   6.670   3.686
 3527SOL     OW11479   5.977   3.012   5.759
 3527SOL    HW111480   6.052   3.015   5.824
 3527SOL    HW211481   5.891   2.995   5.807
 3528SOL     OW11482   1.122   5.476   3.447
 3528SOL    HW111483   1.123   5.376   3.451
 3528SOL    HW211484   1.030   5.509   3.468
 3529SOL     OW11485   3.808   6.605   5.210
 3529SOL    HW111486   3.811   6.703   5.191
 3529SOL    HW211487   3.768   6.589   5.300
 3530SOL     OW11488   2.395   4.822   2.849
 3530SOL    HW111489   2.318   4.872   2.810
 3530SOL    HW211490   2.466   4.812   2.780
 3531SOL     OW11491   5.048   4.774   1.444
 3531SOL    HW111492   5.094   4.756   1.357
 3531SOL    HW211493   5.108   4.746   1.519
 3532SOL     OW11494   3.273   0.318   0.460
 3532SOL    HW111495   3.237   0.274   0.542
 3532SOL    HW211496   3.255   0.259   0.380
 3533SOL     OW11497   1.252   2.420   3.169
 3533SOL    HW111498   1.254   2.442   3.072
 3533SOL    HW211499   1.234   2.503   3.222
 3534SOL     OW11500   5.817   1.157   5.035
 3534SOL    HW111501   5.749   1.230   5.030
 3534SOL    HW211502   5.817   1.118   5.127
 3535SOL     OW11503   6.444   5.604   0.464
 3535SOL    HW111504   6.543   5.609   0.475
 3535SOL    HW211505   6.409   5.528   0.519
 3536SOL     OW11506   2.248   2.993   3.790
 3536SOL    HW111507   2.246   3.093   3.795
 3536SOL    HW211508   2.234   2.963   3.696
 3537SOL     OW11509   2.773   4.879   0.413
 3537SOL    HW111510   2.812   4.791   0.389
 3537SOL    HW211511   2.722   4.871   0.499
 3538SOL     OW11512   2.270   0.800   4.041
 3538SOL    HW111513   2.173   0.779   4.028
 3538SOL    HW211514   2.283   0.899   4.036
 3539SOL     OW11515   5.784   3.701   6.270
 3539SOL    HW111516   5.884   3.693   6.266
 3539SOL    HW211517   5.758   3.755   6.350
 3540SOL     OW11518   2.363   1.463   5.712
 3540SOL    HW111519   2.411   1.383   5.676
 3540SOL    HW211520   2.321   1.514   5.637
 3541SOL     OW11521   2.756   2.691   6.604
 3541SOL    HW111522   2.720   2.719   6.515
 3541SOL    HW211523   2.709   2.609   6.635
 3542SOL     OW11524   6.656   2.956   0.800
 3542SOL    HW111525   6.697   2.868   0.778
 3542SOL    HW211526   6.708   2.999   0.874
 3543SOL     OW11527   1.854   3.387   4.320
 3543SOL    HW111528   1.831   3.392   4.223
 3543SOL    HW211529   1.892   3.474   4.351
 3544SOL     OW11530   1.888   4.805   6.263
 3544SOL    HW111531   1.889   4.904   6.270
 3544SOL    HW211532   1.839   4.777   6.181
 3545SOL     OW11533   4.120   4.562   0.175
 3545SOL    HW111534   4.132   4.661   0.184
 3545SOL    HW211535   4.179   4.527   0.103
 3546SOL     OW11536   0.075   5.103   2.680
 3546SOL    HW111537   0.103   5.193   2.714
 3546SOL    HW211538   0.156   5.048   2.660
 3547SOL     OW11539   6.785   3.967   5.330
 3547SOL    HW111540   6.728   4.046   5.351
 3547SOL    HW211541   6.742   3.884   5.366
 3548SOL     OW11542   5.997   0.558   5.044
 3548SOL    HW111543   5.925   0.540   4.978
 3548SOL    HW211544   6.044   0.472   5.066
 3549SOL     OW11545   2.210   4.536   5.807
 3549SOL    HW111546   2.299   4.541   5.760
 3549SOL    HW211547   2.184   4.441   5.819
 3550SOL     OW11548   5.681   2.185   4.297
 3550SOL    HW111549   5.719   2.220   4.211
 3550SOL    HW211550   5.743   2.116   4.335
 3551SOL     OW11551   3.347   1.546   4.698
 3551SOL    HW111552   3.354   1.635   4.654
 3551SOL    HW211553   3.397   1.478   4.644
 3552SOL     OW11554   5.990   5.880   2.111
 3552SOL    HW111555   5.993   5.946   2.186
 3552SOL    HW211556   5.980   5.788   2.147
 3553SOL     OW11557   3.619   5.398   6.618
 3553SOL    HW111558   3.537   5.343   6.604
 3553SOL    HW211559   3.632   5.414   6.716
 3554SOL     OW11560   5.060   2.734   0.866
 3554SOL    HW111561   5.018   2.781   0.788
 3554SOL    HW211562   5.103   2.649   0.835
 3555SOL     OW11563   1.359   2.617   3.955
 3555SOL    HW111564   1.413   2.698   3.976
 3555SOL    HW211565   1.324   2.623   3.861
 3556SOL     OW11566   3.711   1.105   3.956
 3556SOL    HW111567   3.779   1.033   3.936
 3556SOL    HW211568   3.622   1.078   3.920
 3557SOL     OW11569   1.109   6.469   3.873
 3557SOL    HW111570   1.142   6.516   3.791
 3557SOL    HW211571   1.046   6.396   3.847
 3558SOL     OW11572   2.670   4.548   1.429
 3558SOL    HW111573   2.647   4.509   1.340
 3558SOL    HW211574   2.728   4.485   1.479
 3559SOL     OW11575   1.576   5.789   4.516
 3559SOL    HW111576   1.539   5.856   4.451
 3559SOL    HW211577   1.507   5.766   4.584
 3560SOL     OW11578   1.750   4.828   3.282
 3560SOL    HW111579   1.816   4.902   3.290
 3560SOL    HW211580   1.799   4.743   3.261
 3561SOL     OW11581   5.046   3.843   5.674
 3561SOL    HW111582   4.992   3.759   5.685
 3561SOL    HW211583   5.124   3.840   5.736
 3562SOL     OW11584   3.344   1.803   3.863
 3562SOL    HW111585   3.427   1.816   3.810
 3562SOL    HW211586   3.362   1.741   3.939
 3563SOL     OW11587   5.790   1.879   6.084
 3563SOL    HW111588   5.841   1.954   6.127
 3563SOL    HW211589   5.720   1.846   6.148
 3564SOL     OW11590   0.495   5.107   3.320
 3564SOL    HW111591   0.425   5.042   3.350
 3564SOL    HW211592   0.542   5.071   3.240
 3565SOL     OW11593   3.653   5.521   3.361
 3565SOL    HW111594   3.719   5.452   3.391
 3565SOL    HW211595   3.583   5.478   3.303
 3566SOL     OW11596   6.511   1.085   5.818
 3566SOL    HW111597   6.413   1.080   5.838
 3566SOL    HW211598   6.541   1.180   5.824
 3567SOL     OW11599   0.524   2.398   6.064
 3567SOL    HW111600   0.539   2.300   6.069
 3567SOL    HW211601   0.600   2.445   6.109
 3568SOL     OW11602   5.983   3.939   4.995
 3568SOL    HW111603   6.062   3.890   4.957
 3568SOL    HW211604   5.899   3.897   4.961
 3569SOL     OW11605   3.333   1.903   5.797
 3569SOL    HW111606   3.376   1.816   5.771
 3569SOL    HW211607   3.247   1.914   5.746
 3570SOL     OW11608   4.758   0.501   6.328
 3570SOL    HW111609   4.692   0.473   6.398
 3570SOL    HW211610   4.815   0.574   6.364
 3571SOL     OW11611   0.492   5.080   0.269
 3571SOL    HW111612   0.488   4.980   0.270
 3571SOL    HW211613   0.421   5.116   0.209
 3572SOL     OW11614   5.531   3.885   3.268
 3572SOL    HW111615   5.514   3.791   3.240
 3572SOL    HW211616   5.479   3.947   3.210
 3573SOL     OW11617   0.601   4.841   4.005
 3573SOL    HW111618   0.656   4.758   4.018
 3573SOL    HW211619   0.655   4.910   3.958
 3574SOL     OW11620   0.164   4.831   0.530
 3574SOL    HW111621   0.109   4.888   0.469
 3574SOL    HW211622   0.257   4.825   0.494
 3575SOL     OW11623   5.697   4.725   2.848
 3575SOL    HW111624   5.690   4.697   2.944
 3575SOL    HW211625   5.606   4.728   2.807
 3576SOL     OW11626   2.181   1.714   5.247
 3576SOL    HW111627   2.271   1.749   5.272
 3576SOL    HW211628   2.113   1.787   5.256
 3577SOL     OW11629   1.228   3.381   6.230
 3577SOL    HW111630   1.165   3.391   6.153
 3577SOL    HW211631   1.296   3.311   6.209
 3578SOL     OW11632   3.276   2.431   0.609
 3578SOL    HW111633   3.247   2.458   0.701
 3578SOL    HW211634   3.217   2.358   0.574
 3579SOL     OW11635   6.395   4.233   4.532
 3579SOL    HW111636   6.444   4.222   4.619
 3579SOL    HW211637   6.404   4.149   4.478
 3580SOL     OW11638   5.800   2.366   1.094
 3580SOL    HW111639   5.729   2.316   1.045
 3580SOL    HW211640   5.764   2.454   1.124
 3581SOL     OW11641   6.966   6.555   4.201
 3581SOL    HW111642   7.002   6.465   4.226
 3581SOL    HW211643   6.898   6.584   4.269
 3582SOL     OW11644   1.079   2.049   5.917
 3582SOL    HW111645   1.044   2.129   5.868
 3582SOL    HW211646   1.155   2.009   5.867
 3583SOL     OW11647   1.595   3.795   6.447
 3583SOL    HW111648   1.576   3.784   6.349
 3583SOL    HW211649   1.520   3.756   6.500
 3584SOL     OW11650   5.787   5.412   0.468
 3584SOL    HW111651   5.767   5.508   0.491
 3584SOL    HW211652   5.844   5.409   0.386
 3585SOL     OW11653   4.287   5.734   5.156
 3585SOL    HW111654   4.353   5.713   5.229
 3585SOL    HW211655   4.314   5.819   5.111
 3586SOL     OW11656   0.203   2.217   5.259
 3586SOL    HW111657   0.147   2.179   5.333
 3586SOL    HW211658   0.234   2.309   5.285
 3587SOL     OW11659   3.195   4.949   6.249
 3587SOL    HW111660   3.203   5.013   6.172
 3587SOL    HW211661   3.187   4.856   6.213
 3588SOL     OW11662   1.313   2.698   4.452
 3588SOL    HW111663   1.333   2.752   4.534
 3588SOL    HW211664   1.356   2.608   4.460
 3589SOL     OW11665   3.999   2.087   4.666
 3589SOL    HW111666   3.916   2.108   4.614
 3589SOL    HW211667   4.071   2.151   4.639
 3590SOL     OW11668   0.559   3.417   6.248
 3590SOL    HW111669   0.540   3.485   6.177
 3590SOL    HW211670   0.475   3.366   6.268
 3591SOL     OW11671   5.190   3.355   6.427
 3591SOL    HW111672   5.262   3.299   6.384
 3591SOL    HW211673   5.124   3.383   6.357
 3592SOL     OW11674   6.612   4.380   2.525
 3592SOL    HW111675   6.556   4.302   2.497
 3592SOL    HW211676   6.572   4.422   2.606
 3593SOL     OW11677   1.913   5.848   3.973
 3593SOL    HW111678   1.813   5.845   3.973
 3593SOL    HW211679   1.943   5.941   3.952
 3594SOL     OW11680   4.214   0.868   3.456
 3594SOL    HW111681   4.309   0.838   3.460
 3594SOL    HW211682   4.173   0.863   3.548
 3595SOL     OW11683   2.770   5.491   6.633
 3595SOL    HW111684   2.700   5.533   6.691
 3595SOL    HW211685   2.728   5.456   6.550
 3596SOL     OW11686   6.525   2.269   3.110
 3596SOL    HW111687   6.616   2.291   3.147
 3596SOL    HW211688   6.474   2.216   3.177
 3597SOL     OW11689   1.751   0.431   5.276
 3597SOL    HW111690   1.767   0.344   5.229
 3597SOL    HW211691   1.748   0.416   5.375
 3598SOL     OW11692   1.370   6.354   6.633
 3598SOL    HW111693   1.320   6.357   6.720
 3598SOL    HW211694   1.408   6.262   6.620
 3599SOL     OW11695   0.720   2.094   5.882
 3599SOL    HW111696   0.761   2.184   5.867
 3599SOL    HW211697   0.621   2.103   5.894
 3600SOL     OW11698   1.150   3.598   0.394
 3600SOL    HW111699   1.178   3.635   0.305
 3600SOL    HW211700   1.077   3.655   0.433
 3601SOL     OW11701   5.943   4.664   0.206
 3601SOL    HW111702   5.857   4.634   0.166
 3601SOL    HW211703   6.018   4.646   0.142
 3602SOL     OW11704   1.134   2.063   0.603
 3602SOL    HW111705   1.161   2.158   0.616
 3602SOL    HW211706   1.071   2.036   0.677
 3603SOL     OW11707   3.238   6.461   3.905
 3603SOL    HW111708   3.227   6.527   3.831
 3603SOL    HW211709   3.266   6.372   3.868
 3604SOL     OW11710   0.112   4.635   3.692
 3604SOL    HW111711   0.132   4.606   3.786
 3604SOL    HW211712   0.015   4.616   3.671
 3605SOL     OW11713   5.411   3.992   5.272
 3605SOL    HW111714   5.360   4.077   5.261
 3605SOL    HW211715   5.476   4.002   5.347
 3606SOL     OW11716   0.127   6.246   5.214
 3606SOL    HW111717   0.080   6.263   5.127
 3606SOL    HW211718   0.133   6.331   5.266
 3607SOL     OW11719   5.133   6.297   0.985
 3607SOL    HW111720   5.088   6.315   0.898
 3607SOL    HW211721   5.209   6.234   0.972
 3608SOL     OW11722   6.652   1.869   2.841
 3608SOL    HW111723   6.565   1.912   2.865
 3608SOL    HW211724   6.718   1.938   2.814
 3609SOL     OW11725   0.652   0.637   3.985
 3609SOL    HW111726   0.696   0.591   3.908
 3609SOL    HW211727   0.562   0.670   3.958
 3610SOL     OW11728   1.523   6.789   5.511
 3610SOL    HW111729   1.433   6.745   5.505
 3610SOL    HW211730   1.548   6.826   5.421
 3611SOL     OW11731   4.723   6.594   6.157
 3611SOL    HW111732   4.710   6.567   6.062
 3611SOL    HW211733   4.795   6.540   6.199
 3612SOL     OW11734   6.005   0.381   5.774
 3612SOL    HW111735   6.061   0.431   5.708
 3612SOL    HW211736   5.916   0.427   5.783
 3613SOL     OW11737   4.244   5.418   2.011
 3613SOL    HW111738   4.266   5.323   2.032
 3613SOL    HW211739   4.264   5.437   1.914
 3614SOL     OW11740   3.474   3.783   2.730
 3614SOL    HW111741   3.563   3.783   2.685
 3614SOL    HW211742   3.441   3.876   2.739
 3615SOL     OW11743   5.866   5.923   0.184
 3615SOL    HW111744   5.790   5.906   0.246
 3615SOL    HW211745   5.831   5.958   0.097
 3616SOL     OW11746   6.979   2.891   5.563
 3616SOL    HW111747   7.007   2.961   5.497
 3616SOL    HW211748   0.034   2.836   5.590
 3617SOL     OW11749   4.309   0.983   6.553
 3617SOL    HW111750   4.344   1.033   6.475
 3617SOL    HW211751   4.297   0.887   6.529
 3618SOL     OW11752   2.082   2.394   4.943
 3618SOL    HW111753   2.006   2.329   4.949
 3618SOL    HW211754   2.163   2.354   4.987
 3619SOL     OW11755   5.897   3.177   3.842
 3619SOL    HW111756   5.974   3.221   3.890
 3619SOL    HW211757   5.848   3.245   3.788
 3620SOL     OW11758   6.491   5.924   5.889
 3620SOL    HW111759   6.406   5.926   5.940
 3620SOL    HW211760   6.509   6.014   5.849
 3621SOL     OW11761   3.751   2.678   6.036
 3621SOL    HW111762   3.711   2.674   5.944
 3621SOL    HW211763   3.732   2.767   6.077
 3622SOL     OW11764   1.981   2.073   4.445
 3622SOL    HW111765   1.916   2.023   4.387
 3622SOL    HW211766   2.075   2.054   4.414
 3623SOL     OW11767   6.087   5.457   4.296
 3623SOL    HW111768   6.076   5.364   4.263
 3623SOL    HW211769   6.129   5.513   4.225
 3624SOL     OW11770   2.413   6.204   2.281
 3624SOL    HW111771   2.454   6.216   2.190
 3624SOL    HW211772   2.342   6.273   2.295
 3625SOL     OW11773   5.420   3.640   0.232
 3625SOL    HW111774   5.494   3.706   0.247
 3625SOL    HW211775   5.437   3.558   0.287
 3626SOL     OW11776   1.534   3.167   6.264
 3626SOL    HW111777   1.617   3.148   6.317
 3626SOL    HW211778   1.560   3.188   6.169
 3627SOL     OW11779   3.665   2.878   3.474
 3627SOL    HW111780   3.672   2.890   3.375
 3627SOL    HW211781   3.722   2.947   3.519
 3628SOL     OW11782   1.417   0.629   1.755
 3628SOL    HW111783   1.339   0.689   1.775
 3628SOL    HW211784   1.457   0.596   1.841
 3629SOL     OW11785   6.825   2.221   4.475
 3629SOL    HW111786   6.804   2.265   4.388
 3629SOL    HW211787   6.778   2.132   4.479
 3630SOL     OW11788   5.133   2.806   3.337
 3630SOL    HW111789   5.099   2.850   3.421
 3630SOL    HW211790   5.056   2.765   3.288
 3631SOL     OW11791   1.844   6.937   3.573
 3631SOL    HW111792   1.748   6.939   3.546
 3631SOL    HW211793   1.902   6.964   3.496
 3632SOL     OW11794   5.106   6.656   1.354
 3632SOL    HW111795   5.013   6.631   1.327
 3632SOL    HW211796   5.103   6.721   1.429
 3633SOL     OW11797   3.393   1.677   5.687
 3633SOL    HW111798   3.489   1.683   5.660
 3633SOL    HW211799   3.339   1.646   5.609
 3634SOL     OW11800   0.376   5.132   4.335
 3634SOL    HW111801   0.423   5.074   4.268
 3634SOL    HW211802   0.277   5.115   4.330
 3635SOL     OW11803   2.656   6.555   6.130
 3635SOL    HW111804   2.557   6.563   6.143
 3635SOL    HW211805   2.702   6.628   6.182
 3636SOL     OW11806   0.752   5.554   6.890
 3636SOL    HW111807   0.737   5.569   6.792
 3636SOL    HW211808   0.715   5.631   6.941
 3637SOL     OW11809   6.286   1.469   1.305
 3637SOL    HW111810   6.190   1.497   1.306
 3637SOL    HW211811   6.295   1.381   1.352
 3638SOL     OW11812   0.564   4.562   4.840
 3638SOL    HW111813   0.522   4.495   4.901
 3638SOL    HW211814   0.495   4.627   4.810
 3639SOL     OW11815   3.246   4.217   1.736
 3639SOL    HW111816   3.197   4.198   1.651
 3639SOL    HW211817   3.284   4.132   1.773
 3640SOL     OW11818   3.576   0.724   0.542
 3640SOL    HW111819   3.654   0.775   0.577
 3640SOL    HW211820   3.491   0.763   0.577
 3641SOL     OW11821   5.190   2.750   3.749
 3641SOL    HW111822   5.184   2.667   3.694
 3641SOL    HW211823   5.188   2.727   3.846
 3642SOL     OW11824   4.677   0.663   0.723
 3642SOL    HW111825   4.581   0.678   0.700
 3642SOL    HW211826   4.734   0.734   0.682
 3643SOL     OW11827   2.965   5.671   5.252
 3643SOL    HW111828   2.918   5.704   5.170
 3643SOL    HW211829   3.048   5.623   5.225
 3644SOL     OW11830   6.832   1.704   1.818
 3644SOL    HW111831   6.808   1.800   1.829
 3644SOL    HW211832   6.751   1.652   1.791
 3645SOL     OW11833   6.933   3.291   3.554
 3645SOL    HW111834   6.843   3.295   3.598
 3645SOL    HW211835   6.989   3.368   3.586
 3646SOL     OW11836   6.711   4.444   6.898
 3646SOL    HW111837   6.795   4.494   6.919
 3646SOL    HW211838   6.632   4.499   6.923
 3647SOL     OW11839   2.517   3.154   6.749
 3647SOL    HW111840   2.560   3.071   6.713
 3647SOL    HW211841   2.474   3.134   6.837
 3648SOL     OW11842   3.500   4.949   2.519
 3648SOL    HW111843   3.563   4.895   2.576
 3648SOL    HW211844   3.498   4.911   2.426
 3649SOL     OW11845   4.896   3.095   1.807
 3649SOL    HW111846   4.803   3.082   1.841
 3649SOL    HW211847   4.896   3.162   1.733
 3650SOL     OW11848   0.171   5.516   0.870
 3650SOL    HW111849   0.138   5.430   0.909
 3650SOL    HW211850   0.267   5.530   0.895
 3651SOL     OW11851   0.185   6.632   3.783
 3651SOL    HW111852   0.227   6.623   3.693
 3651SOL    HW211853   0.160   6.728   3.799
 3652SOL     OW11854   5.517   6.622   3.094
 3652SOL    HW111855   5.568   6.538   3.115
 3652SOL    HW211856   5.429   6.621   3.141
 3653SOL     OW11857   0.576   1.806   4.660
 3653SOL    HW111858   0.622   1.742   4.599
 3653SOL    HW211859   0.529   1.756   4.733
 3654SOL     OW11860   2.356   4.897   0.659
 3654SOL    HW111861   2.302   4.916   0.741
 3654SOL    HW211862   2.305   4.927   0.578
 3655SOL     OW11863   1.667   6.737   3.301
 3655SOL    HW111864   1.603   6.813   3.297
 3655SOL    HW211865   1.725   6.738   3.220
 3656SOL     OW11866   1.025   3.683   2.369
 3656SOL    HW111867   0.957   3.623   2.412
 3656SOL    HW211868   0.978   3.755   2.318
 3657SOL     OW11869   5.338   4.908   6.419
 3657SOL    HW111870   5.435   4.895   6.397
 3657SOL    HW211871   5.293   4.958   6.345
 3658SOL     OW11872   1.827   5.425   5.269
 3658SOL    HW111873   1.810   5.335   5.308
 3658SOL    HW211874   1.909   5.421   5.212
 3659SOL     OW11875   1.514   3.426   5.154
 3659SOL    HW111876   1.565   3.343   5.174
 3659SOL    HW211877   1.566   3.483   5.090
 3660SOL     OW11878   5.211   0.449   3.479
 3660SOL    HW111879   5.218   0.349   3.471
 3660SOL    HW211880   5.144   0.483   3.412
 3661SOL     OW11881   5.558   1.559   5.580
 3661SOL    HW111882   5.657   1.559   5.560
 3661SOL    HW211883   5.522   1.651   5.568
 3662SOL     OW11884   4.402   0.211   4.166
 3662SOL    HW111885   4.451   0.167   4.090
 3662SOL    HW211886   4.467   0.232   4.239
 3663SOL     OW11887   1.720   2.252   0.642
 3663SOL    HW111888   1.632   2.221   0.679
 3663SOL    HW211889   1.710   2.271   0.544
 3664SOL     OW11890   5.805   2.113   2.105
 3664SOL    HW111891   5.871   2.146   2.037
 3664SOL    HW211892   5.713   2.116   2.066
 3665SOL     OW11893   2.351   6.167   5.568
 3665SOL    HW111894   2.323   6.243   5.628
 3665SOL    HW211895   2.328   6.189   5.473
 3666SOL     OW11896   1.239   3.999   3.540
 3666SOL    HW111897   1.258   4.071   3.607
 3666SOL    HW211898   1.319   3.984   3.483
 3667SOL     OW11899   0.380   1.296   1.961
 3667SOL    HW111900   0.352   1.257   1.874
 3667SOL    HW211901   0.323   1.376   1.982
 3668SOL     OW11902   1.588   0.895   2.094
 3668SOL    HW111903   1.522   0.837   2.044
 3668SOL    HW211904   1.675   0.846   2.102
 3669SOL     OW11905   5.064   1.311   3.367
 3669SOL    HW111906   5.141   1.289   3.427
 3669SOL    HW211907   5.083   1.278   3.274
 3670SOL     OW11908   3.013   5.087   0.523
 3670SOL    HW111909   3.010   5.088   0.622
 3670SOL    HW211910   2.922   5.071   0.486
 3671SOL     OW11911   5.981   0.880   3.691
 3671SOL    HW111912   5.929   0.965   3.693
 3671SOL    HW211913   6.066   0.894   3.641
 3672SOL     OW11914   5.757   1.881   1.392
 3672SOL    HW111915   5.734   1.804   1.333
 3672SOL    HW211916   5.761   1.965   1.337
 3673SOL     OW11917   4.125   6.423   6.757
 3673SOL    HW111918   4.222   6.399   6.767
 3673SOL    HW211919   4.080   6.416   6.846
 3674SOL     OW11920   1.257   0.055   5.421
 3674SOL    HW111921   1.255   0.098   5.330
 3674SOL    HW211922   1.296   6.987   5.413
 3675SOL     OW11923   2.002   3.356   4.680
 3675SOL    HW111924   2.054   3.371   4.596
 3675SOL    HW211925   2.042   3.411   4.754
 3676SOL     OW11926   5.279   4.287   3.896
 3676SOL    HW111927   5.307   4.360   3.834
 3676SOL    HW211928   5.359   4.251   3.944
 3677SOL     OW11929   1.583   6.136   3.267
 3677SOL    HW111930   1.604   6.201   3.194
 3677SOL    HW211931   1.665   6.122   3.323
 3678SOL     OW11932   0.364   2.460   5.257
 3678SOL    HW111933   0.391   2.552   5.230
 3678SOL    HW211934   0.437   2.395   5.235
 3679SOL     OW11935   1.477   0.435   2.864
 3679SOL    HW111936   1.539   0.359   2.845
 3679SOL    HW211937   1.480   0.456   2.962
 3680SOL     OW11938   5.671   2.638   3.444
 3680SOL    HW111939   5.591   2.647   3.385
 3680SOL    HW211940   5.670   2.547   3.487
 3681SOL     OW11941   0.531   6.998   5.910
 3681SOL    HW111942   0.447   6.985   5.857
 3681SOL    HW211943   0.558   0.070   5.906
 3682SOL     OW11944   6.037   1.921   7.020
 3682SOL    HW111945   6.025   1.994   6.953
 3682SOL    HW211946   5.955   1.913   0.052
 3683SOL     OW11947   0.106   0.338   2.719
 3683SOL    HW111948   0.168   0.400   2.768
 3683SOL    HW211949   0.143   0.245   2.722
 3684SOL     OW11950   2.010   4.559   6.980
 3684SOL    HW111951   2.048   4.491   0.018
 3684SOL    HW211952   2.071   4.570   6.901
 3685SOL     OW11953   6.608   6.247   6.209
 3685SOL    HW111954   6.528   6.300   6.238
 3685SOL    HW211955   6.687   6.308   6.202
 3686SOL     OW11956   5.568   6.172   3.630
 3686SOL    HW111957   5.494   6.154   3.566
 3686SOL    HW211958   5.560   6.111   3.709
 3687SOL     OW11959   3.681   5.717   5.242
 3687SOL    HW111960   3.747   5.666   5.187
 3687SOL    HW211961   3.661   5.667   5.326
 3688SOL     OW11962   6.465   3.615   6.490
 3688SOL    HW111963   6.441   3.706   6.524
 3688SOL    HW211964   6.547   3.583   6.538
 3689SOL     OW11965   2.394   0.364   6.045
 3689SOL    HW111966   2.328   0.343   6.117
 3689SOL    HW211967   2.485   0.374   6.084
 3690SOL     OW11968   4.976   6.025   0.478
 3690SOL    HW111969   4.952   6.118   0.450
 3690SOL    HW211970   4.968   5.964   0.399
 3691SOL     OW11971   2.802   3.083   6.490
 3691SOL    HW111972   2.789   3.175   6.525
 3691SOL    HW211973   2.888   3.077   6.440
 3692SOL     OW11974   0.188   5.798   5.191
 3692SOL    HW111975   0.125   5.838   5.257
 3692SOL    HW211976   0.278   5.840   5.200
 3693SOL     OW11977   2.150   3.233   2.892
 3693SOL    HW111978   2.170   3.319   2.938
 3693SOL    HW211979   2.136   3.249   2.794
 3694SOL     OW11980   1.285   5.602   2.904
 3694SOL    HW111981   1.345   5.563   2.833
 3694SOL    HW211982   1.201   5.634   2.861
 3695SOL     OW11983   6.639   2.977   1.695
 3695SOL    HW111984   6.646   3.025   1.608
 3695SOL    HW211985   6.544   2.980   1.727
 3696SOL     OW11986   3.495   5.414   5.057
 3696SOL    HW111987   3.475   5.400   4.960
 3696SOL    HW211988   3.425   5.474   5.097
 3697SOL     OW11989   0.283   6.896   3.124
 3697SOL    HW111990   0.186   6.877   3.141
 3697SOL    HW211991   0.291   6.976   3.064
 3698SOL     OW11992   2.251   0.855   4.604
 3698SOL    HW111993   2.346   0.827   4.621
 3698SOL    HW211994   2.208   0.790   4.541
 3699SOL     OW11995   0.744   2.257   3.748
 3699SOL    HW111996   0.824   2.213   3.788
 3699SOL    HW211997   0.764   2.352   3.728
 3700SOL     OW11998   0.362   6.614   4.924
 3700SOL    HW111999   0.338   6.517   4.922
 3700SOL    HW212000   0.278   6.669   4.929
 3701SOL     OW12001   1.423   0.384   4.116
 3701SOL    HW112002   1.473   0.445   4.055
 3701SOL    HW212003   1.486   0.320   4.161
 3702SOL     OW12004   5.212   6.747   2.455
 3702SOL    HW112005   5.168   6.743   2.365
 3702SOL    HW212006   5.283   6.817   2.455
 3703SOL     OW12007   5.257   1.155   5.761
 3703SOL    HW112008   5.219   1.186   5.674
 3703SOL    HW212009   5.267   1.234   5.822
 3704SOL     OW12010   3.368   1.707   1.501
 3704SOL    HW112011   3.372   1.799   1.539
 3704SOL    HW212012   3.272   1.680   1.490
 3705SOL     OW12013   4.554   5.512   3.775
 3705SOL    HW112014   4.604   5.503   3.861
 3705SOL    HW212015   4.603   5.463   3.703
 3706SOL     OW12016   1.200   3.118   6.717
 3706SOL    HW112017   1.273   3.083   6.659
 3706SOL    HW212018   1.187   3.058   6.796
 3707SOL     OW12019   5.059   4.118   4.888
 3707SOL    HW112020   5.114   4.176   4.948
 3707SOL    HW212021   4.962   4.137   4.904
 3708SOL     OW12022   0.101   0.608   6.168
 3708SOL    HW112023   0.154   0.688   6.139
 3708SOL    HW212024   0.075   0.554   6.087
 3709SOL     OW12025   3.205   0.720   0.810
 3709SOL    HW112026   3.122   0.671   0.785
 3709SOL    HW212027   3.191   0.766   0.898
 3710SOL     OW12028   6.552   5.304   6.242
 3710SOL    HW112029   6.588   5.324   6.151
 3710SOL    HW212030   6.625   5.269   6.300
 3711SOL     OW12031   0.297   0.215   3.868
 3711SOL    HW112032   0.259   0.307   3.874
 3711SOL    HW212033   0.301   0.187   3.772
 3712SOL     OW12034   0.192   6.046   0.283
 3712SOL    HW112035   0.244   6.047   0.198
 3712SOL    HW212036   0.095   6.033   0.262
 3713SOL     OW12037   1.458   6.073   5.066
 3713SOL    HW112038   1.414   5.986   5.043
 3713SOL    HW212039   1.413   6.148   5.017
 3714SOL     OW12040   5.248   5.903   5.707
 3714SOL    HW112041   5.270   5.809   5.732
 3714SOL    HW212042   5.326   5.962   5.729
 3715SOL     OW12043   6.479   3.925   2.738
 3715SOL    HW112044   6.459   4.010   2.690
 3715SOL    HW212045   6.402   3.900   2.796
 3716SOL     OW12046   6.392   0.318   5.008
 3716SOL    HW112047   6.358   0.269   4.928
 3716SOL    HW212048   6.457   0.389   4.980
 3717SOL     OW12049   5.931   6.135   6.571
 3717SOL    HW112050   5.916   6.207   6.504
 3717SOL    HW212051   6.019   6.090   6.553
 3718SOL     OW12052   1.671   0.769   0.316
 3718SOL    HW112053   1.630   0.695   0.263
 3718SOL    HW212054   1.768   0.751   0.328
 3719SOL     OW12055   5.306   4.627   1.290
 3719SOL    HW112056   5.332   4.676   1.374
 3719SOL    HW212057   5.388   4.603   1.239
 3720SOL     OW12058   6.124   2.726   6.653
 3720SOL    HW112059   6.052   2.672   6.696
 3720SOL    HW212060   6.162   2.790   6.721
 3721SOL     OW12061   5.676   4.596   1.931
 3721SOL    HW112062   5.699   4.592   1.833
 3721SOL    HW212063   5.757   4.626   1.982
 3722SOL     OW12064   6.508   6.077   0.748
 3722SOL    HW112065   6.490   6.042   0.656
 3722SOL    HW212066   6.521   6.176   0.745
 3723SOL     OW12067   6.416   5.929   1.727
 3723SOL    HW112068   6.345   5.969   1.785
 3723SOL    HW212069   6.500   5.982   1.736
 3724SOL     OW12070   1.923   4.360   5.105
 3724SOL    HW112071   2.004   4.320   5.062
 3724SOL    HW212072   1.846   4.298   5.095
 3725SOL     OW12073   6.014   5.264   0.968
 3725SOL    HW112074   5.944   5.285   0.901
 3725SOL    HW212075   5.971   5.239   1.055
 3726SOL     OW12076   5.817   4.338   0.406
 3726SOL    HW112077   5.801   4.408   0.475
 3726SOL    HW212078   5.915   4.320   0.397
 3727SOL     OW12079   6.665   2.295   5.178
 3727SOL    HW112080   6.692   2.209   5.221
 3727SOL    HW212081   6.633   2.278   5.085
 3728SOL     OW12082   1.127   3.945   6.766
 3728SOL    HW112083   1.167   3.940   6.857
 3728SOL    HW212084   1.185   4.001   6.707
 3729SOL     OW12085   1.144   2.666   3.295
 3729SOL    HW112086   1.213   2.734   3.323
 3729SOL    HW212087   1.069   2.712   3.248
 3730SOL     OW12088   2.774   5.003   5.749
 3730SOL    HW112089   2.758   5.077   5.684
 3730SOL    HW212090   2.724   5.020   5.834
 3731SOL     OW12091   6.134   0.548   0.717
 3731SOL    HW112092   6.058   0.601   0.680
 3731SOL    HW212093   6.195   0.520   0.644
 3732SOL     OW12094   2.797   1.857   6.408
 3732SOL    HW112095   2.776   1.891   6.316
 3732SOL    HW212096   2.791   1.933   6.473
 3733SOL     OW12097   1.290   3.862   2.109
 3733SOL    HW112098   1.259   3.936   2.051
 3733SOL    HW212099   1.365   3.813   2.064
 3734SOL     OW12100   5.153   1.319   1.921
 3734SOL    HW112101   5.119   1.413   1.927
 3734SOL    HW212102   5.095   1.266   1.860
 3735SOL     OW12103   2.198   0.750   3.597
 3735SOL    HW112104   2.221   0.843   3.567
 3735SOL    HW212105   2.257   0.725   3.674
 3736SOL     OW12106   0.090   2.276   0.630
 3736SOL    HW112107   0.017   2.340   0.658
 3736SOL    HW212108   0.149   2.258   0.708
 3737SOL     OW12109   4.940   0.430   3.389
 3737SOL    HW112110   4.930   0.431   3.488
 3737SOL    HW212111   4.866   0.484   3.348
 3738SOL     OW12112   6.618   6.291   2.433
 3738SOL    HW112113   6.676   6.361   2.475
 3738SOL    HW212114   6.606   6.312   2.336
 3739SOL     OW12115   2.753   4.413   1.652
 3739SOL    HW112116   2.820   4.464   1.706
 3739SOL    HW212117   2.661   4.435   1.683
 3740SOL     OW12118   5.897   0.664   0.619
 3740SOL    HW112119   5.857   0.591   0.564
 3740SOL    HW212120   5.845   0.749   0.603
 3741SOL     OW12121   5.529   3.450   0.972
 3741SOL    HW112122   5.448   3.394   0.952
 3741SOL    HW212123   5.539   3.459   1.071
 3742SOL     OW12124   2.115   1.589   6.356
 3742SOL    HW112125   2.019   1.572   6.334
 3742SOL    HW212126   2.160   1.502   6.378
 3743SOL     OW12127   5.525   3.141   1.408
 3743SOL    HW112128   5.448   3.128   1.345
 3743SOL    HW212129   5.604   3.176   1.358
 3744SOL     OW12130   0.982   5.438   3.006
 3744SOL    HW112131   1.066   5.398   3.042
 3744SOL    HW212132   0.970   5.410   2.911
 3745SOL     OW12133   3.770   5.034   1.671
 3745SOL    HW112134   3.795   5.063   1.579
 3745SOL    HW212135   3.744   4.937   1.669
 3746SOL     OW12136   5.603   0.886   3.245
 3746SOL    HW112137   5.511   0.864   3.277
 3746SOL    HW212138   5.666   0.813   3.270
 3747SOL     OW12139   2.693   6.757   5.323
 3747SOL    HW112140   2.628   6.684   5.307
 3747SOL    HW212141   2.672   6.804   5.408
 3748SOL     OW12142   5.887   0.943   1.218
 3748SOL    HW112143   5.792   0.910   1.218
 3748SOL    HW212144   5.903   0.997   1.136
 3749SOL     OW12145   1.433   5.651   3.723
 3749SOL    HW112146   1.357   5.685   3.778
 3749SOL    HW212147   1.502   5.723   3.713
 3750SOL     OW12148   1.043   4.054   0.702
 3750SOL    HW112149   0.981   3.993   0.652
 3750SOL    HW212150   1.045   4.027   0.799
 3751SOL     OW12151   0.280   3.591   1.485
 3751SOL    HW112152   0.252   3.666   1.545
 3751SOL    HW212153   0.297   3.626   1.393
 3752SOL     OW12154   5.261   0.773   6.763
 3752SOL    HW112155   5.347   0.801   6.721
 3752SOL    HW212156   5.264   0.793   6.861
 3753SOL     OW12157   6.765   0.375   5.337
 3753SOL    HW112158   6.708   0.311   5.286
 3753SOL    HW212159   6.855   0.334   5.353
 3754SOL     OW12160   2.134   1.067   1.323
 3754SOL    HW112161   2.191   1.010   1.265
 3754SOL    HW212162   2.123   1.158   1.281
 3755SOL     OW12163   4.905   4.921   5.032
 3755SOL    HW112164   4.879   4.836   5.078
 3755SOL    HW212165   4.914   4.905   4.934
 3756SOL     OW12166   3.220   5.124   6.044
 3756SOL    HW112167   3.153   5.171   5.985
 3756SOL    HW212168   3.299   5.184   6.058
 3757SOL     OW12169   6.150   5.003   1.342
 3757SOL    HW112170   6.249   5.014   1.344
 3757SOL    HW212171   6.115   5.031   1.252
 3758SOL     OW12172   2.372   1.550   4.579
 3758SOL    HW112173   2.309   1.588   4.512
 3758SOL    HW212174   2.409   1.463   4.544
 3759SOL     OW12175   4.180   0.101   5.822
 3759SOL    HW112176   4.138   0.167   5.760
 3759SOL    HW212177   4.244   0.148   5.883
 3760SOL     OW12178   1.146   1.355   4.258
 3760SOL    HW112179   1.212   1.328   4.188
 3760SOL    HW212180   1.060   1.306   4.244
 3761SOL     OW12181   0.526   1.018   4.933
 3761SOL    HW112182   0.427   1.004   4.935
 3761SOL    HW212183   0.564   0.998   5.023
 3762SOL     OW12184   1.755   4.603   0.919
 3762SOL    HW112185   1.759   4.550   0.834
 3762SOL    HW212186   1.777   4.544   0.997
 3763SOL     OW12187   0.421   3.456   6.987
 3763SOL    HW112188   0.389   3.402   6.910
 3763SOL    HW212189   0.368   3.433   0.045
 3764SOL     OW12190   1.379   6.913   2.565
 3764SOL    HW112191   1.312   6.899   2.637
 3764SOL    HW212192   1.332   6.922   2.477
 3765SOL     OW12193   5.144   1.617   1.077
 3765SOL    HW112194   5.199   1.585   1.154
 3765SOL    HW212195   5.166   1.562   0.996
 3766SOL     OW12196   1.824   1.920   4.270
 3766SOL    HW112197   1.816   1.820   4.268
 3766SOL    HW212198   1.737   1.959   4.302
 3767SOL     OW12199   2.890   3.921   6.827
 3767SOL    HW112200   2.866   3.858   6.901
 3767SOL    HW212201   2.933   4.003   6.865
 3768SOL     OW12202   0.470   6.775   4.457
 3768SOL    HW112203   0.451   6.727   4.372
 3768SOL    HW212204   0.426   6.865   4.456
 3769SOL     OW12205   5.800   5.032   5.076
 3769SOL    HW112206   5.826   5.060   5.169
 3769SOL    HW212207   5.799   4.932   5.071
 3770SOL     OW12208   1.225   0.533   6.494
 3770SOL    HW112209   1.191   0.501   6.406
 3770SOL    HW212210   1.199   0.467   6.565
 3771SOL     OW12211   5.063   3.902   0.617
 3771SOL    HW112212   4.976   3.887   0.664
 3771SOL    HW212213   5.096   3.994   0.636
 3772SOL     OW12214   0.414   0.598   0.191
 3772SOL    HW112215   0.414   0.527   0.261
 3772SOL    HW212216   0.400   0.688   0.233
 3773SOL     OW12217   5.700   3.261   5.759
 3773SOL    HW112218   5.697   3.163   5.779
 3773SOL    HW212219   5.638   3.281   5.682
 3774SOL     OW12220   6.116   5.554   1.584
 3774SOL    HW112221   6.022   5.540   1.552
 3774SOL    HW212222   6.180   5.514   1.519
 3775SOL     OW12223   4.563   5.606   2.771
 3775SOL    HW112224   4.577   5.701   2.799
 3775SOL    HW212225   4.489   5.566   2.826
 3776SOL     OW12226   3.986   1.940   6.446
 3776SOL    HW112227   4.018   2.018   6.499
 3776SOL    HW212228   4.040   1.859   6.469
 3777SOL     OW12229   3.195   5.025   3.204
 3777SOL    HW112230   3.156   4.998   3.292
 3777SOL    HW212231   3.169   4.959   3.134
 3778SOL     OW12232   2.588   4.962   2.634
 3778SOL    HW112233   2.671   5.015   2.649
 3778SOL    HW212234   2.591   4.920   2.543
 3779SOL     OW12235   0.855   5.134   0.866
 3779SOL    HW112236   0.926   5.204   0.860
 3779SOL    HW212237   0.768   5.176   0.888
 3780SOL     OW12238   6.090   4.512   4.835
 3780SOL    HW112239   6.025   4.511   4.911
 3780SOL    HW212240   6.044   4.480   4.752
 3781SOL     OW12241   0.246   6.501   3.534
 3781SOL    HW112242   0.262   6.407   3.503
 3781SOL    HW212243   0.334   6.549   3.541
 3782SOL     OW12244   2.449   0.620   3.227
 3782SOL    HW112245   2.547   0.621   3.248
 3782SOL    HW212246   2.416   0.713   3.214
 3783SOL     OW12247   5.785   5.324   4.219
 3783SOL    HW112248   5.725   5.265   4.164
 3783SOL    HW212249   5.765   5.420   4.198
 3784SOL     OW12250   5.534   2.957   2.700
 3784SOL    HW112251   5.592   2.879   2.676
 3784SOL    HW212252   5.589   3.040   2.701
 3785SOL     OW12253   1.420   3.516   5.732
 3785SOL    HW112254   1.457   3.479   5.816
 3785SOL    HW212255   1.486   3.579   5.691
 3786SOL     OW12256   2.519   4.472   3.406
 3786SOL    HW112257   2.467   4.386   3.411
 3786SOL    HW212258   2.457   4.547   3.385
 3787SOL     OW12259   6.436   1.053   2.306
 3787SOL    HW112260   6.342   1.076   2.332
 3787SOL    HW212261   6.453   0.956   2.323
 3788SOL     OW12262   0.422   4.408   5.006
 3788SOL    HW112263   0.324   4.389   4.995
 3788SOL    HW212264   0.473   4.322   5.011
 3789SOL     OW12265   0.596   4.174   4.736
 3789SOL    HW112266   0.634   4.251   4.685
 3789SOL    HW212267   0.630   4.177   4.830
 3790SOL     OW12268   1.230   4.626   5.813
 3790SOL    HW112269   1.192   4.687   5.743
 3790SOL    HW212270   1.269   4.545   5.769
 3791SOL     OW12271   5.090   1.345   6.342
 3791SOL    HW112272   5.103   1.262   6.288
 3791SOL    HW212273   5.173   1.400   6.339
 3792SOL     OW12274   1.381   2.025   3.198
 3792SOL    HW112275   1.398   1.992   3.105
 3792SOL    HW212276   1.284   2.013   3.220
 3793SOL     OW12277   4.539   6.770   2.491
 3793SOL    HW112278   4.557   6.838   2.420
 3793SOL    HW212279   4.465   6.803   2.550
 3794SOL     OW12280   2.259   2.467   1.475
 3794SOL    HW112281   2.239   2.524   1.555
 3794SOL    HW212282   2.301   2.523   1.404
 3795SOL     OW12283   4.863   5.991   1.265
 3795SOL    HW112284   4.872   5.996   1.365
 3795SOL    HW212285   4.954   5.975   1.225
 3796SOL     OW12286   4.112   1.714   2.731
 3796SOL    HW112287   4.176   1.693   2.658
 3796SOL    HW212288   4.155   1.695   2.820
 3797SOL     OW12289   0.742   3.127   2.737
 3797SOL    HW112290   0.723   3.183   2.656
 3797SOL    HW212291   0.793   3.045   2.710
 3798SOL     OW12292   2.286   5.627   3.238
 3798SOL    HW112293   2.345   5.685   3.293
 3798SOL    HW212294   2.337   5.548   3.204
 3799SOL     OW12295   6.262   2.931   3.665
 3799SOL    HW112296   6.249   2.834   3.684
 3799SOL    HW212297   6.348   2.962   3.705
 3800SOL     OW12298   5.249   1.612   3.638
 3800SOL    HW112299   5.241   1.703   3.677
 3800SOL    HW212300   5.164   1.589   3.589
 3801SOL     OW12301   6.084   6.722   1.625
 3801SOL    HW112302   5.987   6.698   1.632
 3801SOL    HW212303   6.131   6.697   1.710
 3802SOL     OW12304   1.578   2.106   1.672
 3802SOL    HW112305   1.494   2.115   1.617
 3802SOL    HW212306   1.653   2.078   1.613
 3803SOL     OW12307   4.097   3.531   2.343
 3803SOL    HW112308   4.074   3.434   2.337
 3803SOL    HW212309   4.161   3.546   2.419
 3804SOL     OW12310   4.780   1.135   2.992
 3804SOL    HW112311   4.757   1.231   3.003
 3804SOL    HW212312   4.776   1.110   2.896
 3805SOL     OW12313   1.867   3.112   1.434
 3805SOL    HW112314   1.794   3.179   1.451
 3805SOL    HW212315   1.898   3.073   1.521
 3806SOL     OW12316   4.000   3.625   6.241
 3806SOL    HW112317   4.037   3.620   6.148
 3806SOL    HW212318   3.901   3.641   6.236
 3807SOL     OW12319   1.852   5.411   2.623
 3807SOL    HW112320   1.886   5.439   2.712
 3807SOL    HW212321   1.856   5.488   2.559
 3808SOL     OW12322   4.044   0.742   0.382
 3808SOL    HW112323   4.016   0.675   0.451
 3808SOL    HW212324   3.990   0.729   0.299
 3809SOL     OW12325   5.533   2.131   2.015
 3809SOL    HW112326   5.464   2.087   2.073
 3809SOL    HW212327   5.488   2.180   1.940
 3810SOL     OW12328   5.440   2.711   3.296
 3810SOL    HW112329   5.374   2.690   3.368
 3810SOL    HW212330   5.404   2.679   3.208
 3811SOL     OW12331   6.679   5.900   4.722
 3811SOL    HW112332   6.708   5.805   4.736
 3811SOL    HW212333   6.733   5.960   4.780
 3812SOL     OW12334   4.573   5.117   5.818
 3812SOL    HW112335   4.632   5.089   5.893
 3812SOL    HW212336   4.577   5.049   5.745
 3813SOL     OW12337   4.584   3.397   0.452
 3813SOL    HW112338   4.504   3.339   0.437
 3813SOL    HW212339   4.655   3.374   0.386
 3814SOL     OW12340   6.038   6.860   5.656
 3814SOL    HW112341   6.084   6.861   5.745
 3814SOL    HW212342   5.950   6.815   5.665
 3815SOL     OW12343   3.515   1.817   1.014
 3815SOL    HW112344   3.487   1.809   1.110
 3815SOL    HW212345   3.472   1.745   0.960
 3816SOL     OW12346   1.240   5.529   6.430
 3816SOL    HW112347   1.147   5.549   6.400
 3816SOL    HW212348   1.276   5.450   6.380
 3817SOL     OW12349   5.123   3.625   2.087
 3817SOL    HW112350   5.190   3.700   2.085
 3817SOL    HW212351   5.048   3.646   2.024
 3818SOL     OW12352   6.813   0.861   0.014
 3818SOL    HW112353   6.774   0.947   7.005
 3818SOL    HW212354   6.809   0.859   0.114
 3819SOL     OW12355   5.627   5.526   2.106
 3819SOL    HW112356   5.621   5.625   2.120
 3819SOL    HW212357   5.659   5.508   2.013
 3820SOL     OW12358   5.554   0.249   4.082
 3820SOL    HW112359   5.528   0.305   4.004
 3820SOL    HW212360   5.637   0.198   4.060
 3821SOL     OW12361   2.134   0.711   1.553
 3821SOL    HW112362   2.172   0.804   1.559
 3821SOL    HW212363   2.139   0.679   1.458
 3822SOL     OW12364   2.246   6.648   0.742
 3822SOL    HW112365   2.263   6.717   0.813
 3822SOL    HW212366   2.214   6.694   0.659
 3823SOL     OW12367   2.949   3.643   6.173
 3823SOL    HW112368   2.989   3.730   6.201
 3823SOL    HW212369   2.974   3.572   6.239
 3824SOL     OW12370   0.437   3.405   0.377
 3824SOL    HW112371   0.361   3.445   0.327
 3824SOL    HW212372   0.405   3.325   0.428
 3825SOL     OW12373   0.104   5.770   0.806
 3825SOL    HW112374   0.140   5.689   0.851
 3825SOL    HW212375   0.137   5.773   0.711
 3826SOL     OW12376   0.777   3.919   0.548
 3826SOL    HW112377   0.683   3.912   0.580
 3826SOL    HW212378   0.823   3.831   0.560
 3827SOL     OW12379   1.602   1.436   1.736
 3827SOL    HW112380   1.598   1.358   1.798
 3827SOL    HW212381   1.698   1.458   1.716
 3828SOL     OW12382   3.507   3.604   3.253
 3828SOL    HW112383   3.545   3.649   3.172
 3828SOL    HW212384   3.579   3.590   3.321
 3829SOL     OW12385   1.270   5.058   2.042
 3829SOL    HW112386   1.224   5.126   2.099
 3829SOL    HW212387   1.203   5.012   1.984
 3830SOL     OW12388   0.928   0.240   5.326
 3830SOL    HW112389   0.980   0.325   5.318
 3830SOL    HW212390   0.874   0.227   5.243
 3831SOL     OW12391   4.452   2.257   2.670
 3831SOL    HW112392   4.361   2.273   2.710
 3831SOL    HW212393   4.509   2.338   2.686
 3832SOL     OW12394   0.177   0.540   3.093
 3832SOL    HW112395   0.208   0.545   3.188
 3832SOL    HW212396   0.077   0.541   3.091
 3833SOL     OW12397   0.069   5.943   6.522
 3833SOL    HW112398   0.157   5.990   6.519
 3833SOL    HW212399   0.002   5.993   6.467
 3834SOL     OW12400   3.951   4.090   1.450
 3834SOL    HW112401   3.851   4.083   1.448
 3834SOL    HW212402   3.991   4.014   1.398
 3835SOL     OW12403   3.860   5.982   4.463
 3835SOL    HW112404   3.791   6.054   4.456
 3835SOL    HW212405   3.949   6.023   4.482
 3836SOL     OW12406   0.204   4.638   5.833
 3836SOL    HW112407   0.235   4.720   5.787
 3836SOL    HW212408   0.272   4.565   5.820
 3837SOL     OW12409   4.522   4.110   6.245
 3837SOL    HW112410   4.487   4.202   6.257
 3837SOL    HW212411   4.546   4.071   6.334
 3838SOL     OW12412   0.849   3.314   4.467
 3838SOL    HW112413   0.762   3.266   4.457
 3838SOL    HW212414   0.919   3.270   4.411
 3839SOL     OW12415   5.732   1.430   2.988
 3839SOL    HW112416   5.663   1.415   3.059
 3839SOL    HW212417   5.688   1.427   2.898
 3840SOL     OW12418   2.519   1.374   6.743
 3840SOL    HW112419   2.560   1.433   6.673
 3840SOL    HW212420   2.588   1.313   6.780
 3841SOL     OW12421   0.075   3.814   4.894
 3841SOL    HW112422   0.095   3.742   4.961
 3841SOL    HW212423   0.036   3.772   4.812
 3842SOL     OW12424   2.556   2.795   1.723
 3842SOL    HW112425   2.625   2.724   1.713
 3842SOL    HW212426   2.602   2.882   1.743
 3843SOL     OW12427   5.800   4.972   2.674
 3843SOL    HW112428   5.793   5.012   2.582
 3843SOL    HW212429   5.852   4.887   2.669
 3844SOL     OW12430   1.141   2.683   5.276
 3844SOL    HW112431   1.141   2.781   5.259
 3844SOL    HW212432   1.175   2.664   5.368
 3845SOL     OW12433   3.207   3.947   5.103
 3845SOL    HW112434   3.195   3.852   5.131
 3845SOL    HW212435   3.118   3.992   5.096
 3846SOL     OW12436   6.944   5.260   3.398
 3846SOL    HW112437   0.017   5.274   3.421
 3846SOL    HW212438   6.930   5.280   3.301
 3847SOL     OW12439   5.289   2.211   3.819
 3847SOL    HW112440   5.212   2.254   3.773
 3847SOL    HW212441   5.256   2.158   3.897
 3848SOL     OW12442   4.607   5.456   2.512
 3848SOL    HW112443   4.545   5.424   2.440
 3848SOL    HW212444   4.555   5.471   2.597
 3849SOL     OW12445   0.972   1.229   6.120
 3849SOL    HW112446   0.975   1.183   6.208
 3849SOL    HW212447   0.916   1.312   6.127
 3850SOL     OW12448   2.643   3.323   1.563
 3850SOL    HW112449   2.547   3.319   1.536
 3850SOL    HW212450   2.684   3.408   1.531
 3851SOL     OW12451   0.786   4.553   2.381
 3851SOL    HW112452   0.820   4.647   2.380
 3851SOL    HW212453   0.853   4.494   2.426
 3852SOL     OW12454   4.196   6.249   3.986
 3852SOL    HW112455   4.184   6.176   3.919
 3852SOL    HW212456   4.113   6.257   4.042
 3853SOL     OW12457   0.692   4.428   3.717
 3853SOL    HW112458   0.700   4.334   3.750
 3853SOL    HW212459   0.659   4.487   3.790
 3854SOL     OW12460   1.903   2.845   2.944
 3854SOL    HW112461   1.897   2.755   2.900
 3854SOL    HW212462   1.943   2.835   3.035
 3855SOL     OW12463   5.684   6.486   6.738
 3855SOL    HW112464   5.734   6.410   6.780
 3855SOL    HW212465   5.621   6.450   6.669
 3856SOL     OW12466   6.755   0.673   6.084
 3856SOL    HW112467   6.812   0.596   6.112
 3856SOL    HW212468   6.728   0.662   5.988
 3857SOL     OW12469   0.126   6.641   6.892
 3857SOL    HW112470   0.146   6.687   6.979
 3857SOL    HW212471   0.041   6.678   6.854
 3858SOL     OW12472   2.212   0.907   5.610
 3858SOL    HW112473   2.220   0.987   5.670
 3858SOL    HW212474   2.232   0.825   5.663
 3859SOL     OW12475   6.104   0.897   2.418
 3859SOL    HW112476   6.018   0.911   2.467
 3859SOL    HW212477   6.107   0.956   2.337
 3860SOL     OW12478   2.843   0.745   5.492
 3860SOL    HW112479   2.756   0.782   5.525
 3860SOL    HW212480   2.885   0.691   5.565
 3861SOL     OW12481   4.449   4.753   3.435
 3861SOL    HW112482   4.392   4.833   3.416
 3861SOL    HW212483   4.495   4.765   3.523
 3862SOL     OW12484   0.543   0.230   4.689
 3862SOL    HW112485   0.639   0.259   4.692
 3862SOL    HW212486   0.495   0.269   4.768
 3863SOL     OW12487   5.682   2.759   7.023
 3863SOL    HW112488   5.744   2.696   0.045
 3863SOL    HW212489   5.735   2.823   6.968
 3864SOL     OW12490   2.568   0.266   5.495
 3864SOL    HW112491   2.621   0.215   5.426
 3864SOL    HW212492   2.566   0.363   5.470
 3865SOL     OW12493   2.931   0.446   0.252
 3865SOL    HW112494   2.921   0.348   0.234
 3865SOL    HW212495   2.966   0.460   0.345
 3866SOL     OW12496   3.316   0.666   1.231
 3866SOL    HW112497   3.243   0.621   1.179
 3866SOL    HW212498   3.367   0.726   1.170
 3867SOL     OW12499   1.160   5.011   3.962
 3867SOL    HW112500   1.205   4.923   3.946
 3867SOL    HW212501   1.116   5.042   3.878
 3868SOL     OW12502   3.223   0.104   0.257
 3868SOL    HW112503   3.141   0.050   0.271
 3868SOL    HW212504   3.263   0.082   0.168
 3869SOL     OW12505   5.668   3.694   5.097
 3869SOL    HW112506   5.639   3.788   5.080
 3869SOL    HW212507   5.594   3.644   5.142
 3870SOL     OW12508   5.587   6.202   6.926
 3870SOL    HW112509   5.521   6.178   6.854
 3870SOL    HW212510   5.676   6.219   6.885
 3871SOL     OW12511   3.420   0.524   3.256
 3871SOL    HW112512   3.330   0.552   3.288
 3871SOL    HW212513   3.480   0.604   3.251
 3872SOL     OW12514   3.827   2.966   3.890
 3872SOL    HW112515   3.766   2.941   3.966
 3872SOL    HW212516   3.917   2.989   3.926
 3873SOL     OW12517   6.137   2.558   0.824
 3873SOL    HW112518   6.178   2.581   0.736
 3873SOL    HW212519   6.103   2.642   0.867
 3874SOL     OW12520   4.291   5.789   0.245
 3874SOL    HW112521   4.322   5.694   0.244
 3874SOL    HW212522   4.283   5.820   0.340
 3875SOL     OW12523   2.079   2.913   1.909
 3875SOL    HW112524   2.096   2.814   1.917
 3875SOL    HW212525   2.124   2.960   1.984
 3876SOL     OW12526   4.260   5.189   0.897
 3876SOL    HW112527   4.350   5.215   0.864
 3876SOL    HW212528   4.194   5.197   0.823
 3877SOL     OW12529   6.103   3.261   0.703
 3877SOL    HW112530   6.026   3.298   0.651
 3877SOL    HW212531   6.072   3.237   0.795
 3878SOL     OW12532   3.621   6.919   4.336
 3878SOL    HW112533   3.551   6.849   4.343
 3878SOL    HW212534   3.694   6.888   4.275
 3879SOL     OW12535   5.368   5.271   1.530
 3879SOL    HW112536   5.378   5.369   1.548
 3879SOL    HW212537   5.286   5.237   1.576
 3880SOL     OW12538   5.984   4.904   3.882
 3880SOL    HW112539   6.075   4.923   3.919
 3880SOL    HW212540   5.919   4.893   3.958
 3881SOL     OW12541   1.021   3.735   1.547
 3881SOL    HW112542   1.114   3.764   1.527
 3881SOL    HW212543   1.019   3.687   1.635
 3882SOL     OW12544   1.379   1.507   5.514
 3882SOL    HW112545   1.346   1.439   5.449
 3882SOL    HW212546   1.379   1.597   5.472
 3883SOL     OW12547   3.843   0.858   3.640
 3883SOL    HW112548   3.795   0.770   3.635
 3883SOL    HW212549   3.839   0.902   3.551
 3884SOL     OW12550   0.172   5.392   3.321
 3884SOL    HW112551   0.252   5.383   3.380
 3884SOL    HW212552   0.183   5.331   3.241
 3885SOL     OW12553   6.718   0.366   2.537
 3885SOL    HW112554   6.735   0.448   2.591
 3885SOL    HW212555   6.786   0.296   2.559
 3886SOL     OW12556   6.378   6.078   5.002
 3886SOL    HW112557   6.381   6.003   5.067
 3886SOL    HW212558   6.379   6.043   4.908
 3887SOL     OW12559   0.523   0.480   6.102
 3887SOL    HW112560   0.595   0.456   6.168
 3887SOL    HW212561   0.439   0.504   6.151
 3888SOL     OW12562   6.550   0.487   5.468
 3888SOL    HW112563   6.495   0.521   5.393
 3888SOL    HW212564   6.644   0.472   5.437
 3889SOL     OW12565   6.700   3.242   5.755
 3889SOL    HW112566   6.730   3.146   5.748
 3889SOL    HW212567   6.766   3.294   5.809
 3890SOL     OW12568   5.381   5.741   3.092
 3890SOL    HW112569   5.450   5.714   3.159
 3890SOL    HW212570   5.425   5.791   3.018
 3891SOL     OW12571   6.085   4.201   5.091
 3891SOL    HW112572   6.171   4.206   5.040
 3891SOL    HW212573   6.034   4.120   5.063
 3892SOL     OW12574   0.150   1.895   1.206
 3892SOL    HW112575   0.186   1.873   1.297
 3892SOL    HW212576   0.205   1.847   1.137
 3893SOL     OW12577   4.420   4.600   1.217
 3893SOL    HW112578   4.326   4.569   1.205
 3893SOL    HW212579   4.421   4.683   1.273
 3894SOL     OW12580   3.402   2.331   0.975
 3894SOL    HW112581   3.405   2.232   0.979
 3894SOL    HW212582   3.312   2.363   1.005
 3895SOL     OW12583   1.375   0.573   5.877
 3895SOL    HW112584   1.451   0.635   5.857
 3895SOL    HW212585   1.358   0.514   5.798
 3896SOL     OW12586   0.215   0.831   6.063
 3896SOL    HW112587   0.198   0.929   6.074
 3896SOL    HW212588   0.271   0.816   5.982
 3897SOL     OW12589   3.968   5.896   2.320
 3897SOL    HW112590   3.993   5.879   2.225
 3897SOL    HW212591   3.943   5.810   2.364
 3898SOL     OW12592   3.563   3.491   4.188
 3898SOL    HW112593   3.633   3.551   4.227
 3898SOL    HW212594   3.607   3.417   4.136
 3899SOL     OW12595   5.784   0.619   4.152
 3899SOL    HW112596   5.713   0.654   4.091
 3899SOL    HW212597   5.797   0.682   4.229
 3900SOL     OW12598   5.657   2.810   3.804
 3900SOL    HW112599   5.600   2.728   3.814
 3900SOL    HW212600   5.752   2.782   3.787
 3901SOL     OW12601   2.953   6.697   5.524
 3901SOL    HW112602   2.951   6.794   5.548
 3901SOL    HW212603   2.937   6.686   5.426
 3902SOL     OW12604   6.195   3.982   2.349
 3902SOL    HW112605   6.124   3.967   2.418
 3902SOL    HW212606   6.159   4.040   2.276
 3903SOL     OW12607   4.471   5.270   0.367
 3903SOL    HW112608   4.529   5.253   0.447
 3903SOL    HW212609   4.395   5.205   0.366
 3904SOL     OW12610   1.869   6.650   4.961
 3904SOL    HW112611   1.902   6.608   5.046
 3904SOL    HW212612   1.947   6.675   4.904
 3905SOL     OW12613   6.261   0.122   5.738
 3905SOL    HW112614   6.203   0.063   5.682
 3905SOL    HW212615   6.322   0.173   5.678
 3906SOL     OW12616   3.728   5.292   5.186
 3906SOL    HW112617   3.633   5.298   5.154
 3906SOL    HW212618   3.732   5.235   5.268
 3907SOL     OW12619   6.535   6.568   5.442
 3907SOL    HW112620   6.605   6.606   5.381
 3907SOL    HW212621   6.445   6.575   5.398
 3908SOL     OW12622   1.044   0.712   0.176
 3908SOL    HW112623   1.104   0.738   0.101
 3908SOL    HW212624   1.088   0.734   0.263
 3909SOL     OW12625   0.627   5.508   5.449
 3909SOL    HW112626   0.712   5.523   5.499
 3909SOL    HW212627   0.574   5.593   5.448
 3910SOL     OW12628   3.747   3.957   2.121
 3910SOL    HW112629   3.791   3.955   2.210
 3910SOL    HW212630   3.684   3.881   2.113
 3911SOL     OW12631   3.932   1.013   6.920
 3911SOL    HW112632   4.019   1.027   6.872
 3911SOL    HW212633   3.927   1.076   6.998
 3912SOL     OW12634   2.868   0.663   6.625
 3912SOL    HW112635   2.908   0.572   6.614
 3912SOL    HW212636   2.876   0.714   6.539
 3913SOL     OW12637   2.189   5.629   6.584
 3913SOL    HW112638   2.137   5.638   6.500
 3913SOL    HW212639   2.169   5.706   6.644
 3914SOL     OW12640   3.697   0.980   0.897
 3914SOL    HW112641   3.778   1.034   0.919
 3914SOL    HW212642   3.715   0.923   0.816
 3915SOL     OW12643   4.217   6.324   1.689
 3915SOL    HW112644   4.224   6.262   1.612
 3915SOL    HW212645   4.248   6.415   1.662
 3916SOL     OW12646   1.453   6.448   2.984
 3916SOL    HW112647   1.362   6.410   2.995
 3916SOL    HW212648   1.520   6.374   2.979
 3917SOL     OW12649   1.178   5.115   7.015
 3917SOL    HW112650   1.113   5.190   7.003
 3917SOL    HW212651   1.133   5.040   0.039
 3918SOL     OW12652   4.784   6.723   2.084
 3918SOL    HW112653   4.824   6.754   1.998
 3918SOL    HW212654   4.772   6.624   2.081
 3919SOL     OW12655   3.207   6.540   6.444
 3919SOL    HW112656   3.243   6.446   6.436
 3919SOL    HW212657   3.145   6.558   6.368
 3920SOL     OW12658   2.506   2.216   6.631
 3920SOL    HW112659   2.409   2.226   6.608
 3920SOL    HW212660   2.517   2.144   6.699
 3921SOL     OW12661   0.220   2.975   0.843
 3921SOL    HW112662   0.275   3.058   0.846
 3921SOL    HW212663   0.278   2.897   0.819
 3922SOL     OW12664   5.878   4.865   1.322
 3922SOL    HW112665   5.872   4.910   1.233
 3922SOL    HW212666   5.956   4.903   1.373
 3923SOL     OW12667   6.047   1.659   6.877
 3923SOL    HW112668   6.062   1.707   6.963
 3923SOL    HW212669   6.079   1.715   6.800
 3924SOL     OW12670   0.617   5.479   3.319
 3924SOL    HW112671   0.649   5.517   3.232
 3924SOL    HW212672   0.524   5.445   3.308
 3925SOL     OW12673   3.967   4.357   0.907
 3925SOL    HW112674   3.886   4.336   0.853
 3925SOL    HW212675   3.940   4.402   0.993
 3926SOL     OW12676   6.673   6.224   3.058
 3926SOL    HW112677   6.703   6.276   3.138
 3926SOL    HW212678   6.734   6.145   3.045
 3927SOL     OW12679   6.723   3.827   4.051
 3927SOL    HW112680   6.712   3.884   3.969
 3927SOL    HW212681   6.733   3.886   4.131
 3928SOL     OW12682   3.148   5.280   4.477
 3928SOL    HW112683   3.246   5.275   4.458
 3928SOL    HW212684   3.098   5.236   4.403
 3929SOL     OW12685   0.054   2.461   6.573
 3929SOL    HW112686   7.015   2.538   6.567
 3929SOL    HW212687   0.005   2.376   6.554
 3930SOL     OW12688   1.455   2.143   3.904
 3930SOL    HW112689   1.491   2.173   3.816
 3930SOL    HW212690   1.523   2.158   3.975
 3931SOL     OW12691   2.550   1.361   2.835
 3931SOL    HW112692   2.588   1.272   2.858
 3931SOL    HW212693   2.450   1.357   2.842
 3932SOL     OW12694   1.890   4.440   3.472
 3932SOL    HW112695   1.861   4.458   3.566
 3932SOL    HW212696   1.888   4.342   3.455
 3933SOL     OW12697   2.394   6.831   6.497
 3933SOL    HW112698   2.422   6.807   6.590
 3933SOL    HW212699   2.427   6.922   6.474
 3934SOL     OW12700   0.618   1.612   1.147
 3934SOL    HW112701   0.624   1.552   1.067
 3934SOL    HW212702   0.572   1.563   1.222
 3935SOL     OW12703   1.830   0.139   5.156
 3935SOL    HW112704   1.889   0.148   5.236
 3935SOL    HW212705   1.823   0.042   5.130
 3936SOL     OW12706   0.079   5.623   5.802
 3936SOL    HW112707   0.072   5.614   5.901
 3936SOL    HW212708   7.012   5.617   5.761
 3937SOL     OW12709   0.674   0.334   2.426
 3937SOL    HW112710   0.651   0.237   2.420
 3937SOL    HW212711   0.622   0.376   2.500
 3938SOL     OW12712   6.576   3.082   4.278
 3938SOL    HW112713   6.584   3.011   4.347
 3938SOL    HW212714   6.589   3.172   4.320
 3939SOL     OW12715   3.141   1.407   3.134
 3939SOL    HW112716   3.202   1.478   3.098
 3939SOL    HW212717   3.154   1.323   3.082
 3940SOL     OW12718   4.104   4.797   2.151
 3940SOL    HW112719   4.161   4.744   2.089
 3940SOL    HW212720   4.112   4.761   2.244
 3941SOL     OW12721   5.945   1.200   5.444
 3941SOL    HW112722   5.999   1.128   5.486
 3941SOL    HW212723   5.848   1.187   5.466
 3942SOL     OW12724   0.975   6.778   5.592
 3942SOL    HW112725   0.961   6.848   5.522
 3942SOL    HW212726   1.059   6.728   5.572
 3943SOL     OW12727   0.779   3.520   2.834
 3943SOL    HW112728   0.816   3.589   2.896
 3943SOL    HW212729   0.799   3.429   2.869
 3944SOL     OW12730   5.627   3.898   5.453
 3944SOL    HW112731   5.647   3.907   5.550
 3944SOL    HW212732   5.592   3.806   5.434
 3945SOL     OW12733   0.838   2.477   2.604
 3945SOL    HW112734   0.872   2.535   2.677
 3945SOL    HW212735   0.875   2.384   2.615
 3946SOL     OW12736   6.336   4.553   6.005
 3946SOL    HW112737   6.433   4.578   6.007
 3946SOL    HW212738   6.293   4.593   5.924
 3947SOL     OW12739   6.134   5.647   1.989
 3947SOL    HW112740   6.126   5.738   1.949
 3947SOL    HW212741   6.070   5.638   2.065
 3948SOL     OW12742   0.497   4.986   0.616
 3948SOL    HW112743   0.526   5.081   0.609
 3948SOL    HW212744   0.552   4.940   0.685
 3949SOL     OW12745   5.478   0.299   2.923
 3949SOL    HW112746   5.508   0.205   2.908
 3949SOL    HW212747   5.488   0.352   2.838
 3950SOL     OW12748   3.153   4.098   1.497
 3950SOL    HW112749   3.055   4.079   1.511
 3950SOL    HW212750   3.171   4.103   1.399
 3951SOL     OW12751   6.797   0.064   6.588
 3951SOL    HW112752   6.728   0.123   6.631
 3951SOL    HW212753   6.778   6.993   6.610
 3952SOL     OW12754   6.262   3.989   4.175
 3952SOL    HW112755   6.252   3.895   4.142
 3952SOL    HW212756   6.243   4.053   4.100
 3953SOL     OW12757   3.471   4.055   0.645
 3953SOL    HW112758   3.412   4.107   0.708
 3953SOL    HW212759   3.419   4.032   0.563
 3954SOL     OW12760   5.756   5.624   5.608
 3954SOL    HW112761   5.754   5.653   5.704
 3954SOL    HW212762   5.844   5.649   5.568
 3955SOL     OW12763   4.623   6.792   6.861
 3955SOL    HW112764   4.672   6.743   6.788
 3955SOL    HW212765   4.688   6.846   6.914
 3956SOL     OW12766   0.791   1.994   3.371
 3956SOL    HW112767   0.886   2.017   3.392
 3956SOL    HW212768   0.730   2.059   3.415
 3957SOL     OW12769   4.385   0.149   3.488
 3957SOL    HW112770   4.380   0.050   3.498
 3957SOL    HW212771   4.293   0.186   3.476
 3958SOL     OW12772   5.474   0.476   6.284
 3958SOL    HW112773   5.432   0.456   6.373
 3958SOL    HW212774   5.562   0.430   6.279
 3959SOL     OW12775   3.567   6.575   0.918
 3959SOL    HW112776   3.562   6.653   0.981
 3959SOL    HW212777   3.624   6.600   0.840
 3960SOL     OW12778   5.218   2.033   6.138
 3960SOL    HW112779   5.312   2.037   6.173
 3960SOL    HW212780   5.219   1.993   6.046
 3961SOL     OW12781   5.673   2.694   1.954
 3961SOL    HW112782   5.692   2.718   2.050
 3961SOL    HW212783   5.579   2.660   1.947
 3962SOL     OW12784   1.907   5.317   6.952
 3962SOL    HW112785   1.927   5.221   6.970
 3962SOL    HW212786   1.949   5.374   7.022
 3963SOL     OW12787   4.502   4.442   3.587
 3963SOL    HW112788   4.422   4.429   3.528
 3963SOL    HW212789   4.580   4.471   3.532
 3964SOL     OW12790   4.462   4.951   4.612
 3964SOL    HW112791   4.442   4.871   4.555
 3964SOL    HW212792   4.403   4.950   4.692
 3965SOL     OW12793   3.986   3.404   6.424
 3965SOL    HW112794   4.022   3.335   6.361
 3965SOL    HW212795   4.016   3.494   6.394
 3966SOL     OW12796   6.439   5.521   0.176
 3966SOL    HW112797   6.411   5.528   0.272
 3966SOL    HW212798   6.396   5.595   0.124
 3967SOL     OW12799   1.440   4.275   2.782
 3967SOL    HW112800   1.412   4.338   2.855
 3967SOL    HW212801   1.417   4.182   2.808
 3968SOL     OW12802   0.185   0.347   0.886
 3968SOL    HW112803   0.131   0.431   0.889
 3968SOL    HW212804   0.132   0.274   0.843
 3969SOL     OW12805   1.075   4.035   2.847
 3969SOL    HW112806   1.146   4.019   2.916
 3969SOL    HW212807   1.079   3.963   2.778
 3970SOL     OW12808   4.823   5.206   4.014
 3970SOL    HW112809   4.832   5.208   3.915
 3970SOL    HW212810   4.727   5.195   4.039
 3971SOL     OW12811   2.504   4.521   2.388
 3971SOL    HW112812   2.445   4.444   2.365
 3971SOL    HW212813   2.461   4.574   2.462
 3972SOL     OW12814   1.315   5.233   0.905
 3972SOL    HW112815   1.294   5.169   0.978
 3972SOL    HW212816   1.279   5.197   0.818
 3973SOL     OW12817   2.208   4.257   5.807
 3973SOL    HW112818   2.274   4.239   5.880
 3973SOL    HW212819   2.232   4.203   5.726
 3974SOL     OW12820   1.701   6.822   5.298
 3974SOL    HW112821   1.659   6.732   5.289
 3974SOL    HW212822   1.703   6.867   5.209
 3975SOL     OW12823   5.195   0.778   6.510
 3975SOL    HW112824   5.270   0.747   6.452
 3975SOL    HW212825   5.222   0.771   6.606
 3976SOL     OW12826   1.728   5.267   1.440
 3976SOL    HW112827   1.751   5.352   1.393
 3976SOL    HW212828   1.795   5.197   1.417
 3977SOL     OW12829   3.120   4.196   5.288
 3977SOL    HW112830   3.032   4.214   5.332
 3977SOL    HW212831   3.105   4.172   5.192
 3978SOL     OW12832   5.747   6.996   4.716
 3978SOL    HW112833   5.819   6.976   4.782
 3978SOL    HW212834   5.698   0.055   4.744
 3979SOL     OW12835   2.478   5.926   1.461
 3979SOL    HW112836   2.536   5.965   1.390
 3979SOL    HW212837   2.384   5.918   1.428
 3980SOL     OW12838   0.104   4.440   6.913
 3980SOL    HW112839   0.154   4.435   6.826
 3980SOL    HW212840   0.166   4.472   6.984
 3981SOL     OW12841   2.001   1.613   5.949
 3981SOL    HW112842   2.031   1.708   5.963
 3981SOL    HW212843   2.074   1.551   5.978
 3982SOL     OW12844   1.556   0.922   4.542
 3982SOL    HW112845   1.575   1.020   4.550
 3982SOL    HW212846   1.627   0.880   4.485
 3983SOL     OW12847   4.194   5.531   4.199
 3983SOL    HW112848   4.279   5.479   4.207
 3983SOL    HW212849   4.129   5.500   4.269
 3984SOL     OW12850   1.564   0.831   2.716
 3984SOL    HW112851   1.543   0.920   2.756
 3984SOL    HW212852   1.540   0.831   2.619
 3985SOL     OW12853   3.144   4.545   6.741
 3985SOL    HW112854   3.233   4.570   6.778
 3985SOL    HW212855   3.090   4.498   6.810
 3986SOL     OW12856   0.091   2.224   2.871
 3986SOL    HW112857   0.072   2.299   2.806
 3986SOL    HW212858   0.108   2.262   2.962
 3987SOL     OW12859   2.420   5.825   4.408
 3987SOL    HW112860   2.511   5.866   4.408
 3987SOL    HW212861   2.352   5.896   4.424
 3988SOL     OW12862   3.148   2.820   6.566
 3988SOL    HW112863   3.232   2.768   6.578
 3988SOL    HW212864   3.072   2.771   6.610
 3989SOL     OW12865   6.035   1.261   0.437
 3989SOL    HW112866   6.001   1.352   0.410
 3989SOL    HW212867   6.135   1.263   0.442
 3990SOL     OW12868   5.823   2.031   3.513
 3990SOL    HW112869   5.786   2.118   3.546
 3990SOL    HW212870   5.749   1.975   3.476
 3991SOL     OW12871   6.099   1.496   2.166
 3991SOL    HW112872   6.097   1.591   2.199
 3991SOL    HW212873   6.098   1.434   2.244
 3992SOL     OW12874   3.800   2.608   6.652
 3992SOL    HW112875   3.844   2.677   6.594
 3992SOL    HW212876   3.790   2.523   6.600
 3993SOL     OW12877   0.508   2.408   3.339
 3993SOL    HW112878   0.603   2.386   3.318
 3993SOL    HW212879   0.473   2.342   3.405
 3994SOL     OW12880   0.772   2.661   5.969
 3994SOL    HW112881   0.743   2.730   5.902
 3994SOL    HW212882   0.724   2.676   6.055
 3995SOL     OW12883   2.147   3.652   3.870
 3995SOL    HW112884   2.125   3.624   3.777
 3995SOL    HW212885   2.131   3.576   3.932
 3996SOL     OW12886   0.515   1.264   4.555
 3996SOL    HW112887   0.574   1.326   4.606
 3996SOL    HW212888   0.427   1.254   4.602
 3997SOL     OW12889   4.827   2.858   2.531
 3997SOL    HW112890   4.830   2.937   2.593
 3997SOL    HW212891   4.792   2.779   2.580
 3998SOL     OW12892   4.680   1.060   2.714
 3998SOL    HW112893   4.620   0.983   2.691
 3998SOL    HW212894   4.774   1.037   2.690
 3999SOL     OW12895   5.467   3.349   3.589
 3999SOL    HW112896   5.453   3.275   3.654
 3999SOL    HW212897   5.562   3.348   3.558
 4000SOL     OW12898   3.230   5.100   2.731
 4000SOL    HW112899   3.320   5.057   2.731
 4000SOL    HW212900   3.239   5.196   2.759
 4001SOL     OW12901   1.608   1.858   3.782
 4001SOL    HW112902   1.640   1.929   3.720
 4001SOL    HW212903   1.600   1.772   3.733
 4002SOL     OW12904   2.568   3.031   0.346
 4002SOL    HW112905   2.648   2.975   0.328
 4002SOL    HW212906   2.549   3.088   0.265
 4003SOL     OW12907   2.558   6.543   5.266
 4003SOL    HW112908   2.582   6.456   5.222
 4003SOL    HW212909   2.544   6.527   5.364
 4004SOL     OW12910   6.589   1.982   3.646
 4004SOL    HW112911   6.521   1.981   3.572
 4004SOL    HW212912   6.573   2.060   3.705
 4005SOL     OW12913   5.403   5.181   1.027
 4005SOL    HW112914   5.386   5.092   0.985
 4005SOL    HW212915   5.502   5.198   1.030
 4006SOL     OW12916   4.047   5.039   2.257
 4006SOL    HW112917   4.095   5.042   2.344
 4006SOL    HW212918   4.081   4.962   2.203
 4007SOL     OW12919   0.641   2.967   1.427
 4007SOL    HW112920   0.550   2.923   1.429
 4007SOL    HW212921   0.643   3.041   1.494
 4008SOL     OW12922   3.349   1.932   4.145
 4008SOL    HW112923   3.269   1.910   4.201
 4008SOL    HW212924   3.341   1.887   4.056
 4009SOL     OW12925   5.085   2.623   0.299
 4009SOL    HW112926   5.116   2.535   0.263
 4009SOL    HW212927   5.080   2.618   0.399
 4010SOL     OW12928   1.735   3.828   1.056
 4010SOL    HW112929   1.651   3.780   1.031
 4010SOL    HW212930   1.785   3.775   1.124
 4011SOL     OW12931   0.982   0.777   1.472
 4011SOL    HW112932   1.044   0.856   1.475
 4011SOL    HW212933   1.035   0.694   1.491
 4012SOL     OW12934   4.471   5.003   2.029
 4012SOL    HW112935   4.494   5.003   1.931
 4012SOL    HW212936   4.516   4.927   2.074
 4013SOL     OW12937   2.676   0.458   1.168
 4013SOL    HW112938   2.648   0.551   1.145
 4013SOL    HW212939   2.653   0.397   1.093
 4014SOL     OW12940   4.434   6.207   2.974
 4014SOL    HW112941   4.458   6.136   3.039
 4014SOL    HW212942   4.407   6.290   3.023
 4015SOL     OW12943   4.553   5.677   6.423
 4015SOL    HW112944   4.576   5.634   6.510
 4015SOL    HW212945   4.596   5.767   6.417
 4016SOL     OW12946   1.664   5.869   6.637
 4016SOL    HW112947   1.734   5.813   6.682
 4016SOL    HW212948   1.634   5.824   6.553
 4017SOL     OW12949   6.969   6.730   6.707
 4017SOL    HW112950   0.010   6.804   6.719
 4017SOL    HW212951   6.879   6.767   6.685
 4018SOL     OW12952   5.732   6.599   2.249
 4018SOL    HW112953   5.650   6.638   2.207
 4018SOL    HW212954   5.740   6.630   2.343
 4019SOL     OW12955   5.589   3.838   2.451
 4019SOL    HW112956   5.632   3.927   2.431
 4019SOL    HW212957   5.652   3.765   2.426
 4020SOL     OW12958   6.052   2.357   5.335
 4020SOL    HW112959   6.050   2.386   5.430
 4020SOL    HW212960   6.006   2.426   5.278
 4021SOL     OW12961   2.980   3.345   5.372
 4021SOL    HW112962   2.948   3.277   5.306
 4021SOL    HW212963   2.994   3.432   5.325
 4022SOL     OW12964   4.169   0.550   6.853
 4022SOL    HW112965   4.169   0.551   6.953
 4022SOL    HW212966   4.091   0.601   6.819
 4023SOL     OW12967   6.661   1.578   4.424
 4023SOL    HW112968   6.704   1.491   4.401
 4023SOL    HW212969   6.725   1.653   4.404
 4024SOL     OW12970   2.617   5.191   4.382
 4024SOL    HW112971   2.623   5.150   4.291
 4024SOL    HW212972   2.683   5.146   4.442
 4025SOL     OW12973   0.968   6.415   4.617
 4025SOL    HW112974   1.064   6.432   4.598
 4025SOL    HW212975   0.917   6.409   4.531
 4026SOL     OW12976   6.265   6.249   4.166
 4026SOL    HW112977   6.346   6.289   4.210
 4026SOL    HW212978   6.209   6.323   4.127
 4027SOL     OW12979   2.979   3.637   1.970
 4027SOL    HW112980   2.973   3.723   2.021
 4027SOL    HW212981   3.012   3.656   1.877
 4028SOL     OW12982   1.875   2.436   3.357
 4028SOL    HW112983   1.969   2.469   3.368
 4028SOL    HW212984   1.826   2.495   3.293
 4029SOL     OW12985   2.950   4.430   6.329
 4029SOL    HW112986   3.035   4.419   6.379
 4029SOL    HW212987   2.873   4.425   6.392
 4030SOL     OW12988   1.414   1.667   6.717
 4030SOL    HW112989   1.329   1.695   6.671
 4030SOL    HW212990   1.459   1.747   6.756
 4031SOL     OW12991   4.913   6.073   3.202
 4031SOL    HW112992   4.887   6.074   3.298
 4031SOL    HW212993   4.884   5.986   3.161
 4032SOL     OW12994   6.267   0.045   3.190
 4032SOL    HW112995   6.344   0.055   3.127
 4032SOL    HW212996   6.248   0.133   3.233
 4033SOL     OW12997   2.994   3.111   2.654
 4033SOL    HW112998   3.024   3.086   2.562
 4033SOL    HW212999   2.979   3.210   2.658
 4034SOL     OW13000   6.561   1.692   5.130
 4034SOL    HW113001   6.551   1.736   5.041
 4034SOL    HW213002   6.504   1.739   5.197
 4035SOL     OW13003   0.349   2.719   0.831
 4035SOL    HW113004   0.430   2.706   0.888
 4035SOL    HW213005   0.268   2.687   0.881
 4036SOL     OW13006   4.996   6.998   2.557
 4036SOL    HW113007   4.969   6.958   2.644
 4036SOL    HW213008   5.086   0.017   2.566
 4037SOL     OW13009   1.883   2.233   0.239
 4037SOL    HW113010   1.816   2.307   0.239
 4037SOL    HW213011   1.836   2.145   0.238
 4038SOL     OW13012   4.622   4.542   1.987
 4038SOL    HW113013   4.717   4.525   2.015
 4038SOL    HW213014   4.568   4.459   2.002
 4039SOL     OW13015   4.776   4.836   1.777
 4039SOL    HW113016   4.833   4.790   1.845
 4039SOL    HW213017   4.810   4.929   1.763
 4040SOL     OW13018   3.506   0.037   6.028
 4040SOL    HW113019   3.435   6.992   6.045
 4040SOL    HW213020   3.463   0.124   6.005
 4041SOL     OW13021   2.395   5.675   1.180
 4041SOL    HW113022   2.480   5.668   1.232
 4041SOL    HW213023   2.390   5.599   1.115
 4042SOL     OW13024   6.299   4.850   2.912
 4042SOL    HW113025   6.200   4.864   2.906
 4042SOL    HW213026   6.346   4.934   2.887
 4043SOL     OW13027   5.350   2.398   4.005
 4043SOL    HW113028   5.391   2.353   4.084
 4043SOL    HW213029   5.311   2.329   3.944
 4044SOL     OW13030   5.020   0.410   4.180
 4044SOL    HW113031   5.110   0.454   4.189
 4044SOL    HW213032   4.953   0.460   4.236
 4045SOL     OW13033   3.175   4.684   6.200
 4045SOL    HW113034   3.081   4.688   6.166
 4045SOL    HW213035   3.237   4.662   6.124
 4046SOL     OW13036   0.931   1.304   3.823
 4046SOL    HW113037   0.897   1.368   3.755
 4046SOL    HW213038   0.926   1.211   3.787
 4047SOL     OW13039   2.304   2.826   0.936
 4047SOL    HW113040   2.302   2.821   0.837
 4047SOL    HW213041   2.210   2.836   0.971
 4048SOL     OW13042   5.437   1.478   2.128
 4048SOL    HW113043   5.532   1.481   2.160
 4048SOL    HW213044   5.376   1.507   2.202
 4049SOL     OW13045   6.494   6.133   0.101
 4049SOL    HW113046   6.473   6.148   0.004
 4049SOL    HW213047   6.464   6.213   0.154
 4050SOL     OW13048   2.408   6.428   0.712
 4050SOL    HW113049   2.348   6.505   0.734
 4050SOL    HW213050   2.450   6.393   0.796
 4051SOL     OW13051   3.565   3.112   0.052
 4051SOL    HW113052   3.519   3.060   0.124
 4051SOL    HW213053   3.542   3.209   0.061
 4052SOL     OW13054   0.161   0.696   1.837
 4052SOL    HW113055   0.238   0.738   1.789
 4052SOL    HW213056   0.075   0.728   1.796
 4053SOL     OW13057   3.208   5.243   3.928
 4053SOL    HW113058   3.219   5.330   3.882
 4053SOL    HW213059   3.112   5.215   3.926
 4054SOL     OW13060   0.990   3.014   1.620
 4054SOL    HW113061   1.016   2.948   1.550
 4054SOL    HW213062   0.969   3.102   1.578
 4055SOL     OW13063   3.946   3.493   5.715
 4055SOL    HW113064   3.882   3.485   5.638
 4055SOL    HW213065   4.034   3.524   5.681
 4056SOL     OW13066   4.406   3.078   0.259
 4056SOL    HW113067   4.412   2.979   0.255
 4056SOL    HW213068   4.360   3.112   0.177
 4057SOL     OW13069   5.190   2.516   0.751
 4057SOL    HW113070   5.288   2.497   0.751
 4057SOL    HW213071   5.157   2.519   0.657
 4058SOL     OW13072   1.402   1.226   4.425
 4058SOL    HW113073   1.332   1.285   4.464
 4058SOL    HW213074   1.359   1.159   4.365
 4059SOL     OW13075   1.565   2.586   3.150
 4059SOL    HW113076   1.648   2.602   3.203
 4059SOL    HW213077   1.516   2.507   3.188
 4060SOL     OW13078   4.556   5.388   5.531
 4060SOL    HW113079   4.516   5.385   5.623
 4060SOL    HW213080   4.491   5.428   5.467
 4061SOL     OW13081   3.378   4.924   1.904
 4061SOL    HW113082   3.410   5.016   1.925
 4061SOL    HW213083   3.456   4.861   1.905
 4062SOL     OW13084   3.203   1.163   2.977
 4062SOL    HW113085   3.214   1.172   2.878
 4062SOL    HW213086   3.291   1.145   3.019
 4063SOL     OW13087   5.132   0.352   5.457
 4063SOL    HW113088   5.214   0.299   5.476
 4063SOL    HW213089   5.051   0.294   5.469
 4064SOL     OW13090   1.585   6.518   3.588
 4064SOL    HW113091   1.638   6.603   3.585
 4064SOL    HW213092   1.495   6.535   3.626
 4065SOL     OW13093   0.946   6.818   0.321
 4065SOL    HW113094   0.854   6.780   0.310
 4065SOL    HW213095   1.004   6.752   0.368
 4066SOL     OW13096   4.921   5.323   2.931
 4066SOL    HW113097   4.982   5.335   3.009
 4066SOL    HW213098   4.952   5.381   2.855
 4067SOL     OW13099   6.255   3.427   2.450
 4067SOL    HW113100   6.255   3.524   2.477
 4067SOL    HW213101   6.292   3.419   2.357
 4068SOL     OW13102   3.717   0.359   4.386
 4068SOL    HW113103   3.793   0.423   4.378
 4068SOL    HW213104   3.747   0.277   4.434
 4069SOL     OW13105   3.855   4.005   6.438
 4069SOL    HW113106   3.913   4.019   6.358
 4069SOL    HW213107   3.808   3.918   6.430
 4070SOL     OW13108   1.165   3.461   2.879
 4070SOL    HW113109   1.071   3.428   2.875
 4070SOL    HW213110   1.220   3.413   2.811
 4071SOL     OW13111   1.351   0.563   5.092
 4071SOL    HW113112   1.409   0.602   5.163
 4071SOL    HW213113   1.405   0.501   5.035
 4072SOL     OW13114   0.439   6.235   4.398
 4072SOL    HW113115   0.479   6.326   4.412
 4072SOL    HW213116   0.487   6.168   4.454
 4073SOL     OW13117   2.204   5.489   5.853
 4073SOL    HW113118   2.139   5.463   5.782
 4073SOL    HW213119   2.296   5.494   5.814
 4074SOL     OW13120   1.162   2.401   2.173
 4074SOL    HW113121   1.253   2.359   2.180
 4074SOL    HW213122   1.103   2.342   2.118
 4075SOL     OW13123   4.399   2.311   2.412
 4075SOL    HW113124   4.442   2.397   2.387
 4075SOL    HW213125   4.421   2.288   2.507
 4076SOL     OW13126   2.191   3.271   6.133
 4076SOL    HW113127   2.224   3.191   6.082
 4076SOL    HW213128   2.152   3.337   6.068
 4077SOL     OW13129   3.195   6.621   6.983
 4077SOL    HW113130   3.235   6.576   6.903
 4077SOL    HW213131   3.117   6.675   6.956
 4078SOL     OW13132   6.857   5.479   1.678
 4078SOL    HW113133   6.788   5.532   1.729
 4078SOL    HW213134   6.942   5.531   1.672
 4079SOL     OW13135   0.962   1.621   3.401
 4079SOL    HW113136   0.919   1.531   3.394
 4079SOL    HW213137   0.904   1.689   3.357
 4080SOL     OW13138   2.908   3.271   1.097
 4080SOL    HW113139   2.872   3.269   1.004
 4080SOL    HW213140   3.008   3.280   1.094
 4081SOL     OW13141   1.455   1.552   3.944
 4081SOL    HW113142   1.531   1.568   3.881
 4081SOL    HW213143   1.482   1.578   4.036
 4082SOL     OW13144   1.341   2.026   0.957
 4082SOL    HW113145   1.331   2.119   0.992
 4082SOL    HW213146   1.411   2.024   0.886
 4083SOL     OW13147   5.982   4.028   3.290
 4083SOL    HW113148   6.069   4.012   3.243
 4083SOL    HW213149   5.909   3.977   3.244
 4084SOL     OW13150   5.015   2.761   2.951
 4084SOL    HW113151   5.112   2.785   2.940
 4084SOL    HW213152   4.997   2.736   3.046
 4085SOL     OW13153   2.796   5.516   0.638
 4085SOL    HW113154   2.810   5.535   0.540
 4085SOL    HW213155   2.866   5.452   0.670
 4086SOL     OW13156   6.733   4.947   0.912
 4086SOL    HW113157   6.697   4.993   0.831
 4086SOL    HW213158   6.827   4.978   0.928
 4087SOL     OW13159   2.451   1.062   2.831
 4087SOL    HW113160   2.482   1.063   2.926
 4087SOL    HW213161   2.518   1.013   2.775
 4088SOL     OW13162   6.942   1.603   6.000
 4088SOL    HW113163   6.999   1.589   5.919
 4088SOL    HW213164   6.858   1.650   5.974
 4089SOL     OW13165   6.394   5.244   4.780
 4089SOL    HW113166   6.382   5.242   4.879
 4089SOL    HW213167   6.437   5.330   4.753
 4090SOL     OW13168   2.071   5.434   5.628
 4090SOL    HW113169   2.006   5.359   5.623
 4090SOL    HW213170   2.037   5.511   5.575
 4091SOL     OW13171   0.594   6.177   0.164
 4091SOL    HW113172   0.560   6.249   0.104
 4091SOL    HW213173   0.528   6.102   0.168
 4092SOL     OW13174   6.090   2.555   3.883
 4092SOL    HW113175   6.009   2.587   3.835
 4092SOL    HW213176   6.068   2.539   3.979
 4093SOL     OW13177   5.521   6.631   1.106
 4093SOL    HW113178   5.512   6.611   1.008
 4093SOL    HW213179   5.614   6.661   1.125
 4094SOL     OW13180   1.120   5.196   6.415
 4094SOL    HW113181   1.024   5.168   6.420
 4094SOL    HW213182   1.172   5.149   6.486
 4095SOL     OW13183   0.661   3.568   0.362
 4095SOL    HW113184   0.580   3.509   0.369
 4095SOL    HW213185   0.633   3.663   0.347
 4096SOL     OW13186   3.430   0.955   6.285
 4096SOL    HW113187   3.477   0.926   6.202
 4096SOL    HW213188   3.389   0.876   6.329
 4097SOL     OW13189   5.335   5.026   5.704
 4097SOL    HW113190   5.266   4.956   5.687
 4097SOL    HW213191   5.426   4.985   5.700
 4098SOL     OW13192   0.867   3.429   1.131
 4098SOL    HW113193   0.895   3.477   1.048
 4098SOL    HW213194   0.917   3.465   1.209
 4099SOL     OW13195   3.344   4.956   0.910
 4099SOL    HW113196   3.308   4.900   0.835
 4099SOL    HW213197   3.408   5.024   0.873
 4100SOL     OW13198   1.043   0.047   4.341
 4100SOL    HW113199   1.013   6.977   4.322
 4100SOL    HW213200   0.963   0.106   4.352
 4101SOL     OW13201   0.811   1.453   6.970
 4101SOL    HW113202   0.728   1.411   7.008
 4101SOL    HW213203   0.890   1.400   7.000
 4102SOL     OW13204   1.777   0.605   0.805
 4102SOL    HW113205   1.859   0.660   0.792
 4102SOL    HW213206   1.733   0.590   0.717
 4103SOL     OW13207   0.346   6.955   1.981
 4103SOL    HW113208   0.427   6.976   1.926
 4103SOL    HW213209   0.277   6.911   1.924
 4104SOL     OW13210   0.221   5.195   3.747
 4104SOL    HW113211   0.254   5.107   3.782
 4104SOL    HW213212   0.258   5.210   3.655
 4105SOL     OW13213   6.135   0.478   2.322
 4105SOL    HW113214   6.195   0.416   2.272
 4105SOL    HW213215   6.079   0.425   2.386
 4106SOL     OW13216   0.692   2.737   3.348
 4106SOL    HW113217   0.646   2.662   3.397
 4106SOL    HW213218   0.787   2.712   3.332
 4107SOL     OW13219   0.793   6.176   0.706
 4107SOL    HW113220   0.785   6.123   0.791
 4107SOL    HW213221   0.735   6.256   0.711
 4108SOL     OW13222   6.232   4.740   4.772
 4108SOL    HW113223   6.191   4.784   4.692
 4108SOL    HW213224   6.173   4.664   4.802
 4109SOL     OW13225   5.916   6.983   4.918
 4109SOL    HW113226   5.931   0.055   4.944
 4109SOL    HW213227   5.936   6.924   4.996
 4110SOL     OW13228   3.935   3.210   6.216
 4110SOL    HW113229   3.857   3.272   6.204
 4110SOL    HW213230   3.978   3.192   6.128
 4111SOL     OW13231   6.144   4.858   6.435
 4111SOL    HW113232   6.145   4.922   6.358
 4111SOL    HW213233   6.218   4.791   6.424
 4112SOL     OW13234   4.696   6.465   4.139
 4112SOL    HW113235   4.792   6.453   4.114
 4112SOL    HW213236   4.679   6.421   4.227
 4113SOL     OW13237   4.973   6.165   5.033
 4113SOL    HW113238   4.904   6.192   5.101
 4113SOL    HW213239   4.960   6.220   4.950
 4114SOL     OW13240   6.323   1.567   3.171
 4114SOL    HW113241   6.235   1.519   3.164
 4114SOL    HW213242   6.371   1.560   3.084
 4115SOL     OW13243   2.972   5.188   2.918
 4115SOL    HW113244   2.959   5.097   2.879
 4115SOL    HW213245   3.070   5.204   2.931
 4116SOL     OW13246   4.519   1.953   3.350
 4116SOL    HW113247   4.491   1.905   3.267
 4116SOL    HW213248   4.607   1.915   3.382
 4117SOL     OW13249   0.839   3.283   2.933
 4117SOL    HW113250   0.804   3.230   2.856
 4117SOL    HW213251   0.770   3.284   3.006
 4118SOL     OW13252   5.319   6.762   0.113
 4118SOL    HW113253   5.273   6.732   0.029
 4118SOL    HW213254   5.372   6.845   0.094
 4119SOL     OW13255   3.241   1.578   3.453
 4119SOL    HW113256   3.315   1.596   3.388
 4119SOL    HW213257   3.167   1.528   3.407
 4120SOL     OW13258   3.111   1.335   5.823
 4120SOL    HW113259   3.017   1.307   5.800
 4120SOL    HW213260   3.151   1.269   5.886
 4121SOL     OW13261   6.572   0.204   3.714
 4121SOL    HW113262   6.515   0.267   3.662
 4121SOL    HW213263   6.520   0.170   3.793
 4122SOL     OW13264   1.751   6.281   4.676
 4122SOL    HW113265   1.796   6.296   4.764
 4122SOL    HW213266   1.819   6.252   4.608
 4123SOL     OW13267   4.158   4.817   5.140
 4123SOL    HW113268   4.084   4.797   5.204
 4123SOL    HW213269   4.120   4.847   5.053
 4124SOL     OW13270   6.644   0.056   0.469
 4124SOL    HW113271   6.666   0.153   0.458
 4124SOL    HW213272   6.552   0.047   0.507
 4125SOL     OW13273   4.186   2.293   3.056
 4125SOL    HW113274   4.086   2.294   3.067
 4125SOL    HW213275   4.208   2.288   2.959
 4126SOL     OW13276   1.906   3.590   3.152
 4126SOL    HW113277   1.859   3.598   3.240
 4126SOL    HW213278   1.847   3.624   3.079
 4127SOL     OW13279   5.311   3.274   5.183
 4127SOL    HW113280   5.279   3.180   5.174
 4127SOL    HW213281   5.259   3.320   5.255
 4128SOL     OW13282   0.679   3.638   1.669
 4128SOL    HW113283   0.648   3.667   1.579
 4128SOL    HW213284   0.767   3.681   1.689
 4129SOL     OW13285   3.194   0.977   6.958
 4129SOL    HW113286   3.206   1.074   6.936
 4129SOL    HW213287   3.117   0.941   6.905
 4130SOL     OW13288   6.163   2.188   0.261
 4130SOL    HW113289   6.094   2.116   0.265
 4130SOL    HW213290   6.120   2.277   0.277
 4131SOL     OW13291   0.394   1.506   3.026
 4131SOL    HW113292   0.306   1.554   3.030
 4131SOL    HW213293   0.445   1.523   3.110
 4132SOL     OW13294   5.130   3.790   3.907
 4132SOL    HW113295   5.180   3.777   3.822
 4132SOL    HW213296   5.096   3.701   3.939
 4133SOL     OW13297   3.703   5.939   1.462
 4133SOL    HW113298   3.641   5.891   1.400
 4133SOL    HW213299   3.735   5.876   1.533
 4134SOL     OW13300   1.884   3.988   0.869
 4134SOL    HW113301   1.971   3.985   0.918
 4134SOL    HW213302   1.811   3.958   0.931
 4135SOL     OW13303   0.356   2.612   1.802
 4135SOL    HW113304   0.424   2.554   1.847
 4135SOL    HW213305   0.402   2.680   1.745
 4136SOL     OW13306   1.467   4.086   3.211
 4136SOL    HW113307   1.481   4.181   3.239
 4136SOL    HW213308   1.507   4.026   3.281
 4137SOL     OW13309   1.604   3.634   0.785
 4137SOL    HW113310   1.701   3.611   0.790
 4137SOL    HW213311   1.574   3.671   0.872
 4138SOL     OW13312   3.762   5.376   2.881
 4138SOL    HW113313   3.797   5.376   2.975
 4138SOL    HW213314   3.777   5.287   2.839
 4139SOL     OW13315   1.602   1.187   4.590
 4139SOL    HW113316   1.538   1.219   4.520
 4139SOL    HW213317   1.614   1.258   4.659
 4140SOL     OW13318   3.455   1.194   4.761
 4140SOL    HW113319   3.413   1.233   4.679
 4140SOL    HW213320   3.459   1.263   4.833
 4141SOL     OW13321   5.413   6.809   1.334
 4141SOL    HW113322   5.478   6.747   1.290
 4141SOL    HW213323   5.358   6.855   1.265
 4142SOL     OW13324   6.646   4.190   1.206
 4142SOL    HW113325   6.716   4.246   1.250
 4142SOL    HW213326   6.686   4.103   1.178
 4143SOL     OW13327   5.955   2.778   0.557
 4143SOL    HW113328   5.990   2.843   0.625
 4143SOL    HW213329   5.856   2.784   0.553
 4144SOL     OW13330   5.158   1.774   0.007
 4144SOL    HW113331   5.209   1.751   0.090
 4144SOL    HW213332   5.196   1.724   6.953
 4145SOL     OW13333   0.877   6.227   1.147
 4145SOL    HW113334   0.908   6.242   1.053
 4145SOL    HW213335   0.780   6.252   1.153
 4146SOL     OW13336   6.751   0.416   3.390
 4146SOL    HW113337   6.663   0.455   3.419
 4146SOL    HW213338   6.818   0.490   3.381
 4147SOL     OW13339   4.342   4.732   5.950
 4147SOL    HW113340   4.409   4.742   6.023
 4147SOL    HW213341   4.388   4.704   5.865
 4148SOL     OW13342   2.509   0.007   5.240
 4148SOL    HW113343   2.592   7.008   5.291
 4148SOL    HW213344   2.531   0.013   5.143
 4149SOL     OW13345   0.384   4.505   1.232
 4149SOL    HW113346   0.468   4.456   1.257
 4149SOL    HW213347   0.333   4.529   1.315
 4150SOL     OW13348   0.542   0.655   5.180
 4150SOL    HW113349   0.640   0.660   5.196
 4150SOL    HW213350   0.509   0.563   5.202
 4151SOL     OW13351   2.860   6.047   6.088
 4151SOL    HW113352   2.895   6.125   6.035
 4151SOL    HW213353   2.882   6.060   6.184
 4152SOL     OW13354   4.057   5.943   0.992
 4152SOL    HW113355   4.039   5.930   0.894
 4152SOL    HW213356   4.055   5.854   1.038
 4153SOL     OW13357   5.886   5.601   1.827
 4153SOL    HW113358   5.804   5.547   1.848
 4153SOL    HW213359   5.859   5.685   1.780
 4154SOL     OW13360   6.780   5.656   4.456
 4154SOL    HW113361   6.857   5.599   4.430
 4154SOL    HW213362   6.726   5.678   4.374
 4155SOL     OW13363   0.274   0.604   1.052
 4155SOL    HW113364   0.184   0.591   1.010
 4155SOL    HW213365   0.341   0.625   0.982
 4156SOL     OW13366   5.798   5.230   5.422
 4156SOL    HW113367   5.763   5.188   5.506
 4156SOL    HW213368   5.862   5.304   5.446
 4157SOL     OW13369   5.345   5.831   3.802
 4157SOL    HW113370   5.297   5.917   3.819
 4157SOL    HW213371   5.329   5.769   3.879
 4158SOL     OW13372   0.458   3.205   2.485
 4158SOL    HW113373   0.506   3.274   2.539
 4158SOL    HW213374   0.364   3.198   2.516
 4159SOL     OW13375   1.603   3.280   3.165
 4159SOL    HW113376   1.615   3.196   3.113
 4159SOL    HW213377   1.682   3.295   3.224
 4160SOL     OW13378   5.439   0.010   0.035
 4160SOL    HW113379   5.444   7.004   6.963
 4160SOL    HW213380   5.530   0.006   0.076
 4161SOL     OW13381   1.296   2.267   1.119
 4161SOL    HW113382   1.201   2.290   1.097
 4161SOL    HW213383   1.341   2.347   1.159
 4162SOL     OW13384   5.944   5.975   0.791
 4162SOL    HW113385   6.042   5.973   0.813
 4162SOL    HW213386   5.933   5.977   0.691
 4163SOL     OW13387   5.618   0.756   3.555
 4163SOL    HW113388   5.675   0.711   3.485
 4163SOL    HW213389   5.522   0.738   3.536
 4164SOL     OW13390   1.381   7.017   4.692
 4164SOL    HW113391   1.380   6.917   4.688
 4164SOL    HW213392   1.359   0.030   4.602
 4165SOL     OW13393   4.120   0.732   5.278
 4165SOL    HW113394   4.199   0.692   5.233
 4165SOL    HW213395   4.037   0.687   5.245
 4166SOL     OW13396   5.191   1.138   0.868
 4166SOL    HW113397   5.192   1.116   0.966
 4166SOL    HW213398   5.257   1.080   0.821
 4167SOL     OW13399   3.022   4.289   6.639
 4167SOL    HW113400   3.006   4.209   6.697
 4167SOL    HW213401   3.119   4.312   6.638
 4168SOL     OW13402   0.284   4.123   0.905
 4168SOL    HW113403   0.212   4.169   0.957
 4168SOL    HW213404   0.346   4.191   0.867
 4169SOL     OW13405   6.210   5.202   4.574
 4169SOL    HW113406   6.115   5.229   4.590
 4169SOL    HW213407   6.268   5.238   4.647
 4170SOL     OW13408   5.201   3.272   5.591
 4170SOL    HW113409   5.148   3.269   5.506
 4170SOL    HW213410   5.263   3.350   5.589
 4171SOL     OW13411   6.195   5.527   0.717
 4171SOL    HW113412   6.271   5.469   0.689
 4171SOL    HW213413   6.174   5.593   0.644
 4172SOL     OW13414   1.817   1.713   6.644
 4172SOL    HW113415   1.785   1.625   6.678
 4172SOL    HW213416   1.752   1.785   6.670
 4173SOL     OW13417   5.188   4.032   4.667
 4173SOL    HW113418   5.264   4.097   4.673
 4173SOL    HW213419   5.121   4.053   4.738
 4174SOL     OW13420   4.774   1.475   2.674
 4174SOL    HW113421   4.846   1.466   2.605
 4174SOL    HW213422   4.699   1.413   2.651
 4175SOL     OW13423   1.899   4.846   4.010
 4175SOL    HW113424   1.854   4.899   3.939
 4175SOL    HW213425   1.832   4.817   4.078
 4176SOL     OW13426   4.016   6.668   1.527
 4176SOL    HW113427   4.023   6.715   1.439
 4176SOL    HW213428   3.961   6.723   1.590
 4177SOL     OW13429   5.735   4.748   5.543
 4177SOL    HW113430   5.686   4.771   5.458
 4177SOL    HW213431   5.827   4.716   5.521
 4178SOL     OW13432   4.222   6.801   4.015
 4178SOL    HW113433   4.254   6.718   3.969
 4178SOL    HW213434   4.300   6.862   4.031
 4179SOL     OW13435   5.215   3.739   3.120
 4179SOL    HW113436   5.215   3.652   3.069
 4179SOL    HW213437   5.270   3.806   3.070
 4180SOL     OW13438   4.521   2.933   0.644
 4180SOL    HW113439   4.474   2.858   0.597
 4180SOL    HW213440   4.454   2.987   0.696
 4181SOL     OW13441   4.125   1.069   6.736
 4181SOL    HW113442   4.205   1.061   6.677
 4181SOL    HW213443   4.043   1.046   6.684
 4182SOL     OW13444   0.278   5.830   3.356
 4182SOL    HW113445   0.363   5.829   3.304
 4182SOL    HW213446   0.210   5.773   3.310
 4183SOL     OW13447   2.348   1.624   6.821
 4183SOL    HW113448   2.355   1.546   6.884
 4183SOL    HW213449   2.260   1.622   6.775
 4184SOL     OW13450   3.087   6.479   2.710
 4184SOL    HW113451   3.094   6.385   2.744
 4184SOL    HW213452   2.991   6.504   2.698
 4185SOL     OW13453   1.151   4.486   2.731
 4185SOL    HW113454   1.092   4.413   2.764
 4185SOL    HW213455   1.246   4.456   2.735
 4186SOL     OW13456   2.788   5.088   6.457
 4186SOL    HW113457   2.711   5.048   6.408
 4186SOL    HW213458   2.865   5.023   6.458
 4187SOL     OW13459   3.715   3.476   5.567
 4187SOL    HW113460   3.701   3.540   5.643
 4187SOL    HW213461   3.639   3.484   5.502
 4188SOL     OW13462   4.914   0.678   5.082
 4188SOL    HW113463   5.011   0.660   5.066
 4188SOL    HW213464   4.866   0.684   4.995
 4189SOL     OW13465   2.843   5.044   4.498
 4189SOL    HW113466   2.864   5.097   4.580
 4189SOL    HW213467   2.875   4.950   4.510
 4190SOL     OW13468   0.645   0.941   0.949
 4190SOL    HW113469   0.642   0.852   0.903
 4190SOL    HW213470   0.623   1.013   0.884
 4191SOL     OW13471   4.703   4.689   3.748
 4191SOL    HW113472   4.714   4.786   3.729
 4191SOL    HW213473   4.768   4.637   3.694
 4192SOL     OW13474   0.696   1.836   3.597
 4192SOL    HW113475   0.777   1.844   3.539
 4192SOL    HW213476   0.640   1.919   3.587
 4193SOL     OW13477   6.839   0.571   0.665
 4193SOL    HW113478   6.901   0.522   0.604
 4193SOL    HW213479   6.843   0.532   0.757
 4194SOL     OW13480   5.024   0.019   4.797
 4194SOL    HW113481   5.006   0.092   4.864
 4194SOL    HW213482   4.945   0.009   4.737
 4195SOL     OW13483   3.923   6.202   1.196
 4195SOL    HW113484   4.016   6.167   1.207
 4195SOL    HW213485   3.926   6.294   1.158
 4196SOL     OW13486   6.183   2.706   2.797
 4196SOL    HW113487   6.084   2.702   2.804
 4196SOL    HW213488   6.221   2.614   2.810
 4197SOL     OW13489   5.132   5.641   5.968
 4197SOL    HW113490   5.065   5.610   6.036
 4197SOL    HW213491   5.220   5.655   6.012
 4198SOL     OW13492   6.329   2.069   0.473
 4198SOL    HW113493   6.277   2.119   0.404
 4198SOL    HW213494   6.267   2.020   0.533
 4199SOL     OW13495   1.908   2.057   6.014
 4199SOL    HW113496   1.903   2.021   5.921
 4199SOL    HW213497   1.902   2.157   6.011
 4200SOL     OW13498   3.047   0.453   6.300
 4200SOL    HW113499   2.991   0.469   6.219
 4200SOL    HW213500   3.137   0.418   6.273
 4201SOL     OW13501   6.262   6.453   3.765
 4201SOL    HW113502   6.298   6.360   3.754
 4201SOL    HW213503   6.326   6.518   3.726
 4202SOL     OW13504   3.797   5.461   5.778
 4202SOL    HW113505   3.842   5.516   5.707
 4202SOL    HW213506   3.758   5.521   5.848
 4203SOL     OW13507   3.626   4.242   6.883
 4203SOL    HW113508   3.645   4.316   6.818
 4203SOL    HW213509   3.609   4.281   6.973
 4204SOL     OW13510   4.120   3.674   3.668
 4204SOL    HW113511   4.121   3.589   3.615
 4204SOL    HW213512   4.101   3.750   3.607
 4205SOL     OW13513   4.274   6.292   3.583
 4205SOL    HW113514   4.274   6.373   3.524
 4205SOL    HW213515   4.338   6.306   3.659
 4206SOL     OW13516   6.355   0.780   5.485
 4206SOL    HW113517   6.320   0.857   5.431
 4206SOL    HW213518   6.453   0.769   5.468
 4207SOL     OW13519   1.636   1.801   1.710
 4207SOL    HW113520   1.733   1.828   1.715
 4207SOL    HW213521   1.600   1.822   1.619
 4208SOL     OW13522   7.014   3.754   5.330
 4208SOL    HW113523   6.993   3.804   5.246
 4208SOL    HW213524   0.031   3.816   5.397
 4209SOL     OW13525   0.027   0.348   3.660
 4209SOL    HW113526   0.045   0.255   3.630
 4209SOL    HW213527   6.955   0.355   3.690
 4210SOL     OW13528   4.041   3.243   1.990
 4210SOL    HW113529   4.073   3.337   2.005
 4210SOL    HW213530   4.119   3.185   1.967
 4211SOL     OW13531   4.098   6.987   6.493
 4211SOL    HW113532   4.173   6.938   6.536
 4211SOL    HW213533   4.083   6.951   6.401
 4212SOL     OW13534   6.276   1.554   2.709
 4212SOL    HW113535   6.311   1.647   2.726
 4212SOL    HW213536   6.189   1.560   2.661
 4213SOL     OW13537   2.259   0.475   1.699
 4213SOL    HW113538   2.216   0.392   1.736
 4213SOL    HW213539   2.188   0.538   1.669
 4214SOL     OW13540   0.951   5.173   5.061
 4214SOL    HW113541   0.861   5.175   5.103
 4214SOL    HW213542   0.978   5.266   5.034
 4215SOL     OW13543   4.814   0.327   5.952
 4215SOL    HW113544   4.847   0.412   5.910
 4215SOL    HW213545   4.715   0.323   5.948
 4216SOL     OW13546   1.541   1.050   2.897
 4216SOL    HW113547   1.569   1.142   2.869
 4216SOL    HW213548   1.605   1.015   2.966
 4217SOL     OW13549   1.384   0.619   2.164
 4217SOL    HW113550   1.295   0.646   2.128
 4217SOL    HW213551   1.380   0.617   2.264
 4218SOL     OW13552   4.179   0.939   1.997
 4218SOL    HW113553   4.082   0.958   1.984
 4218SOL    HW213554   4.191   0.845   2.027
 4219SOL     OW13555   3.881   6.002   3.722
 4219SOL    HW113556   3.858   6.016   3.818
 4219SOL    HW213557   3.965   5.948   3.715
 4220SOL     OW13558   6.276   3.692   3.313
 4220SOL    HW113559   6.246   3.725   3.402
 4220SOL    HW213560   6.291   3.593   3.317
 4221SOL     OW13561   5.972   5.297   6.172
 4221SOL    HW113562   6.071   5.283   6.177
 4221SOL    HW213563   5.941   5.284   6.078
 4222SOL     OW13564   7.018   1.896   2.083
 4222SOL    HW113565   0.082   1.935   2.057
 4222SOL    HW213566   7.008   1.900   2.183
 4223SOL     OW13567   3.344   3.247   6.806
 4223SOL    HW113568   3.392   3.307   6.870
 4223SOL    HW213569   3.391   3.159   6.800
 4224SOL     OW13570   4.476   4.495   4.159
 4224SOL    HW113571   4.551   4.468   4.219
 4224SOL    HW213572   4.484   4.449   4.071
 4225SOL     OW13573   3.025   1.909   5.709
 4225SOL    HW113574   2.929   1.896   5.686
 4225SOL    HW213575   3.043   1.872   5.800
 4226SOL     OW13576   1.570   0.431   2.466
 4226SOL    HW113577   1.561   0.332   2.463
 4226SOL    HW213578   1.665   0.455   2.488
 4227SOL     OW13579   3.878   4.980   1.250
 4227SOL    HW113580   3.829   5.058   1.289
 4227SOL    HW213581   3.897   4.913   1.322
 4228SOL     OW13582   1.020   4.927   4.963
 4228SOL    HW113583   0.988   5.022   4.962
 4228SOL    HW213584   1.001   4.886   5.052
 4229SOL     OW13585   5.224   6.376   5.857
 4229SOL    HW113586   5.196   6.351   5.765
 4229SOL    HW213587   5.185   6.311   5.923
 4230SOL     OW13588   0.799   6.234   2.376
 4230SOL    HW113589   0.830   6.140   2.386
 4230SOL    HW213590   0.699   6.238   2.376
 4231SOL     OW13591   5.808   0.042   5.514
 4231SOL    HW113592   5.883   7.014   5.472
 4231SOL    HW213593   5.815   0.037   5.613
 4232SOL     OW13594   0.009   4.782   3.148
 4232SOL    HW113595   6.963   4.791   3.220
 4232SOL    HW213596   0.004   4.861   3.087
 4233SOL     OW13597   0.084   0.236   5.851
 4233SOL    HW113598   0.127   0.163   5.797
 4233SOL    HW213599   7.017   0.206   5.881
 4234SOL     OW13600   2.299   6.594   4.744
 4234SOL    HW113601   2.213   6.547   4.724
 4234SOL    HW213602   2.368   6.526   4.768
 4235SOL     OW13603   5.479   3.928   5.771
 4235SOL    HW113604   5.564   3.876   5.770
 4235SOL    HW213605   5.499   4.025   5.758
 4236SOL     OW13606   6.753   3.594   2.363
 4236SOL    HW113607   6.726   3.504   2.397
 4236SOL    HW213608   6.804   3.643   2.434
 4237SOL     OW13609   5.402   6.266   2.951
 4237SOL    HW113610   5.309   6.230   2.962
 4237SOL    HW213611   5.464   6.216   3.011
 4238SOL     OW13612   2.661   6.072   2.744
 4238SOL    HW113613   2.578   6.016   2.751
 4238SOL    HW213614   2.674   6.099   2.649
 4239SOL     OW13615   6.311   1.983   2.557
 4239SOL    HW113616   6.251   2.039   2.500
 4239SOL    HW213617   6.371   2.042   2.611
 4240SOL     OW13618   2.394   5.790   0.265
 4240SOL    HW113619   2.413   5.870   0.322
 4240SOL    HW213620   2.385   5.709   0.324
 4241SOL     OW13621   6.026   0.999   0.436
 4241SOL    HW113622   6.026   1.099   0.441
 4241SOL    HW213623   6.098   0.969   0.372
 4242SOL     OW13624   3.116   1.670   4.085
 4242SOL    HW113625   3.080   1.757   4.051
 4242SOL    HW213626   3.198   1.644   4.034
 4243SOL     OW13627   6.340   2.683   3.365
 4243SOL    HW113628   6.385   2.729   3.442
 4243SOL    HW213629   6.335   2.745   3.287
 4244SOL     OW13630   4.337   4.296   1.410
 4244SOL    HW113631   4.276   4.271   1.334
 4244SOL    HW213632   4.288   4.283   1.497
 4245SOL     OW13633   0.041   1.330   6.725
 4245SOL    HW113634   0.069   1.331   6.629
 4245SOL    HW213635   0.044   1.422   6.762
 4246SOL     OW13636   6.771   4.279   3.582
 4246SOL    HW113637   6.766   4.376   3.560
 4246SOL    HW213638   6.856   4.261   3.632
 4247SOL     OW13639   2.953   5.580   3.391
 4247SOL    HW113640   2.906   5.668   3.391
 4247SOL    HW213641   2.940   5.535   3.303
 4248SOL     OW13642   3.179   1.727   2.790
 4248SOL    HW113643   3.215   1.820   2.801
 4248SOL    HW213644   3.201   1.693   2.699
 4249SOL     OW13645   5.645   2.354   3.278
 4249SOL    HW113646   5.733   2.397   3.296
 4249SOL    HW213647   5.657   2.255   3.268
 4250SOL     OW13648   6.279   4.412   3.120
 4250SOL    HW113649   6.324   4.394   3.208
 4250SOL    HW213650   6.346   4.446   3.054
 4251SOL     OW13651   5.289   4.526   1.932
 4251SOL    HW113652   5.329   4.588   1.865
 4251SOL    HW213653   5.336   4.438   1.928
 4252SOL     OW13654   5.145   6.634   6.495
 4252SOL    HW113655   5.155   6.682   6.408
 4252SOL    HW213656   5.144   6.700   6.570
 4253SOL     OW13657   3.408   6.872   1.128
 4253SOL    HW113658   3.460   6.845   1.046
 4253SOL    HW213659   3.377   6.790   1.175
 4254SOL     OW13660   0.869   3.314   1.861
 4254SOL    HW113661   0.773   3.339   1.866
 4254SOL    HW213662   0.884   3.229   1.911
 4255SOL     OW13663   0.163   4.158   3.864
 4255SOL    HW113664   0.091   4.192   3.925
 4255SOL    HW213665   0.188   4.230   3.799
 4256SOL     OW13666   2.279   6.404   0.474
 4256SOL    HW113667   2.284   6.311   0.439
 4256SOL    HW213668   2.335   6.413   0.557
 4257SOL     OW13669   2.538   0.382   4.315
 4257SOL    HW113670   2.590   0.350   4.236
 4257SOL    HW213671   2.599   0.431   4.377
 4258SOL     OW13672   4.783   6.190   1.101
 4258SOL    HW113673   4.803   6.108   1.154
 4258SOL    HW213674   4.844   6.265   1.129
 4259SOL     OW13675   2.552   0.703   1.088
 4259SOL    HW113676   2.489   0.688   1.012
 4259SOL    HW213677   2.616   0.776   1.066
 4260SOL     OW13678   5.381   0.193   1.322
 4260SOL    HW113679   5.282   0.178   1.319
 4260SOL    HW213680   5.420   0.138   1.396
 4261SOL     OW13681   1.626   0.027   2.739
 4261SOL    HW113682   1.549   0.062   2.686
 4261SOL    HW213683   1.708   0.023   2.682
 4262SOL     OW13684   0.657   4.962   6.209
 4262SOL    HW113685   0.673   5.059   6.229
 4262SOL    HW213686   0.711   4.905   6.272
 4263SOL     OW13687   3.289   6.446   3.051
 4263SOL    HW113688   3.288   6.393   3.136
 4263SOL    HW213689   3.259   6.539   3.069
 4264SOL     OW13690   0.137   2.332   3.105
 4264SOL    HW113691   0.077   2.324   3.185
 4264SOL    HW213692   0.229   2.303   3.129
 4265SOL     OW13693   4.889   1.615   1.309
 4265SOL    HW113694   4.926   1.563   1.385
 4265SOL    HW213695   4.914   1.572   1.222
 4266SOL     OW13696   1.890   5.640   0.585
 4266SOL    HW113697   1.899   5.549   0.627
 4266SOL    HW213698   1.906   5.633   0.487
 4267SOL     OW13699   1.992   2.872   4.149
 4267SOL    HW113700   2.046   2.799   4.107
 4267SOL    HW213701   1.965   2.845   4.242
 4268SOL     OW13702   1.586   6.234   0.044
 4268SOL    HW113703   1.635   6.238   6.981
 4268SOL    HW213704   1.508   6.297   0.041
 4269SOL     OW13705   3.024   0.299   2.027
 4269SOL    HW113706   3.000   0.352   2.109
 4269SOL    HW213707   2.971   0.215   2.025
 4270SOL     OW13708   4.049   3.681   3.191
 4270SOL    HW113709   4.019   3.677   3.286
 4270SOL    HW213710   3.990   3.623   3.135
 4271SOL     OW13711   6.248   1.234   6.903
 4271SOL    HW113712   6.285   1.202   6.816
 4271SOL    HW213713   6.245   1.334   6.903
 4272SOL     OW13714   6.535   2.853   4.566
 4272SOL    HW113715   6.593   2.932   4.586
 4272SOL    HW213716   6.520   2.800   4.649
 4273SOL     OW13717   4.712   6.501   4.594
 4273SOL    HW113718   4.686   6.463   4.683
 4273SOL    HW213719   4.734   6.598   4.605
 4274SOL     OW13720   0.680   6.059   1.684
 4274SOL    HW113721   0.760   6.117   1.667
 4274SOL    HW213722   0.628   6.096   1.761
 4275SOL     OW13723   7.004   1.495   4.591
 4275SOL    HW113724   6.966   1.404   4.576
 4275SOL    HW213725   0.046   1.516   4.518
 4276SOL     OW13726   1.579   4.822   3.504
 4276SOL    HW113727   1.647   4.841   3.433
 4276SOL    HW213728   1.625   4.786   3.585
 4277SOL     OW13729   6.391   4.671   3.875
 4277SOL    HW113730   6.334   4.612   3.818
 4277SOL    HW213731   6.454   4.723   3.817
 4278SOL     OW13732   6.915   0.112   4.391
 4278SOL    HW113733   6.975   0.104   4.470
 4278SOL    HW213734   6.969   0.136   4.310
 4279SOL     OW13735   2.987   0.402   3.921
 4279SOL    HW113736   2.999   0.408   3.822
 4279SOL    HW213737   2.927   0.476   3.952
 4280SOL     OW13738   4.455   0.488   5.536
 4280SOL    HW113739   4.448   0.573   5.485
 4280SOL    HW213740   4.504   0.420   5.481
 4281SOL     OW13741   0.423   4.678   3.667
 4281SOL    HW113742   0.359   4.632   3.605
 4281SOL    HW213743   0.416   4.636   3.757
 4282SOL     OW13744   3.045   4.153   5.896
 4282SOL    HW113745   2.988   4.071   5.897
 4282SOL    HW213746   3.048   4.191   5.803
 4283SOL     OW13747   1.209   0.982   3.156
 4283SOL    HW113748   1.237   0.995   3.060
 4283SOL    HW213749   1.213   1.070   3.203
 4284SOL     OW13750   3.941   4.812   1.463
 4284SOL    HW113751   3.851   4.776   1.490
 4284SOL    HW213752   4.002   4.736   1.442
 4285SOL     OW13753   1.110   0.462   5.869
 4285SOL    HW113754   1.186   0.517   5.903
 4285SOL    HW213755   1.023   0.508   5.888
 4286SOL     OW13756   4.873   6.876   6.130
 4286SOL    HW113757   4.794   6.814   6.128
 4286SOL    HW213758   4.856   6.948   6.197
 4287SOL     OW13759   5.713   2.334   6.377
 4287SOL    HW113760   5.637   2.399   6.369
 4287SOL    HW213761   5.742   2.328   6.472
 4288SOL     OW13762   6.954   5.871   3.856
 4288SOL    HW113763   6.930   5.777   3.881
 4288SOL    HW213764   6.955   5.880   3.757
 4289SOL     OW13765   6.692   2.909   6.856
 4289SOL    HW113766   6.700   2.828   6.798
 4289SOL    HW213767   6.780   2.956   6.860
 4290SOL     OW13768   1.109   6.516   2.810
 4290SOL    HW113769   1.143   6.447   2.874
 4290SOL    HW213770   1.065   6.590   2.861
 4291SOL     OW13771   4.407   3.266   1.134
 4291SOL    HW113772   4.312   3.241   1.118
 4291SOL    HW213773   4.467   3.197   1.093
 4292SOL     OW13774   5.759   3.110   0.169
 4292SOL    HW113775   5.684   3.069   0.118
 4292SOL    HW213776   5.779   3.054   0.249
 4293SOL     OW13777   2.661   3.514   0.392
 4293SOL    HW113778   2.579   3.512   0.335
 4293SOL    HW213779   2.742   3.517   0.333
 4294SOL     OW13780   1.867   2.579   6.751
 4294SOL    HW113781   1.882   2.677   6.767
 4294SOL    HW213782   1.904   2.527   6.828
 4295SOL     OW13783   4.457   6.044   4.636
 4295SOL    HW113784   4.455   6.052   4.736
 4295SOL    HW213785   4.447   5.948   4.610
 4296SOL     OW13786   3.306   7.019   0.506
 4296SOL    HW113787   3.241   6.973   0.567
 4296SOL    HW213788   3.256   0.054   0.442
 4297SOL     OW13789   4.858   0.651   6.657
 4297SOL    HW113790   4.898   0.659   6.566
 4297SOL    HW213791   4.790   0.578   6.657
 4298SOL     OW13792   3.948   5.063   0.169
 4298SOL    HW113793   3.935   5.056   0.268
 4298SOL    HW213794   4.039   5.100   0.150
 4299SOL     OW13795   0.718   3.135   6.573
 4299SOL    HW113796   0.817   3.121   6.574
 4299SOL    HW213797   0.694   3.200   6.501
 4300SOL     OW13798   3.730   6.785   0.336
 4300SOL    HW113799   3.768   6.791   0.428
 4300SOL    HW213800   3.797   6.742   0.275
 4301SOL     OW13801   4.177   1.747   1.415
 4301SOL    HW113802   4.150   1.651   1.414
 4301SOL    HW213803   4.105   1.803   1.456
 4302SOL     OW13804   1.244   6.735   6.416
 4302SOL    HW113805   1.293   6.765   6.498
 4302SOL    HW213806   1.154   6.778   6.414
 4303SOL     OW13807   0.313   4.576   4.111
 4303SOL    HW113808   0.222   4.597   4.076
 4303SOL    HW213809   0.348   4.654   4.163
 4304SOL     OW13810   2.941   3.837   3.112
 4304SOL    HW113811   2.979   3.900   3.180
 4304SOL    HW213812   2.962   3.871   3.020
 4305SOL     OW13813   6.565   0.243   5.212
 4305SOL    HW113814   6.495   0.286   5.156
 4305SOL    HW213815   6.531   0.156   5.248
 4306SOL     OW13816   5.672   4.177   6.029
 4306SOL    HW113817   5.707   4.155   6.120
 4306SOL    HW213818   5.574   4.197   6.036
 4307SOL     OW13819   4.606   4.251   5.640
 4307SOL    HW113820   4.572   4.165   5.679
 4307SOL    HW213821   4.648   4.232   5.552
 4308SOL     OW13822   6.277   4.761   0.396
 4308SOL    HW113823   6.344   4.687   0.386
 4308SOL    HW213824   6.312   4.829   0.462
 4309SOL     OW13825   1.298   1.326   0.358
 4309SOL    HW113826   1.301   1.238   0.310
 4309SOL    HW213827   1.351   1.320   0.442
 4310SOL     OW13828   1.498   2.599   2.252
 4310SOL    HW113829   1.445   2.576   2.170
 4310SOL    HW213830   1.570   2.664   2.228
 4311SOL     OW13831   1.950   5.837   3.106
 4311SOL    HW113832   1.851   5.848   3.109
 4311SOL    HW213833   1.993   5.902   3.168
 4312SOL     OW13834   1.979   5.189   1.151
 4312SOL    HW113835   1.921   5.251   1.097
 4312SOL    HW213836   1.921   5.130   1.207
 4313SOL     OW13837   4.672   1.482   1.738
 4313SOL    HW113838   4.715   1.536   1.810
 4313SOL    HW213839   4.616   1.542   1.680
 4314SOL     OW13840   6.228   1.384   4.104
 4314SOL    HW113841   6.166   1.339   4.169
 4314SOL    HW213842   6.221   1.483   4.115
 4315SOL     OW13843   2.469   6.562   2.544
 4315SOL    HW113844   2.476   6.464   2.563
 4315SOL    HW213845   2.439   6.576   2.450
 4316SOL     OW13846   5.425   0.375   2.272
 4316SOL    HW113847   5.373   0.320   2.207
 4316SOL    HW213848   5.410   0.472   2.252
 4317SOL     OW13849   4.837   2.458   4.484
 4317SOL    HW113850   4.775   2.524   4.439
 4317SOL    HW213851   4.812   2.366   4.455
 4318SOL     OW13852   1.007   3.692   4.867
 4318SOL    HW113853   0.973   3.598   4.872
 4318SOL    HW213854   1.024   3.726   4.959
 4319SOL     OW13855   1.922   2.217   1.127
 4319SOL    HW113856   1.952   2.122   1.138
 4319SOL    HW213857   1.990   2.278   1.167
 4320SOL     OW13858   5.929   5.547   0.798
 4320SOL    HW113859   5.876   5.573   0.717
 4320SOL    HW213860   6.022   5.523   0.771
 4321SOL     OW13861   6.842   6.697   5.018
 4321SOL    HW113862   6.826   6.776   4.959
 4321SOL    HW213863   6.819   6.613   4.969
 4322SOL     OW13864   6.322   2.396   6.467
 4322SOL    HW113865   6.322   2.435   6.375
 4322SOL    HW213866   6.233   2.413   6.510
 4323SOL     OW13867   4.436   3.864   1.348
 4323SOL    HW113868   4.473   3.956   1.363
 4323SOL    HW213869   4.509   3.797   1.361
 4324SOL     OW13870   5.397   4.654   6.913
 4324SOL    HW113871   5.307   4.677   6.949
 4324SOL    HW213872   5.453   4.615   6.986
 4325SOL     OW13873   2.529   0.851   1.435
 4325SOL    HW113874   2.459   0.883   1.370
 4325SOL    HW213875   2.490   0.780   1.494
 4326SOL     OW13876   4.782   4.663   4.234
 4326SOL    HW113877   4.710   4.693   4.171
 4326SOL    HW213878   4.744   4.657   4.326
 4327SOL     OW13879   5.840   6.160   1.680
 4327SOL    HW113880   5.852   6.241   1.737
 4327SOL    HW213881   5.744   6.152   1.654
 4328SOL     OW13882   4.690   3.870   5.427
 4328SOL    HW113883   4.599   3.830   5.412
 4328SOL    HW213884   4.760   3.807   5.393
 4329SOL     OW13885   4.424   1.515   6.145
 4329SOL    HW113886   4.447   1.580   6.073
 4329SOL    HW213887   4.497   1.511   6.212
 4330SOL     OW13888   2.687   6.652   4.399
 4330SOL    HW113889   2.611   6.706   4.363
 4330SOL    HW213890   2.774   6.694   4.370
 4331SOL     OW13891   5.638   1.667   1.751
 4331SOL    HW113892   5.672   1.742   1.807
 4331SOL    HW213893   5.611   1.590   1.809
 4332SOL     OW13894   5.519   3.732   2.164
 4332SOL    HW113895   5.512   3.671   2.242
 4332SOL    HW213896   5.428   3.751   2.127
 4333SOL     OW13897   3.580   0.612   4.769
 4333SOL    HW113898   3.514   0.659   4.828
 4333SOL    HW213899   3.574   0.514   4.783
 4334SOL     OW13900   2.006   2.349   2.243
 4334SOL    HW113901   2.013   2.275   2.310
 4334SOL    HW213902   1.929   2.331   2.182
 4335SOL     OW13903   3.237   3.354   2.541
 4335SOL    HW113904   3.239   3.277   2.477
 4335SOL    HW213905   3.215   3.438   2.490
 4336SOL     OW13906   2.922   6.590   6.666
 4336SOL    HW113907   2.955   6.497   6.684
 4336SOL    HW213908   2.989   6.639   6.610
 4337SOL     OW13909   0.363   4.537   0.969
 4337SOL    HW113910   0.431   4.604   0.940
 4337SOL    HW213911   0.360   4.532   1.069
 4338SOL     OW13912   5.344   6.413   5.282
 4338SOL    HW113913   5.274   6.363   5.333
 4338SOL    HW213914   5.358   6.503   5.323
 4339SOL     OW13915   5.574   3.631   5.426
 4339SOL    HW113916   5.648   3.565   5.442
 4339SOL    HW213917   5.521   3.604   5.346
 4340SOL     OW13918   6.602   2.823   1.353
 4340SOL    HW113919   6.652   2.891   1.407
 4340SOL    HW213920   6.554   2.760   1.415
 4341SOL     OW13921   0.031   6.098   2.245
 4341SOL    HW113922   7.001   6.164   2.298
 4341SOL    HW213923   0.116   6.079   2.293
 4342SOL     OW13924   5.752   4.018   3.714
 4342SOL    HW113925   5.824   3.968   3.666
 4342SOL    HW213926   5.716   3.962   3.789
 4343SOL     OW13927   2.382   5.830   5.343
 4343SOL    HW113928   2.431   5.749   5.373
 4343SOL    HW213929   2.390   5.839   5.244
 4344SOL     OW13930   0.726   4.685   1.940
 4344SOL    HW113931   0.819   4.648   1.941
 4344SOL    HW213932   0.660   4.610   1.942
 4345SOL     OW13933   3.118   3.745   4.897
 4345SOL    HW113934   3.112   3.739   4.997
 4345SOL    HW213935   3.212   3.766   4.870
 4346SOL     OW13936   1.689   3.145   2.364
 4346SOL    HW113937   1.611   3.200   2.333
 4346SOL    HW213938   1.734   3.103   2.286
 4347SOL     OW13939   6.820   6.489   3.498
 4347SOL    HW113940   6.887   6.539   3.444
 4347SOL    HW213941   6.867   6.439   3.571
 4348SOL     OW13942   0.146   4.343   3.397
 4348SOL    HW113943   0.049   4.353   3.373
 4348SOL    HW213944   0.156   4.265   3.459
 4349SOL     OW13945   6.836   1.805   2.568
 4349SOL    HW113946   6.858   1.888   2.619
 4349SOL    HW213947   6.889   1.728   2.604
 4350SOL     OW13948   3.779   1.619   4.163
 4350SOL    HW113949   3.799   1.689   4.232
 4350SOL    HW213950   3.862   1.599   4.111
 4351SOL     OW13951   1.627   5.003   0.499
 4351SOL    HW113952   1.648   4.993   0.597
 4351SOL    HW213953   1.651   4.919   0.451
 4352SOL     OW13954   6.987   3.854   2.164
 4352SOL    HW113955   0.026   3.787   2.204
 4352SOL    HW213956   6.893   3.823   2.176
 4353SOL     OW13957   3.831   3.101   6.610
 4353SOL    HW113958   3.895   3.065   6.542
 4353SOL    HW213959   3.810   3.196   6.589
 4354SOL     OW13960   2.402   6.795   5.291
 4354SOL    HW113961   2.399   6.793   5.391
 4354SOL    HW213962   2.434   6.885   5.261
 4355SOL     OW13963   2.036   0.405   2.812
 4355SOL    HW113964   2.125   0.435   2.780
 4355SOL    HW213965   2.025   0.307   2.794
 4356SOL     OW13966   4.928   3.913   1.215
 4356SOL    HW113967   4.923   3.820   1.251
 4356SOL    HW213968   4.926   3.978   1.291
 4357SOL     OW13969   0.174   1.014   1.156
 4357SOL    HW113970   0.127   0.962   1.228
 4357SOL    HW213971   0.230   1.085   1.198
 4358SOL     OW13972   0.154   6.831   0.086
 4358SOL    HW113973   0.230   6.881   0.127
 4358SOL    HW213974   0.083   6.895   0.057
 4359SOL     OW13975   1.934   1.336   6.356
 4359SOL    HW113976   1.909   1.420   6.308
 4359SOL    HW213977   1.906   1.342   6.452
 4360SOL     OW13978   1.453   2.806   3.001
 4360SOL    HW113979   1.484   2.730   3.058
 4360SOL    HW213980   1.362   2.835   3.032
 4361SOL     OW13981   2.152   3.152   1.420
 4361SOL    HW113982   2.122   3.234   1.468
 4361SOL    HW213983   2.072   3.096   1.398
 4362SOL     OW13984   5.754   5.746   3.378
 4362SOL    HW113985   5.744   5.783   3.470
 4362SOL    HW213986   5.851   5.744   3.353
 4363SOL     OW13987   5.163   2.482   1.263
 4363SOL    HW113988   5.196   2.415   1.331
 4363SOL    HW213989   5.149   2.570   1.308
 4364SOL     OW13990   3.234   3.203   4.620
 4364SOL    HW113991   3.164   3.205   4.691
 4364SOL    HW213992   3.191   3.186   4.531
 4365SOL     OW13993   2.120   1.169   2.000
 4365SOL    HW113994   2.127   1.214   2.089
 4365SOL    HW213995   2.197   1.106   1.988
 4366SOL     OW13996   6.000   0.053   0.208
 4366SOL    HW113997   5.994   0.143   0.165
 4366SOL    HW213998   6.010   7.007   0.137
 4367SOL     OW13999   1.802   4.134   4.266
 4367SOL    HW114000   1.819   4.085   4.351
 4367SOL    HW214001   1.870   4.206   4.254
 4368SOL     OW14002   3.942   3.885   0.925
 4368SOL    HW114003   4.007   3.817   0.893
 4368SOL    HW214004   3.987   3.974   0.932
 4369SOL     OW14005   4.474   5.055   2.903
 4369SOL    HW114006   4.563   5.024   2.871
 4369SOL    HW214007   4.485   5.113   2.984
 4370SOL     OW14008   4.290   5.169   2.137
 4370SOL    HW114009   4.347   5.105   2.086
 4370SOL    HW214010   4.219   5.119   2.186
 4371SOL     OW14011   0.979   2.059   1.682
 4371SOL    HW114012   1.064   2.078   1.730
 4371SOL    HW214013   0.984   2.093   1.588
 4372SOL     OW14014   3.468   1.299   2.675
 4372SOL    HW114015   3.374   1.266   2.683
 4372SOL    HW214016   3.512   1.298   2.765
 4373SOL     OW14017   6.253   2.388   6.841
 4373SOL    HW114018   6.291   2.296   6.833
 4373SOL    HW214019   6.318   2.454   6.802
 4374SOL     OW14020   1.060   2.318   1.006
 4374SOL    HW114021   1.030   2.399   0.955
 4374SOL    HW214022   1.012   2.237   0.971
 4375SOL     OW14023   4.176   0.415   3.562
 4375SOL    HW114024   4.136   0.328   3.534
 4375SOL    HW214025   4.196   0.413   3.660
 4376SOL     OW14026   0.592   6.774   1.442
 4376SOL    HW114027   0.625   6.745   1.352
 4376SOL    HW214028   0.651   6.737   1.513
 4377SOL     OW14029   5.631   4.559   0.529
 4377SOL    HW114030   5.531   4.556   0.529
 4377SOL    HW214031   5.661   4.634   0.470
 4378SOL     OW14032   2.131   2.696   2.770
 4378SOL    HW114033   2.179   2.619   2.729
 4378SOL    HW214034   2.105   2.673   2.864
 4379SOL     OW14035   1.826   1.677   2.976
 4379SOL    HW114036   1.729   1.656   2.969
 4379SOL    HW214037   1.880   1.594   2.958
 4380SOL     OW14038   0.839   6.851   2.552
 4380SOL    HW114039   0.926   6.822   2.510
 4380SOL    HW214040   0.822   6.796   2.633
 4381SOL     OW14041   1.489   4.899   5.656
 4381SOL    HW114042   1.542   4.826   5.613
 4381SOL    HW214043   1.510   4.903   5.754
 4382SOL     OW14044   6.518   3.417   5.226
 4382SOL    HW114045   6.512   3.335   5.282
 4382SOL    HW214046   6.614   3.438   5.208
 4383SOL     OW14047   0.456   3.287   5.806
 4383SOL    HW114048   0.395   3.247   5.874
 4383SOL    HW214049   0.422   3.378   5.781
 4384SOL     OW14050   5.547   1.447   4.776
 4384SOL    HW114051   5.595   1.367   4.742
 4384SOL    HW214052   5.612   1.522   4.791
 4385SOL     OW14053   5.699   2.665   4.740
 4385SOL    HW114054   5.698   2.658   4.640
 4385SOL    HW214055   5.784   2.627   4.776
 4386SOL     OW14056   1.875   3.163   6.173
 4386SOL    HW114057   1.834   3.091   6.229
 4386SOL    HW214058   1.962   3.191   6.213
 4387SOL     OW14059   6.773   1.465   0.840
 4387SOL    HW114060   6.681   1.505   0.845
 4387SOL    HW214061   6.799   1.429   0.929
 4388SOL     OW14062   4.674   2.483   6.487
 4388SOL    HW114063   4.689   2.560   6.426
 4388SOL    HW214064   4.627   2.514   6.570
 4389SOL     OW14065   6.690   3.195   0.626
 4389SOL    HW114066   6.601   3.163   0.659
 4389SOL    HW214067   6.749   3.116   0.610
 4390SOL     OW14068   3.729   0.508   1.676
 4390SOL    HW114069   3.808   0.564   1.701
 4390SOL    HW214070   3.654   0.568   1.646
 4391SOL     OW14071   2.647   5.320   6.942
 4391SOL    HW114072   2.683   5.345   0.008
 4391SOL    HW214073   2.677   5.228   6.918
 4392SOL     OW14074   6.433   3.500   4.408
 4392SOL    HW114075   6.448   3.501   4.309
 4392SOL    HW214076   6.517   3.475   4.454
 4393SOL     OW14077   5.699   0.671   2.799
 4393SOL    HW114078   5.705   0.649   2.896
 4393SOL    HW214079   5.779   0.726   2.772
 4394SOL     OW14080   6.531   5.611   2.430
 4394SOL    HW114081   6.521   5.665   2.346
 4394SOL    HW214082   6.477   5.527   2.422
 4395SOL     OW14083   2.081   6.565   2.438
 4395SOL    HW114084   1.995   6.571   2.387
 4395SOL    HW214085   2.064   6.527   2.529
 4396SOL     OW14086   2.533   2.010   3.786
 4396SOL    HW114087   2.521   1.920   3.745
 4396SOL    HW214088   2.592   2.003   3.866
 4397SOL     OW14089   0.634   1.991   4.437
 4397SOL    HW114090   0.706   2.057   4.457
 4397SOL    HW214091   0.609   1.943   4.521
 4398SOL     OW14092   0.721   3.819   5.928
 4398SOL    HW114093   0.758   3.867   6.008
 4398SOL    HW214094   0.702   3.724   5.953
 4399SOL     OW14095   2.361   0.240   2.196
 4399SOL    HW114096   2.351   0.283   2.106
 4399SOL    HW214097   2.314   0.152   2.196
 4400SOL     OW14098   3.004   6.365   5.387
 4400SOL    HW114099   2.978   6.342   5.480
 4400SOL    HW214100   2.949   6.313   5.322
 4401SOL     OW14101   3.319   6.878   6.109
 4401SOL    HW114102   3.260   6.919   6.178
 4401SOL    HW214103   3.351   6.788   6.140
 4402SOL     OW14104   2.096   0.422   2.119
 4402SOL    HW114105   2.118   0.357   2.046
 4402SOL    HW214106   2.161   0.498   2.117
 4403SOL     OW14107   1.153   0.542   1.536
 4403SOL    HW114108   1.236   0.519   1.587
 4403SOL    HW214109   1.081   0.476   1.558
 4404SOL     OW14110   1.301   5.144   5.693
 4404SOL    HW114111   1.351   5.059   5.683
 4404SOL    HW214112   1.364   5.221   5.684
 4405SOL     OW14113   1.428   4.023   1.383
 4405SOL    HW114114   1.362   4.097   1.368
 4405SOL    HW214115   1.498   4.025   1.312
 4406SOL     OW14116   0.373   3.177   1.335
 4406SOL    HW114117   0.337   3.236   1.407
 4406SOL    HW214118   0.457   3.218   1.299
 4407SOL     OW14119   6.043   5.208   0.607
 4407SOL    HW114120   6.080   5.255   0.527
 4407SOL    HW214121   6.045   5.271   0.686
 4408SOL     OW14122   3.063   0.564   1.130
 4408SOL    HW114123   3.012   0.650   1.131
 4408SOL    HW214124   3.031   0.505   1.204
 4409SOL     OW14125   4.882   1.193   2.473
 4409SOL    HW114126   4.796   1.209   2.523
 4409SOL    HW214127   4.872   1.226   2.379
 4410SOL     OW14128   1.654   5.139   6.991
 4410SOL    HW114129   1.685   5.184   6.907
 4410SOL    HW214130   1.654   5.206   0.042
 4411SOL     OW14131   4.081   3.881   4.920
 4411SOL    HW114132   4.178   3.902   4.925
 4411SOL    HW214133   4.033   3.956   4.874
 4412SOL     OW14134   4.811   6.169   4.105
 4412SOL    HW114135   4.852   6.258   4.084
 4412SOL    HW214136   4.865   6.123   4.176
 4413SOL     OW14137   5.698   5.353   4.619
 4413SOL    HW114138   5.707   5.448   4.591
 4413SOL    HW214139   5.615   5.314   4.579
 4414SOL     OW14140   3.288   5.116   1.183
 4414SOL    HW114141   3.336   5.036   1.220
 4414SOL    HW214142   3.355   5.182   1.148
 4415SOL     OW14143   4.429   2.655   0.786
 4415SOL    HW114144   4.443   2.557   0.772
 4415SOL    HW214145   4.400   2.697   0.700
 4416SOL     OW14146   3.791   1.205   4.457
 4416SOL    HW114147   3.768   1.111   4.433
 4416SOL    HW214148   3.728   1.237   4.528
 4417SOL     OW14149   5.364   4.640   3.433
 4417SOL    HW114150   5.398   4.666   3.343
 4417SOL    HW214151   5.407   4.697   3.503
 4418SOL     OW14152   6.417   1.995   2.196
 4418SOL    HW114153   6.367   1.913   2.221
 4418SOL    HW214154   6.385   2.028   2.108
 4419SOL     OW14155   5.512   6.880   6.405
 4419SOL    HW114156   5.465   6.933   6.334
 4419SOL    HW214157   5.532   6.788   6.371
 4420SOL     OW14158   4.578   1.022   1.734
 4420SOL    HW114159   4.558   1.059   1.825
 4420SOL    HW214160   4.507   1.051   1.670
 4421SOL     OW14161   2.363   1.293   4.873
 4421SOL    HW114162   2.265   1.286   4.893
 4421SOL    HW214163   2.391   1.215   4.818
 4422SOL     OW14164   1.832   4.069   6.941
 4422SOL    HW114165   1.893   4.063   7.020
 4422SOL    HW214166   1.788   3.980   6.927
 4423SOL     OW14167   6.975   3.482   5.320
 4423SOL    HW114168   7.007   3.572   5.348
 4423SOL    HW214169   7.005   3.413   5.386
 4424SOL     OW14170   5.593   1.330   3.896
 4424SOL    HW114171   5.506   1.348   3.943
 4424SOL    HW214172   5.612   1.232   3.897
 4425SOL     OW14173   2.761   4.308   0.429
 4425SOL    HW114174   2.718   4.218   0.427
 4425SOL    HW214175   2.822   4.318   0.350
 4426SOL     OW14176   0.235   1.619   3.972
 4426SOL    HW114177   0.280   1.675   3.902
 4426SOL    HW214178   0.290   1.619   4.055
 4427SOL     OW14179   0.148   6.382   2.842
 4427SOL    HW114180   0.145   6.350   2.748
 4427SOL    HW214181   0.242   6.406   2.867
 4428SOL     OW14182   3.138   0.576   3.660
 4428SOL    HW114183   3.110   0.541   3.570
 4428SOL    HW214184   3.186   0.663   3.648
 4429SOL     OW14185   3.162   6.759   2.602
 4429SOL    HW114186   3.069   6.757   2.566
 4429SOL    HW214187   3.188   6.667   2.631
 4430SOL     OW14188   4.941   4.006   4.510
 4430SOL    HW114189   4.915   3.925   4.458
 4430SOL    HW214190   5.033   3.992   4.548
 4431SOL     OW14191   2.877   1.239   2.392
 4431SOL    HW114192   2.941   1.173   2.434
 4431SOL    HW214193   2.914   1.270   2.305
 4432SOL     OW14194   2.914   3.448   5.994
 4432SOL    HW114195   2.949   3.529   6.041
 4432SOL    HW214196   2.816   3.440   6.010
 4433SOL     OW14197   5.091   2.082   4.252
 4433SOL    HW114198   5.147   2.109   4.330
 4433SOL    HW214199   5.145   2.087   4.169
 4434SOL     OW14200   5.554   1.164   3.167
 4434SOL    HW114201   5.566   1.080   3.220
 4434SOL    HW214202   5.505   1.144   3.083
 4435SOL     OW14203   5.171   2.974   1.409
 4435SOL    HW114204   5.134   2.895   1.458
 4435SOL    HW214205   5.102   3.009   1.346
 4436SOL     OW14206   4.151   1.164   1.387
 4436SOL    HW114207   4.161   1.192   1.291
 4436SOL    HW214208   4.066   1.113   1.398
 4437SOL     OW14209   0.119   2.573   2.997
 4437SOL    HW114210   0.121   2.494   3.059
 4437SOL    HW214211   0.209   2.586   2.957
 4438SOL     OW14212   5.156   6.918   6.706
 4438SOL    HW114213   5.256   6.929   6.707
 4438SOL    HW214214   5.114   6.997   6.661
 4439SOL     OW14215   0.032   4.186   1.668
 4439SOL    HW114216   0.111   4.189   1.730
 4439SOL    HW214217   0.010   4.090   1.649
 4440SOL     OW14218   2.868   4.616   0.476
 4440SOL    HW114219   2.841   4.520   0.482
 4440SOL    HW214220   2.928   4.639   0.553
 4441SOL     OW14221   0.419   2.063   2.279
 4441SOL    HW114222   0.382   2.051   2.371
 4441SOL    HW214223   0.395   1.985   2.222
 4442SOL     OW14224   2.093   5.542   4.658
 4442SOL    HW114225   2.104   5.639   4.635
 4442SOL    HW214226   2.159   5.488   4.606
 4443SOL     OW14227   1.360   3.644   6.575
 4443SOL    HW114228   1.282   3.665   6.516
 4443SOL    HW214229   1.414   3.570   6.535
 4444SOL     OW14230   3.445   4.072   4.974
 4444SOL    HW114231   3.365   4.028   5.015
 4444SOL    HW214232   3.424   4.098   4.880
 4445SOL     OW14233   1.408   6.426   7.003
 4445SOL    HW114234   1.364   6.508   0.016
 4445SOL    HW214235   1.503   6.448   6.979
 4446SOL     OW14236   5.208   1.111   1.598
 4446SOL    HW114237   5.126   1.147   1.642
 4446SOL    HW214238   5.217   1.014   1.621
 4447SOL     OW14239   5.453   4.783   5.947
 4447SOL    HW114240   5.423   4.693   5.917
 4447SOL    HW214241   5.401   4.811   6.027
 4448SOL     OW14242   2.487   3.949   1.620
 4448SOL    HW114243   2.420   3.945   1.545
 4448SOL    HW214244   2.496   3.859   1.661
 4449SOL     OW14245   4.914   0.875   6.036
 4449SOL    HW114246   4.845   0.806   6.013
 4449SOL    HW214247   4.954   0.912   5.952
 4450SOL     OW14248   3.883   3.098   5.547
 4450SOL    HW114249   3.948   3.128   5.616
 4450SOL    HW214250   3.790   3.100   5.586
 4451SOL     OW14251   5.830   4.646   3.149
 4451SOL    HW114252   5.803   4.739   3.177
 4451SOL    HW214253   5.930   4.638   3.154
 4452SOL     OW14254   5.139   6.264   4.249
 4452SOL    HW114255   5.228   6.248   4.294
 4452SOL    HW214256   5.138   6.219   4.160
 4453SOL     OW14257   1.292   3.334   1.664
 4453SOL    HW114258   1.309   3.381   1.751
 4453SOL    HW214259   1.286   3.235   1.681
 4454SOL     OW14260   1.523   1.865   6.895
 4454SOL    HW114261   1.461   1.829   6.965
 4454SOL    HW214262   1.616   1.867   6.931
 4455SOL     OW14263   5.022   6.658   6.101
 4455SOL    HW114264   4.955   6.730   6.118
 4455SOL    HW214265   5.011   6.585   6.168
 4456SOL     OW14266   2.990   5.932   1.857
 4456SOL    HW114267   2.942   6.019   1.841
 4456SOL    HW214268   2.943   5.859   1.808
 4457SOL     OW14269   4.260   1.161   2.681
 4457SOL    HW114270   4.303   1.084   2.728
 4457SOL    HW214271   4.169   1.133   2.649
 4458SOL     OW14272   1.616   2.869   0.665
 4458SOL    HW114273   1.679   2.894   0.738
 4458SOL    HW214274   1.660   2.882   0.577
 4459SOL     OW14275   3.735   1.504   4.537
 4459SOL    HW114276   3.682   1.518   4.453
 4459SOL    HW214277   3.822   1.461   4.515
 4460SOL     OW14278   1.860   2.564   6.175
 4460SOL    HW114279   1.920   2.640   6.150
 4460SOL    HW214280   1.905   2.477   6.155
 4461SOL     OW14281   1.703   0.183   0.732
 4461SOL    HW114282   1.693   0.153   0.827
 4461SOL    HW214283   1.614   0.175   0.686
 4462SOL     OW14284   5.660   5.436   1.830
 4462SOL    HW114285   5.663   5.337   1.825
 4462SOL    HW214286   5.597   5.472   1.761
 4463SOL     OW14287   4.693   1.049   0.631
 4463SOL    HW114288   4.749   0.981   0.678
 4463SOL    HW214289   4.610   1.067   0.684
 4464SOL     OW14290   0.434   5.544   0.303
 4464SOL    HW114291   0.496   5.471   0.273
 4464SOL    HW214292   0.467   5.632   0.269
 4465SOL     OW14293   3.680   5.569   1.592
 4465SOL    HW114294   3.733   5.653   1.605
 4465SOL    HW214295   3.621   5.555   1.672
 4466SOL     OW14296   1.060   2.057   3.423
 4466SOL    HW114297   1.132   1.998   3.460
 4466SOL    HW214298   1.041   2.130   3.488
 4467SOL     OW14299   1.999   5.742   2.577
 4467SOL    HW114300   1.910   5.718   2.539
 4467SOL    HW214301   1.990   5.763   2.674
 4468SOL     OW14302   1.739   3.831   0.442
 4468SOL    HW114303   1.744   3.790   0.350
 4468SOL    HW214304   1.725   3.930   0.433
 4469SOL     OW14305   3.289   0.218   2.041
 4469SOL    HW114306   3.341   0.298   2.071
 4469SOL    HW214307   3.204   0.248   1.998
 4470SOL     OW14308   0.477   2.545   2.170
 4470SOL    HW114309   0.468   2.514   2.075
 4470SOL    HW214310   0.422   2.487   2.230
 4471SOL     OW14311   0.537   2.196   6.392
 4471SOL    HW114312   0.630   2.191   6.429
 4471SOL    HW214313   0.499   2.287   6.406
 4472SOL     OW14314   0.784   3.256   2.241
 4472SOL    HW114315   0.780   3.355   2.226
 4472SOL    HW214316   0.717   3.211   2.183
 4473SOL     OW14317   5.816   2.821   4.476
 4473SOL    HW114318   5.725   2.835   4.438
 4473SOL    HW214319   5.883   2.872   4.422
 4474SOL     OW14320   2.064   0.343   2.425
 4474SOL    HW114321   2.082   0.364   2.329
 4474SOL    HW214322   2.148   0.313   2.470
 4475SOL     OW14323   1.222   4.097   2.003
 4475SOL    HW114324   1.163   4.074   1.926
 4475SOL    HW214325   1.170   4.148   2.071
 4476SOL     OW14326   5.138   0.467   2.892
 4476SOL    HW114327   5.156   0.548   2.948
 4476SOL    HW214328   5.158   0.384   2.945
 4477SOL     OW14329   2.141   6.810   5.157
 4477SOL    HW114330   2.220   6.751   5.175
 4477SOL    HW214331   2.163   6.904   5.185
 4478SOL     OW14332   3.497   6.583   3.207
 4478SOL    HW114333   3.434   6.602   3.282
 4478SOL    HW214334   3.533   6.491   3.216
 4479SOL     OW14335   0.487   2.072   0.771
 4479SOL    HW114336   0.484   2.016   0.854
 4479SOL    HW214337   0.400   2.120   0.761
 4480SOL     OW14338   1.125   4.377   5.524
 4480SOL    HW114339   1.053   4.437   5.560
 4480SOL    HW214340   1.152   4.409   5.433
 4481SOL     OW14341   3.864   5.657   4.717
 4481SOL    HW114342   3.827   5.624   4.804
 4481SOL    HW214343   3.853   5.756   4.711
 4482SOL     OW14344   1.663   2.820   5.218
 4482SOL    HW114345   1.636   2.916   5.205
 4482SOL    HW214346   1.762   2.816   5.231
 4483SOL     OW14347   6.058   2.615   2.394
 4483SOL    HW114348   6.103   2.681   2.335
 4483SOL    HW214349   5.964   2.600   2.362
 4484SOL     OW14350   3.315   2.142   6.722
 4484SOL    HW114351   3.300   2.143   6.623
 4484SOL    HW214352   3.333   2.049   6.752
 4485SOL     OW14353   5.290   2.058   4.056
 4485SOL    HW114354   5.292   1.959   4.041
 4485SOL    HW214355   5.373   2.086   4.104
 4486SOL     OW14356   5.583   5.509   5.417
 4486SOL    HW114357   5.488   5.479   5.430
 4486SOL    HW214358   5.626   5.520   5.506
 4487SOL     OW14359   3.025   3.050   6.070
 4487SOL    HW114360   2.945   3.045   6.011
 4487SOL    HW214361   3.090   2.978   6.044
 4488SOL     OW14362   0.574   3.564   5.732
 4488SOL    HW114363   0.563   3.515   5.646
 4488SOL    HW214364   0.485   3.599   5.762
 4489SOL     OW14365   5.127   5.775   5.147
 4489SOL    HW114366   5.205   5.834   5.168
 4489SOL    HW214367   5.045   5.813   5.189
 4490SOL     OW14368   5.832   2.467   2.029
 4490SOL    HW114369   5.835   2.390   1.965
 4490SOL    HW214370   5.771   2.538   1.992
 4491SOL     OW14371   6.689   3.238   3.667
 4491SOL    HW114372   6.653   3.242   3.574
 4491SOL    HW214373   6.668   3.323   3.715
 4492SOL     OW14374   6.162   4.879   2.213
 4492SOL    HW114375   6.167   4.976   2.235
 4492SOL    HW214376   6.200   4.864   2.121
 4493SOL     OW14377   4.950   5.337   4.961
 4493SOL    HW114378   5.034   5.304   4.917
 4493SOL    HW214379   4.873   5.280   4.931
 4494SOL     OW14380   0.389   0.679   6.452
 4494SOL    HW114381   0.382   0.607   6.383
 4494SOL    HW214382   0.347   0.763   6.417
 4495SOL     OW14383   4.041   6.666   4.164
 4495SOL    HW114384   4.105   6.733   4.125
 4495SOL    HW214385   4.007   6.700   4.251
 4496SOL     OW14386   5.687   6.433   1.192
 4496SOL    HW114387   5.758   6.366   1.175
 4496SOL    HW214388   5.715   6.522   1.155
 4497SOL     OW14389   4.979   2.084   6.455
 4497SOL    HW114390   4.994   2.007   6.518
 4497SOL    HW214391   4.925   2.052   6.377
 4498SOL     OW14392   0.290   3.217   0.493
 4498SOL    HW114393   0.226   3.255   0.560
 4498SOL    HW214394   0.249   3.138   0.447
 4499SOL     OW14395   5.756   3.681   4.082
 4499SOL    HW114396   5.709   3.743   4.019
 4499SOL    HW214397   5.805   3.733   4.152
 4500SOL     OW14398   3.141   3.059   4.384
 4500SOL    HW114399   3.046   3.031   4.376
 4500SOL    HW214400   3.201   2.986   4.351
 4501SOL     OW14401   6.738   3.597   2.921
 4501SOL    HW114402   6.762   3.678   2.868
 4501SOL    HW214403   6.809   3.527   2.910
 4502SOL     OW14404   0.475   3.034   6.727
 4502SOL    HW114405   0.505   3.036   6.822
 4502SOL    HW214406   0.524   3.104   6.675
 4503SOL     OW14407   3.751   6.903   2.056
 4503SOL    HW114408   3.704   6.932   2.139
 4503SOL    HW214409   3.684   6.870   1.989
 4504SOL     OW14410   6.662   1.008   4.561
 4504SOL    HW114411   6.649   1.004   4.462
 4504SOL    HW214412   6.573   1.018   4.607
 4505SOL     OW14413   6.432   5.165   2.053
 4505SOL    HW114414   6.469   5.106   1.981
 4505SOL    HW214415   6.436   5.260   2.023
 4506SOL     OW14416   4.786   2.921   3.539
 4506SOL    HW114417   4.886   2.932   3.544
 4506SOL    HW214418   4.743   2.986   3.603
 4507SOL     OW14419   6.010   4.279   3.026
 4507SOL    HW114420   5.967   4.301   3.113
 4507SOL    HW214421   6.109   4.278   3.037
 4508SOL     OW14422   1.924   5.565   0.076
 4508SOL    HW114423   2.003   5.607   0.031
 4508SOL    HW214424   1.841   5.616   0.054
 4509SOL     OW14425   4.555   2.522   2.341
 4509SOL    HW114426   4.550   2.497   2.244
 4509SOL    HW214427   4.611   2.603   2.352
 4510SOL     OW14428   4.176   1.824   4.046
 4510SOL    HW114429   4.225   1.878   4.115
 4510SOL    HW214430   4.201   1.855   3.955
 4511SOL     OW14431   5.725   3.869   6.476
 4511SOL    HW114432   5.634   3.871   6.516
 4511SOL    HW214433   5.792   3.897   6.544
 4512SOL     OW14434   2.790   1.169   5.471
 4512SOL    HW114435   2.788   1.091   5.533
 4512SOL    HW214436   2.793   1.254   5.523
 4513SOL     OW14437   0.686   5.079   6.515
 4513SOL    HW114438   0.718   5.174   6.523
 4513SOL    HW214439   0.760   5.021   6.483
 4514SOL     OW14440   4.074   2.353   5.889
 4514SOL    HW114441   4.148   2.389   5.946
 4514SOL    HW214442   4.016   2.292   5.944
 4515SOL     OW14443   6.749   2.088   5.325
 4515SOL    HW114444   6.792   2.097   5.415
 4515SOL    HW214445   6.799   2.020   5.271
 4516SOL     OW14446   2.140   6.778   0.490
 4516SOL    HW114447   2.138   6.723   0.407
 4516SOL    HW214448   2.048   6.786   0.528
 4517SOL     OW14449   4.415   0.521   6.759
 4517SOL    HW114450   4.327   0.533   6.804
 4517SOL    HW214451   4.451   0.610   6.730
 4518SOL     OW14452   0.045   6.881   2.209
 4518SOL    HW114453   0.057   6.973   2.173
 4518SOL    HW214454   0.125   6.825   2.187
 4519SOL     OW14455   6.895   6.941   1.329
 4519SOL    HW114456   6.974   6.935   1.389
 4519SOL    HW214457   6.831   7.009   1.364
 4520SOL     OW14458   4.631   6.282   5.380
 4520SOL    HW114459   4.597   6.318   5.293
 4520SOL    HW214460   4.554   6.268   5.442
 4521SOL     OW14461   6.113   1.825   5.019
 4521SOL    HW114462   6.094   1.814   5.116
 4521SOL    HW214463   6.197   1.877   5.006
 4522SOL     OW14464   5.568   5.190   3.696
 4522SOL    HW114465   5.560   5.275   3.644
 4522SOL    HW214466   5.653   5.143   3.670
 4523SOL     OW14467   0.906   4.591   0.140
 4523SOL    HW114468   1.001   4.619   0.131
 4523SOL    HW214469   0.897   4.495   0.114
 4524SOL     OW14470   6.370   2.910   1.750
 4524SOL    HW114471   6.274   2.937   1.759
 4524SOL    HW214472   6.376   2.811   1.743
 4525SOL     OW14473   4.929   2.189   5.648
 4525SOL    HW114474   4.987   2.146   5.578
 4525SOL    HW214475   4.852   2.235   5.603
 4526SOL     OW14476   6.630   0.395   6.433
 4526SOL    HW114477   6.572   0.343   6.369
 4526SOL    HW214478   6.633   0.490   6.405
 4527SOL     OW14479   6.133   1.256   3.633
 4527SOL    HW114480   6.188   1.301   3.703
 4527SOL    HW214481   6.145   1.303   3.546
 4528SOL     OW14482   4.145   0.158   6.780
 4528SOL    HW114483   4.132   0.059   6.780
 4528SOL    HW214484   4.096   0.198   6.857
 4529SOL     OW14485   1.945   0.322   5.017
 4529SOL    HW114486   1.902   0.248   5.069
 4529SOL    HW214487   2.042   0.328   5.042
 4530SOL     OW14488   1.621   5.090   4.043
 4530SOL    HW114489   1.576   5.016   3.992
 4530SOL    HW214490   1.631   5.170   3.984
 4531SOL     OW14491   0.576   2.886   4.832
 4531SOL    HW114492   0.611   2.977   4.857
 4531SOL    HW214493   0.525   2.893   4.746
 4532SOL     OW14494   6.711   1.171   2.266
 4532SOL    HW114495   6.618   1.141   2.288
 4532SOL    HW214496   6.714   1.271   2.270
 4533SOL     OW14497   1.286   1.673   2.047
 4533SOL    HW114498   1.305   1.700   1.953
 4533SOL    HW214499   1.328   1.738   2.110
 4534SOL     OW14500   4.789   4.231   4.894
 4534SOL    HW114501   4.755   4.325   4.896
 4534SOL    HW214502   4.744   4.181   4.820
 4535SOL     OW14503   3.408   0.391   2.744
 4535SOL    HW114504   3.419   0.486   2.774
 4535SOL    HW214505   3.467   0.374   2.665
 4536SOL     OW14506   4.284   1.678   4.498
 4536SOL    HW114507   4.361   1.641   4.551
 4536SOL    HW214508   4.259   1.614   4.426
 4537SOL     OW14509   3.978   3.586   0.546
 4537SOL    HW114510   3.912   3.519   0.512
 4537SOL    HW214511   3.968   3.672   0.495
 4538SOL     OW14512   1.883   0.593   2.926
 4538SOL    HW114513   1.956   0.542   2.880
 4538SOL    HW214514   1.842   0.657   2.861
 4539SOL     OW14515   3.292   5.879   4.990
 4539SOL    HW114516   3.250   5.950   4.933
 4539SOL    HW214517   3.263   5.789   4.958
 4540SOL     OW14518   2.286   2.212   6.482
 4540SOL    HW114519   2.225   2.134   6.469
 4540SOL    HW214520   2.248   2.292   6.438
 4541SOL     OW14521   6.147   1.770   6.632
 4541SOL    HW114522   6.095   1.852   6.658
 4541SOL    HW214523   6.243   1.781   6.659
 4542SOL     OW14524   0.227   1.829   1.500
 4542SOL    HW114525   0.293   1.903   1.516
 4542SOL    HW214526   0.135   1.862   1.519
 4543SOL     OW14527   4.438   2.421   1.173
 4543SOL    HW114528   4.440   2.464   1.263
 4543SOL    HW214529   4.358   2.362   1.167
 4544SOL     OW14530   3.755   5.811   6.720
 4544SOL    HW114531   3.696   5.786   6.643
 4544SOL    HW214532   3.759   5.911   6.728
 4545SOL     OW14533   5.523   3.027   3.933
 4545SOL    HW114534   5.540   3.077   3.848
 4545SOL    HW214535   5.559   2.934   3.925
 4546SOL     OW14536   1.789   0.990   4.377
 4546SOL    HW114537   1.836   0.925   4.316
 4546SOL    HW214538   1.816   0.971   4.471
 4547SOL     OW14539   6.197   2.095   1.002
 4547SOL    HW114540   6.292   2.123   1.010
 4547SOL    HW214541   6.141   2.172   0.973
 4548SOL     OW14542   1.381   3.253   4.134
 4548SOL    HW114543   1.362   3.179   4.198
 4548SOL    HW214544   1.303   3.265   4.073
 4549SOL     OW14545   6.127   4.168   2.166
 4549SOL    HW114546   6.192   4.241   2.188
 4549SOL    HW214547   6.038   4.209   2.142
 4550SOL     OW14548   1.164   5.622   3.171
 4550SOL    HW114549   1.162   5.533   3.218
 4550SOL    HW214550   1.190   5.608   3.076
 4551SOL     OW14551   0.273   3.673   4.630
 4551SOL    HW114552   0.311   3.766   4.625
 4551SOL    HW214553   0.175   3.677   4.614
 4552SOL     OW14554   6.417   2.258   1.138
 4552SOL    HW114555   6.492   2.304   1.185
 4552SOL    HW214556   6.330   2.286   1.179
 4553SOL     OW14557   4.204   4.051   6.646
 4553SOL    HW114558   4.108   4.076   6.658
 4553SOL    HW214559   4.234   4.076   6.554
 4554SOL     OW14560   6.507   6.829   1.456
 4554SOL    HW114561   6.517   6.849   1.553
 4554SOL    HW214562   6.422   6.778   1.441
 4555SOL     OW14563   2.238   1.863   4.825
 4555SOL    HW114564   2.171   1.914   4.879
 4555SOL    HW214565   2.288   1.926   4.766
 4556SOL     OW14566   5.355   3.016   4.260
 4556SOL    HW114567   5.338   3.044   4.165
 4556SOL    HW214568   5.269   3.018   4.311
 4557SOL     OW14569   4.757   5.657   5.322
 4557SOL    HW114570   4.780   5.577   5.268
 4557SOL    HW214571   4.829   5.726   5.312
 4558SOL     OW14572   7.009   4.465   4.987
 4558SOL    HW114573   6.919   4.495   5.018
 4558SOL    HW214574   0.056   4.520   5.031
 4559SOL     OW14575   0.562   3.711   1.957
 4559SOL    HW114576   0.566   3.625   1.906
 4559SOL    HW214577   0.466   3.733   1.978
 4560SOL     OW14578   5.219   4.403   1.570
 4560SOL    HW114579   5.244   4.341   1.644
 4560SOL    HW214580   5.267   4.375   1.486
 4561SOL     OW14581   2.772   1.858   2.829
 4561SOL    HW114582   2.780   1.763   2.858
 4561SOL    HW214583   2.823   1.872   2.744
 4562SOL     OW14584   2.383   6.594   6.019
 4562SOL    HW114585   2.307   6.531   6.006
 4562SOL    HW214586   2.375   6.638   6.109
 4563SOL     OW14587   0.575   2.630   1.060
 4563SOL    HW114588   0.584   2.729   1.067
 4563SOL    HW214589   0.488   2.601   1.100
 4564SOL     OW14590   6.999   5.894   2.076
 4564SOL    HW114591   6.997   5.965   2.147
 4564SOL    HW214592   6.935   5.918   2.003
 4565SOL     OW14593   0.778   0.391   4.638
 4565SOL    HW114594   0.733   0.394   4.548
 4565SOL    HW214595   0.785   0.483   4.675
 4566SOL     OW14596   6.917   2.706   0.185
 4566SOL    HW114597   7.001   2.759   0.168
 4566SOL    HW214598   6.874   2.683   0.098
 4567SOL     OW14599   6.658   1.364   5.843
 4567SOL    HW114600   6.678   1.324   5.933
 4567SOL    HW214601   6.741   1.362   5.787
 4568SOL     OW14602   1.897   3.078   5.914
 4568SOL    HW114603   1.947   3.139   5.853
 4568SOL    HW214604   1.889   3.121   6.004
 4569SOL     OW14605   1.732   1.279   3.143
 4569SOL    HW114606   1.820   1.242   3.115
 4569SOL    HW214607   1.747   1.359   3.202
 4570SOL     OW14608   0.078   6.918   2.514
 4570SOL    HW114609   0.058   6.940   2.418
 4570SOL    HW214610   0.003   6.865   2.552
 4571SOL     OW14611   4.737   3.862   6.536
 4571SOL    HW114612   4.820   3.806   6.531
 4571SOL    HW214613   4.667   3.823   6.477
 4572SOL     OW14614   2.055   0.510   6.728
 4572SOL    HW114615   2.029   0.579   6.660
 4572SOL    HW214616   2.108   0.554   6.801
 4573SOL     OW14617   6.199   0.575   0.069
 4573SOL    HW114618   6.285   0.627   0.068
 4573SOL    HW214619   6.124   0.636   0.097
 4574SOL     OW14620   5.676   4.127   0.278
 4574SOL    HW114621   5.731   4.196   0.325
 4574SOL    HW214622   5.593   4.170   0.241
 4575SOL     OW14623   5.541   1.005   5.806
 4575SOL    HW114624   5.488   0.939   5.859
 4575SOL    HW214625   5.527   1.097   5.843
 4576SOL     OW14626   3.311   6.085   5.693
 4576SOL    HW114627   3.295   6.034   5.609
 4576SOL    HW214628   3.233   6.145   5.710
 4577SOL     OW14629   0.669   2.333   4.341
 4577SOL    HW114630   0.681   2.315   4.244
 4577SOL    HW214631   0.730   2.275   4.394
 4578SOL     OW14632   0.866   2.662   5.333
 4578SOL    HW114633   0.963   2.661   5.309
 4578SOL    HW214634   0.814   2.614   5.263
 4579SOL     OW14635   3.773   0.606   3.490
 4579SOL    HW114636   3.787   0.558   3.576
 4579SOL    HW214637   3.814   0.554   3.415
 4580SOL     OW14638   5.499   4.456   1.071
 4580SOL    HW114639   5.563   4.443   0.994
 4580SOL    HW214640   5.447   4.372   1.085
 4581SOL     OW14641   2.253   5.918   2.097
 4581SOL    HW114642   2.350   5.926   2.120
 4581SOL    HW214643   2.201   5.895   2.179
 4582SOL     OW14644   4.188   0.952   4.820
 4582SOL    HW114645   4.182   0.879   4.751
 4582SOL    HW214646   4.108   1.011   4.813
 4583SOL     OW14647   2.570   2.004   6.800
 4583SOL    HW114648   2.649   1.967   6.752
 4583SOL    HW214649   2.566   1.965   6.892
 4584SOL     OW14650   0.583   4.865   5.735
 4584SOL    HW114651   0.553   4.919   5.813
 4584SOL    HW214652   0.511   4.801   5.709
 4585SOL     OW14653   2.077   5.480   3.338
 4585SOL    HW114654   2.148   5.537   3.299
 4585SOL    HW214655   2.119   5.408   3.394
 4586SOL     OW14656   3.798   4.394   1.127
 4586SOL    HW114657   3.797   4.482   1.174
 4586SOL    HW214658   3.706   4.354   1.130
 4587SOL     OW14659   3.257   4.057   3.685
 4587SOL    HW114660   3.327   4.092   3.748
 4587SOL    HW214661   3.176   4.031   3.738
 4588SOL     OW14662   2.339   3.523   5.315
 4588SOL    HW114663   2.410   3.580   5.272
 4588SOL    HW214664   2.383   3.444   5.359
 4589SOL     OW14665   6.432   0.754   2.072
 4589SOL    HW114666   6.517   0.777   2.025
 4589SOL    HW214667   6.415   0.656   2.063
 4590SOL     OW14668   4.664   4.963   1.368
 4590SOL    HW114669   4.661   4.888   1.303
 4590SOL    HW214670   4.751   4.963   1.417
 4591SOL     OW14671   1.543   0.583   4.783
 4591SOL    HW114672   1.627   0.591   4.837
 4591SOL    HW214673   1.477   0.651   4.813
 4592SOL     OW14674   2.532   1.402   3.429
 4592SOL    HW114675   2.525   1.423   3.527
 4592SOL    HW214676   2.544   1.303   3.417
 4593SOL     OW14677   5.353   5.688   2.269
 4593SOL    HW114678   5.274   5.750   2.269
 4593SOL    HW214679   5.362   5.646   2.179
 4594SOL     OW14680   2.444   1.134   3.113
 4594SOL    HW114681   2.369   1.194   3.083
 4594SOL    HW214682   2.513   1.189   3.160
 4595SOL     OW14683   4.607   3.048   5.280
 4595SOL    HW114684   4.655   2.970   5.319
 4595SOL    HW214685   4.614   3.044   5.180
 4596SOL     OW14686   6.604   0.505   2.315
 4596SOL    HW114687   6.529   0.571   2.319
 4596SOL    HW214688   6.615   0.461   2.404
 4597SOL     OW14689   4.323   5.148   0.000
 4597SOL    HW114690   4.288   5.170   0.092
 4597SOL    HW214691   4.247   5.141   6.960
 4598SOL     OW14692   1.681   5.938   0.667
 4598SOL    HW114693   1.674   6.016   0.729
 4598SOL    HW214694   1.593   5.891   0.662
 4599SOL     OW14695   1.773   4.942   0.113
 4599SOL    HW114696   1.868   4.922   0.087
 4599SOL    HW214697   1.731   5.001   0.044
 4600SOL     OW14698   0.869   5.596   5.533
 4600SOL    HW114699   0.943   5.562   5.476
 4600SOL    HW214700   0.892   5.686   5.569
 4601SOL     OW14701   2.019   1.220   5.048
 4601SOL    HW114702   1.999   1.180   5.138
 4601SOL    HW214703   2.016   1.320   5.055
 4602SOL     OW14704   3.368   6.421   0.497
 4602SOL    HW114705   3.435   6.464   0.437
 4602SOL    HW214706   3.360   6.473   0.582
 4603SOL     OW14707   3.776   6.752   1.353
 4603SOL    HW114708   3.776   6.747   1.253
 4603SOL    HW214709   3.767   6.660   1.391
 4604SOL     OW14710   4.102   6.942   6.872
 4604SOL    HW114711   4.200   6.919   6.869
 4604SOL    HW214712   4.078   6.971   6.964
 4605SOL     OW14713   1.719   6.424   2.565
 4605SOL    HW114714   1.766   6.365   2.631
 4605SOL    HW214715   1.637   6.463   2.608
 4606SOL     OW14716   0.608   6.602   1.864
 4606SOL    HW114717   0.685   6.539   1.849
 4606SOL    HW214718   0.563   6.579   1.951
 4607SOL     OW14719   2.241   3.004   2.525
 4607SOL    HW114720   2.256   2.970   2.618
 4607SOL    HW214721   2.208   3.098   2.530
 4608SOL     OW14722   0.480   5.981   3.580
 4608SOL    HW114723   0.415   5.910   3.555
 4608SOL    HW214724   0.499   5.976   3.678
 4609SOL     OW14725   4.742   4.800   6.823
 4609SOL    HW114726   4.689   4.782   6.741
 4609SOL    HW214727   4.684   4.789   6.904
 4610SOL     OW14728   4.742   1.787   0.381
 4610SOL    HW114729   4.656   1.744   0.353
 4610SOL    HW214730   4.773   1.745   0.467
 4611SOL     OW14731   1.307   6.571   6.084
 4611SOL    HW114732   1.261   6.658   6.063
 4611SOL    HW214733   1.334   6.571   6.180
 4612SOL     OW14734   1.727   6.479   0.841
 4612SOL    HW114735   1.637   6.470   0.883
 4612SOL    HW214736   1.721   6.456   0.744
 4613SOL     OW14737   1.624   5.267   1.871
 4613SOL    HW114738   1.603   5.218   1.955
 4613SOL    HW214739   1.544   5.265   1.811
 4614SOL     OW14740   6.084   3.635   2.754
 4614SOL    HW114741   6.022   3.664   2.827
 4614SOL    HW214742   6.150   3.709   2.737
 4615SOL     OW14743   1.695   1.021   0.191
 4615SOL    HW114744   1.755   1.071   0.253
 4615SOL    HW214745   1.707   0.923   0.206
 4616SOL     OW14746   6.476   1.414   4.531
 4616SOL    HW114747   6.433   1.364   4.457
 4616SOL    HW214748   6.538   1.483   4.494
 4617SOL     OW14749   1.001   2.562   2.045
 4617SOL    HW114750   1.061   2.502   2.098
 4617SOL    HW214751   0.908   2.560   2.082
 4618SOL     OW14752   2.300   3.071   5.373
 4618SOL    HW114753   2.317   3.020   5.457
 4618SOL    HW214754   2.364   3.041   5.302
 4619SOL     OW14755   3.315   6.324   3.295
 4619SOL    HW114756   3.310   6.401   3.359
 4619SOL    HW214757   3.227   6.277   3.294
 4620SOL     OW14758   2.225   4.891   0.903
 4620SOL    HW114759   2.302   4.827   0.908
 4620SOL    HW214760   2.184   4.902   0.994
 4621SOL     OW14761   4.858   0.702   2.749
 4621SOL    HW114762   4.772   0.673   2.708
 4621SOL    HW214763   4.927   0.712   2.678
 4622SOL     OW14764   3.270   4.406   0.556
 4622SOL    HW114765   3.352   4.356   0.584
 4622SOL    HW214766   3.275   4.500   0.590
 4623SOL     OW14767   5.371   5.965   1.650
 4623SOL    HW114768   5.340   6.009   1.734
 4623SOL    HW214769   5.319   5.881   1.635
 4624SOL     OW14770   3.531   0.010   2.901
 4624SOL    HW114771   3.513   6.983   2.985
 4624SOL    HW214772   3.585   0.091   2.922
 4625SOL     OW14773   1.873   4.739   1.339
 4625SOL    HW114774   1.794   4.685   1.370
 4625SOL    HW214775   1.955   4.706   1.385
 4626SOL     OW14776   5.138   4.348   2.262
 4626SOL    HW114777   5.236   4.368   2.259
 4626SOL    HW214778   5.086   4.428   2.233
 4627SOL     OW14779   1.827   4.621   5.130
 4627SOL    HW114780   1.829   4.526   5.163
 4627SOL    HW214781   1.740   4.663   5.157
 4628SOL     OW14782   4.616   4.322   4.382
 4628SOL    HW114783   4.534   4.361   4.424
 4628SOL    HW214784   4.697   4.373   4.411
 4629SOL     OW14785   2.941   5.206   5.291
 4629SOL    HW114786   2.870   5.205   5.220
 4629SOL    HW214787   2.995   5.122   5.287
 4630SOL     OW14788   2.654   6.161   2.049
 4630SOL    HW114789   2.701   6.092   2.104
 4630SOL    HW214790   2.586   6.117   1.990
 4631SOL     OW14791   1.060   5.910   3.196
 4631SOL    HW114792   1.071   5.970   3.275
 4631SOL    HW214793   1.099   5.820   3.217
 4632SOL     OW14794   2.563   4.658   3.001
 4632SOL    HW114795   2.651   4.666   3.049
 4632SOL    HW214796   2.520   4.748   2.995
 4633SOL     OW14797   5.921   0.841   4.805
 4633SOL    HW114798   5.932   0.847   4.904
 4633SOL    HW214799   5.938   0.931   4.765
 4634SOL     OW14800   2.538   3.732   5.374
 4634SOL    HW114801   2.498   3.801   5.313
 4634SOL    HW214802   2.549   3.770   5.466
 4635SOL     OW14803   4.893   3.735   1.907
 4635SOL    HW114804   4.864   3.639   1.905
 4635SOL    HW214805   4.827   3.790   1.855
 4636SOL     OW14806   2.255   4.309   0.101
 4636SOL    HW114807   2.344   4.353   0.111
 4636SOL    HW214808   2.237   4.252   0.182
 4637SOL     OW14809   0.978   6.683   0.889
 4637SOL    HW114810   0.926   6.699   0.805
 4637SOL    HW214811   1.016   6.770   0.921
 4638SOL     OW14812   4.370   4.125   0.102
 4638SOL    HW114813   4.349   4.182   0.182
 4638SOL    HW214814   4.324   4.037   0.112
 4639SOL     OW14815   3.512   3.340   6.041
 4639SOL    HW114816   3.466   3.421   6.075
 4639SOL    HW214817   3.447   3.282   5.991
 4640SOL     OW14818   4.821   3.945   4.012
 4640SOL    HW114819   4.831   3.846   4.017
 4640SOL    HW214820   4.828   3.984   4.104
 4641SOL     OW14821   2.449   0.372   4.964
 4641SOL    HW114822   2.388   0.404   4.891
 4641SOL    HW214823   2.395   0.326   5.034
 4642SOL     OW14824   0.974   6.668   3.627
 4642SOL    HW114825   1.009   6.728   3.554
 4642SOL    HW214826   0.904   6.717   3.679
 4643SOL     OW14827   6.823   2.167   0.688
 4643SOL    HW114828   6.822   2.263   0.719
 4643SOL    HW214829   6.746   2.152   0.626
 4644SOL     OW14830   0.472   5.854   5.196
 4644SOL    HW114831   0.524   5.939   5.183
 4644SOL    HW214832   0.510   5.783   5.136
 4645SOL     OW14833   0.616   0.216   4.036
 4645SOL    HW114834   0.536   0.275   4.037
 4645SOL    HW214835   0.626   0.175   3.945
 4646SOL     OW14836   2.270   5.272   3.404
 4646SOL    HW114837   2.280   5.239   3.310
 4646SOL    HW214838   2.358   5.268   3.450
 4647SOL     OW14839   1.828   0.330   3.099
 4647SOL    HW114840   1.797   0.416   3.059
 4647SOL    HW214841   1.921   0.310   3.069
 4648SOL     OW14842   3.400   0.282   3.109
 4648SOL    HW114843   3.466   0.299   3.036
 4648SOL    HW214844   3.380   0.368   3.156
 4649SOL     OW14845   5.273   1.105   6.709
 4649SOL    HW114846   5.186   1.059   6.695
 4649SOL    HW214847   5.274   1.149   6.799
 4650SOL     OW14848   4.844   5.577   2.637
 4650SOL    HW114849   4.911   5.512   2.602
 4650SOL    HW214850   4.753   5.537   2.632
 4651SOL     OW14851   6.179   3.670   7.002
 4651SOL    HW114852   6.136   3.661   0.068
 4651SOL    HW214853   6.274   3.637   7.007
 4652SOL     OW14854   5.565   6.752   4.374
 4652SOL    HW114855   5.534   6.847   4.364
 4652SOL    HW214856   5.650   6.751   4.427
 4653SOL     OW14857   5.087   5.480   0.950
 4653SOL    HW114858   5.147   5.533   1.010
 4653SOL    HW214859   5.066   5.392   0.993
 4654SOL     OW14860   0.756   6.205   6.658
 4654SOL    HW114861   0.741   6.299   6.628
 4654SOL    HW214862   0.810   6.204   6.742
 4655SOL     OW14863   5.986   3.599   0.856
 4655SOL    HW114864   6.003   3.691   0.820
 4655SOL    HW214865   6.062   3.572   0.914
 4656SOL     OW14866   1.141   0.686   2.077
 4656SOL    HW114867   1.107   0.772   2.038
 4656SOL    HW214868   1.109   0.609   2.023
 4657SOL     OW14869   4.469   5.636   1.417
 4657SOL    HW114870   4.482   5.602   1.509
 4657SOL    HW214871   4.447   5.734   1.420
 4658SOL     OW14872   3.302   0.219   3.807
 4658SOL    HW114873   3.317   0.188   3.901
 4658SOL    HW214874   3.293   0.140   3.746
 4659SOL     OW14875   3.226   3.953   5.388
 4659SOL    HW114876   3.252   3.890   5.315
 4659SOL    HW214877   3.178   4.031   5.349
 4660SOL     OW14878   0.721   5.405   5.193
 4660SOL    HW114879   0.705   5.463   5.274
 4660SOL    HW214880   0.736   5.311   5.222
 4661SOL     OW14881   3.274   4.229   6.034
 4661SOL    HW114882   3.243   4.217   6.128
 4661SOL    HW214883   3.199   4.209   5.971
 4662SOL     OW14884   3.279   0.035   5.300
 4662SOL    HW114885   3.331   6.974   5.313
 4662SOL    HW214886   3.257   0.048   5.204
 4663SOL     OW14887   0.147   1.501   1.148
 4663SOL    HW114888   0.222   1.436   1.156
 4663SOL    HW214889   0.140   1.553   1.233
 4664SOL     OW14890   1.580   1.295   0.967
 4664SOL    HW114891   1.556   1.372   0.908
 4664SOL    HW214892   1.627   1.225   0.913
 4665SOL     OW14893   4.078   6.308   6.223
 4665SOL    HW114894   4.007   6.284   6.158
 4665SOL    HW214895   4.035   6.344   6.307
 4666SOL     OW14896   2.412   2.501   6.774
 4666SOL    HW114897   2.399   2.474   6.869
 4666SOL    HW214898   2.327   2.488   6.723
 4667SOL     OW14899   6.709   4.013   2.065
 4667SOL    HW114900   6.697   4.031   1.968
 4667SOL    HW214901   6.688   3.917   2.084
 4668SOL     OW14902   4.881   2.100   3.253
 4668SOL    HW114903   4.922   2.134   3.338
 4668SOL    HW214904   4.790   2.138   3.242
 4669SOL     OW14905   5.380   6.250   0.730
 4669SOL    HW114906   5.313   6.178   0.712
 4669SOL    HW214907   5.427   6.231   0.816
 4670SOL     OW14908   1.797   2.653   5.849
 4670SOL    HW114909   1.745   2.568   5.853
 4670SOL    HW214910   1.757   2.720   5.912
 4671SOL     OW14911   0.311   3.343   6.784
 4671SOL    HW114912   0.312   3.326   6.686
 4671SOL    HW214913   0.223   3.383   6.810
 4672SOL     OW14914   2.748   5.199   5.502
 4672SOL    HW114915   2.694   5.127   5.458
 4672SOL    HW214916   2.829   5.217   5.447
 4673SOL     OW14917   4.794   0.245   1.995
 4673SOL    HW114918   4.754   0.298   2.070
 4673SOL    HW214919   4.837   0.162   2.032
 4674SOL     OW14920   4.636   0.880   6.318
 4674SOL    HW114921   4.647   0.929   6.231
 4674SOL    HW214922   4.696   0.922   6.386
 4675SOL     OW14923   1.884   1.309   6.626
 4675SOL    HW114924   1.924   1.344   6.710
 4675SOL    HW214925   1.869   1.210   6.635
 4676SOL     OW14926   6.120   6.471   4.050
 4676SOL    HW114927   6.138   6.456   3.953
 4676SOL    HW214928   6.026   6.500   4.063
 4677SOL     OW14929   2.326   1.417   6.451
 4677SOL    HW114930   2.405   1.356   6.457
 4677SOL    HW214931   2.343   1.498   6.508
 4678SOL     OW14932   2.247   4.489   2.881
 4678SOL    HW114933   2.154   4.504   2.916
 4678SOL    HW214934   2.309   4.471   2.957
 4679SOL     OW14935   3.250   1.226   6.925
 4679SOL    HW114936   3.246   1.284   6.843
 4679SOL    HW214937   3.281   1.281   7.002
 4680SOL     OW14938   2.579   1.663   0.715
 4680SOL    HW114939   2.640   1.689   0.789
 4680SOL    HW214940   2.538   1.745   0.675
 4681SOL     OW14941   5.548   6.186   6.221
 4681SOL    HW114942   5.514   6.152   6.309
 4681SOL    HW214943   5.647   6.174   6.216
 4682SOL     OW14944   4.095   4.843   5.899
 4682SOL    HW114945   4.180   4.805   5.936
 4682SOL    HW214946   4.113   4.932   5.858
 4683SOL     OW14947   4.507   4.605   2.996
 4683SOL    HW114948   4.554   4.667   3.059
 4683SOL    HW214949   4.572   4.541   2.957
 4684SOL     OW14950   6.827   2.010   5.567
 4684SOL    HW114951   6.749   2.001   5.629
 4684SOL    HW214952   6.869   1.921   5.553
 4685SOL     OW14953   0.577   6.107   5.106
 4685SOL    HW114954   0.669   6.089   5.071
 4685SOL    HW214955   0.575   6.198   5.148
 4686SOL     OW14956   4.968   5.302   0.452
 4686SOL    HW114957   4.954   5.334   0.359
 4686SOL    HW214958   5.023   5.368   0.502
 4687SOL     OW14959   6.621   4.189   5.362
 4687SOL    HW114960   6.594   4.190   5.265
 4687SOL    HW214961   6.590   4.273   5.406
 4688SOL     OW14962   6.163   3.928   5.705
 4688SOL    HW114963   6.212   3.870   5.640
 4688SOL    HW214964   6.166   3.886   5.796
 4689SOL     OW14965   5.773   0.458   0.189
 4689SOL    HW114966   5.727   0.412   0.264
 4689SOL    HW214967   5.792   0.553   0.214
 4690SOL     OW14968   1.389   0.488   0.052
 4690SOL    HW114969   1.398   0.414   7.008
 4690SOL    HW214970   1.350   0.569   0.008
 4691SOL     OW14971   2.849   4.772   2.183
 4691SOL    HW114972   2.818   4.713   2.108
 4691SOL    HW214973   2.823   4.732   2.270
 4692SOL     OW14974   6.022   5.637   2.258
 4692SOL    HW114975   6.016   5.537   2.262
 4692SOL    HW214976   6.104   5.668   2.305
 4693SOL     OW14977   0.961   0.900   3.201
 4693SOL    HW114978   1.050   0.918   3.159
 4693SOL    HW214979   0.974   0.845   3.283
 4694SOL     OW14980   2.615   0.103   0.190
 4694SOL    HW114981   2.583   0.008   0.188
 4694SOL    HW214982   2.709   0.107   0.156
 4695SOL     OW14983   2.311   3.406   1.610
 4695SOL    HW114984   2.323   3.449   1.700
 4695SOL    HW214985   2.216   3.377   1.599
 4696SOL     OW14986   0.068   3.904   6.309
 4696SOL    HW114987   0.164   3.878   6.325
 4696SOL    HW214988   0.066   3.982   6.247
 4697SOL     OW14989   2.422   3.391   0.766
 4697SOL    HW114990   2.447   3.471   0.821
 4697SOL    HW214991   2.455   3.308   0.812
 4698SOL     OW14992   4.552   5.893   2.835
 4698SOL    HW114993   4.474   5.913   2.775
 4698SOL    HW214994   4.518   5.866   2.925
 4699SOL     OW14995   1.853   6.718   1.586
 4699SOL    HW114996   1.762   6.737   1.550
 4699SOL    HW214997   1.879   6.624   1.563
 4700SOL     OW14998   6.532   1.394   2.293
 4700SOL    HW114999   6.589   1.453   2.350
 4700SOL    HW215000   6.479   1.332   2.352
 4701SOL     OW15001   2.343   2.218   0.535
 4701SOL    HW115002   2.364   2.175   0.447
 4701SOL    HW215003   2.260   2.177   0.572
 4702SOL     OW15004   5.929   4.861   6.920
 4702SOL    HW115005   5.955   4.765   6.926
 4702SOL    HW215006   5.852   4.871   6.857
 4703SOL     OW15007   1.117   2.311   1.505
 4703SOL    HW115008   1.020   2.309   1.483
 4703SOL    HW215009   1.133   2.376   1.580
 4704SOL     OW15010   1.068   6.866   6.715
 4704SOL    HW115011   1.048   6.848   6.619
 4704SOL    HW215012   1.072   6.780   6.765
 4705SOL     OW15013   3.301   3.564   2.700
 4705SOL    HW115014   3.362   3.642   2.711
 4705SOL    HW215015   3.339   3.500   2.633
 4706SOL     OW15016   3.979   6.352   6.519
 4706SOL    HW115017   4.032   6.388   6.596
 4706SOL    HW215018   3.882   6.353   6.542
 4707SOL     OW15019   2.733   5.713   0.966
 4707SOL    HW115020   2.673   5.645   1.009
 4707SOL    HW215021   2.704   5.728   0.872
 4708SOL     OW15022   1.332   2.222   6.650
 4708SOL    HW115023   1.295   2.310   6.680
 4708SOL    HW215024   1.401   2.237   6.579
 4709SOL     OW15025   4.596   6.133   6.120
 4709SOL    HW115026   4.577   6.035   6.122
 4709SOL    HW215027   4.544   6.178   6.193
 4710SOL     OW15028   3.777   1.231   5.384
 4710SOL    HW115029   3.875   1.230   5.368
 4710SOL    HW215030   3.733   1.290   5.317
 4711SOL     OW15031   6.117   1.061   2.196
 4711SOL    HW115032   6.031   1.102   2.168
 4711SOL    HW215033   6.183   1.066   2.121
 4712SOL     OW15034   3.131   4.496   0.146
 4712SOL    HW115035   3.229   4.505   0.127
 4712SOL    HW215036   3.118   4.433   0.223
 4713SOL     OW15037   3.661   3.342   1.188
 4713SOL    HW115038   3.689   3.260   1.138
 4713SOL    HW215039   3.561   3.346   1.191
 4714SOL     OW15040   1.428   2.477   6.995
 4714SOL    HW115041   1.351   2.531   6.962
 4714SOL    HW215042   1.504   2.483   6.929
 4715SOL     OW15043   6.857   3.023   1.826
 4715SOL    HW115044   6.777   3.014   1.766
 4715SOL    HW215045   6.836   2.981   1.915
 4716SOL     OW15046   4.591   5.963   6.422
 4716SOL    HW115047   4.687   5.940   6.434
 4716SOL    HW215048   4.578   6.062   6.429
 4717SOL     OW15049   0.703   6.502   3.414
 4717SOL    HW115050   0.731   6.591   3.449
 4717SOL    HW215051   0.606   6.505   3.388
 4718SOL     OW15052   5.661   2.738   0.607
 4718SOL    HW115053   5.634   2.713   0.700
 4718SOL    HW215054   5.595   2.700   0.542
 4719SOL     OW15055   5.684   3.189   2.315
 4719SOL    HW115056   5.667   3.162   2.220
 4719SOL    HW215057   5.597   3.202   2.363
 4720SOL     OW15058   1.884   5.747   5.740
 4720SOL    HW115059   1.951   5.704   5.800
 4720SOL    HW215060   1.883   5.700   5.652
 4721SOL     OW15061   6.348   2.616   1.713
 4721SOL    HW115062   6.267   2.560   1.731
 4721SOL    HW215063   6.420   2.594   1.778
 4722SOL     OW15064   0.788   5.926   6.437
 4722SOL    HW115065   0.885   5.946   6.423
 4722SOL    HW215066   0.748   5.891   6.352
 4723SOL     OW15067   2.160   4.223   6.205
 4723SOL    HW115068   2.142   4.303   6.262
 4723SOL    HW215069   2.176   4.143   6.262
 4724SOL     OW15070   4.975   5.925   2.852
 4724SOL    HW115071   4.910   5.966   2.789
 4724SOL    HW215072   4.926   5.888   2.931
 4725SOL     OW15073   6.146   6.339   2.644
 4725SOL    HW115074   6.236   6.296   2.633
 4725SOL    HW215075   6.085   6.277   2.694
 4726SOL     OW15076   1.475   2.800   6.551
 4726SOL    HW115077   1.516   2.760   6.469
 4726SOL    HW215078   1.459   2.728   6.619
 4727SOL     OW15079   1.254   6.320   0.505
 4727SOL    HW115080   1.165   6.328   0.550
 4727SOL    HW215081   1.291   6.228   0.520
 4728SOL     OW15082   5.079   0.589   1.300
 4728SOL    HW115083   4.997   0.555   1.254
 4728SOL    HW215084   5.153   0.522   1.289
 4729SOL     OW15085   2.472   1.390   1.670
 4729SOL    HW115086   2.505   1.480   1.700
 4729SOL    HW215087   2.382   1.373   1.710
 4730SOL     OW15088   3.646   5.830   4.579
 4730SOL    HW115089   3.736   5.866   4.555
 4730SOL    HW215090   3.609   5.779   4.502
 4731SOL     OW15091   4.495   7.008   6.328
 4731SOL    HW115092   4.506   0.045   6.407
 4731SOL    HW215093   4.397   6.990   6.313
 4732SOL     OW15094   0.638   3.750   5.475
 4732SOL    HW115095   0.714   3.801   5.516
 4732SOL    HW215096   0.593   3.697   5.546
 4733SOL     OW15097   1.738   4.423   3.749
 4733SOL    HW115098   1.662   4.382   3.801
 4733SOL    HW215099   1.824   4.405   3.797
 4734SOL     OW15100   4.927   2.457   6.999
 4734SOL    HW115101   4.892   2.550   7.002
 4734SOL    HW215102   5.024   2.457   7.024
 4735SOL     OW15103   0.198   5.731   4.514
 4735SOL    HW115104   0.143   5.658   4.554
 4735SOL    HW215105   0.174   5.742   4.418
 4736SOL     OW15106   6.957   2.175   6.552
 4736SOL    HW115107   0.004   2.106   6.560
 4736SOL    HW215108   6.895   2.167   6.630
 4737SOL     OW15109   2.007   4.582   1.927
 4737SOL    HW115110   1.914   4.576   1.962
 4737SOL    HW215111   2.061   4.642   1.986
 4738SOL     OW15112   6.911   6.599   3.160
 4738SOL    HW115113   6.973   6.619   3.235
 4738SOL    HW215114   6.819   6.633   3.183
 4739SOL     OW15115   4.337   6.688   3.198
 4739SOL    HW115116   4.240   6.712   3.194
 4739SOL    HW215117   4.388   6.743   3.132
 4740SOL     OW15118   0.972   1.731   0.844
 4740SOL    HW115119   0.937   1.763   0.756
 4740SOL    HW215120   0.972   1.807   0.909
 4741SOL     OW15121   3.660   2.842   1.491
 4741SOL    HW115122   3.649   2.936   1.524
 4741SOL    HW215123   3.625   2.835   1.398
 4742SOL     OW15124   3.090   6.120   5.860
 4742SOL    HW115125   3.065   6.189   5.927
 4742SOL    HW215126   3.137   6.044   5.906
 4743SOL     OW15127   1.653   3.948   3.065
 4743SOL    HW115128   1.736   4.003   3.061
 4743SOL    HW215129   1.576   4.005   3.094
 4744SOL     OW15130   2.156   4.524   0.819
 4744SOL    HW115131   2.232   4.460   0.803
 4744SOL    HW215132   2.150   4.588   0.742
 4745SOL     OW15133   3.128   3.424   5.836
 4745SOL    HW115134   3.041   3.418   5.884
 4745SOL    HW215135   3.159   3.332   5.811
 4746SOL     OW15136   5.196   6.036   3.317
 4746SOL    HW115137   5.184   5.939   3.337
 4746SOL    HW215138   5.120   6.067   3.259
 4747SOL     OW15139   1.868   4.312   6.833
 4747SOL    HW115140   1.814   4.381   6.882
 4747SOL    HW215141   1.848   4.221   6.870
 4748SOL     OW15142   2.534   5.450   1.440
 4748SOL    HW115143   2.531   5.461   1.540
 4748SOL    HW215144   2.580   5.530   1.400
 4749SOL     OW15145   2.370   6.216   6.132
 4749SOL    HW115146   2.376   6.116   6.137
 4749SOL    HW215147   2.450   6.252   6.085
 4750SOL     OW15148   6.931   4.370   4.715
 4750SOL    HW115149   7.007   4.365   4.780
 4750SOL    HW215150   6.851   4.411   4.760
 4751SOL     OW15151   4.123   1.915   3.319
 4751SOL    HW115152   4.222   1.904   3.331
 4751SOL    HW215153   4.104   2.006   3.282
 4752SOL     OW15154   4.418   1.245   0.077
 4752SOL    HW115155   4.342   1.310   0.065
 4752SOL    HW215156   4.381   1.152   0.081
 4753SOL     OW15157   0.078   0.172   4.636
 4753SOL    HW115158   0.080   0.073   4.654
 4753SOL    HW215159   0.171   0.205   4.622
 4754SOL     OW15160   5.549   3.941   5.034
 4754SOL    HW115161   5.541   4.021   4.975
 4754SOL    HW215162   5.490   3.953   5.114
 4755SOL     OW15163   2.262   1.086   0.313
 4755SOL    HW115164   2.230   1.003   0.269
 4755SOL    HW215165   2.279   1.068   0.410
 4756SOL     OW15166   5.642   3.303   6.065
 4756SOL    HW115167   5.702   3.312   5.986
 4756SOL    HW215168   5.547   3.300   6.035
 4757SOL     OW15169   2.473   2.022   1.478
 4757SOL    HW115170   2.463   2.087   1.553
 4757SOL    HW215171   2.407   1.948   1.489
 4758SOL     OW15172   1.465   6.912   3.299
 4758SOL    HW115173   1.476   7.010   3.283
 4758SOL    HW215174   1.386   6.878   3.248
 4759SOL     OW15175   0.259   5.143   6.218
 4759SOL    HW115176   0.226   5.082   6.146
 4759SOL    HW215177   0.185   5.161   6.282
 4760SOL     OW15178   2.062   2.132   0.600
 4760SOL    HW115179   2.111   2.048   0.577
 4760SOL    HW215180   2.061   2.145   0.699
 4761SOL     OW15181   0.985   6.330   0.591
 4761SOL    HW115182   1.033   6.392   0.653
 4761SOL    HW215183   0.913   6.282   0.640
 4762SOL     OW15184   1.213   5.408   1.618
 4762SOL    HW115185   1.255   5.398   1.528
 4762SOL    HW215186   1.261   5.349   1.684
 4763SOL     OW15187   5.954   0.351   2.520
 4763SOL    HW115188   5.855   0.354   2.503
 4763SOL    HW215189   5.971   0.313   2.611
 4764SOL     OW15190   4.642   4.146   5.397
 4764SOL    HW115191   4.680   4.055   5.410
 4764SOL    HW215192   4.548   4.139   5.363
 4765SOL     OW15193   3.793   0.735   5.551
 4765SOL    HW115194   3.822   0.798   5.479
 4765SOL    HW215195   3.788   0.642   5.514
 4766SOL     OW15196   5.856   5.389   3.730
 4766SOL    HW115197   5.936   5.448   3.727
 4766SOL    HW215198   5.884   5.294   3.716
 4767SOL     OW15199   2.964   5.203   4.689
 4767SOL    HW115200   3.020   5.218   4.770
 4767SOL    HW215201   2.996   5.260   4.614
 4768SOL     OW15202   4.459   1.920   6.388
 4768SOL    HW115203   4.444   1.940   6.292
 4768SOL    HW215204   4.431   1.998   6.443
 4769SOL     OW15205   4.899   6.269   0.346
 4769SOL    HW115206   4.833   6.337   0.317
 4769SOL    HW215207   4.981   6.274   0.289
 4770SOL     OW15208   6.680   1.524   4.872
 4770SOL    HW115209   6.742   1.508   4.948
 4770SOL    HW215210   6.651   1.436   4.834
 4771SOL     OW15211   3.334   6.386   6.130
 4771SOL    HW115212   3.314   6.348   6.220
 4771SOL    HW215213   3.392   6.322   6.079
 4772SOL     OW15214   3.650   4.739   0.314
 4772SOL    HW115215   3.736   4.690   0.328
 4772SOL    HW215216   3.590   4.725   0.393
 4773SOL     OW15217   6.751   5.177   5.523
 4773SOL    HW115218   6.723   5.140   5.611
 4773SOL    HW215219   6.821   5.247   5.537
 4774SOL     OW15220   1.595   4.054   1.146
 4774SOL    HW115221   1.659   4.130   1.144
 4774SOL    HW215222   1.644   3.968   1.134
 4775SOL     OW15223   5.010   6.514   3.683
 4775SOL    HW115224   4.968   6.424   3.696
 4775SOL    HW215225   5.105   6.502   3.655
 4776SOL     OW15226   0.826   0.129   5.060
 4776SOL    HW115227   0.804   0.037   5.026
 4776SOL    HW215228   0.850   0.188   4.983
 4777SOL     OW15229   1.610   4.802   1.206
 4777SOL    HW115230   1.683   4.825   1.142
 4777SOL    HW215231   1.529   4.772   1.156
 4778SOL     OW15232   6.633   3.422   4.151
 4778SOL    HW115233   6.725   3.436   4.113
 4778SOL    HW215234   6.584   3.355   4.096
 4779SOL     OW15235   5.284   0.537   2.669
 4779SOL    HW115236   5.225   0.515   2.747
 4779SOL    HW215237   5.375   0.498   2.685
 4780SOL     OW15238   6.527   2.582   0.105
 4780SOL    HW115239   6.620   2.589   0.067
 4780SOL    HW215240   6.499   2.486   0.108
 4781SOL     OW15241   2.431   5.266   2.562
 4781SOL    HW115242   2.375   5.188   2.591
 4781SOL    HW215243   2.386   5.314   2.487
 4782SOL     OW15244   6.284   5.439   6.871
 4782SOL    HW115245   6.199   5.389   6.888
 4782SOL    HW215246   6.304   5.498   6.948
 4783SOL     OW15247   5.163   3.456   0.081
 4783SOL    HW115248   5.081   3.402   0.062
 4783SOL    HW215249   5.181   3.517   0.004
 4784SOL     OW15250   6.349   2.109   6.559
 4784SOL    HW115251   6.366   2.198   6.517
 4784SOL    HW215252   6.361   2.117   6.658
 4785SOL     OW15253   0.519   5.808   3.210
 4785SOL    HW115254   0.508   5.747   3.132
 4785SOL    HW215255   0.617   5.824   3.225
 4786SOL     OW15256   2.497   6.912   0.507
 4786SOL    HW115257   2.545   6.930   0.420
 4786SOL    HW215258   2.422   6.977   0.518
 4787SOL     OW15259   4.128   1.329   3.072
 4787SOL    HW115260   4.144   1.418   3.115
 4787SOL    HW215261   4.154   1.334   2.975
 4788SOL     OW15262   6.769   6.800   0.061
 4788SOL    HW115263   6.769   6.816   0.160
 4788SOL    HW215264   6.830   6.867   0.017
 4789SOL     OW15265   5.628   1.738   2.196
 4789SOL    HW115266   5.673   1.649   2.195
 4789SOL    HW215267   5.547   1.735   2.137
 4790SOL     OW15268   5.822   1.618   5.694
 4790SOL    HW115269   5.850   1.555   5.766
 4790SOL    HW215270   5.785   1.702   5.736
 4791SOL     OW15271   0.263   2.976   1.202
 4791SOL    HW115272   0.236   3.022   1.117
 4791SOL    HW215273   0.297   3.044   1.267
 4792SOL     OW15274   2.604   4.683   3.999
 4792SOL    HW115275   2.541   4.760   4.004
 4792SOL    HW215276   2.553   4.598   4.010
 4793SOL     OW15277   1.756   2.319   5.490
 4793SOL    HW115278   1.783   2.410   5.522
 4793SOL    HW215279   1.832   2.277   5.440
 4794SOL     OW15280   4.755   6.928   4.900
 4794SOL    HW115281   4.720   6.983   4.976
 4794SOL    HW215282   4.810   6.986   4.840
 4795SOL     OW15283   6.281   2.225   4.195
 4795SOL    HW115284   6.312   2.169   4.272
 4795SOL    HW215285   6.283   2.322   4.221
 4796SOL     OW15286   3.991   1.132   4.995
 4796SOL    HW115287   3.994   1.181   5.082
 4796SOL    HW215288   3.934   1.050   5.005
 4797SOL     OW15289   0.501   6.589   4.650
 4797SOL    HW115290   0.506   6.632   4.740
 4797SOL    HW215291   0.486   6.659   4.580
 4798SOL     OW15292   0.426   4.480   5.736
 4798SOL    HW115293   0.471   4.391   5.727
 4798SOL    HW215294   0.461   4.542   5.666
 4799SOL     OW15295   4.271   1.699   0.726
 4799SOL    HW115296   4.175   1.679   0.748
 4799SOL    HW215297   4.329   1.623   0.756
 4800SOL     OW15298   2.346   2.882   6.538
 4800SOL    HW115299   2.386   2.829   6.613
 4800SOL    HW215300   2.417   2.937   6.494
 4801SOL     OW15301   3.037   2.185   6.822
 4801SOL    HW115302   3.129   2.147   6.811
 4801SOL    HW215303   2.971   2.126   6.776
 4802SOL     OW15304   0.329   6.460   1.592
 4802SOL    HW115305   0.345   6.391   1.663
 4802SOL    HW215306   0.360   6.549   1.626
 4803SOL     OW15307   0.474   4.519   0.470
 4803SOL    HW115308   0.559   4.492   0.516
 4803SOL    HW215309   0.467   4.618   0.468
 4804SOL     OW15310   6.755   6.510   1.286
 4804SOL    HW115311   6.675   6.486   1.231
 4804SOL    HW215312   6.828   6.445   1.268
 4805SOL     OW15313   6.053   0.583   2.876
 4805SOL    HW115314   6.021   0.626   2.792
 4805SOL    HW215315   6.100   0.498   2.855
 4806SOL     OW15316   1.376   4.050   2.590
 4806SOL    HW115317   1.339   4.002   2.511
 4806SOL    HW215318   1.302   4.097   2.638
 4807SOL     OW15319   0.376   4.694   6.803
 4807SOL    HW115320   0.389   4.676   6.900
 4807SOL    HW215321   0.411   4.785   6.781
 4808SOL     OW15322   4.367   5.535   0.242
 4808SOL    HW115323   4.392   5.477   0.164
 4808SOL    HW215324   4.433   5.521   0.316
 4809SOL     OW15325   3.428   4.597   0.781
 4809SOL    HW115326   3.363   4.672   0.768
 4809SOL    HW215327   3.388   4.528   0.841
 4810SOL     OW15328   1.196   4.053   3.192
 4810SOL    HW115329   1.164   3.971   3.145
 4810SOL    HW215330   1.294   4.044   3.210
 4811SOL     OW15331   3.498   3.898   2.359
 4811SOL    HW115332   3.452   3.939   2.279
 4811SOL    HW215333   3.556   3.967   2.402
 4812SOL     OW15334   0.754   6.580   2.315
 4812SOL    HW115335   0.816   6.641   2.364
 4812SOL    HW215336   0.708   6.630   2.242
 4813SOL     OW15337   6.067   1.488   6.212
 4813SOL    HW115338   6.017   1.514   6.295
 4813SOL    HW215339   6.005   1.490   6.134
 4814SOL     OW15340   7.008   2.998   1.327
 4814SOL    HW115341   0.004   3.060   1.404
 4814SOL    HW215342   0.070   2.968   1.286
 4815SOL     OW15343   5.533   4.305   2.919
 4815SOL    HW115344   5.459   4.250   2.879
 4815SOL    HW215345   5.570   4.367   2.851
 4816SOL     OW15346   2.634   5.067   1.144
 4816SOL    HW115347   2.689   5.120   1.080
 4816SOL    HW215348   2.615   4.977   1.104
 4817SOL     OW15349   2.437   1.204   0.546
 4817SOL    HW115350   2.500   1.213   0.623
 4817SOL    HW215351   2.470   1.133   0.484
 4818SOL     OW15352   0.396   0.410   4.123
 4818SOL    HW115353   0.302   0.419   4.155
 4818SOL    HW215354   0.426   0.497   4.084
 4819SOL     OW15355   2.183   2.265   1.294
 4819SOL    HW115356   2.189   2.332   1.367
 4819SOL    HW215357   2.272   2.221   1.281
 4820SOL     OW15358   6.278   1.792   0.821
 4820SOL    HW115359   6.304   1.816   0.728
 4820SOL    HW215360   6.226   1.706   0.820
 4821SOL     OW15361   0.557   0.050   1.835
 4821SOL    HW115362   0.637   0.002   1.871
 4821SOL    HW215363   0.556   0.042   1.735
 4822SOL     OW15364   1.760   3.379   4.065
 4822SOL    HW115365   1.713   3.296   4.037
 4822SOL    HW215366   1.733   3.455   4.005
 4823SOL     OW15367   1.048   0.700   4.025
 4823SOL    HW115368   1.076   0.655   3.940
 4823SOL    HW215369   1.129   0.733   4.073
 4824SOL     OW15370   5.363   1.805   4.034
 4824SOL    HW115371   5.414   1.808   4.120
 4824SOL    HW215372   5.427   1.817   3.958
 4825SOL     OW15373   1.888   2.201   5.027
 4825SOL    HW115374   1.832   2.147   5.091
 4825SOL    HW215375   1.835   2.219   4.945
 4826SOL     OW15376   0.305   0.488   6.296
 4826SOL    HW115377   0.299   0.400   6.249
 4826SOL    HW215378   0.239   0.552   6.255
 4827SOL     OW15379   5.656   2.364   1.757
 4827SOL    HW115380   5.694   2.332   1.671
 4827SOL    HW215381   5.562   2.333   1.767
 4828SOL     OW15382   5.564   2.532   1.218
 4828SOL    HW115383   5.563   2.632   1.214
 4828SOL    HW215384   5.476   2.496   1.186
 4829SOL     OW15385   3.764   6.204   6.994
 4829SOL    HW115386   3.731   6.292   6.960
 4829SOL    HW215387   3.690   6.156   0.017
 4830SOL     OW15388   4.326   6.516   3.397
 4830SOL    HW115389   4.421   6.487   3.402
 4830SOL    HW215390   4.315   6.580   3.320
 4831SOL     OW15391   0.267   5.109   6.670
 4831SOL    HW115392   0.304   5.145   6.585
 4831SOL    HW215393   0.172   5.139   6.680
 4832SOL     OW15394   2.923   2.485   5.944
 4832SOL    HW115395   2.831   2.507   5.911
 4832SOL    HW215396   2.951   2.396   5.908
 4833SOL     OW15397   5.142   2.005   3.250
 4833SOL    HW115398   5.180   2.037   3.163
 4833SOL    HW215399   5.047   2.035   3.258
 4834SOL     OW15400   3.846   6.785   1.067
 4834SOL    HW115401   3.900   6.861   1.101
 4834SOL    HW215402   3.816   6.804   0.974
 4835SOL     OW15403   0.474   1.677   6.374
 4835SOL    HW115404   0.457   1.663   6.471
 4835SOL    HW215405   0.416   1.616   6.321
 4836SOL     OW15406   4.964   3.035   3.974
 4836SOL    HW115407   4.918   2.969   4.034
 4836SOL    HW215408   4.901   3.063   3.902
 4837SOL     OW15409   5.405   4.424   2.342
 4837SOL    HW115410   5.468   4.352   2.368
 4837SOL    HW215411   5.450   4.487   2.278
 4838SOL     OW15412   0.996   4.672   1.324
 4838SOL    HW115413   0.908   4.643   1.361
 4838SOL    HW215414   1.069   4.615   1.362
 4839SOL     OW15415   1.299   2.991   6.471
 4839SOL    HW115416   1.365   2.923   6.503
 4839SOL    HW215417   1.299   2.992   6.371
 4840SOL     OW15418   0.632   5.496   5.765
 4840SOL    HW115419   0.542   5.453   5.766
 4840SOL    HW215420   0.702   5.426   5.776
 4841SOL     OW15421   3.128   6.195   1.849
 4841SOL    HW115422   3.079   6.205   1.936
 4841SOL    HW215423   3.198   6.124   1.858
 4842SOL     OW15424   3.301   4.923   2.239
 4842SOL    HW115425   3.247   4.952   2.318
 4842SOL    HW215426   3.243   4.875   2.174
 4843SOL     OW15427   6.263   3.340   0.299
 4843SOL    HW115428   6.262   3.244   0.269
 4843SOL    HW215429   6.224   3.398   0.227
 4844SOL     OW15430   6.348   3.807   5.547
 4844SOL    HW115431   6.382   3.760   5.465
 4844SOL    HW215432   6.389   3.898   5.553
 4845SOL     OW15433   5.562   5.578   5.133
 4845SOL    HW115434   5.550   5.557   5.230
 4845SOL    HW215435   5.474   5.602   5.093
 4846SOL     OW15436   6.525   2.758   3.560
 4846SOL    HW115437   6.550   2.782   3.654
 4846SOL    HW215438   6.602   2.714   3.514
 4847SOL     OW15439   2.764   1.100   6.173
 4847SOL    HW115440   2.794   1.015   6.129
 4847SOL    HW215441   2.830   1.127   6.243
 4848SOL     OW15442   1.424   0.851   3.803
 4848SOL    HW115443   1.391   0.814   3.716
 4848SOL    HW215444   1.501   0.913   3.787
 4849SOL     OW15445   1.778   6.737   6.784
 4849SOL    HW115446   1.765   6.789   6.699
 4849SOL    HW215447   1.791   6.801   6.860
 4850SOL     OW15448   4.224   1.390   2.828
 4850SOL    HW115449   4.303   1.448   2.846
 4850SOL    HW215450   4.253   1.308   2.777
 4851SOL     OW15451   4.090   5.960   5.857
 4851SOL    HW115452   4.013   5.898   5.848
 4851SOL    HW215453   4.151   5.950   5.779
 4852SOL     OW15454   1.066   6.969   5.010
 4852SOL    HW115455   1.089   0.043   5.013
 4852SOL    HW215456   0.967   6.957   5.019
 4853SOL     OW15457   3.012   0.810   3.459
 4853SOL    HW115458   3.011   0.862   3.545
 4853SOL    HW215459   3.006   0.873   3.382
 4854SOL     OW15460   4.538   0.030   1.872
 4854SOL    HW115461   4.604   7.012   1.935
 4854SOL    HW215462   4.491   0.105   1.919
 4855SOL     OW15463   6.563   3.273   2.091
 4855SOL    HW115464   6.539   3.207   2.020
 4855SOL    HW215465   6.502   3.261   2.170
 4856SOL     OW15466   1.740   3.837   2.433
 4856SOL    HW115467   1.692   3.813   2.517
 4856SOL    HW215468   1.764   3.754   2.383
 4857SOL     OW15469   1.718   2.237   4.812
 4857SOL    HW115470   1.724   2.162   4.745
 4857SOL    HW215471   1.622   2.262   4.824
 4858SOL     OW15472   1.166   1.030   4.354
 4858SOL    HW115473   1.200   0.993   4.440
 4858SOL    HW215474   1.213   0.986   4.278
 4859SOL     OW15475   0.746   0.517   4.389
 4859SOL    HW115476   0.804   0.575   4.445
 4859SOL    HW215477   0.783   0.513   4.296
 4860SOL     OW15478   3.611   4.440   1.396
 4860SOL    HW115479   3.626   4.537   1.375
 4860SOL    HW215480   3.531   4.430   1.455
 4861SOL     OW15481   5.155   4.973   6.844
 4861SOL    HW115482   5.116   4.978   6.753
 4861SOL    HW215483   5.150   4.878   6.878
 4862SOL     OW15484   2.521   4.815   4.410
 4862SOL    HW115485   2.503   4.844   4.504
 4862SOL    HW215486   2.456   4.861   4.348
 4863SOL     OW15487   6.128   3.544   1.529
 4863SOL    HW115488   6.165   3.529   1.621
 4863SOL    HW215489   6.035   3.580   1.536
 4864SOL     OW15490   3.942   1.115   3.503
 4864SOL    HW115491   4.003   1.128   3.425
 4864SOL    HW215492   3.994   1.125   3.588
 4865SOL     OW15493   2.264   0.256   5.148
 4865SOL    HW115494   2.268   0.207   5.235
 4865SOL    HW215495   2.255   0.190   5.073
 4866SOL     OW15496   6.214   2.147   1.350
 4866SOL    HW115497   6.277   2.161   1.426
 4866SOL    HW215498   6.139   2.213   1.356
 4867SOL     OW15499   3.515   5.592   2.318
 4867SOL    HW115500   3.517   5.669   2.382
 4867SOL    HW215501   3.609   5.566   2.294
 4868SOL     OW15502   6.510   5.242   2.576
 4868SOL    HW115503   6.563   5.326   2.580
 4868SOL    HW215504   6.438   5.251   2.506
 4869SOL     OW15505   1.553   1.530   1.345
 4869SOL    HW115506   1.527   1.617   1.386
 4869SOL    HW215507   1.481   1.499   1.283
 4870SOL     OW15508   6.905   6.384   2.099
 4870SOL    HW115509   6.861   6.453   2.042
 4870SOL    HW215510   6.867   6.294   2.079
 4871SOL     OW15511   1.341   0.471   3.803
 4871SOL    HW115512   1.370   0.519   3.886
 4871SOL    HW215513   1.420   0.425   3.762
 4872SOL     OW15514   6.544   6.819   3.582
 4872SOL    HW115515   6.482   6.891   3.615
 4872SOL    HW215516   6.493   6.734   3.570
 4873SOL     OW15517   6.388   5.399   3.251
 4873SOL    HW115518   6.324   5.331   3.286
 4873SOL    HW215519   6.383   5.400   3.151
 4874SOL     OW15520   6.660   3.345   2.458
 4874SOL    HW115521   6.687   3.252   2.433
 4874SOL    HW215522   6.661   3.355   2.557
 4875SOL     OW15523   6.063   2.325   0.935
 4875SOL    HW115524   5.974   2.327   0.981
 4875SOL    HW215525   6.087   2.417   0.904
 4876SOL     OW15526   6.104   1.931   3.537
 4876SOL    HW115527   6.028   1.993   3.556
 4876SOL    HW215528   6.075   1.861   3.472
 4877SOL     OW15529   1.243   2.139   6.378
 4877SOL    HW115530   1.184   2.183   6.445
 4877SOL    HW215531   1.338   2.142   6.410
 4878SOL     OW15532   6.123   1.207   2.608
 4878SOL    HW115533   6.070   1.283   2.646
 4878SOL    HW215534   6.124   1.131   2.672
 4879SOL     OW15535   4.085   0.679   2.672
 4879SOL    HW115536   4.109   0.696   2.576
 4879SOL    HW215537   3.994   0.716   2.691
 4880SOL     OW15538   5.486   3.415   0.368
 4880SOL    HW115539   5.447   3.409   0.460
 4880SOL    HW215540   5.579   3.379   0.370
 4881SOL     OW15541   1.594   0.551   0.204
 4881SOL    HW115542   1.503   0.540   0.164
 4881SOL    HW215543   1.617   0.469   0.257
 4882SOL     OW15544   5.048   0.727   4.781
 4882SOL    HW115545   5.118   0.792   4.753
 4882SOL    HW215546   5.090   0.650   4.828
 4883SOL     OW15547   4.938   4.772   1.991
 4883SOL    HW115548   4.988   4.701   2.041
 4883SOL    HW215549   4.934   4.855   2.047
 4884SOL     OW15550   2.628   6.801   1.176
 4884SOL    HW115551   2.536   6.774   1.146
 4884SOL    HW215552   2.696   6.740   1.135
 4885SOL     OW15553   2.621   5.512   1.734
 4885SOL    HW115554   2.565   5.524   1.816
 4885SOL    HW215555   2.718   5.523   1.757
 4886SOL     OW15556   1.068   6.045   1.461
 4886SOL    HW115557   1.031   6.094   1.539
 4886SOL    HW215558   0.996   6.032   1.392
 4887SOL     OW15559   0.661   0.734   2.457
 4887SOL    HW115560   0.749   0.752   2.412
 4887SOL    HW215561   0.591   0.793   2.417
 4888SOL     OW15562   2.740   6.960   3.800
 4888SOL    HW115563   2.798   6.881   3.780
 4888SOL    HW215564   2.644   6.932   3.801
 4889SOL     OW15565   0.058   1.465   5.528
 4889SOL    HW115566   0.131   1.402   5.503
 4889SOL    HW215567   0.077   1.555   5.489
 4890SOL     OW15568   0.345   1.114   6.731
 4890SOL    HW115569   0.436   1.076   6.720
 4890SOL    HW215570   0.345   1.211   6.705
 4891SOL     OW15571   2.173   4.633   6.796
 4891SOL    HW115572   2.172   4.594   6.704
 4891SOL    HW215573   2.236   4.711   6.798
 4892SOL     OW15574   3.806   6.007   1.879
 4892SOL    HW115575   3.756   6.088   1.852
 4892SOL    HW215576   3.802   5.996   1.979
 4893SOL     OW15577   6.755   3.091   1.478
 4893SOL    HW115578   6.832   3.089   1.541
 4893SOL    HW215579   6.777   3.150   1.400
 4894SOL     OW15580   2.360   1.155   3.680
 4894SOL    HW115581   2.352   1.087   3.606
 4894SOL    HW215582   2.446   1.140   3.730
 4895SOL     OW15583   0.741   4.583   4.085
 4895SOL    HW115584   0.668   4.530   4.041
 4895SOL    HW215585   0.734   4.572   4.185
 4896SOL     OW15586   1.754   4.866   1.897
 4896SOL    HW115587   1.806   4.835   1.818
 4896SOL    HW215588   1.814   4.915   1.960
 4897SOL     OW15589   1.991   3.672   5.679
 4897SOL    HW115590   2.087   3.652   5.660
 4897SOL    HW215591   1.970   3.765   5.649
 4898SOL     OW15592   4.254   0.671   4.249
 4898SOL    HW115593   4.232   0.748   4.190
 4898SOL    HW215594   4.234   0.585   4.202
 4899SOL     OW15595   5.295   5.399   3.462
 4899SOL    HW115596   5.212   5.398   3.405
 4899SOL    HW215597   5.274   5.446   3.549
 4900SOL     OW15598   3.453   6.194   4.593
 4900SOL    HW115599   3.405   6.112   4.561
 4900SOL    HW215600   3.405   6.231   4.673
 4901SOL     OW15601   2.990   0.483   5.083
 4901SOL    HW115602   2.924   0.529   5.024
 4901SOL    HW215603   3.061   0.547   5.111
 4902SOL     OW15604   2.114   1.639   4.733
 4902SOL    HW115605   2.161   1.715   4.779
 4902SOL    HW215606   2.119   1.652   4.634
 4903SOL     OW15607   3.853   5.517   0.108
 4903SOL    HW115608   3.832   5.599   0.055
 4903SOL    HW215609   3.904   5.452   0.051
 4904SOL     OW15610   2.374   0.260   4.556
 4904SOL    HW115611   2.437   0.312   4.499
 4904SOL    HW215612   2.346   0.177   4.508
 4905SOL     OW15613   3.665   6.918   2.678
 4905SOL    HW115614   3.601   6.856   2.633
 4905SOL    HW215615   3.616   6.970   2.748
 4906SOL     OW15616   5.083   2.298   6.162
 4906SOL    HW115617   5.141   2.227   6.203
 4906SOL    HW215618   5.028   2.258   6.090
 4907SOL     OW15619   4.218   6.000   2.013
 4907SOL    HW115620   4.136   6.038   2.056
 4907SOL    HW215621   4.296   6.060   2.029
 4908SOL     OW15622   5.425   5.548   0.626
 4908SOL    HW115623   5.405   5.496   0.709
 4908SOL    HW215624   5.522   5.575   0.626
 4909SOL     OW15625   0.568   6.638   3.896
 4909SOL    HW115626   0.614   6.682   3.973
 4909SOL    HW215627   0.484   6.594   3.929
 4910SOL     OW15628   5.446   1.152   4.670
 4910SOL    HW115629   5.384   1.188   4.739
 4910SOL    HW215630   5.540   1.151   4.706
 4911SOL     OW15631   1.268   4.386   4.054
 4911SOL    HW115632   1.200   4.382   4.127
 4911SOL    HW215633   1.323   4.302   4.054
 4912SOL     OW15634   5.626   1.710   6.262
 4912SOL    HW115635   5.701   1.727   6.325
 4912SOL    HW215636   5.539   1.713   6.311
 4913SOL     OW15637   3.846   2.867   5.182
 4913SOL    HW115638   3.835   2.785   5.126
 4913SOL    HW215639   3.825   2.948   5.127
 4914SOL     OW15640   2.958   0.245   4.557
 4914SOL    HW115641   2.960   0.282   4.464
 4914SOL    HW215642   2.888   0.293   4.610
 4915SOL     OW15643   3.750   6.398   6.186
 4915SOL    HW115644   3.711   6.487   6.165
 4915SOL    HW215645   3.761   6.388   6.285
 4916SOL     OW15646   1.196   0.301   4.011
 4916SOL    HW115647   1.290   0.313   4.041
 4916SOL    HW215648   1.158   0.390   3.986
 4917SOL     OW15649   2.644   5.655   1.326
 4917SOL    HW115650   2.742   5.676   1.324
 4917SOL    HW215651   2.596   5.728   1.375
 4918SOL     OW15652   5.032   5.283   3.348
 4918SOL    HW115653   5.072   5.239   3.267
 4918SOL    HW215654   4.953   5.337   3.320
 4919SOL     OW15655   2.972   2.897   0.686
 4919SOL    HW115656   2.955   2.872   0.590
 4919SOL    HW215657   3.014   2.988   0.690
 4920SOL     OW15658   6.044   0.907   4.020
 4920SOL    HW115659   6.042   0.863   4.110
 4920SOL    HW215660   6.134   0.947   4.005
 4921SOL     OW15661   1.061   4.893   0.527
 4921SOL    HW115662   1.014   4.947   0.457
 4921SOL    HW215663   1.009   4.895   0.612
 4922SOL     OW15664   2.524   2.525   5.094
 4922SOL    HW115665   2.506   2.609   5.146
 4922SOL    HW215666   2.609   2.484   5.126
 4923SOL     OW15667   3.953   1.947   2.889
 4923SOL    HW115668   3.978   1.854   2.863
 4923SOL    HW215669   3.877   1.978   2.833
 4924SOL     OW15670   3.356   0.955   5.149
 4924SOL    HW115671   3.312   1.037   5.187
 4924SOL    HW215672   3.416   0.914   5.217
 4925SOL     OW15673   6.496   6.602   2.404
 4925SOL    HW115674   6.588   6.618   2.441
 4925SOL    HW215675   6.428   6.620   2.475
 4926SOL     OW15676   4.945   1.116   0.532
 4926SOL    HW115677   5.000   1.036   0.510
 4926SOL    HW215678   4.855   1.087   0.563
 4927SOL     OW15679   3.461   3.835   4.313
 4927SOL    HW115680   3.372   3.809   4.351
 4927SOL    HW215681   3.494   3.762   4.253
 4928SOL     OW15682   2.212   6.391   0.073
 4928SOL    HW115683   2.200   6.328   7.020
 4928SOL    HW215684   2.225   6.484   0.038
 4929SOL     OW15685   6.950   6.100   4.044
 4929SOL    HW115686   6.923   6.028   3.980
 4929SOL    HW215687   6.890   6.179   4.031
 4930SOL     OW15688   5.353   0.802   3.306
 4930SOL    HW115689   5.280   0.743   3.270
 4930SOL    HW215690   5.336   0.821   3.402
 4931SOL     OW15691   0.083   6.584   0.821
 4931SOL    HW115692   0.074   6.563   0.724
 4931SOL    HW215693   0.178   6.608   0.842
 4932SOL     OW15694   3.158   2.953   2.131
 4932SOL    HW115695   3.246   2.995   2.107
 4932SOL    HW215696   3.130   2.892   2.057
 4933SOL     OW15697   2.422   0.149   2.854
 4933SOL    HW115698   2.421   0.218   2.926
 4933SOL    HW215699   2.516   0.122   2.835
 4934SOL     OW15700   2.969   5.910   2.877
 4934SOL    HW115701   3.036   5.837   2.862
 4934SOL    HW215702   2.891   5.895   2.816
 4935SOL     OW15703   1.854   1.586   6.241
 4935SOL    HW115704   1.808   1.573   6.153
 4935SOL    HW215705   1.827   1.674   6.280
 4936SOL     OW15706   2.352   4.077   1.398
 4936SOL    HW115707   2.393   4.168   1.405
 4936SOL    HW215708   2.288   4.064   1.474
 4937SOL     OW15709   6.434   3.228   5.811
 4937SOL    HW115710   6.532   3.245   5.803
 4937SOL    HW215711   6.385   3.315   5.819
 4938SOL     OW15712   2.497   5.299   5.584
 4938SOL    HW115713   2.482   5.380   5.641
 4938SOL    HW215714   2.583   5.310   5.534
 4939SOL     OW15715   5.998   2.055   4.650
 4939SOL    HW115716   6.088   2.065   4.693
 4939SOL    HW215717   5.934   2.016   4.717
 4940SOL     OW15718   0.095   1.269   4.854
 4940SOL    HW115719   0.141   1.227   4.775
 4940SOL    HW215720   0.105   1.368   4.849
 4941SOL     OW15721   5.439   2.332   5.345
 4941SOL    HW115722   5.523   2.380   5.369
 4941SOL    HW215723   5.361   2.375   5.391
 4942SOL     OW15724   5.234   2.158   5.757
 4942SOL    HW115725   5.188   2.077   5.794
 4942SOL    HW215726   5.207   2.171   5.662
 4943SOL     OW15727   4.794   3.254   6.459
 4943SOL    HW115728   4.875   3.304   6.489
 4943SOL    HW215729   4.736   3.234   6.538
 4944SOL     OW15730   1.948   4.397   1.502
 4944SOL    HW115731   1.870   4.424   1.559
 4944SOL    HW215732   1.997   4.478   1.471
 4945SOL     OW15733   1.256   0.294   4.346
 4945SOL    HW115734   1.296   0.347   4.272
 4945SOL    HW215735   1.186   0.233   4.309
 4946SOL     OW15736   1.449   4.614   7.009
 4946SOL    HW115737   1.437   4.664   6.923
 4946SOL    HW215738   1.516   4.541   6.996
 4947SOL     OW15739   2.194   1.213   1.058
 4947SOL    HW115740   2.260   1.140   1.039
 4947SOL    HW215741   2.234   1.302   1.034
 4948SOL     OW15742   1.406   2.203   2.448
 4948SOL    HW115743   1.398   2.120   2.503
 4948SOL    HW215744   1.315   2.244   2.437
 4949SOL     OW15745   4.838   0.034   6.361
 4949SOL    HW115746   4.779   0.015   6.440
 4949SOL    HW215747   4.870   0.129   6.365
 4950SOL     OW15748   2.312   5.739   4.156
 4950SOL    HW115749   2.218   5.719   4.182
 4950SOL    HW215750   2.365   5.762   4.237
 4951SOL     OW15751   5.369   1.537   4.267
 4951SOL    HW115752   5.277   1.571   4.247
 4951SOL    HW215753   5.431   1.615   4.275
 4952SOL     OW15754   0.580   0.678   5.719
 4952SOL    HW115755   0.569   0.773   5.748
 4952SOL    HW215756   0.540   0.617   5.788
 4953SOL     OW15757   2.439   6.291   2.632
 4953SOL    HW115758   2.435   6.299   2.532
 4953SOL    HW215759   2.404   6.201   2.659
 4954SOL     OW15760   4.057   3.308   0.206
 4954SOL    HW115761   4.004   3.297   0.122
 4954SOL    HW215762   4.048   3.403   0.238
 4955SOL     OW15763   2.812   6.316   6.791
 4955SOL    HW115764   2.771   6.355   6.873
 4955SOL    HW215765   2.821   6.217   6.802
 4956SOL     OW15766   2.453   6.779   4.626
 4956SOL    HW115767   2.457   6.751   4.530
 4956SOL    HW215768   2.381   6.727   4.672
 4957SOL     OW15769   6.721   1.722   2.215
 4957SOL    HW115770   6.790   1.671   2.164
 4957SOL    HW215771   6.672   1.659   2.276
 4958SOL     OW15772   6.948   5.350   5.626
 4958SOL    HW115773   6.893   5.410   5.684
 4958SOL    HW215774   0.021   5.365   5.644
 4959SOL     OW15775   6.384   1.429   6.425
 4959SOL    HW115776   6.332   1.504   6.386
 4959SOL    HW215777   6.396   1.357   6.357
 4960SOL     OW15778   3.501   5.395   3.131
 4960SOL    HW115779   3.429   5.344   3.178
 4960SOL    HW215780   3.496   5.376   3.033
 4961SOL     OW15781   4.939   1.336   5.908
 4961SOL    HW115782   5.023   1.391   5.905
 4961SOL    HW215783   4.920   1.299   5.818
 4962SOL     OW15784   6.535   1.856   0.084
 4962SOL    HW115785   6.546   1.758   0.100
 4962SOL    HW215786   6.439   1.882   0.097
 4963SOL     OW15787   6.367   5.790   6.534
 4963SOL    HW115788   6.466   5.789   6.549
 4963SOL    HW215789   6.321   5.823   6.617
 4964SOL     OW15790   3.061   6.945   3.801
 4964SOL    HW115791   3.010   0.007   3.803
 4964SOL    HW215792   3.027   6.884   3.872
 4965SOL     OW15793   0.300   0.489   2.858
 4965SOL    HW115794   0.398   0.478   2.868
 4965SOL    HW215795   0.262   0.523   2.945
 4966SOL     OW15796   2.273   0.087   4.938
 4966SOL    HW115797   2.329   0.008   4.914
 4966SOL    HW215798   2.186   0.082   4.889
 4967SOL     OW15799   3.957   4.235   6.653
 4967SOL    HW115800   3.920   4.145   6.629
 4967SOL    HW215801   3.974   4.287   6.570
 4968SOL     OW15802   6.469   2.457   3.632
 4968SOL    HW115803   6.391   2.396   3.615
 4968SOL    HW215804   6.439   2.552   3.625
 4969SOL     OW15805   2.555   0.349   2.355
 4969SOL    HW115806   2.614   0.376   2.278
 4969SOL    HW215807   2.477   0.297   2.320
 4970SOL     OW15808   1.913   1.993   3.501
 4970SOL    HW115809   1.891   2.010   3.405
 4970SOL    HW215810   2.004   2.030   3.521
 4971SOL     OW15811   6.772   6.612   4.383
 4971SOL    HW115812   6.769   6.712   4.388
 4971SOL    HW215813   6.750   6.574   4.472
 4972SOL     OW15814   2.477   2.829   0.021
 4972SOL    HW115815   2.415   2.907   0.029
 4972SOL    HW215816   2.450   2.758   0.086
 4973SOL     OW15817   1.350   0.571   2.423
 4973SOL    HW115818   1.441   0.531   2.419
 4973SOL    HW215819   1.322   0.582   2.518
 4974SOL     OW15820   6.135   4.975   1.614
 4974SOL    HW115821   6.136   4.985   1.515
 4974SOL    HW215822   6.057   4.919   1.642
 4975SOL     OW15823   5.355   5.164   5.442
 4975SOL    HW115824   5.360   5.128   5.536
 4975SOL    HW215825   5.442   5.148   5.396
 4976SOL     OW15826   2.688   6.785   4.062
 4976SOL    HW115827   2.629   6.824   3.991
 4976SOL    HW215828   2.661   6.691   4.080
 4977SOL     OW15829   4.241   3.976   0.665
 4977SOL    HW115830   4.187   4.040   0.720
 4977SOL    HW215831   4.261   4.017   0.576
 4978SOL     OW15832   0.218   4.139   5.652
 4978SOL    HW115833   0.201   4.088   5.737
 4978SOL    HW215834   0.131   4.157   5.606
 4979SOL     OW15835   0.575   0.017   5.457
 4979SOL    HW115836   0.618   7.006   5.540
 4979SOL    HW215837   0.605   6.987   5.378
 4980SOL     OW15838   4.520   6.094   3.573
 4980SOL    HW115839   4.500   6.156   3.650
 4980SOL    HW215840   4.499   6.000   3.601
 4981SOL     OW15841   5.285   6.407   6.467
 4981SOL    HW115842   5.256   6.359   6.384
 4981SOL    HW215843   5.228   6.488   6.480
 4982SOL     OW15844   2.402   1.546   5.974
 4982SOL    HW115845   2.390   1.523   5.877
 4982SOL    HW215846   2.375   1.467   6.030
 4983SOL     OW15847   5.587   2.095   4.677
 4983SOL    HW115848   5.634   2.156   4.740
 4983SOL    HW215849   5.502   2.138   4.646
 4984SOL     OW15850   5.949   4.580   4.189
 4984SOL    HW115851   5.907   4.532   4.266
 4984SOL    HW215852   6.009   4.652   4.223
 4985SOL     OW15853   6.245   6.088   3.343
 4985SOL    HW115854   6.328   6.078   3.288
 4985SOL    HW215855   6.183   6.153   3.300
 4986SOL     OW15856   5.931   4.272   2.637
 4986SOL    HW115857   5.963   4.301   2.547
 4986SOL    HW215858   5.962   4.338   2.706
 4987SOL     OW15859   1.107   1.276   1.069
 4987SOL    HW115860   1.035   1.218   1.031
 4987SOL    HW215861   1.071   1.325   1.149
 4988SOL     OW15862   5.865   1.168   3.176
 4988SOL    HW115863   5.770   1.188   3.198
 4988SOL    HW215864   5.870   1.087   3.118
 4989SOL     OW15865   5.342   0.472   1.230
 4989SOL    HW115866   5.422   0.529   1.249
 4989SOL    HW215867   5.369   0.375   1.234
 4990SOL     OW15868   2.004   1.356   5.404
 4990SOL    HW115869   1.922   1.366   5.460
 4990SOL    HW215870   2.006   1.265   5.363
 4991SOL     OW15871   6.812   3.965   4.262
 4991SOL    HW115872   6.905   3.963   4.298
 4991SOL    HW215873   6.753   4.014   4.326
 4992SOL     OW15874   4.586   0.886   5.020
 4992SOL    HW115875   4.568   0.927   5.109
 4992SOL    HW215876   4.500   0.872   4.971
 4993SOL     OW15877   3.386   4.911   4.045
 4993SOL    HW115878   3.387   5.005   4.079
 4993SOL    HW215879   3.365   4.849   4.120
 4994SOL     OW15880   1.823   0.019   2.546
 4994SOL    HW115881   1.806   0.092   2.479
 4994SOL    HW215882   1.815   6.954   2.501
 4995SOL     OW15883   6.555   3.114   5.343
 4995SOL    HW115884   6.491   3.068   5.404
 4995SOL    HW215885   6.616   3.047   5.301
 4996SOL     OW15886   1.425   1.112   2.462
 4996SOL    HW115887   1.353   1.045   2.482
 4996SOL    HW215888   1.391   1.181   2.399
 4997SOL     OW15889   5.928   1.962   3.213
 4997SOL    HW115890   5.951   1.895   3.284
 4997SOL    HW215891   5.965   1.931   3.126
 4998SOL     OW15892   2.065   3.960   5.057
 4998SOL    HW115893   2.164   3.958   5.065
 4998SOL    HW215894   2.024   3.906   5.131
 4999SOL     OW15895   6.165   4.408   1.526
 4999SOL    HW115896   6.125   4.439   1.440
 4999SOL    HW215897   6.262   4.387   1.511
 5000SOL     OW15898   2.667   6.247   4.210
 5000SOL    HW115899   2.618   6.321   4.255
 5000SOL    HW215900   2.602   6.183   4.170
 5001SOL     OW15901   1.388   4.403   0.790
 5001SOL    HW115902   1.451   4.339   0.833
 5001SOL    HW215903   1.411   4.496   0.818
 5002SOL     OW15904   1.353   3.241   3.316
 5002SOL    HW115905   1.409   3.299   3.257
 5002SOL    HW215906   1.411   3.172   3.359
 5003SOL     OW15907   2.438   6.257   3.049
 5003SOL    HW115908   2.447   6.209   3.136
 5003SOL    HW215909   2.415   6.191   2.977
 5004SOL     OW15910   3.418   4.830   5.584
 5004SOL    HW115911   3.446   4.753   5.527
 5004SOL    HW215912   3.499   4.884   5.610
 5005SOL     OW15913   3.413   2.033   0.886
 5005SOL    HW115914   3.448   2.045   0.792
 5005SOL    HW215915   3.453   1.951   0.926
 5006SOL     OW15916   4.880   0.028   6.848
 5006SOL    HW115917   4.795   0.027   6.901
 5006SOL    HW215918   4.957   0.049   6.908
 5007SOL     OW15919   1.710   0.217   0.036
 5007SOL    HW115920   1.759   0.290   7.013
 5007SOL    HW215921   1.648   0.172   6.995
 5008SOL     OW15922   6.202   0.262   3.331
 5008SOL    HW115923   6.221   0.277   3.428
 5008SOL    HW215924   6.108   0.231   3.320
 5009SOL     OW15925   2.038   6.274   1.346
 5009SOL    HW115926   2.135   6.281   1.326
 5009SOL    HW215927   2.008   6.180   1.330
 5010SOL     OW15928   3.686   2.916   3.203
 5010SOL    HW115929   3.637   2.845   3.152
 5010SOL    HW215930   3.700   2.996   3.144
 5011SOL     OW15931   1.799   3.751   2.835
 5011SOL    HW115932   1.796   3.808   2.917
 5011SOL    HW215933   1.844   3.665   2.856
 5012SOL     OW15934   5.136   3.786   6.476
 5012SOL    HW115935   5.216   3.785   6.416
 5012SOL    HW215936   5.073   3.857   6.446
 5013SOL     OW15937   5.261   1.546   6.853
 5013SOL    HW115938   5.341   1.552   6.912
 5013SOL    HW215939   5.282   1.492   6.772
 5014SOL     OW15940   5.444   4.140   0.836
 5014SOL    HW115941   5.405   4.219   0.789
 5014SOL    HW215942   5.408   4.056   0.796
 5015SOL     OW15943   4.571   2.167   3.719
 5015SOL    HW115944   4.510   2.148   3.796
 5015SOL    HW215945   4.569   2.265   3.698
 5016SOL     OW15946   2.480   2.273   0.821
 5016SOL    HW115947   2.567   2.303   0.860
 5016SOL    HW215948   2.484   2.175   0.802
 5017SOL     OW15949   1.522   2.188   6.434
 5017SOL    HW115950   1.569   2.183   6.522
 5017SOL    HW215951   1.590   2.197   6.361
 5018SOL     OW15952   0.666   4.001   1.593
 5018SOL    HW115953   0.591   3.964   1.538
 5018SOL    HW215954   0.662   3.962   1.685
 5019SOL     OW15955   2.007   5.037   6.936
 5019SOL    HW115956   2.038   4.960   6.992
 5019SOL    HW215957   2.027   5.019   6.840
 5020SOL     OW15958   4.985   0.107   5.999
 5020SOL    HW115959   4.914   0.175   5.985
 5020SOL    HW215960   4.954   0.039   6.066
 5021SOL     OW15961   1.334   1.885   5.871
 5021SOL    HW115962   1.419   1.931   5.845
 5021SOL    HW215963   1.329   1.879   5.971
 5022SOL     OW15964   1.689   0.156   0.302
 5022SOL    HW115965   1.712   0.168   0.205
 5022SOL    HW215966   1.591   0.137   0.310
 5023SOL     OW15967   6.285   2.595   1.210
 5023SOL    HW115968   6.337   2.550   1.138
 5023SOL    HW215969   6.301   2.549   1.298
 5024SOL     OW15970   6.512   5.644   2.717
 5024SOL    HW115971   6.531   5.644   2.619
 5024SOL    HW215972   6.588   5.687   2.765
 5025SOL     OW15973   3.949   2.157   2.379
 5025SOL    HW115974   3.958   2.188   2.284
 5025SOL    HW215975   3.884   2.082   2.383
 5026SOL     OW15976   5.820   6.257   6.794
 5026SOL    HW115977   5.843   6.208   6.709
 5026SOL    HW215978   5.890   6.240   6.863
 5027SOL     OW15979   0.559   6.895   2.278
 5027SOL    HW115980   0.485   6.958   2.253
 5027SOL    HW215981   0.529   6.839   2.356
 5028SOL     OW15982   0.465   6.524   3.292
 5028SOL    HW115983   0.394   6.458   3.268
 5028SOL    HW215984   0.428   6.617   3.285
 5029SOL     OW15985   0.026   3.787   3.185
 5029SOL    HW115986   6.995   3.747   3.258
 5029SOL    HW215987   0.046   3.718   3.116
 5030SOL     OW15988   0.046   1.033   6.333
 5030SOL    HW115989   0.101   0.995   6.407
 5030SOL    HW215990   0.106   1.060   6.257
 5031SOL     OW15991   5.705   0.400   4.979
 5031SOL    HW115992   5.605   0.410   4.982
 5031SOL    HW215993   5.740   0.393   5.072
 5032SOL     OW15994   1.374   3.960   0.991
 5032SOL    HW115995   1.437   4.021   1.039
 5032SOL    HW215996   1.404   3.949   0.896
 5033SOL     OW15997   2.055   5.391   6.552
 5033SOL    HW115998   1.977   5.432   6.599
 5033SOL    HW215999   2.139   5.437   6.581
 5034SOL     OW16000   6.459   1.555   2.934
 5034SOL    HW116001   6.552   1.560   2.896
 5034SOL    HW216002   6.396   1.520   2.865
 5035SOL     OW16003   6.162   4.500   0.502
 5035SOL    HW116004   6.254   4.491   0.465
 5035SOL    HW216005   6.127   4.592   0.484
 5036SOL     OW16006   0.187   4.898   6.835
 5036SOL    HW116007   0.254   4.824   6.830
 5036SOL    HW216008   0.186   4.949   6.749
 5037SOL     OW16009   5.542   2.480   2.567
 5037SOL    HW116010   5.454   2.502   2.526
 5037SOL    HW216011   5.551   2.381   2.576
 5038SOL     OW16012   1.946   4.232   5.945
 5038SOL    HW116013   1.900   4.258   5.860
 5038SOL    HW216014   2.041   4.263   5.942
 5039SOL     OW16015   2.570   3.220   5.844
 5039SOL    HW116016   2.533   3.313   5.849
 5039SOL    HW216017   2.575   3.192   5.748
 5040SOL     OW16018   1.901   5.089   6.305
 5040SOL    HW116019   1.997   5.115   6.304
 5040SOL    HW216020   1.846   5.166   6.337
 5041SOL     OW16021   1.771   2.523   1.194
 5041SOL    HW116022   1.695   2.459   1.203
 5041SOL    HW216023   1.851   2.475   1.157
 5042SOL     OW16024   6.372   3.099   0.190
 5042SOL    HW116025   6.438   3.040   0.144
 5042SOL    HW216026   6.355   3.065   0.282
 5043SOL     OW16027   2.667   1.384   5.993
 5043SOL    HW116028   2.607   1.455   5.955
 5043SOL    HW216029   2.613   1.304   6.015
 5044SOL     OW16030   6.065   6.300   2.258
 5044SOL    HW116031   6.023   6.380   2.300
 5044SOL    HW216032   6.162   6.317   2.241
 5045SOL     OW16033   5.888   2.884   6.832
 5045SOL    HW116034   5.839   2.962   6.793
 5045SOL    HW216035   5.944   2.914   6.909
 5046SOL     OW16036   3.324   4.168   4.683
 5046SOL    HW116037   3.374   4.125   4.608
 5046SOL    HW216038   3.354   4.263   4.693
 5047SOL     OW16039   0.235   2.827   2.222
 5047SOL    HW116040   0.328   2.797   2.202
 5047SOL    HW216041   0.210   2.800   2.315
 5048SOL     OW16042   0.305   1.261   1.155
 5048SOL    HW116043   0.251   1.288   1.235
 5048SOL    HW216044   0.399   1.242   1.184
 5049SOL     OW16045   6.303   1.640   4.134
 5049SOL    HW116046   6.367   1.676   4.066
 5049SOL    HW216047   6.230   1.707   4.151
 5050SOL     OW16048   1.023   0.909   1.943
 5050SOL    HW116049   0.949   0.897   1.877
 5050SOL    HW216050   0.984   0.917   2.035
 5051SOL     OW16051   4.342   3.263   0.450
 5051SOL    HW116052   4.354   3.189   0.384
 5051SOL    HW216053   4.248   3.264   0.482
 5052SOL     OW16054   2.849   5.326   5.750
 5052SOL    HW116055   2.788   5.298   5.676
 5052SOL    HW216056   2.806   5.398   5.804
 5053SOL     OW16057   1.539   4.099   3.648
 5053SOL    HW116058   1.626   4.132   3.685
 5053SOL    HW216059   1.474   4.175   3.642
 5054SOL     OW16060   3.642   5.561   5.472
 5054SOL    HW116061   3.619   5.465   5.462
 5054SOL    HW216062   3.596   5.599   5.552
 5055SOL     OW16063   1.277   0.289   5.564
 5055SOL    HW116064   1.219   0.360   5.524
 5055SOL    HW216065   1.271   0.206   5.509
 5056SOL     OW16066   6.437   3.754   0.755
 5056SOL    HW116067   6.339   3.773   0.754
 5056SOL    HW216068   6.455   3.669   0.705
 5057SOL     OW16069   0.562   5.497   4.493
 5057SOL    HW116070   0.618   5.414   4.489
 5057SOL    HW216071   0.561   5.533   4.586
 5058SOL     OW16072   2.382   3.465   5.748
 5058SOL    HW116073   2.349   3.508   5.664
 5058SOL    HW216074   2.315   3.478   5.821
 5059SOL     OW16075   5.623   3.107   3.696
 5059SOL    HW116076   5.673   3.027   3.662
 5059SOL    HW216077   5.675   3.190   3.677
 5060SOL     OW16078   0.453   2.858   5.510
 5060SOL    HW116079   0.501   2.789   5.563
 5060SOL    HW216080   0.519   2.921   5.470
 5061SOL     OW16081   3.302   3.198   3.597
 5061SOL    HW116082   3.384   3.144   3.617
 5061SOL    HW216083   3.323   3.267   3.529
 5062SOL     OW16084   5.672   1.552   2.689
 5062SOL    HW116085   5.759   1.568   2.642
 5062SOL    HW216086   5.623   1.639   2.700
 5063SOL     OW16087   1.624   6.475   2.001
 5063SOL    HW116088   1.656   6.415   2.075
 5063SOL    HW216089   1.648   6.570   2.022
 5064SOL     OW16090   4.587   4.371   1.720
 5064SOL    HW116091   4.518   4.314   1.765
 5064SOL    HW216092   4.641   4.420   1.788
 5065SOL     OW16093   1.114   1.781   3.193
 5065SOL    HW116094   1.114   1.871   3.150
 5065SOL    HW216095   1.066   1.786   3.280
 5066SOL     OW16096   3.702   3.817   1.210
 5066SOL    HW116097   3.619   3.871   1.217
 5066SOL    HW216098   3.782   3.874   1.231
 5067SOL     OW16099   3.052   1.043   2.585
 5067SOL    HW116100   3.113   0.999   2.519
 5067SOL    HW216101   2.973   0.985   2.602
 5068SOL     OW16102   3.351   5.305   0.112
 5068SOL    HW116103   3.265   5.267   0.147
 5068SOL    HW216104   3.421   5.233   0.109
 5069SOL     OW16105   1.651   2.426   5.852
 5069SOL    HW116106   1.718   2.364   5.811
 5069SOL    HW216107   1.598   2.376   5.920
 5070SOL     OW16108   5.165   4.860   4.737
 5070SOL    HW116109   5.227   4.838   4.813
 5070SOL    HW216110   5.177   4.955   4.711
 5071SOL     OW16111   3.789   1.797   3.747
 5071SOL    HW116112   3.873   1.744   3.748
 5071SOL    HW216113   3.731   1.768   3.671
 5072SOL     OW16114   1.754   1.479   1.115
 5072SOL    HW116115   1.706   1.527   1.188
 5072SOL    HW216116   1.687   1.437   1.054
 5073SOL     OW16117   1.372   4.893   0.730
 5073SOL    HW116118   1.297   4.865   0.790
 5073SOL    HW216119   1.362   4.850   0.641
 5074SOL     OW16120   3.283   2.066   2.077
 5074SOL    HW116121   3.218   2.030   2.011
 5074SOL    HW216122   3.360   2.107   2.029
 5075SOL     OW16123   1.149   2.459   6.717
 5075SOL    HW116124   1.151   2.514   6.801
 5075SOL    HW216125   1.102   2.373   6.735
 5076SOL     OW16126   5.312   6.974   1.143
 5076SOL    HW116127   5.373   0.029   1.135
 5076SOL    HW216128   5.248   6.974   1.066
 5077SOL     OW16129   1.307   4.371   5.743
 5077SOL    HW116130   1.225   4.372   5.686
 5077SOL    HW216131   1.290   4.318   5.825
 5078SOL     OW16132   0.647   0.860   4.111
 5078SOL    HW116133   0.585   0.905   4.047
 5078SOL    HW216134   0.676   0.772   4.073
 5079SOL     OW16135   2.392   2.759   5.205
 5079SOL    HW116136   2.395   2.859   5.202
 5079SOL    HW216137   2.322   2.726   5.142
 5080SOL     OW16138   6.302   6.037   5.623
 5080SOL    HW116139   6.325   6.059   5.528
 5080SOL    HW216140   6.384   6.007   5.671
 5081SOL     OW16141   2.244   3.619   5.571
 5081SOL    HW116142   2.318   3.685   5.588
 5081SOL    HW216143   2.252   3.583   5.479
 5082SOL     OW16144   4.769   6.983   1.253
 5082SOL    HW116145   4.856   7.012   1.294
 5082SOL    HW216146   4.775   6.989   1.153
 5083SOL     OW16147   2.873   0.152   2.709
 5083SOL    HW116148   2.883   0.190   2.617
 5083SOL    HW216149   2.958   0.166   2.760
 5084SOL     OW16150   0.673   5.039   3.817
 5084SOL    HW116151   0.681   5.070   3.722
 5084SOL    HW216152   0.650   5.117   3.876
 5085SOL     OW16153   6.651   2.617   5.431
 5085SOL    HW116154   6.732   2.657   5.389
 5085SOL    HW216155   6.580   2.603   5.361
 5086SOL     OW16156   1.439   4.848   2.631
 5086SOL    HW116157   1.394   4.854   2.720
 5086SOL    HW216158   1.380   4.799   2.567
 5087SOL     OW16159   1.113   5.244   2.159
 5087SOL    HW116160   1.087   5.267   2.253
 5087SOL    HW216161   1.147   5.325   2.113
 5088SOL     OW16162   5.887   0.016   3.949
 5088SOL    HW116163   5.985   7.024   3.936
 5088SOL    HW216164   5.846   6.963   3.997
 5089SOL     OW16165   6.209   4.852   4.015
 5089SOL    HW116166   6.269   4.787   3.967
 5089SOL    HW216167   6.260   4.897   4.088
 5090SOL     OW16168   1.715   2.743   2.468
 5090SOL    HW116169   1.652   2.792   2.528
 5090SOL    HW216170   1.808   2.750   2.503
 5091SOL     OW16171   6.666   1.238   1.657
 5091SOL    HW116172   6.714   1.193   1.732
 5091SOL    HW216173   6.648   1.171   1.585
 5092SOL     OW16174   3.362   3.433   3.451
 5092SOL    HW116175   3.304   3.509   3.480
 5092SOL    HW216176   3.452   3.442   3.494
 5093SOL     OW16177   2.920   1.287   0.584
 5093SOL    HW116178   2.904   1.365   0.524
 5093SOL    HW216179   2.896   1.202   0.536
 5094SOL     OW16180   2.373   5.582   6.109
 5094SOL    HW116181   2.291   5.636   6.125
 5094SOL    HW216182   2.350   5.503   6.051
 5095SOL     OW16183   0.028   2.599   2.711
 5095SOL    HW116184   0.074   2.635   2.792
 5095SOL    HW216185   6.953   2.596   2.727
 5096SOL     OW16186   4.700   4.736   6.539
 5096SOL    HW116187   4.795   4.709   6.523
 5096SOL    HW216188   4.692   4.835   6.537
 5097SOL     OW16189   0.881   0.128   6.212
 5097SOL    HW116190   0.932   0.134   6.298
 5097SOL    HW216191   0.867   0.219   6.175
 5098SOL     OW16192   2.631   0.690   1.777
 5098SOL    HW116193   2.576   0.638   1.712
 5098SOL    HW216194   2.700   0.630   1.817
 5099SOL     OW16195   1.048   6.779   1.492
 5099SOL    HW116196   0.984   6.772   1.416
 5099SOL    HW216197   1.129   6.724   1.472
 5100SOL     OW16198   3.278   5.598   4.268
 5100SOL    HW116199   3.339   5.677   4.269
 5100SOL    HW216200   3.215   5.606   4.190
 5101SOL     OW16201   4.107   6.793   5.818
 5101SOL    HW116202   4.067   6.868   5.872
 5101SOL    HW216203   4.194   6.765   5.858
 5102SOL     OW16204   4.652   6.183   4.819
 5102SOL    HW116205   4.718   6.160   4.748
 5102SOL    HW216206   4.684   6.149   4.907
 5103SOL     OW16207   6.790   1.353   4.342
 5103SOL    HW116208   6.754   1.287   4.277
 5103SOL    HW216209   6.830   1.305   4.420
 5104SOL     OW16210   1.712   6.274   1.820
 5104SOL    HW116211   1.720   6.273   1.720
 5104SOL    HW216212   1.705   6.369   1.851
 5105SOL     OW16213   2.984   2.450   6.905
 5105SOL    HW116214   3.024   2.541   6.894
 5105SOL    HW216215   3.036   2.384   6.849
 5106SOL     OW16216   4.484   1.688   1.039
 5106SOL    HW116217   4.577   1.723   1.039
 5106SOL    HW216218   4.473   1.624   1.116
 5107SOL     OW16219   4.301   2.343   1.556
 5107SOL    HW116220   4.341   2.427   1.520
 5107SOL    HW216221   4.351   2.264   1.519
 5108SOL     OW16222   4.181   4.082   5.390
 5108SOL    HW116223   4.147   4.036   5.308
 5108SOL    HW216224   4.135   4.170   5.401
 5109SOL     OW16225   0.738   1.887   6.725
 5109SOL    HW116226   0.830   1.852   6.743
 5109SOL    HW216227   0.740   1.945   6.643
 5110SOL     OW16228   0.654   0.205   5.953
 5110SOL    HW116229   0.618   0.229   6.043
 5110SOL    HW216230   0.754   0.213   5.954
 5111SOL     OW16231   1.186   0.932   4.786
 5111SOL    HW116232   1.090   0.938   4.757
 5111SOL    HW216233   1.214   1.020   4.826
 5112SOL     OW16234   1.109   0.101   2.696
 5112SOL    HW116235   1.172   0.178   2.707
 5112SOL    HW216236   1.094   0.084   2.599
 5113SOL     OW16237   2.242   5.988   1.174
 5113SOL    HW116238   2.207   5.974   1.267
 5113SOL    HW216239   2.289   5.905   1.144
 5114SOL     OW16240   3.960   0.201   6.556
 5114SOL    HW116241   3.973   0.110   6.517
 5114SOL    HW216242   4.023   0.215   6.632
 5115SOL     OW16243   1.155   5.191   3.499
 5115SOL    HW116244   1.069   5.143   3.486
 5115SOL    HW216245   1.230   5.135   3.464
 5116SOL     OW16246   0.749   6.628   0.244
 5116SOL    HW116247   0.660   6.646   0.200
 5116SOL    HW216248   0.746   6.539   0.289
 5117SOL     OW16249   1.697   3.698   4.158
 5117SOL    HW116250   1.630   3.709   4.232
 5117SOL    HW216251   1.745   3.784   4.144
 5118SOL     OW16252   5.347   0.863   0.054
 5118SOL    HW116253   5.262   0.836   0.100
 5118SOL    HW216254   5.349   0.963   0.044
 5119SOL     OW16255   5.194   0.872   2.421
 5119SOL    HW116256   5.103   0.861   2.461
 5119SOL    HW216257   5.264   0.852   2.489
 5120SOL     OW16258   4.387   0.077   4.715
 5120SOL    HW116259   4.311   0.033   4.668
 5120SOL    HW216260   4.473   0.051   4.671
 5121SOL     OW16261   2.959   2.735   6.762
 5121SOL    HW116262   2.962   2.816   6.821
 5121SOL    HW216263   2.869   2.728   6.720
 5122SOL     OW16264   3.329   6.052   3.202
 5122SOL    HW116265   3.388   6.128   3.228
 5122SOL    HW216266   3.324   6.046   3.102
 5123SOL     OW16267   4.429   2.468   4.233
 5123SOL    HW116268   4.345   2.415   4.223
 5123SOL    HW216269   4.433   2.539   4.163
 5124SOL     OW16270   2.215   5.579   5.113
 5124SOL    HW116271   2.150   5.630   5.057
 5124SOL    HW216272   2.308   5.603   5.087
 5125SOL     OW16273   6.672   3.935   3.746
 5125SOL    HW116274   6.700   3.980   3.661
 5125SOL    HW216275   6.575   3.911   3.741
 5126SOL     OW16276   6.255   5.267   6.164
 5126SOL    HW116277   6.339   5.281   6.216
 5126SOL    HW216278   6.275   5.266   6.067
 5127SOL     OW16279   0.538   3.860   0.330
 5127SOL    HW116280   0.566   3.868   0.426
 5127SOL    HW216281   0.439   3.871   0.323
 5128SOL     OW16282   0.309   0.269   6.132
 5128SOL    HW116283   0.272   0.283   6.041
 5128SOL    HW216284   0.316   0.171   6.151
 5129SOL     OW16285   6.495   0.180   2.470
 5129SOL    HW116286   6.558   0.250   2.504
 5129SOL    HW216287   6.540   0.128   2.398
 5130SOL     OW16288   0.538   5.602   3.582
 5130SOL    HW116289   0.517   5.559   3.494
 5130SOL    HW216290   0.454   5.619   3.632
 5131SOL     OW16291   2.072   4.713   4.158
 5131SOL    HW116292   2.088   4.784   4.226
 5131SOL    HW216293   2.021   4.750   4.081
 5132SOL     OW16294   3.451   2.956   6.777
 5132SOL    HW116295   3.440   2.917   6.868
 5132SOL    HW216296   3.510   2.897   6.722
 5133SOL     OW16297   2.654   5.351   0.197
 5133SOL    HW116298   2.685   5.283   0.263
 5133SOL    HW216299   2.555   5.363   0.206
 5134SOL     OW16300   0.577   3.753   2.738
 5134SOL    HW116301   0.620   3.691   2.804
 5134SOL    HW216302   0.477   3.748   2.748
 5135SOL     OW16303   5.964   3.008   4.324
 5135SOL    HW116304   5.886   3.070   4.337
 5135SOL    HW216305   6.048   3.061   4.315
 5136SOL     OW16306   3.464   0.796   5.970
 5136SOL    HW116307   3.505   0.887   5.968
 5136SOL    HW216308   3.472   0.754   5.879
 5137SOL     OW16309   5.314   3.087   5.805
 5137SOL    HW116310   5.326   2.993   5.773
 5137SOL    HW216311   5.301   3.147   5.727
 5138SOL     OW16312   3.212   2.504   5.713
 5138SOL    HW116313   3.289   2.526   5.773
 5138SOL    HW216314   3.245   2.497   5.619
 5139SOL     OW16315   1.164   0.576   2.994
 5139SOL    HW116316   1.248   0.599   3.042
 5139SOL    HW216317   1.167   0.479   2.966
 5140SOL     OW16318   4.045   2.496   0.253
 5140SOL    HW116319   4.097   2.571   0.214
 5140SOL    HW216320   4.091   2.463   0.336
 5141SOL     OW16321   6.841   3.540   0.258
 5141SOL    HW116322   6.802   3.508   0.344
 5141SOL    HW216323   6.786   3.617   0.223
 5142SOL     OW16324   5.897   0.475   3.652
 5142SOL    HW116325   5.843   0.430   3.724
 5142SOL    HW216326   5.949   0.550   3.692
 5143SOL     OW16327   6.471   4.515   4.088
 5143SOL    HW116328   6.447   4.580   4.016
 5143SOL    HW216329   6.490   4.426   4.048
 5144SOL     OW16330   0.488   4.916   6.702
 5144SOL    HW116331   0.432   4.994   6.674
 5144SOL    HW216332   0.578   4.921   6.659
 5145SOL     OW16333   2.961   4.865   5.574
 5145SOL    HW116334   2.892   4.909   5.631
 5145SOL    HW216335   2.920   4.789   5.523
 5146SOL     OW16336   3.736   4.077   5.051
 5146SOL    HW116337   3.671   4.149   5.077
 5146SOL    HW216338   3.752   4.081   4.953
 5147SOL     OW16339   6.917   4.978   2.482
 5147SOL    HW116340   6.965   5.039   2.546
 5147SOL    HW216341   6.929   5.011   2.389
 5148SOL     OW16342   6.667   6.307   1.494
 5148SOL    HW116343   6.763   6.332   1.506
 5148SOL    HW216344   6.610   6.389   1.500
 5149SOL     OW16345   6.310   5.774   3.177
 5149SOL    HW116346   6.280   5.686   3.140
 5149SOL    HW216347   6.317   5.840   3.102
 5150SOL     OW16348   2.357   5.454   2.817
 5150SOL    HW116349   2.396   5.396   2.889
 5150SOL    HW216350   2.419   5.458   2.739
 5151SOL     OW16351   5.698   2.402   0.758
 5151SOL    HW116352   5.753   2.442   0.684
 5151SOL    HW216353   5.691   2.303   0.744
 5152SOL     OW16354   2.501   5.007   0.049
 5152SOL    HW116355   2.492   5.107   0.045
 5152SOL    HW216356   2.596   4.982   0.033
 5153SOL     OW16357   2.066   6.986   0.011
 5153SOL    HW116358   2.160   7.007   7.007
 5153SOL    HW216359   2.031   0.037   0.067
 5154SOL     OW16360   1.275   3.631   6.319
 5154SOL    HW116361   1.355   3.676   6.280
 5154SOL    HW216362   1.268   3.538   6.281
 5155SOL     OW16363   4.348   6.786   2.270
 5155SOL    HW116364   4.352   6.698   2.316
 5155SOL    HW216365   4.392   6.779   2.180
 5156SOL     OW16366   5.830   3.521   5.696
 5156SOL    HW116367   5.867   3.502   5.604
 5156SOL    HW216368   5.811   3.435   5.743
 5157SOL     OW16369   3.818   2.108   3.590
 5157SOL    HW116370   3.845   2.025   3.542
 5157SOL    HW216371   3.886   2.179   3.576
 5158SOL     OW16372   3.770   1.472   1.902
 5158SOL    HW116373   3.674   1.498   1.891
 5158SOL    HW216374   3.829   1.541   1.860
 5159SOL     OW16375   6.871   3.415   3.865
 5159SOL    HW116376   6.860   3.462   3.953
 5159SOL    HW216377   6.952   3.357   3.868
 5160SOL     OW16378   0.279   4.940   3.325
 5160SOL    HW116379   0.269   4.848   3.285
 5160SOL    HW216380   0.201   4.958   3.385
 5161SOL     OW16381   1.598   3.683   5.613
 5161SOL    HW116382   1.573   3.779   5.601
 5161SOL    HW216383   1.660   3.655   5.539
 5162SOL     OW16384   1.384   5.209   2.898
 5162SOL    HW116385   1.408   5.235   2.805
 5162SOL    HW216386   1.288   5.181   2.901
 5163SOL     OW16387   3.618   6.472   0.100
 5163SOL    HW116388   3.556   6.471   0.179
 5163SOL    HW216389   3.709   6.442   0.129
 5164SOL     OW16390   4.756   2.321   0.157
 5164SOL    HW116391   4.696   2.260   0.106
 5164SOL    HW216392   4.814   2.372   0.094
 5165SOL     OW16393   6.004   4.465   6.230
 5165SOL    HW116394   6.088   4.474   6.284
 5165SOL    HW216395   5.961   4.555   6.221
 5166SOL     OW16396   0.870   5.185   3.304
 5166SOL    HW116397   0.964   5.219   3.302
 5166SOL    HW216398   0.815   5.237   3.239
 5167SOL     OW16399   6.223   6.341   5.729
 5167SOL    HW116400   6.300   6.392   5.691
 5167SOL    HW216401   6.223   6.248   5.692
 5168SOL     OW16402   5.264   4.147   2.567
 5168SOL    HW116403   5.323   4.067   2.569
 5168SOL    HW216404   5.196   4.138   2.494
 5169SOL     OW16405   3.763   1.758   4.759
 5169SOL    HW116406   3.713   1.675   4.780
 5169SOL    HW216407   3.841   1.736   4.700
 5170SOL     OW16408   0.896   4.401   5.959
 5170SOL    HW116409   0.896   4.303   5.938
 5170SOL    HW216410   0.949   4.416   6.043
 5171SOL     OW16411   1.064   5.691   4.692
 5171SOL    HW116412   1.081   5.650   4.602
 5171SOL    HW216413   1.073   5.620   4.762
 5172SOL     OW16414   0.743   2.295   1.979
 5172SOL    HW116415   0.798   2.375   2.004
 5172SOL    HW216416   0.658   2.295   2.032
 5173SOL     OW16417   5.311   4.648   6.345
 5173SOL    HW116418   5.359   4.723   6.391
 5173SOL    HW216419   5.369   4.611   6.273
 5174SOL     OW16420   2.363   4.677   3.270
 5174SOL    HW116421   2.337   4.691   3.174
 5174SOL    HW216422   2.282   4.680   3.328
 5175SOL     OW16423   2.208   3.791   6.674
 5175SOL    HW116424   2.225   3.887   6.649
 5175SOL    HW216425   2.267   3.731   6.620
 5176SOL     OW16426   4.562   2.779   6.643
 5176SOL    HW116427   4.502   2.701   6.661
 5176SOL    HW216428   4.514   2.863   6.668
 5177SOL     OW16429   4.944   0.442   0.001
 5177SOL    HW116430   4.855   0.468   6.989
 5177SOL    HW216431   5.007   0.520   7.017
 5178SOL     OW16432   0.981   4.384   2.003
 5178SOL    HW116433   0.989   4.343   1.912
 5178SOL    HW216434   0.899   4.348   2.048
 5179SOL     OW16435   3.864   6.054   3.983
 5179SOL    HW116436   3.916   6.009   4.055
 5179SOL    HW216437   3.785   6.101   4.024
 5180SOL     OW16438   3.230   3.104   0.499
 5180SOL    HW116439   3.262   3.010   0.516
 5180SOL    HW216440   3.307   3.161   0.472
 5181SOL     OW16441   6.118   1.990   1.988
 5181SOL    HW116442   6.208   1.973   1.949
 5181SOL    HW216443   6.093   1.914   2.049
 5182SOL     OW16444   3.726   4.404   1.665
 5182SOL    HW116445   3.679   4.393   1.577
 5182SOL    HW216446   3.662   4.441   1.732
 5183SOL     OW16447   4.469   1.512   2.542
 5183SOL    HW116448   4.430   1.539   2.454
 5183SOL    HW216449   4.533   1.437   2.529
 5184SOL     OW16450   0.115   2.741   4.403
 5184SOL    HW116451   0.027   2.706   4.371
 5184SOL    HW216452   0.162   2.671   4.456
 5185SOL     OW16453   5.492   0.934   2.763
 5185SOL    HW116454   5.476   0.886   2.676
 5185SOL    HW216455   5.562   0.885   2.815
 5186SOL     OW16456   6.118   2.972   0.682
 5186SOL    HW116457   6.069   3.057   0.702
 5186SOL    HW216458   6.209   2.976   0.724
 5187SOL     OW16459   0.507   6.999   4.140
 5187SOL    HW116460   0.549   6.909   4.128
 5187SOL    HW216461   0.575   0.046   4.121
 5188SOL     OW16462   0.591   5.983   0.476
 5188SOL    HW116463   0.689   5.967   0.490
 5188SOL    HW216464   0.574   6.082   0.475
 5189SOL     OW16465   4.667   4.901   0.620
 5189SOL    HW116466   4.665   4.815   0.570
 5189SOL    HW216467   4.729   4.894   0.698
 5190SOL     OW16468   0.029   3.235   4.442
 5190SOL    HW116469   7.024   3.216   4.536
 5190SOL    HW216470   0.079   3.156   4.406
 5191SOL     OW16471   3.920   0.710   1.749
 5191SOL    HW116472   3.979   0.791   1.744
 5191SOL    HW216473   3.973   0.632   1.781
 5192SOL     OW16474   2.743   5.167   2.502
 5192SOL    HW116475   2.801   5.180   2.421
 5192SOL    HW216476   2.761   5.241   2.567
 5193SOL     OW16477   4.861   4.382   4.496
 5193SOL    HW116478   4.835   4.312   4.563
 5193SOL    HW216479   4.938   4.349   4.441
 5194SOL     OW16480   3.818   1.557   0.137
 5194SOL    HW116481   3.724   1.588   0.123
 5194SOL    HW216482   3.834   1.544   0.235
 5195SOL     OW16483   5.989   6.215   4.755
 5195SOL    HW116484   5.957   6.286   4.819
 5195SOL    HW216485   5.924   6.139   4.755
 5196SOL     OW16486   3.234   4.122   0.797
 5196SOL    HW116487   3.144   4.098   0.759
 5196SOL    HW216488   3.264   4.050   0.860
 5197SOL     OW16489   2.143   5.627   5.392
 5197SOL    HW116490   2.178   5.587   5.307
 5197SOL    HW216491   2.201   5.703   5.420
 5198SOL     OW16492   4.037   6.638   2.950
 5198SOL    HW116493   4.009   6.694   2.873
 5198SOL    HW216494   4.097   6.564   2.918
 5199SOL     OW16495   1.626   6.132   0.347
 5199SOL    HW116496   1.594   6.195   0.277
 5199SOL    HW216497   1.561   6.130   0.423
 5200SOL     OW16498   1.283   2.060   5.497
 5200SOL    HW116499   1.293   2.012   5.410
 5200SOL    HW216500   1.186   2.080   5.513
 5201SOL     OW16501   6.511   6.375   4.254
 5201SOL    HW116502   6.509   6.446   4.184
 5201SOL    HW216503   6.549   6.413   4.338
 5202SOL     OW16504   5.870   4.366   5.625
 5202SOL    HW116505   5.871   4.268   5.609
 5202SOL    HW216506   5.929   4.388   5.702
 5203SOL     OW16507   2.105   0.925   6.666
 5203SOL    HW116508   2.143   0.911   6.575
 5203SOL    HW216509   2.067   0.839   6.700
 5204SOL     OW16510   4.373   6.918   6.894
 5204SOL    HW116511   4.447   6.851   6.904
 5204SOL    HW216512   4.404   7.007   6.928
 5205SOL     OW16513   6.772   6.089   0.082
 5205SOL    HW116514   6.806   6.013   0.026
 5205SOL    HW216515   6.672   6.092   0.077
 5206SOL     OW16516   0.096   4.974   0.296
 5206SOL    HW116517   0.107   5.074   0.296
 5206SOL    HW216518   0.177   4.932   0.255
 5207SOL     OW16519   1.325   6.832   3.755
 5207SOL    HW116520   1.307   6.924   3.789
 5207SOL    HW216521   1.379   6.781   3.823
 5208SOL     OW16522   5.042   1.965   6.831
 5208SOL    HW116523   5.096   1.999   6.907
 5208SOL    HW216524   5.080   1.878   6.799
 5209SOL     OW16525   5.250   0.391   1.633
 5209SOL    HW116526   5.297   0.357   1.715
 5209SOL    HW216527   5.234   0.314   1.570
 5210SOL     OW16528   4.987   3.253   0.533
 5210SOL    HW116529   4.960   3.313   0.608
 5210SOL    HW216530   5.039   3.306   0.465
 5211SOL     OW16531   4.125   1.987   5.496
 5211SOL    HW116532   4.091   2.059   5.557
 5211SOL    HW216533   4.055   1.917   5.483
 5212SOL     OW16534   0.966   3.453   0.637
 5212SOL    HW116535   1.031   3.388   0.676
 5212SOL    HW216536   0.883   3.405   0.608
 5213SOL     OW16537   4.136   3.235   1.029
 5213SOL    HW116538   4.076   3.308   0.997
 5213SOL    HW216539   4.161   3.176   0.953
 5214SOL     OW16540   5.215   2.570   6.187
 5214SOL    HW116541   5.221   2.477   6.149
 5214SOL    HW216542   5.173   2.566   6.278
 5215SOL     OW16543   0.855   4.962   4.091
 5215SOL    HW116544   0.880   4.892   4.024
 5215SOL    HW216545   0.907   5.046   4.072
 5216SOL     OW16546   3.932   4.194   1.702
 5216SOL    HW116547   3.854   4.255   1.718
 5216SOL    HW216548   3.923   4.151   1.612
 5217SOL     OW16549   3.683   5.528   4.518
 5217SOL    HW116550   3.653   5.434   4.537
 5217SOL    HW216551   3.751   5.554   4.586
 5218SOL     OW16552   0.524   1.154   1.272
 5218SOL    HW116553   0.541   1.142   1.370
 5218SOL    HW216554   0.552   1.071   1.224
 5219SOL     OW16555   3.209   1.359   4.927
 5219SOL    HW116556   3.175   1.309   5.006
 5219SOL    HW216557   3.133   1.406   4.881
 5220SOL     OW16558   1.217   6.083   2.517
 5220SOL    HW116559   1.292   6.030   2.477
 5220SOL    HW216560   1.239   6.104   2.612
 5221SOL     OW16561   5.970   1.559   3.001
 5221SOL    HW116562   5.873   1.537   2.991
 5221SOL    HW216563   6.010   1.502   3.073
 5222SOL     OW16564   3.522   6.781   2.440
 5222SOL    HW116565   3.519   6.692   2.396
 5222SOL    HW216566   3.578   6.844   2.386
 5223SOL     OW16567   6.644   2.936   0.106
 5223SOL    HW116568   6.634   2.856   0.165
 5223SOL    HW216569   6.648   2.907   0.010
 5224SOL     OW16570   6.184   3.132   4.260
 5224SOL    HW116571   6.262   3.121   4.198
 5224SOL    HW216572   6.198   3.213   4.317
 5225SOL     OW16573   0.234   1.076   3.992
 5225SOL    HW116574   0.192   1.159   4.028
 5225SOL    HW216575   0.208   1.064   3.896
 5226SOL     OW16576   6.775   6.907   4.618
 5226SOL    HW116577   6.734   6.842   4.555
 5226SOL    HW216578   6.873   6.915   4.599
 5227SOL     OW16579   0.522   3.952   5.358
 5227SOL    HW116580   0.569   3.875   5.402
 5227SOL    HW216581   0.454   3.916   5.293
 5228SOL     OW16582   0.107   2.593   0.435
 5228SOL    HW116583   0.184   2.530   0.431
 5228SOL    HW216584   0.140   2.684   0.459
 5229SOL     OW16585   2.820   6.737   0.378
 5229SOL    HW116586   2.900   6.679   0.360
 5229SOL    HW216587   2.737   6.690   0.348
 5230SOL     OW16588   6.818   6.128   2.014
 5230SOL    HW116589   6.726   6.118   1.977
 5230SOL    HW216590   6.885   6.114   1.941
 5231SOL     OW16591   4.511   2.437   3.914
 5231SOL    HW116592   4.563   2.475   3.838
 5231SOL    HW216593   4.552   2.351   3.942
 5232SOL     OW16594   1.496   3.721   6.206
 5232SOL    HW116595   1.570   3.663   6.239
 5232SOL    HW216596   1.525   3.770   6.124
 5233SOL     OW16597   4.608   1.281   2.533
 5233SOL    HW116598   4.555   1.268   2.450
 5233SOL    HW216599   4.559   1.241   2.611
 5234SOL     OW16600   2.540   2.304   5.829
 5234SOL    HW116601   2.519   2.320   5.925
 5234SOL    HW216602   2.581   2.386   5.789
 5235SOL     OW16603   1.688   2.875   0.984
 5235SOL    HW116604   1.723   2.841   1.072
 5235SOL    HW216605   1.617   2.943   1.001
 5236SOL     OW16606   4.274   5.556   2.221
 5236SOL    HW116607   4.255   5.499   2.141
 5236SOL    HW216608   4.266   5.652   2.196
 5237SOL     OW16609   0.890   0.795   4.995
 5237SOL    HW116610   0.977   0.750   5.015
 5237SOL    HW216611   0.887   0.883   5.043
 5238SOL     OW16612   0.906   5.047   0.339
 5238SOL    HW116613   0.869   5.091   0.421
 5238SOL    HW216614   0.875   5.096   0.258
 5239SOL     OW16615   3.763   2.445   6.173
 5239SOL    HW116616   3.812   2.376   6.120
 5239SOL    HW216617   3.775   2.535   6.131
 5240SOL     OW16618   3.175   2.300   5.439
 5240SOL    HW116619   3.222   2.219   5.475
 5240SOL    HW216620   3.183   2.300   5.339
 5241SOL     OW16621   6.978   5.497   4.380
 5241SOL    HW116622   6.981   5.427   4.309
 5241SOL    HW216623   7.000   5.455   4.469
 5242SOL     OW16624   6.596   0.080   0.184
 5242SOL    HW116625   6.585   0.176   0.158
 5242SOL    HW216626   6.636   0.074   0.275
 5243SOL     OW16627   1.793   5.881   1.556
 5243SOL    HW116628   1.876   5.917   1.514
 5243SOL    HW216629   1.814   5.847   1.648
 5244SOL     OW16630   3.456   4.433   5.926
 5244SOL    HW116631   3.378   4.380   5.960
 5244SOL    HW216632   3.438   4.530   5.937
 5245SOL     OW16633   4.046   4.118   0.231
 5245SOL    HW116634   3.959   4.144   0.273
 5245SOL    HW216635   4.120   4.166   0.277
 5246SOL     OW16636   6.004   2.652   1.179
 5246SOL    HW116637   6.097   2.623   1.201
 5246SOL    HW216638   5.988   2.743   1.216
 5247SOL     OW16639   2.652   0.377   6.162
 5247SOL    HW116640   2.630   0.458   6.217
 5247SOL    HW216641   2.741   0.389   6.119
 5248SOL     OW16642   6.270   1.237   2.919
 5248SOL    HW116643   6.200   1.307   2.908
 5248SOL    HW216644   6.279   1.214   3.016
 5249SOL     OW16645   0.754   5.574   6.357
 5249SOL    HW116646   0.845   5.593   6.321
 5249SOL    HW216647   0.692   5.552   6.282
 5250SOL     OW16648   2.393   5.746   6.984
 5250SOL    HW116649   2.430   5.835   7.011
 5250SOL    HW216650   2.394   5.684   0.039
 5251SOL     OW16651   0.709   3.620   6.680
 5251SOL    HW116652   0.687   3.603   6.776
 5251SOL    HW216653   0.807   3.603   6.665
 5252SOL     OW16654   2.153   6.084   0.529
 5252SOL    HW116655   2.201   6.118   0.448
 5252SOL    HW216656   2.054   6.086   0.513
 5253SOL     OW16657   6.647   4.109   4.438
 5253SOL    HW116658   6.573   4.047   4.410
 5253SOL    HW216659   6.610   4.200   4.456
 5254SOL     OW16660   5.195   1.046   3.050
 5254SOL    HW116661   5.170   0.972   2.987
 5254SOL    HW216662   5.284   1.083   3.024
 5255SOL     OW16663   5.594   2.248   4.913
 5255SOL    HW116664   5.569   2.153   4.933
 5255SOL    HW216665   5.531   2.310   4.960
 5256SOL     OW16666   4.826   1.820   3.944
 5256SOL    HW116667   4.850   1.915   3.928
 5256SOL    HW216668   4.838   1.767   3.860
 5257SOL     OW16669   5.507   0.104   2.120
 5257SOL    HW116670   5.416   0.082   2.086
 5257SOL    HW216671   5.573   0.097   2.046
 5258SOL     OW16672   6.180   3.170   1.576
 5258SOL    HW116673   6.264   3.135   1.536
 5258SOL    HW216674   6.188   3.173   1.675
 5259SOL     OW16675   4.731   6.557   2.334
 5259SOL    HW116676   4.708   6.604   2.249
 5259SOL    HW216677   4.648   6.525   2.378
 5260SOL     OW16678   4.866   3.402   0.726
 5260SOL    HW116679   4.861   3.450   0.814
 5260SOL    HW216680   4.774   3.395   0.687
 5261SOL     OW16681   1.153   4.001   6.170
 5261SOL    HW116682   1.089   4.077   6.182
 5261SOL    HW216683   1.169   3.985   6.073
 5262SOL     OW16684   2.495   1.213   4.176
 5262SOL    HW116685   2.439   1.272   4.118
 5262SOL    HW216686   2.567   1.170   4.122
 5263SOL     OW16687   1.838   1.283   3.502
 5263SOL    HW116688   1.842   1.361   3.564
 5263SOL    HW216689   1.757   1.228   3.522
 5264SOL     OW16690   0.017   2.234   1.962
 5264SOL    HW116691   0.041   2.301   1.892
 5264SOL    HW216692   6.965   2.177   1.931
 5265SOL     OW16693   6.101   3.994   3.794
 5265SOL    HW116694   6.042   3.953   3.863
 5265SOL    HW216695   6.055   3.993   3.706
 5266SOL     OW16696   3.215   5.018   6.876
 5266SOL    HW116697   3.166   4.954   6.817
 5266SOL    HW216698   3.186   5.111   6.856
 5267SOL     OW16699   5.159   2.906   4.689
 5267SOL    HW116700   5.167   2.964   4.770
 5267SOL    HW216701   5.233   2.838   4.689
 5268SOL     OW16702   5.445   1.535   0.354
 5268SOL    HW116703   5.474   1.443   0.327
 5268SOL    HW216704   5.443   1.541   0.454
 5269SOL     OW16705   1.062   5.742   2.818
 5269SOL    HW116706   0.999   5.810   2.854
 5269SOL    HW216707   1.081   5.761   2.722
 5270SOL     OW16708   5.997   1.248   1.339
 5270SOL    HW116709   5.903   1.281   1.339
 5270SOL    HW216710   6.020   1.214   1.247
 5271SOL     OW16711   6.398   5.478   5.758
 5271SOL    HW116712   6.321   5.500   5.699
 5271SOL    HW216713   6.367   5.466   5.852
 5272SOL     OW16714   3.321   5.744   1.854
 5272SOL    HW116715   3.413   5.728   1.891
 5272SOL    HW216716   3.317   5.835   1.814
 5273SOL     OW16717   0.019   2.713   3.952
 5273SOL    HW116718   0.023   2.618   3.921
 5273SOL    HW216719   0.085   2.727   4.026
 5274SOL     OW16720   5.774   6.795   2.637
 5274SOL    HW116721   5.684   6.752   2.636
 5274SOL    HW216722   5.802   6.819   2.544
 5275SOL     OW16723   4.067   1.956   0.855
 5275SOL    HW116724   3.986   1.928   0.907
 5275SOL    HW216725   4.051   1.940   0.758
 5276SOL     OW16726   1.952   6.849   0.842
 5276SOL    HW116727   1.968   6.755   0.872
 5276SOL    HW216728   1.929   6.849   0.745
 5277SOL     OW16729   2.085   1.393   2.187
 5277SOL    HW116730   2.123   1.411   2.278
 5277SOL    HW216731   1.990   1.363   2.196
 5278SOL     OW16732   6.094   6.840   3.884
 5278SOL    HW116733   6.038   6.758   3.874
 5278SOL    HW216734   6.179   6.817   3.931
 5279SOL     OW16735   2.754   5.350   6.359
 5279SOL    HW116736   2.763   5.257   6.394
 5279SOL    HW216737   2.710   5.349   6.269
 5280SOL     OW16738   2.708   5.748   4.633
 5280SOL    HW116739   2.694   5.803   4.550
 5280SOL    HW216740   2.712   5.808   4.713
 5281SOL     OW16741   0.388   2.452   2.486
 5281SOL    HW116742   0.429   2.389   2.552
 5281SOL    HW216743   0.341   2.400   2.415
 5282SOL     OW16744   2.995   1.906   4.028
 5282SOL    HW116745   2.961   1.928   4.119
 5282SOL    HW216746   2.946   1.961   3.960
 5283SOL     OW16747   4.330   6.823   1.586
 5283SOL    HW116748   4.284   6.866   1.664
 5283SOL    HW216749   4.319   6.879   1.505
 5284SOL     OW16750   4.858   3.893   3.209
 5284SOL    HW116751   4.783   3.958   3.200
 5284SOL    HW216752   4.933   3.936   3.260
 5285SOL     OW16753   2.407   4.855   4.014
 5285SOL    HW116754   2.331   4.862   3.950
 5285SOL    HW216755   2.374   4.874   4.107
 5286SOL     OW16756   1.741   4.785   0.311
 5286SOL    HW116757   1.730   4.853   0.238
 5286SOL    HW216758   1.838   4.771   0.329
 5287SOL     OW16759   3.134   6.945   0.749
 5287SOL    HW116760   3.103   6.870   0.689
 5287SOL    HW216761   3.118   6.919   0.844
 5288SOL     OW16762   3.208   7.010   2.160
 5288SOL    HW116763   3.276   6.976   2.226
 5288SOL    HW216764   3.242   0.071   2.119
 5289SOL     OW16765   2.043   5.093   6.677
 5289SOL    HW116766   2.035   5.102   6.577
 5289SOL    HW216767   2.020   5.180   6.719
 5290SOL     OW16768   2.070   6.014   4.859
 5290SOL    HW116769   1.985   6.004   4.808
 5290SOL    HW216770   2.121   5.928   4.857
 5291SOL     OW16771   2.682   5.441   5.940
 5291SOL    HW116772   2.649   5.405   6.027
 5291SOL    HW216773   2.703   5.538   5.950
 5292SOL     OW16774   6.648   3.021   6.504
 5292SOL    HW116775   6.589   3.041   6.426
 5292SOL    HW216776   6.657   3.104   6.560
 5293SOL     OW16777   0.180   0.677   4.785
 5293SOL    HW116778   0.208   0.768   4.815
 5293SOL    HW216779   0.218   0.660   4.693
 5294SOL     OW16780   4.560   3.547   5.760
 5294SOL    HW116781   4.567   3.529   5.859
 5294SOL    HW216782   4.595   3.638   5.740
 5295SOL     OW16783   6.209   0.352   2.819
 5295SOL    HW116784   6.284   0.302   2.862
 5295SOL    HW216785   6.136   0.288   2.794
 5296SOL     OW16786   2.089   5.177   0.130
 5296SOL    HW116787   2.087   5.095   0.074
 5296SOL    HW216788   2.141   5.248   0.083
 5297SOL     OW16789   2.210   1.942   1.694
 5297SOL    HW116790   2.254   2.019   1.739
 5297SOL    HW216791   2.260   1.858   1.714
 5298SOL     OW16792   0.350   5.683   1.082
 5298SOL    HW116793   0.252   5.702   1.083
 5298SOL    HW216794   0.378   5.650   1.172
 5299SOL     OW16795   2.651   1.931   0.640
 5299SOL    HW116796   2.663   2.002   0.571
 5299SOL    HW216797   2.596   1.966   0.716
 5300SOL     OW16798   0.320   5.762   2.686
 5300SOL    HW116799   0.362   5.808   2.764
 5300SOL    HW216800   0.258   5.825   2.639
 5301SOL     OW16801   4.598   1.303   0.490
 5301SOL    HW116802   4.521   1.242   0.505
 5301SOL    HW216803   4.645   1.278   0.405
 5302SOL     OW16804   5.572   4.993   3.415
 5302SOL    HW116805   5.534   4.943   3.493
 5302SOL    HW216806   5.669   5.012   3.431
 5303SOL     OW16807   0.167   5.996   3.896
 5303SOL    HW116808   0.147   6.077   3.842
 5303SOL    HW216809   0.097   5.927   3.880
 5304SOL     OW16810   6.297   2.316   5.785
 5304SOL    HW116811   6.287   2.327   5.884
 5304SOL    HW216812   6.391   2.289   5.764
 5305SOL     OW16813   1.536   6.519   4.333
 5305SOL    HW116814   1.552   6.487   4.427
 5305SOL    HW216815   1.454   6.475   4.297
 5306SOL     OW16816   1.303   5.452   4.823
 5306SOL    HW116817   1.335   5.493   4.738
 5306SOL    HW216818   1.377   5.397   4.863
 5307SOL     OW16819   4.161   6.383   0.078
 5307SOL    HW116820   4.179   6.473   0.039
 5307SOL    HW216821   4.167   6.388   0.177
 5308SOL     OW16822   0.695   6.845   4.774
 5308SOL    HW116823   0.744   6.758   4.767
 5308SOL    HW216824   0.752   6.918   4.737
 5309SOL     OW16825   3.340   4.164   2.424
 5309SOL    HW116826   3.289   4.250   2.417
 5309SOL    HW216827   3.371   4.136   2.333
 5310SOL     OW16828   5.441   2.826   2.312
 5310SOL    HW116829   5.505   2.832   2.388
 5310SOL    HW216830   5.360   2.882   2.331
 5311SOL     OW16831   0.082   6.028   0.887
 5311SOL    HW116832   7.023   6.033   0.944
 5311SOL    HW216833   0.095   5.933   0.857
 5312SOL     OW16834   6.858   4.607   2.142
 5312SOL    HW116835   6.770   4.562   2.155
 5312SOL    HW216836   6.877   4.667   2.220
 5313SOL     OW16837   1.198   5.417   0.134
 5313SOL    HW116838   1.199   5.409   0.234
 5313SOL    HW216839   1.129   5.484   0.107
 5314SOL     OW16840   4.408   4.775   0.686
 5314SOL    HW116841   4.361   4.785   0.774
 5314SOL    HW216842   4.485   4.839   0.681
 5315SOL     OW16843   4.213   4.486   1.767
 5315SOL    HW116844   4.246   4.534   1.686
 5315SOL    HW216845   4.227   4.387   1.755
 5316SOL     OW16846   6.052   5.062   4.945
 5316SOL    HW116847   6.036   5.106   4.857
 5316SOL    HW216848   5.964   5.043   4.989
 5317SOL     OW16849   6.246   1.388   4.736
 5317SOL    HW116850   6.260   1.355   4.829
 5317SOL    HW216851   6.333   1.420   4.698
 5318SOL     OW16852   0.413   1.796   5.803
 5318SOL    HW116853   0.346   1.726   5.780
 5318SOL    HW216854   0.469   1.764   5.880
 5319SOL     OW16855   4.675   6.994   0.017
 5319SOL    HW116856   4.602   0.039   0.017
 5319SOL    HW216857   4.678   6.948   0.105
 5320SOL     OW16858   5.879   5.194   0.032
 5320SOL    HW116859   5.878   5.156   0.125
 5320SOL    HW216860   5.812   5.146   7.000
 5321SOL     OW16861   1.119   5.662   2.511
 5321SOL    HW116862   1.036   5.620   2.550
 5321SOL    HW216863   1.182   5.590   2.482
 5322SOL     OW16864   4.266   6.692   6.285
 5322SOL    HW116865   4.283   6.679   6.383
 5322SOL    HW216866   4.283   6.607   6.237
 5323SOL     OW16867   3.885   3.002   0.835
 5323SOL    HW116868   3.907   2.921   0.889
 5323SOL    HW216869   3.961   3.024   0.774
 5324SOL     OW16870   3.861   2.546   1.703
 5324SOL    HW116871   3.866   2.633   1.752
 5324SOL    HW216872   3.787   2.490   1.741
 5325SOL     OW16873   5.843   6.515   3.410
 5325SOL    HW116874   5.867   6.480   3.500
 5325SOL    HW216875   5.908   6.586   3.383
 5326SOL     OW16876   6.168   5.266   2.577
 5326SOL    HW116877   6.134   5.298   2.488
 5326SOL    HW216878   6.212   5.178   2.567
 5327SOL     OW16879   0.725   5.998   5.735
 5327SOL    HW116880   0.811   6.025   5.692
 5327SOL    HW216881   0.684   5.923   5.683
 5328SOL     OW16882   3.762   2.288   5.564
 5328SOL    HW116883   3.734   2.204   5.518
 5328SOL    HW216884   3.810   2.348   5.500
 5329SOL     OW16885   0.503   4.045   6.545
 5329SOL    HW116886   0.431   4.112   6.525
 5329SOL    HW216887   0.463   3.954   6.552
 5330SOL     OW16888   3.273   4.230   6.946
 5330SOL    HW116889   3.312   4.144   6.979
 5330SOL    HW216890   3.292   4.303   7.013
 5331SOL     OW16891   5.194   1.222   1.354
 5331SOL    HW116892   5.213   1.182   1.443
 5331SOL    HW216893   5.280   1.247   1.310
 5332SOL     OW16894   6.495   4.259   0.165
 5332SOL    HW116895   6.432   4.336   0.156
 5332SOL    HW216896   6.448   4.183   0.211
 5333SOL     OW16897   1.100   0.583   3.736
 5333SOL    HW116898   1.050   0.515   3.682
 5333SOL    HW216899   1.192   0.548   3.756
 5334SOL     OW16900   4.174   5.136   5.127
 5334SOL    HW116901   4.109   5.061   5.109
 5334SOL    HW216902   4.131   5.223   5.104
 5335SOL     OW16903   0.200   4.854   2.074
 5335SOL    HW116904   0.172   4.764   2.041
 5335SOL    HW216905   0.192   4.921   2.000
 5336SOL     OW16906   2.419   1.871   3.489
 5336SOL    HW116907   2.470   1.811   3.552
 5336SOL    HW216908   2.466   1.874   3.401
 5337SOL     OW16909   5.708   5.354   2.372
 5337SOL    HW116910   5.672   5.409   2.297
 5337SOL    HW216911   5.695   5.403   2.459
 5338SOL     OW16912   5.488   1.644   6.983
 5338SOL    HW116913   5.503   1.717   0.025
 5338SOL    HW216914   5.569   1.586   6.978
 5339SOL     OW16915   5.724   1.473   2.150
 5339SOL    HW116916   5.711   1.393   2.091
 5339SOL    HW216917   5.822   1.484   2.170
 5340SOL     OW16918   5.593   3.510   1.231
 5340SOL    HW116919   5.639   3.425   1.257
 5340SOL    HW216920   5.546   3.548   1.310
 5341SOL     OW16921   3.609   4.947   5.011
 5341SOL    HW116922   3.557   4.904   5.085
 5341SOL    HW216923   3.698   4.977   5.045
 5342SOL     OW16924   4.519   6.469   4.809
 5342SOL    HW116925   4.563   6.380   4.819
 5342SOL    HW216926   4.532   6.523   4.892
 5343SOL     OW16927   3.758   3.620   4.867
 5343SOL    HW116928   3.697   3.687   4.908
 5343SOL    HW216929   3.710   3.572   4.793
 5344SOL     OW16930   0.647   1.324   6.726
 5344SOL    HW116931   0.695   1.372   6.799
 5344SOL    HW216932   0.653   1.225   6.741
 5345SOL     OW16933   4.972   0.779   6.882
 5345SOL    HW116934   4.907   0.809   6.952
 5345SOL    HW216935   4.923   0.729   6.810
 5346SOL     OW16936   2.306   4.963   4.258
 5346SOL    HW116937   2.327   5.015   4.340
 5346SOL    HW216938   2.212   4.983   4.229
 5347SOL     OW16939   6.883   3.645   3.340
 5347SOL    HW116940   6.796   3.656   3.292
 5347SOL    HW216941   6.867   3.602   3.429
 5348SOL     OW16942   0.477   0.965   5.768
 5348SOL    HW116943   0.390   0.925   5.736
 5348SOL    HW216944   0.503   1.040   5.709
 5349SOL     OW16945   2.403   3.168   1.335
 5349SOL    HW116946   2.431   3.256   1.373
 5349SOL    HW216947   2.311   3.146   1.367
 5350SOL     OW16948   2.344   6.290   5.291
 5350SOL    HW116949   2.259   6.255   5.251
 5350SOL    HW216950   2.402   6.326   5.218
 5351SOL     OW16951   0.319   5.362   2.171
 5351SOL    HW116952   0.359   5.281   2.128
 5351SOL    HW216953   0.253   5.334   2.240
 5352SOL     OW16954   2.249   4.230   3.087
 5352SOL    HW116955   2.253   4.182   3.000
 5352SOL    HW216956   2.306   4.312   3.082
 5353SOL     OW16957   3.980   5.084   3.351
 5353SOL    HW116958   3.952   4.989   3.364
 5353SOL    HW216959   4.076   5.094   3.379
 5354SOL     OW16960   2.736   4.403   0.121
 5354SOL    HW116961   2.726   4.326   0.058
 5354SOL    HW216962   2.705   4.487   0.077
 5355SOL     OW16963   5.549   4.239   4.975
 5355SOL    HW116964   5.559   4.317   4.913
 5355SOL    HW216965   5.614   4.248   5.050
 5356SOL     OW16966   6.947   3.667   1.776
 5356SOL    HW116967   6.876   3.659   1.846
 5356SOL    HW216968   6.904   3.667   1.685
 5357SOL     OW16969   4.092   4.581   1.397
 5357SOL    HW116970   4.171   4.583   1.459
 5357SOL    HW216971   4.080   4.489   1.360
 5358SOL     OW16972   4.727   1.997   0.674
 5358SOL    HW116973   4.636   1.956   0.670
 5358SOL    HW216974   4.724   2.080   0.729
 5359SOL     OW16975   1.816   1.821   6.370
 5359SOL    HW116976   1.841   1.788   6.460
 5359SOL    HW216977   1.832   1.920   6.365
 5360SOL     OW16978   5.554   5.602   3.650
 5360SOL    HW116979   5.497   5.648   3.581
 5360SOL    HW216980   5.571   5.508   3.621
 5361SOL     OW16981   1.933   6.389   3.911
 5361SOL    HW116982   1.855   6.441   3.878
 5361SOL    HW216983   2.009   6.450   3.930
 5362SOL     OW16984   6.292   6.819   2.686
 5362SOL    HW116985   6.314   6.730   2.726
 5362SOL    HW216986   6.210   6.855   2.728
 5363SOL     OW16987   5.054   6.574   5.207
 5363SOL    HW116988   4.981   6.632   5.171
 5363SOL    HW216989   5.132   6.632   5.233
 5364SOL     OW16990   5.791   0.031   2.412
 5364SOL    HW116991   5.735   0.059   2.490
 5364SOL    HW216992   5.888   0.043   2.434
 5365SOL     OW16993   3.447   3.069   2.612
 5365SOL    HW116994   3.376   3.131   2.580
 5365SOL    HW216995   3.434   2.979   2.572
 5366SOL     OW16996   6.902   0.516   2.336
 5366SOL    HW116997   6.845   0.499   2.416
 5366SOL    HW216998   6.847   0.508   2.253
 5367SOL     OW16999   6.767   0.133   0.859
 5367SOL    HW117000   6.773   0.058   0.793
 5367SOL    HW217001   6.818   0.109   0.941
 5368SOL     OW17002   6.264   5.974   2.301
 5368SOL    HW117003   6.276   5.875   2.289
 5368SOL    HW217004   6.169   5.993   2.326
 5369SOL     OW17005   2.907   5.716   1.399
 5369SOL    HW117006   2.967   5.681   1.471
 5369SOL    HW217007   2.955   5.713   1.311
 5370SOL     OW17008   4.634   3.655   1.317
 5370SOL    HW117009   4.563   3.646   1.248
 5370SOL    HW217010   4.595   3.638   1.408
 5371SOL     OW17011   7.005   5.064   5.502
 5371SOL    HW117012   6.908   5.082   5.518
 5371SOL    HW217013   0.006   4.977   5.544
 5372SOL     OW17014   1.517   6.575   2.721
 5372SOL    HW117015   1.486   6.523   2.801
 5372SOL    HW217016   1.511   6.673   2.741
 5373SOL     OW17017   3.721   6.810   5.841
 5373SOL    HW117018   3.627   6.793   5.873
 5373SOL    HW217019   3.722   6.891   5.783
 5374SOL     OW17020   2.786   4.200   1.024
 5374SOL    HW117021   2.787   4.119   0.965
 5374SOL    HW217022   2.824   4.177   1.113
 5375SOL     OW17023   0.403   5.330   5.502
 5375SOL    HW117024   0.498   5.362   5.507
 5375SOL    HW217025   0.359   5.369   5.421
 5376SOL     OW17026   1.391   2.232   1.922
 5376SOL    HW117027   1.402   2.277   2.010
 5376SOL    HW217028   1.457   2.157   1.914
 5377SOL     OW17029   1.298   0.593   2.694
 5377SOL    HW117030   1.263   0.680   2.731
 5377SOL    HW217031   1.384   0.570   2.739
 5378SOL     OW17032   6.941   0.517   1.680
 5378SOL    HW117033   6.951   0.499   1.778
 5378SOL    HW217034   6.940   0.431   1.630
 5379SOL     OW17035   1.355   3.068   5.103
 5379SOL    HW117036   1.295   3.127   5.049
 5379SOL    HW217037   1.427   3.031   5.044
 5380SOL     OW17038   3.146   0.252   1.229
 5380SOL    HW117039   3.108   0.221   1.141
 5380SOL    HW217040   3.236   0.293   1.214
 5381SOL     OW17041   6.037   6.068   2.690
 5381SOL    HW117042   6.012   6.077   2.593
 5381SOL    HW217043   5.978   6.000   2.733
 5382SOL     OW17044   3.046   2.101   2.883
 5382SOL    HW117045   2.993   2.177   2.920
 5382SOL    HW217046   2.991   2.053   2.814
 5383SOL     OW17047   1.812   2.936   4.612
 5383SOL    HW117048   1.876   2.864   4.585
 5383SOL    HW217049   1.837   3.022   4.567
 5384SOL     OW17050   4.865   5.588   4.847
 5384SOL    HW117051   4.882   5.507   4.903
 5384SOL    HW217052   4.768   5.609   4.846
 5385SOL     OW17053   5.690   3.128   4.538
 5385SOL    HW117054   5.657   3.203   4.597
 5385SOL    HW217055   5.721   3.166   4.451
 5386SOL     OW17056   5.966   1.448   3.904
 5386SOL    HW117057   5.889   1.461   3.966
 5386SOL    HW217058   5.973   1.351   3.879
 5387SOL     OW17059   2.578   6.584   3.723
 5387SOL    HW117060   2.575   6.541   3.633
 5387SOL    HW217061   2.664   6.634   3.734
 5388SOL     OW17062   1.685   6.652   2.972
 5388SOL    HW117063   1.631   6.568   2.977
 5388SOL    HW217064   1.642   6.717   2.909
 5389SOL     OW17065   3.961   1.943   4.872
 5389SOL    HW117066   3.885   1.882   4.849
 5389SOL    HW217067   3.977   2.006   4.795
 5390SOL     OW17068   5.063   4.128   4.015
 5390SOL    HW117069   5.107   4.192   4.078
 5390SOL    HW217070   5.115   4.043   4.012
 5391SOL     OW17071   2.920   1.923   0.388
 5391SOL    HW117072   2.864   1.986   0.334
 5391SOL    HW217073   2.861   1.862   0.441
 5392SOL     OW17074   4.957   3.925   2.129
 5392SOL    HW117075   4.936   4.006   2.075
 5392SOL    HW217076   4.910   3.845   2.089
 5393SOL     OW17077   4.292   1.283   5.426
 5393SOL    HW117078   4.295   1.323   5.517
 5393SOL    HW217079   4.373   1.224   5.413
 5394SOL     OW17080   0.514   6.253   0.902
 5394SOL    HW117081   0.508   6.241   1.001
 5394SOL    HW217082   0.483   6.169   0.857
 5395SOL     OW17083   4.700   1.158   0.943
 5395SOL    HW117084   4.771   1.222   0.971
 5395SOL    HW217085   4.633   1.206   0.886
 5396SOL     OW17086   5.165   5.796   1.717
 5396SOL    HW117087   5.110   5.798   1.634
 5396SOL    HW217088   5.129   5.726   1.779
 5397SOL     OW17089   6.993   1.932   1.484
 5397SOL    HW117090   6.937   1.966   1.560
 5397SOL    HW217091   6.973   1.984   1.401
 5398SOL     OW17092   3.564   2.115   3.542
 5398SOL    HW117093   3.516   2.120   3.630
 5398SOL    HW217094   3.662   2.127   3.557
 5399SOL     OW17095   2.790   6.420   5.954
 5399SOL    HW117096   2.753   6.466   6.034
 5399SOL    HW217097   2.826   6.488   5.890
 5400SOL     OW17098   3.146   3.517   1.050
 5400SOL    HW117099   3.088   3.582   1.000
 5400SOL    HW217100   3.134   3.426   1.012
 5401SOL     OW17101   5.545   4.437   2.675
 5401SOL    HW117102   5.493   4.399   2.599
 5401SOL    HW217103   5.601   4.513   2.643
 5402SOL     OW17104   3.347   6.554   0.736
 5402SOL    HW117105   3.279   6.499   0.786
 5402SOL    HW217106   3.429   6.564   0.791
 5403SOL     OW17107   5.262   2.914   6.867
 5403SOL    HW117108   5.190   2.981   6.847
 5403SOL    HW217109   5.260   2.891   6.964
 5404SOL     OW17110   1.016   0.894   0.668
 5404SOL    HW117111   1.108   0.858   0.681
 5404SOL    HW217112   1.020   0.974   0.608
 5405SOL     OW17113   6.253   5.078   0.281
 5405SOL    HW117114   6.252   5.034   0.371
 5405SOL    HW217115   6.256   5.009   0.210
 5406SOL     OW17116   2.114   1.072   4.864
 5406SOL    HW117117   2.073   1.133   4.932
 5406SOL    HW217118   2.084   0.978   4.882
 5407SOL     OW17119   2.945   1.648   0.635
 5407SOL    HW117120   3.000   1.597   0.569
 5407SOL    HW217121   3.005   1.689   0.704
 5408SOL     OW17122   3.093   1.515   4.739
 5408SOL    HW117123   3.191   1.522   4.726
 5408SOL    HW217124   3.061   1.425   4.707
 5409SOL     OW17125   6.566   1.824   1.961
 5409SOL    HW117126   6.551   1.734   1.920
 5409SOL    HW217127   6.585   1.812   2.059
 5410SOL     OW17128   0.707   3.227   0.120
 5410SOL    HW117129   0.796   3.269   0.100
 5410SOL    HW217130   0.636   3.297   0.116
 5411SOL     OW17131   5.346   4.737   0.284
 5411SOL    HW117132   5.318   4.818   0.233
 5411SOL    HW217133   5.416   4.687   0.232
 5412SOL     OW17134   2.523   1.163   6.057
 5412SOL    HW117135   2.610   1.149   6.104
 5412SOL    HW217136   2.450   1.175   6.124
 5413SOL     OW17137   6.916   6.702   6.377
 5413SOL    HW117138   6.976   6.711   6.456
 5413SOL    HW217139   6.832   6.655   6.404
 5414SOL     OW17140   6.753   4.615   5.546
 5414SOL    HW117141   6.738   4.706   5.582
 5414SOL    HW217142   6.783   4.621   5.451
 5415SOL     OW17143   3.258   5.789   0.391
 5415SOL    HW117144   3.167   5.767   0.425
 5415SOL    HW217145   3.251   5.822   0.297
 5416SOL     OW17146   2.750   5.305   5.062
 5416SOL    HW117147   2.816   5.308   4.987
 5416SOL    HW217148   2.676   5.242   5.039
 5417SOL     OW17149   3.626   6.681   4.153
 5417SOL    HW117150   3.690   6.698   4.078
 5417SOL    HW217151   3.628   6.584   4.177
 5418SOL     OW17152   5.416   5.545   4.815
 5418SOL    HW117153   5.510   5.570   4.834
 5418SOL    HW217154   5.362   5.549   4.899
 5419SOL     OW17155   4.535   6.403   0.035
 5419SOL    HW117156   4.552   6.460   0.116
 5419SOL    HW217157   4.468   6.333   0.058
 5420SOL     OW17158   2.074   1.949   0.859
 5420SOL    HW117159   2.021   2.034   0.861
 5420SOL    HW217160   2.170   1.969   0.878
 5421SOL     OW17161   3.197   5.412   1.735
 5421SOL    HW117162   3.170   5.452   1.822
 5421SOL    HW217163   3.230   5.319   1.749
 5422SOL     OW17164   2.025   5.770   4.206
 5422SOL    HW117165   1.974   5.691   4.239
 5422SOL    HW217166   1.981   5.808   4.125
 5423SOL     OW17167   6.213   5.461   1.137
 5423SOL    HW117168   6.295   5.486   1.086
 5423SOL    HW217169   6.160   5.395   1.084
 5424SOL     OW17170   4.912   3.744   4.228
 5424SOL    HW117171   5.003   3.738   4.268
 5424SOL    HW217172   4.843   3.730   4.300
 5425SOL     OW17173   6.261   2.872   4.464
 5425SOL    HW117174   6.358   2.862   4.487
 5425SOL    HW217175   6.251   2.932   4.386
 5426SOL     OW17176   4.475   5.716   2.431
 5426SOL    HW117177   4.393   5.686   2.383
 5426SOL    HW217178   4.518   5.636   2.475
 5427SOL     OW17179   4.761   2.666   0.080
 5427SOL    HW117180   4.711   2.633   0.160
 5427SOL    HW217181   4.705   2.732   0.031
 5428SOL     OW17182   5.142   6.704   2.171
 5428SOL    HW117183   5.112   6.794   2.205
 5428SOL    HW217184   5.064   6.642   2.169
 5429SOL     OW17185   2.002   0.098   4.583
 5429SOL    HW117186   2.069   0.025   4.565
 5429SOL    HW217187   1.911   0.068   4.554
 5430SOL     OW17188   2.051   2.818   5.807
 5430SOL    HW117189   1.964   2.783   5.770
 5430SOL    HW217190   2.070   2.908   5.769
 5431SOL     OW17191   3.335   4.363   6.280
 5431SOL    HW117192   3.275   4.420   6.337
 5431SOL    HW217193   3.364   4.415   6.200
 5432SOL     OW17194   5.283   5.409   0.280
 5432SOL    HW117195   5.315   5.342   0.347
 5432SOL    HW217196   5.359   5.436   0.221
 5433SOL     OW17197   1.824   0.436   1.002
 5433SOL    HW117198   1.735   0.417   1.044
 5433SOL    HW217199   1.811   0.493   0.921
 5434SOL     OW17200   4.709   0.688   4.897
 5434SOL    HW117201   4.615   0.659   4.877
 5434SOL    HW217202   4.707   0.777   4.942
 5435SOL     OW17203   6.458   3.907   1.063
 5435SOL    HW117204   6.448   3.996   1.017
 5435SOL    HW217205   6.409   3.838   1.011
 5436SOL     OW17206   6.584   5.276   4.133
 5436SOL    HW117207   6.525   5.244   4.058
 5436SOL    HW217208   6.633   5.198   4.172
 5437SOL     OW17209   3.864   4.547   5.574
 5437SOL    HW117210   3.787   4.494   5.610
 5437SOL    HW217211   3.915   4.492   5.509
 5438SOL     OW17212   4.987   4.978   2.142
 5438SOL    HW117213   5.056   5.051   2.146
 5438SOL    HW217214   4.992   4.923   2.225
 5439SOL     OW17215   1.214   3.712   0.112
 5439SOL    HW117216   1.161   3.796   0.124
 5439SOL    HW217217   1.167   3.651   0.048
 5440SOL     OW17218   5.822   6.788   3.647
 5440SOL    HW117219   5.905   6.801   3.592
 5440SOL    HW217220   5.848   6.756   3.738
 5441SOL     OW17221   5.638   3.454   3.041
 5441SOL    HW117222   5.627   3.459   2.942
 5441SOL    HW217223   5.599   3.368   3.074
 5442SOL     OW17224   3.862   7.009   3.021
 5442SOL    HW117225   3.817   6.932   3.065
 5442SOL    HW217226   3.896   6.982   2.931
 5443SOL     OW17227   4.310   6.534   3.932
 5443SOL    HW117228   4.366   6.510   3.852
 5443SOL    HW217229   4.215   6.509   3.915
 5444SOL     OW17230   6.923   1.515   4.127
 5444SOL    HW117231   6.852   1.584   4.114
 5444SOL    HW217232   6.887   1.440   4.184
 5445SOL     OW17233   5.042   4.306   3.734
 5445SOL    HW117234   5.107   4.285   3.807
 5445SOL    HW217235   5.091   4.323   3.649
 5446SOL     OW17236   6.025   4.447   4.545
 5446SOL    HW117237   6.104   4.454   4.484
 5446SOL    HW217238   5.944   4.481   4.499
 5447SOL     OW17239   1.961   1.682   0.871
 5447SOL    HW117240   2.004   1.771   0.852
 5447SOL    HW217241   2.018   1.631   0.935
 5448SOL     OW17242   4.671   5.497   4.028
 5448SOL    HW117243   4.757   5.454   4.057
 5448SOL    HW217244   4.671   5.593   4.055
 5449SOL     OW17245   2.476   1.057   1.613
 5449SOL    HW117246   2.499   0.984   1.548
 5449SOL    HW217247   2.455   1.140   1.563
 5450SOL     OW17248   3.950   6.452   1.107
 5450SOL    HW117249   3.985   6.537   1.068
 5450SOL    HW217250   3.863   6.470   1.154
 5451SOL     OW17251   1.290   6.211   3.435
 5451SOL    HW117252   1.323   6.237   3.525
 5451SOL    HW217253   1.361   6.229   3.367
 5452SOL     OW17254   2.509   4.240   0.979
 5452SOL    HW117255   2.605   4.236   1.006
 5452SOL    HW217256   2.455   4.282   1.052
 5453SOL     OW17257   4.938   4.220   2.006
 5453SOL    HW117258   4.902   4.157   1.938
 5453SOL    HW217259   4.945   4.311   1.966
 5454SOL     OW17260   5.444   6.347   1.873
 5454SOL    HW117261   5.496   6.262   1.866
 5454SOL    HW217262   5.399   6.351   1.962
 5455SOL     OW17263   0.380   1.825   3.355
 5455SOL    HW117264   0.362   1.815   3.453
 5455SOL    HW217265   0.411   1.738   3.317
 5456SOL     OW17266   4.143   1.342   6.516
 5456SOL    HW117267   4.056   1.335   6.466
 5456SOL    HW217268   4.124   1.366   6.611
 5457SOL     OW17269   6.194   1.319   0.710
 5457SOL    HW117270   6.252   1.255   0.759
 5457SOL    HW217271   6.098   1.292   0.722
 5458SOL     OW17272   6.630   4.882   1.396
 5458SOL    HW117273   6.629   4.804   1.458
 5458SOL    HW217274   6.684   4.860   1.315
 5459SOL     OW17275   2.178   4.777   4.655
 5459SOL    HW117276   2.101   4.823   4.611
 5459SOL    HW217277   2.177   4.796   4.753
 5460SOL     OW17278   2.605   0.422   2.041
 5460SOL    HW117279   2.611   0.322   2.032
 5460SOL    HW217280   2.687   0.464   2.001
 5461SOL     OW17281   0.979   1.553   5.180
 5461SOL    HW117282   0.977   1.524   5.276
 5461SOL    HW217283   1.009   1.477   5.123
 5462SOL     OW17284   5.382   6.428   6.955
 5462SOL    HW117285   5.453   6.358   6.954
 5462SOL    HW217286   5.420   6.514   6.920
 5463SOL     OW17287   6.822   1.957   6.856
 5463SOL    HW117288   6.828   2.036   6.917
 5463SOL    HW217289   6.735   1.910   6.870
 5464SOL     OW17290   6.390   5.308   5.468
 5464SOL    HW117291   6.407   5.404   5.487
 5464SOL    HW217292   6.315   5.300   5.401
 5465SOL     OW17293   0.004   0.038   3.331
 5465SOL    HW117294   0.004   6.993   3.259
 5465SOL    HW217295   6.940   0.086   3.331
 5466SOL     OW17296   6.544   2.783   5.659
 5466SOL    HW117297   6.473   2.744   5.718
 5466SOL    HW217298   6.562   2.720   5.583
 5467SOL     OW17299   5.790   3.890   3.159
 5467SOL    HW117300   5.767   3.940   3.075
 5467SOL    HW217301   5.709   3.884   3.217
 5468SOL     OW17302   6.857   2.720   4.295
 5468SOL    HW117303   6.757   2.720   4.297
 5468SOL    HW217304   6.889   2.762   4.210
 5469SOL     OW17305   3.466   6.046   6.220
 5469SOL    HW117306   3.547   6.064   6.165
 5469SOL    HW217307   3.408   6.127   6.221
 5470SOL     OW17308   3.831   5.320   3.398
 5470SOL    HW117309   3.742   5.318   3.443
 5470SOL    HW217310   3.870   5.227   3.398
 5471SOL     OW17311   5.459   0.117   2.418
 5471SOL    HW117312   5.533   0.143   2.481
 5471SOL    HW217313   5.490   0.131   2.324
 5472SOL     OW17314   2.990   3.488   6.424
 5472SOL    HW117315   2.990   3.577   6.468
 5472SOL    HW217316   3.073   3.438   6.448
 5473SOL     OW17317   1.961   4.059   0.178
 5473SOL    HW117318   2.017   4.120   0.234
 5473SOL    HW217319   1.904   4.002   0.237
 5474SOL     OW17320   0.361   5.973   4.092
 5474SOL    HW117321   0.372   5.875   4.107
 5474SOL    HW217322   0.277   5.991   4.041
 5475SOL     OW17323   1.914   2.200   0.837
 5475SOL    HW117324   1.851   2.216   0.761
 5475SOL    HW217325   1.890   2.259   0.914
 5476SOL     OW17326   2.526   4.649   5.072
 5476SOL    HW117327   2.594   4.635   5.144
 5476SOL    HW217328   2.464   4.723   5.099
 5477SOL     OW17329   1.650   3.635   3.052
 5477SOL    HW117330   1.609   3.560   3.000
 5477SOL    HW217331   1.619   3.722   3.014
 5478SOL     OW17332   5.140   6.409   5.579
 5478SOL    HW117333   5.061   6.377   5.527
 5478SOL    HW217334   5.165   6.501   5.547
 5479SOL     OW17335   4.317   1.755   4.824
 5479SOL    HW117336   4.217   1.751   4.824
 5479SOL    HW217337   4.347   1.848   4.847
 5480SOL     OW17338   5.839   4.761   5.015
 5480SOL    HW117339   5.916   4.760   5.078
 5480SOL    HW217340   5.797   4.670   5.011
 5481SOL     OW17341   4.787   0.920   4.760
 5481SOL    HW117342   4.716   0.897   4.695
 5481SOL    HW217343   4.856   0.848   4.761
 5482SOL     OW17344   3.138   3.988   2.950
 5482SOL    HW117345   3.151   3.978   2.851
 5482SOL    HW217346   3.183   3.913   2.997
 5483SOL     OW17347   6.464   2.055   5.257
 5483SOL    HW117348   6.551   2.084   5.297
 5483SOL    HW217349   6.395   2.050   5.329
 5484SOL     OW17350   6.399   0.437   3.824
 5484SOL    HW117351   6.481   0.493   3.829
 5484SOL    HW217352   6.328   0.474   3.884
 5485SOL     OW17353   3.264   6.298   4.760
 5485SOL    HW117354   3.263   6.342   4.850
 5485SOL    HW217355   3.248   6.367   4.689
 5486SOL     OW17356   1.355   6.296   4.289
 5486SOL    HW117357   1.350   6.205   4.331
 5486SOL    HW217358   1.265   6.319   4.251
 5487SOL     OW17359   5.491   3.348   6.711
 5487SOL    HW117360   5.395   3.325   6.692
 5487SOL    HW217361   5.512   3.324   6.806
 5488SOL     OW17362   5.368   1.652   1.552
 5488SOL    HW117363   5.457   1.606   1.560
 5488SOL    HW217364   5.350   1.675   1.456
 5489SOL     OW17365   0.747   4.249   1.533
 5489SOL    HW117366   0.804   4.242   1.451
 5489SOL    HW217367   0.713   4.158   1.556
 5490SOL     OW17368   3.615   0.189   1.052
 5490SOL    HW117369   3.610   0.195   0.953
 5490SOL    HW217370   3.548   0.251   1.093
 5491SOL     OW17371   1.675   3.535   6.247
 5491SOL    HW117372   1.770   3.549   6.275
 5491SOL    HW217373   1.630   3.474   6.313
 5492SOL     OW17374   0.793   2.178   6.559
 5492SOL    HW117375   0.786   2.260   6.502
 5492SOL    HW217376   0.846   2.109   6.511
 5493SOL     OW17377   4.047   3.705   4.214
 5493SOL    HW117378   4.055   3.713   4.115
 5493SOL    HW217379   4.083   3.618   4.244
 5494SOL     OW17380   6.010   2.458   6.889
 5494SOL    HW117381   5.969   2.491   6.804
 5494SOL    HW217382   6.105   2.432   6.873
 5495SOL     OW17383   3.168   2.414   1.174
 5495SOL    HW117384   3.247   2.470   1.199
 5495SOL    HW217385   3.122   2.382   1.257
 5496SOL     OW17386   2.504   6.837   3.830
 5496SOL    HW117387   2.429   6.887   3.787
 5496SOL    HW217388   2.505   6.743   3.795
 5497SOL     OW17389   0.151   1.848   3.570
 5497SOL    HW117390   0.125   1.765   3.618
 5497SOL    HW217391   0.212   1.903   3.628
 5498SOL     OW17392   5.118   0.218   1.337
 5498SOL    HW117393   5.078   0.127   1.333
 5498SOL    HW217394   5.051   0.283   1.374
 5499SOL     OW17395   0.931   0.709   3.411
 5499SOL    HW117396   0.855   0.722   3.475
 5499SOL    HW217397   0.968   0.617   3.422
 5500SOL     OW17398   1.969   6.380   6.856
 5500SOL    HW117399   1.879   6.339   6.840
 5500SOL    HW217400   2.038   6.308   6.856
 5501SOL     OW17401   3.870   0.172   1.124
 5501SOL    HW117402   3.879   0.240   1.051
 5501SOL    HW217403   3.782   0.183   1.169
 5502SOL     OW17404   5.666   4.134   6.798
 5502SOL    HW117405   5.636   4.216   6.847
 5502SOL    HW217406   5.587   4.082   6.767
 5503SOL     OW17407   0.433   5.323   3.010
 5503SOL    HW117408   0.458   5.303   2.916
 5503SOL    HW217409   0.515   5.338   3.064
 5504SOL     OW17410   3.884   1.160   5.630
 5504SOL    HW117411   3.824   1.172   5.551
 5504SOL    HW217412   3.927   1.248   5.653
 5505SOL     OW17413   2.246   5.392   4.282
 5505SOL    HW117414   2.245   5.326   4.357
 5505SOL    HW217415   2.281   5.480   4.316
 5506SOL     OW17416   0.249   1.131   6.166
 5506SOL    HW117417   0.330   1.083   6.134
 5506SOL    HW217418   0.257   1.228   6.146
 5507SOL     OW17419   2.288   6.932   2.875
 5507SOL    HW117420   2.351   6.882   2.936
 5507SOL    HW217421   2.329   7.020   2.850
 5508SOL     OW17422   1.960   1.157   0.148
 5508SOL    HW117423   1.976   1.176   0.245
 5508SOL    HW217424   1.936   1.242   0.101
 5509SOL     OW17425   1.101   6.480   0.765
 5509SOL    HW117426   1.180   6.443   0.814
 5509SOL    HW217427   1.072   6.565   0.807
 5510SOL     OW17428   5.327   6.451   0.552
 5510SOL    HW117429   5.327   6.379   0.621
 5510SOL    HW217430   5.319   6.540   0.598
 5511SOL     OW17431   2.945   0.090   4.239
 5511SOL    HW117432   2.996   0.175   4.227
 5511SOL    HW217433   2.907   0.061   4.152
 5512SOL     OW17434   5.762   2.520   1.416
 5512SOL    HW117435   5.704   2.524   1.334
 5512SOL    HW217436   5.746   2.433   1.464
 5513SOL     OW17437   3.682   3.642   6.051
 5513SOL    HW117438   3.753   3.626   6.120
 5513SOL    HW217439   3.614   3.706   6.087
 5514SOL     OW17440   4.739   5.712   2.188
 5514SOL    HW117441   4.805   5.728   2.115
 5514SOL    HW217442   4.714   5.800   2.230
 5515SOL     OW17443   0.088   4.890   1.129
 5515SOL    HW117444   0.038   4.945   1.062
 5515SOL    HW217445   0.094   4.939   1.216
 5516SOL     OW17446   1.385   3.704   6.859
 5516SOL    HW117447   1.390   3.677   6.763
 5516SOL    HW217448   1.302   3.668   6.900
 5517SOL     OW17449   2.237   2.765   2.400
 5517SOL    HW117450   2.158   2.720   2.357
 5517SOL    HW217451   2.207   2.850   2.443
 5518SOL     OW17452   6.217   6.716   6.188
 5518SOL    HW117453   6.199   6.811   6.211
 5518SOL    HW217454   6.258   6.710   6.097
 5519SOL     OW17455   5.203   3.468   2.662
 5519SOL    HW117456   5.118   3.504   2.702
 5519SOL    HW217457   5.219   3.511   2.573
 5520SOL     OW17458   6.925   5.878   2.493
 5520SOL    HW117459   6.933   5.941   2.570
 5520SOL    HW217460   6.855   5.911   2.430
 5521SOL     OW17461   4.298   7.021   2.015
 5521SOL    HW117462   4.310   6.924   2.037
 5521SOL    HW217463   4.264   0.005   1.921
 5522SOL     OW17464   0.054   5.494   0.555
 5522SOL    HW117465   0.017   5.491   0.648
 5522SOL    HW217466   0.154   5.506   0.560
 5523SOL     OW17467   2.826   6.585   2.687
 5523SOL    HW117468   2.838   6.654   2.615
 5523SOL    HW217469   2.732   6.588   2.721
 5524SOL     OW17470   5.279   5.589   4.576
 5524SOL    HW117471   5.325   5.581   4.665
 5524SOL    HW217472   5.192   5.540   4.580
 5525SOL     OW17473   6.657   3.233   6.925
 5525SOL    HW117474   6.644   3.148   6.977
 5525SOL    HW217475   6.687   3.212   6.833
 5526SOL     OW17476   5.490   4.622   4.448
 5526SOL    HW117477   5.415   4.641   4.385
 5526SOL    HW217478   5.564   4.688   4.433
 5527SOL     OW17479   0.191   3.551   4.071
 5527SOL    HW117480   0.259   3.590   4.132
 5527SOL    HW217481   0.141   3.479   4.118
 5528SOL     OW17482   1.157   2.016   6.660
 5528SOL    HW117483   1.210   2.099   6.677
 5528SOL    HW217484   1.197   1.966   6.583
 5529SOL     OW17485   1.643   0.622   4.241
 5529SOL    HW117486   1.547   0.645   4.259
 5529SOL    HW217487   1.661   0.529   4.272
 5530SOL     OW17488   0.651   2.229   2.240
 5530SOL    HW117489   0.651   2.324   2.272
 5530SOL    HW217490   0.563   2.186   2.263
 5531SOL     OW17491   3.548   3.472   2.480
 5531SOL    HW117492   3.476   3.524   2.435
 5531SOL    HW217493   3.600   3.421   2.412
 5532SOL     OW17494   1.426   1.743   0.092
 5532SOL    HW117495   1.442   1.816   0.159
 5532SOL    HW217496   1.441   1.654   0.135
 5533SOL     OW17497   3.185   0.636   3.332
 5533SOL    HW117498   3.142   0.692   3.402
 5533SOL    HW217499   3.168   0.676   3.242
 5534SOL     OW17500   0.532   2.230   5.282
 5534SOL    HW117501   0.623   2.272   5.279
 5534SOL    HW217502   0.542   2.131   5.288
 5535SOL     OW17503   0.606   3.175   4.376
 5535SOL    HW117504   0.641   3.157   4.284
 5535SOL    HW217505   0.507   3.188   4.372
 5536SOL     OW17506   2.963   1.035   4.369
 5536SOL    HW117507   3.017   0.957   4.336
 5536SOL    HW217508   2.942   1.095   4.292
 5537SOL     OW17509   3.222   0.441   4.062
 5537SOL    HW117510   3.290   0.483   4.001
 5537SOL    HW217511   3.136   0.428   4.012
 5538SOL     OW17512   3.427   6.860   5.154
 5538SOL    HW117513   3.470   6.782   5.200
 5538SOL    HW217514   3.347   6.829   5.104
 5539SOL     OW17515   1.559   2.872   0.243
 5539SOL    HW117516   1.500   2.937   0.290
 5539SOL    HW217517   1.514   2.783   0.238
 5540SOL     OW17518   6.310   3.497   2.902
 5540SOL    HW117519   6.378   3.526   2.836
 5540SOL    HW217520   6.272   3.408   2.875
 5541SOL     OW17521   5.867   1.274   6.352
 5541SOL    HW117522   5.928   1.221   6.293
 5541SOL    HW217523   5.803   1.326   6.296
 5542SOL     OW17524   6.022   6.403   6.138
 5542SOL    HW117525   6.089   6.407   6.064
 5542SOL    HW217526   5.976   6.491   6.147
 5543SOL     OW17527   3.140   5.508   5.953
 5543SOL    HW117528   3.093   5.549   6.031
 5543SOL    HW217529   3.194   5.579   5.906
 5544SOL     OW17530   5.433   6.659   6.217
 5544SOL    HW117531   5.435   6.665   6.118
 5544SOL    HW217532   5.340   6.679   6.250
 5545SOL     OW17533   4.611   1.649   3.612
 5545SOL    HW117534   4.646   1.715   3.546
 5545SOL    HW217535   4.549   1.586   3.566
 5546SOL     OW17536   1.549   6.126   4.613
 5546SOL    HW117537   1.618   6.170   4.671
 5546SOL    HW217538   1.583   6.121   4.519
 5547SOL     OW17539   3.690   0.851   4.653
 5547SOL    HW117540   3.672   0.928   4.715
 5547SOL    HW217541   3.660   0.766   4.695
 5548SOL     OW17542   5.625   3.307   4.717
 5548SOL    HW117543   5.615   3.397   4.674
 5548SOL    HW217544   5.722   3.285   4.725
 5549SOL     OW17545   4.097   4.119   0.880
 5549SOL    HW117546   4.193   4.131   0.905
 5549SOL    HW217547   4.050   4.207   0.883
 5550SOL     OW17548   2.267   4.396   2.432
 5550SOL    HW117549   2.207   4.399   2.512
 5550SOL    HW217550   2.214   4.412   2.349
 5551SOL     OW17551   1.888   5.981   3.617
 5551SOL    HW117552   1.822   6.047   3.581
 5551SOL    HW217553   1.979   6.023   3.618
 5552SOL     OW17554   6.413   0.323   6.779
 5552SOL    HW117555   6.505   0.291   6.802
 5552SOL    HW217556   6.413   0.423   6.772
 5553SOL     OW17557   4.663   6.735   0.770
 5553SOL    HW117558   4.744   6.792   0.759
 5553SOL    HW217559   4.648   6.682   0.687
 5554SOL     OW17560   4.470   1.968   6.118
 5554SOL    HW117561   4.540   2.032   6.084
 5554SOL    HW217562   4.478   1.881   6.069
 5555SOL     OW17563   1.134   3.878   3.767
 5555SOL    HW117564   1.149   3.901   3.671
 5555SOL    HW217565   1.056   3.929   3.802
 5556SOL     OW17566   6.831   1.565   3.084
 5556SOL    HW117567   6.798   1.496   3.149
 5556SOL    HW217568   6.770   1.567   3.005
 5557SOL     OW17569   3.265   6.872   2.844
 5557SOL    HW117570   3.261   6.836   2.751
 5557SOL    HW217571   3.346   6.835   2.890
 5558SOL     OW17572   4.140   3.587   5.530
 5558SOL    HW117573   4.162   3.680   5.559
 5558SOL    HW217574   4.113   3.588   5.433
 5559SOL     OW17575   1.309   0.384   1.727
 5559SOL    HW117576   1.378   0.320   1.760
 5559SOL    HW217577   1.352   0.472   1.706
 5560SOL     OW17578   0.503   6.223   2.467
 5560SOL    HW117579   0.428   6.171   2.425
 5560SOL    HW217580   0.484   6.236   2.564
 5561SOL     OW17581   1.323   1.952   4.200
 5561SOL    HW117582   1.309   1.875   4.137
 5561SOL    HW217583   1.249   2.018   4.189
 5562SOL     OW17584   4.122   2.162   6.314
 5562SOL    HW117585   4.172   2.128   6.235
 5562SOL    HW217586   4.101   2.086   6.375
 5563SOL     OW17587   3.829   5.142   2.099
 5563SOL    HW117588   3.763   5.177   2.165
 5563SOL    HW217589   3.905   5.099   2.147
 5564SOL     OW17590   4.485   0.560   1.264
 5564SOL    HW117591   4.527   0.557   1.174
 5564SOL    HW217592   4.536   0.622   1.323
 5565SOL     OW17593   4.780   1.623   6.060
 5565SOL    HW117594   4.749   1.548   6.118
 5565SOL    HW217595   4.880   1.630   6.065
 5566SOL     OW17596   1.624   5.164   6.718
 5566SOL    HW117597   1.673   5.080   6.695
 5566SOL    HW217598   1.526   5.146   6.718
 5567SOL     OW17599   0.017   2.392   1.059
 5567SOL    HW117600   0.065   2.311   1.091
 5567SOL    HW217601   6.984   2.430   1.132
 5568SOL     OW17602   4.278   1.890   3.785
 5568SOL    HW117603   4.184   1.924   3.786
 5568SOL    HW217604   4.335   1.949   3.728
 5569SOL     OW17605   1.260   1.870   2.770
 5569SOL    HW117606   1.160   1.873   2.760
 5569SOL    HW217607   1.302   1.901   2.685
 5570SOL     OW17608   6.312   4.212   4.921
 5570SOL    HW117609   6.369   4.183   4.844
 5570SOL    HW217610   6.255   4.289   4.893
 5571SOL     OW17611   6.927   6.031   0.327
 5571SOL    HW117612   6.883   5.981   0.401
 5571SOL    HW217613   6.861   6.045   0.253
 5572SOL     OW17614   1.057   2.434   5.174
 5572SOL    HW117615   1.134   2.382   5.212
 5572SOL    HW217616   1.064   2.529   5.203
 5573SOL     OW17617   2.123   4.527   4.731
 5573SOL    HW117618   2.192   4.510   4.801
 5573SOL    HW217619   2.138   4.617   4.690
 5574SOL     OW17620   0.213   2.031   2.481
 5574SOL    HW117621   0.148   2.107   2.488
 5574SOL    HW217622   0.164   1.948   2.456
 5575SOL     OW17623   7.010   1.341   0.714
 5575SOL    HW117624   0.042   1.306   0.789
 5575SOL    HW217625   6.928   1.385   0.751
 5576SOL     OW17626   0.902   5.488   2.064
 5576SOL    HW117627   1.000   5.475   2.050
 5576SOL    HW217628   0.851   5.436   1.995
 5577SOL     OW17629   2.929   3.269   4.985
 5577SOL    HW117630   2.878   3.228   5.061
 5577SOL    HW217631   3.002   3.327   5.022
 5578SOL     OW17632   3.579   3.735   0.814
 5578SOL    HW117633   3.621   3.719   0.725
 5578SOL    HW217634   3.482   3.715   0.810
 5579SOL     OW17635   1.061   3.842   6.506
 5579SOL    HW117636   1.119   3.886   6.438
 5579SOL    HW217637   1.103   3.850   6.596
 5580SOL     OW17638   5.502   2.532   5.640
 5580SOL    HW117639   5.573   2.504   5.704
 5580SOL    HW217640   5.538   2.531   5.547
 5581SOL     OW17641   1.949   0.164   1.633
 5581SOL    HW117642   1.976   0.224   1.558
 5581SOL    HW217643   1.964   0.069   1.608
 5582SOL     OW17644   2.997   3.644   4.599
 5582SOL    HW117645   2.969   3.555   4.562
 5582SOL    HW217646   3.074   3.631   4.662
 5583SOL     OW17647   4.703   0.472   2.453
 5583SOL    HW117648   4.751   0.441   2.535
 5583SOL    HW217649   4.767   0.521   2.394
 5584SOL     OW17650   5.648   4.461   3.916
 5584SOL    HW117651   5.561   4.482   3.871
 5584SOL    HW217652   5.633   4.451   4.014
 5585SOL     OW17653   4.979   6.434   4.075
 5585SOL    HW117654   5.020   6.376   4.145
 5585SOL    HW217655   5.048   6.497   4.039
 5586SOL     OW17656   0.102   2.594   0.009
 5586SOL    HW117657   0.200   2.615   0.015
 5586SOL    HW217658   0.073   2.551   0.094
 5587SOL     OW17659   3.983   6.363   1.867
 5587SOL    HW117660   4.023   6.324   1.783
 5587SOL    HW217661   3.908   6.424   1.842
 5588SOL     OW17662   1.718   6.019   2.856
 5588SOL    HW117663   1.742   6.050   2.948
 5588SOL    HW217664   1.630   5.971   2.858
 5589SOL     OW17665   5.799   4.008   5.682
 5589SOL    HW117666   5.815   3.930   5.743
 5589SOL    HW217667   5.881   4.024   5.627
 5590SOL     OW17668   6.397   5.808   4.193
 5590SOL    HW117669   6.358   5.875   4.129
 5590SOL    HW217670   6.391   5.843   4.286
 5591SOL     OW17671   5.676   2.029   0.559
 5591SOL    HW117672   5.687   1.944   0.507
 5591SOL    HW217673   5.760   2.082   0.555
 5592SOL     OW17674   6.796   4.757   2.679
 5592SOL    HW117675   6.760   4.684   2.620
 5592SOL    HW217676   6.741   4.762   2.763
 5593SOL     OW17677   0.137   2.829   6.453
 5593SOL    HW117678   0.227   2.790   6.474
 5593SOL    HW217679   0.129   2.920   6.494
 5594SOL     OW17680   3.304   0.752   6.734
 5594SOL    HW117681   3.373   0.682   6.750
 5594SOL    HW217682   3.320   0.795   6.645
 5595SOL     OW17683   6.492   0.733   5.097
 5595SOL    HW117684   6.580   0.688   5.111
 5595SOL    HW217685   6.505   0.832   5.092
 5596SOL     OW17686   4.690   0.635   3.551
 5596SOL    HW117687   4.594   0.628   3.524
 5596SOL    HW217688   4.743   0.672   3.474
 5597SOL     OW17689   5.691   2.417   5.411
 5597SOL    HW117690   5.719   2.503   5.368
 5597SOL    HW217691   5.756   2.392   5.483
 5598SOL     OW17692   6.457   3.787   3.556
 5598SOL    HW117693   6.361   3.761   3.563
 5598SOL    HW217694   6.514   3.720   3.604
 5599SOL     OW17695   1.132   3.113   1.851
 5599SOL    HW117696   1.199   3.039   1.842
 5599SOL    HW217697   1.065   3.105   1.778
 5600SOL     OW17698   2.663   0.356   2.651
 5600SOL    HW117699   2.724   0.282   2.679
 5600SOL    HW217700   2.627   0.337   2.560
 5601SOL     OW17701   2.628   0.741   5.961
 5601SOL    HW117702   2.547   0.801   5.963
 5601SOL    HW217703   2.632   0.687   6.044
 5602SOL     OW17704   0.083   0.907   1.388
 5602SOL    HW117705   0.155   0.952   1.442
 5602SOL    HW217706   0.055   0.822   1.433
 5603SOL     OW17707   5.733   2.373   0.094
 5603SOL    HW117708   5.737   2.350   0.191
 5603SOL    HW217709   5.786   2.455   0.076
 5604SOL     OW17710   6.265   2.072   4.763
 5604SOL    HW117711   6.335   2.008   4.732
 5604SOL    HW217712   6.266   2.078   4.863
 5605SOL     OW17713   0.586   0.795   4.764
 5605SOL    HW117714   0.590   0.863   4.836
 5605SOL    HW217715   0.583   0.703   4.805
 5606SOL     OW17716   5.130   6.904   0.945
 5606SOL    HW117717   5.130   6.804   0.952
 5606SOL    HW217718   5.051   6.934   0.891
 5607SOL     OW17719   5.896   1.194   3.722
 5607SOL    HW117720   5.827   1.213   3.651
 5607SOL    HW217721   5.986   1.218   3.688
 5608SOL     OW17722   6.641   1.048   3.783
 5608SOL    HW117723   6.605   1.067   3.691
 5608SOL    HW217724   6.591   1.103   3.850
 5609SOL     OW17725   4.311   5.919   1.764
 5609SOL    HW117726   4.259   5.939   1.681
 5609SOL    HW217727   4.257   5.946   1.844
 5610SOL     OW17728   4.452   5.063   1.531
 5610SOL    HW117729   4.479   5.022   1.618
 5610SOL    HW217730   4.521   5.042   1.462
 5611SOL     OW17731   0.745   5.302   3.089
 5611SOL    HW117732   0.745   5.219   3.033
 5611SOL    HW217733   0.822   5.360   3.064
 5612SOL     OW17734   4.353   2.855   6.051
 5612SOL    HW117735   4.343   2.895   5.960
 5612SOL    HW217736   4.450   2.852   6.077
 5613SOL     OW17737   5.599   5.837   5.155
 5613SOL    HW117738   5.613   5.864   5.250
 5613SOL    HW217739   5.580   5.739   5.151
 5614SOL     OW17740   5.027   2.463   4.749
 5614SOL    HW117741   4.990   2.448   4.657
 5614SOL    HW217742   5.116   2.419   4.756
 5615SOL     OW17743   6.601   1.639   3.755
 5615SOL    HW117744   6.565   1.640   3.662
 5615SOL    HW217745   6.676   1.705   3.763
 5616SOL     OW17746   2.647   2.049   5.295
 5616SOL    HW117747   2.581   2.028   5.223
 5616SOL    HW217748   2.654   1.971   5.357
 5617SOL     OW17749   2.306   5.986   5.789
 5617SOL    HW117750   2.210   5.962   5.778
 5617SOL    HW217751   2.331   6.055   5.721
 5618SOL     OW17752   6.774   4.567   4.503
 5618SOL    HW117753   6.746   4.519   4.586
 5618SOL    HW217754   6.703   4.556   4.433
 5619SOL     OW17755   4.003   3.926   4.579
 5619SOL    HW117756   4.025   3.829   4.591
 5619SOL    HW217757   4.013   3.951   4.483
 5620SOL     OW17758   4.132   3.711   0.728
 5620SOL    HW117759   4.152   3.802   0.691
 5620SOL    HW217760   4.081   3.658   0.660
 5621SOL     OW17761   2.228   2.396   6.970
 5621SOL    HW117762   2.130   2.387   6.954
 5621SOL    HW217763   2.272   2.307   6.957
 5622SOL     OW17764   4.524   0.353   5.766
 5622SOL    HW117765   4.442   0.340   5.821
 5622SOL    HW217766   4.504   0.415   5.690
 5623SOL     OW17767   4.535   6.384   5.142
 5623SOL    HW117768   4.458   6.342   5.094
 5623SOL    HW217769   4.618   6.375   5.086
 5624SOL     OW17770   0.817   4.396   3.495
 5624SOL    HW117771   0.769   4.405   3.582
 5624SOL    HW217772   0.877   4.475   3.482
 5625SOL     OW17773   6.430   6.941   5.504
 5625SOL    HW117774   6.487   6.903   5.577
 5625SOL    HW217775   6.487   6.968   5.427
 5626SOL     OW17776   2.503   6.087   4.045
 5626SOL    HW117777   2.429   6.021   4.033
 5626SOL    HW217778   2.564   6.084   3.966
 5627SOL     OW17779   1.240   5.360   6.664
 5627SOL    HW117780   1.145   5.349   6.694
 5627SOL    HW217781   1.241   5.414   6.580
 5628SOL     OW17782   2.193   2.175   2.359
 5628SOL    HW117783   2.271   2.200   2.417
 5628SOL    HW217784   2.193   2.233   2.277
 5629SOL     OW17785   4.254   3.164   1.851
 5629SOL    HW117786   4.243   3.216   1.766
 5629SOL    HW217787   4.351   3.148   1.867
 5630SOL     OW17788   2.013   3.522   6.241
 5630SOL    HW117789   1.978   3.493   6.152
 5630SOL    HW217790   2.028   3.441   6.299
 5631SOL     OW17791   4.787   1.620   1.955
 5631SOL    HW117792   4.870   1.648   2.004
 5631SOL    HW217793   4.709   1.623   2.017
 5632SOL     OW17794   3.272   2.256   5.762
 5632SOL    HW117795   3.249   2.353   5.751
 5632SOL    HW217796   3.300   2.239   5.856
 5633SOL     OW17797   5.973   4.991   4.264
 5633SOL    HW117798   5.913   4.948   4.196
 5633SOL    HW217799   5.924   4.999   4.350
 5634SOL     OW17800   2.184   4.597   3.943
 5634SOL    HW117801   2.212   4.672   3.882
 5634SOL    HW217802   2.181   4.630   4.037
 5635SOL     OW17803   2.151   5.636   6.940
 5635SOL    HW117804   2.233   5.693   6.932
 5635SOL    HW217805   2.178   5.543   6.965
 5636SOL     OW17806   4.772   0.058   4.666
 5636SOL    HW117807   4.824   0.134   4.626
 5636SOL    HW217808   4.685   0.049   4.619
 5637SOL     OW17809   4.602   6.784   3.567
 5637SOL    HW117810   4.513   6.823   3.592
 5637SOL    HW217811   4.608   6.776   3.468
 5638SOL     OW17812   0.049   3.636   0.748
 5638SOL    HW117813   0.138   3.678   0.767
 5638SOL    HW217814   0.055   3.538   0.763
 5639SOL     OW17815   1.953   0.092   2.051
 5639SOL    HW117816   1.905   0.133   2.129
 5639SOL    HW217817   1.997   0.007   2.080
 5640SOL     OW17818   3.035   0.449   3.409
 5640SOL    HW117819   3.097   0.518   3.372
 5640SOL    HW217820   3.084   0.363   3.424
 5641SOL     OW17821   0.617   4.954   5.455
 5641SOL    HW117822   0.544   4.902   5.411
 5641SOL    HW217823   0.619   4.933   5.553
 5642SOL     OW17824   1.425   5.910   4.779
 5642SOL    HW117825   1.462   5.979   4.717
 5642SOL    HW217826   1.330   5.930   4.799
 5643SOL     OW17827   4.309   1.318   4.075
 5643SOL    HW117828   4.318   1.315   4.175
 5643SOL    HW217829   4.322   1.412   4.044
 5644SOL     OW17830   3.377   6.639   5.376
 5644SOL    HW117831   3.317   6.629   5.455
 5644SOL    HW217832   3.426   6.726   5.381
 5645SOL     OW17833   6.065   4.884   3.129
 5645SOL    HW117834   6.093   4.794   3.163
 5645SOL    HW217835   5.966   4.886   3.117
 5646SOL     OW17836   0.891   6.005   4.156
 5646SOL    HW117837   0.900   5.921   4.210
 5646SOL    HW217838   0.796   6.016   4.127
 5647SOL     OW17839   4.768   6.201   0.821
 5647SOL    HW117840   4.744   6.215   0.917
 5647SOL    HW217841   4.770   6.103   0.801
 5648SOL     OW17842   1.643   0.102   3.392
 5648SOL    HW117843   1.730   0.147   3.371
 5648SOL    HW217844   1.647   0.062   3.483
 5649SOL     OW17845   0.381   0.917   4.675
 5649SOL    HW117846   0.473   0.890   4.703
 5649SOL    HW217847   0.350   0.857   4.601
 5650SOL     OW17848   0.325   5.525   0.552
 5650SOL    HW117849   0.344   5.572   0.466
 5650SOL    HW217850   0.300   5.430   0.534
 5651SOL     OW17851   1.647   1.200   1.492
 5651SOL    HW117852   1.731   1.162   1.532
 5651SOL    HW217853   1.579   1.212   1.564
 5652SOL     OW17854   6.175   6.795   2.138
 5652SOL    HW117855   6.181   6.696   2.139
 5652SOL    HW217856   6.116   6.824   2.062
 5653SOL     OW17857   6.792   5.997   6.715
 5653SOL    HW117858   6.826   5.925   6.654
 5653SOL    HW217859   6.804   5.968   6.810
 5654SOL     OW17860   6.438   6.870   5.123
 5654SOL    HW117861   6.526   6.878   5.171
 5654SOL    HW217862   6.370   6.929   5.167
 5655SOL     OW17863   1.223   3.833   4.738
 5655SOL    HW117864   1.151   3.767   4.759
 5655SOL    HW217865   1.313   3.790   4.749
 5656SOL     OW17866   0.111   3.706   6.650
 5656SOL    HW117867   0.060   3.623   6.626
 5656SOL    HW217868   0.059   3.787   6.620
 5657SOL     OW17869   6.024   1.946   0.301
 5657SOL    HW117870   5.952   1.925   0.235
 5657SOL    HW217871   6.070   1.862   0.330
 5658SOL     OW17872   3.692   3.594   6.800
 5658SOL    HW117873   3.722   3.526   6.733
 5658SOL    HW217874   3.716   3.686   6.769
 5659SOL     OW17875   3.988   3.220   4.691
 5659SOL    HW117876   3.902   3.260   4.660
 5659SOL    HW217877   4.010   3.253   4.783
 5660SOL     OW17878   4.918   6.733   0.246
 5660SOL    HW117879   4.999   6.676   0.233
 5660SOL    HW217880   4.947   6.827   0.267
 5661SOL     OW17881   1.642   5.607   5.148
 5661SOL    HW117882   1.595   5.546   5.085
 5661SOL    HW217883   1.716   5.559   5.193
 5662SOL     OW17884   2.596   6.156   3.786
 5662SOL    HW117885   2.674   6.218   3.774
 5662SOL    HW217886   2.602   6.082   3.719
 5663SOL     OW17887   1.542   3.268   6.948
 5663SOL    HW117888   1.479   3.345   6.944
 5663SOL    HW217889   1.510   3.202   7.015
 5664SOL     OW17890   6.769   4.209   4.099
 5664SOL    HW117891   6.678   4.227   4.063
 5664SOL    HW217892   6.768   4.125   4.153
 5665SOL     OW17893   2.020   0.919   0.436
 5665SOL    HW117894   2.004   1.015   0.416
 5665SOL    HW217895   2.106   0.908   0.484
 5666SOL     OW17896   6.137   6.877   3.023
 5666SOL    HW117897   6.102   6.792   3.063
 5666SOL    HW217898   6.192   6.925   3.091
 5667SOL     OW17899   1.625   5.185   4.489
 5667SOL    HW117900   1.570   5.157   4.410
 5667SOL    HW217901   1.576   5.160   4.573
 5668SOL     OW17902   4.922   2.503   3.443
 5668SOL    HW117903   4.869   2.579   3.482
 5668SOL    HW217904   4.881   2.474   3.357
 5669SOL     OW17905   6.932   3.363   0.043
 5669SOL    HW117906   6.980   3.299   0.104
 5669SOL    HW217907   6.872   3.422   0.096
 5670SOL     OW17908   6.825   2.841   4.057
 5670SOL    HW117909   6.901   2.787   4.023
 5670SOL    HW217910   6.821   2.928   4.008
 5671SOL     OW17911   6.335   6.070   6.264
 5671SOL    HW117912   6.420   6.017   6.265
 5671SOL    HW217913   6.354   6.165   6.286
 5672SOL     OW17914   4.424   4.026   6.859
 5672SOL    HW117915   4.356   4.074   6.804
 5672SOL    HW217916   4.427   4.066   6.950
 5673SOL     OW17917   1.297   0.866   1.861
 5673SOL    HW117918   1.338   0.957   1.867
 5673SOL    HW217919   1.201   0.872   1.887
 5674SOL     OW17920   0.154   5.031   5.129
 5674SOL    HW117921   0.158   5.110   5.190
 5674SOL    HW217922   0.059   5.007   5.110
 5675SOL     OW17923   4.299   2.800   6.814
 5675SOL    HW117924   4.283   2.742   6.734
 5675SOL    HW217925   4.223   2.789   6.878
 5676SOL     OW17926   2.607   2.324   2.425
 5676SOL    HW117927   2.649   2.312   2.335
 5676SOL    HW217928   2.516   2.363   2.415
 5677SOL     OW17929   1.173   1.538   0.486
 5677SOL    HW117930   1.244   1.574   0.546
 5677SOL    HW217931   1.215   1.479   0.417
 5678SOL     OW17932   4.065   6.729   2.604
 5678SOL    HW117933   4.111   6.640   2.598
 5678SOL    HW217934   3.975   6.716   2.645
 5679SOL     OW17935   0.170   0.927   4.255
 5679SOL    HW117936   0.149   0.900   4.161
 5679SOL    HW217937   0.233   1.005   4.255
 5680SOL     OW17938   1.581   5.137   6.187
 5680SOL    HW117939   1.644   5.088   6.247
 5680SOL    HW217940   1.489   5.135   6.227
 5681SOL     OW17941   0.458   4.312   0.858
 5681SOL    HW117942   0.423   4.365   0.935
 5681SOL    HW217943   0.509   4.371   0.797
 5682SOL     OW17944   2.467   4.908   5.418
 5682SOL    HW117945   2.428   4.831   5.369
 5682SOL    HW217946   2.544   4.946   5.366
 5683SOL     OW17947   4.606   1.124   6.155
 5683SOL    HW117948   4.654   1.208   6.180
 5683SOL    HW217949   4.563   1.136   6.065
 5684SOL     OW17950   3.076   3.666   5.427
 5684SOL    HW117951   3.154   3.609   5.452
 5684SOL    HW217952   3.066   3.741   5.492
 5685SOL     OW17953   2.085   1.930   2.749
 5685SOL    HW117954   2.070   1.970   2.840
 5685SOL    HW217955   2.118   1.836   2.760
 5686SOL     OW17956   2.660   1.125   6.573
 5686SOL    HW117957   2.614   1.053   6.625
 5686SOL    HW217958   2.759   1.108   6.571
 5687SOL     OW17959   0.884   5.259   0.143
 5687SOL    HW117960   0.978   5.273   0.173
 5687SOL    HW217961   0.879   5.269   0.043
 5688SOL     OW17962   0.118   2.436   1.784
 5688SOL    HW117963   0.128   2.390   1.696
 5688SOL    HW217964   0.198   2.493   1.801
 5689SOL     OW17965   3.297   1.432   0.917
 5689SOL    HW117966   3.315   1.422   1.014
 5689SOL    HW217967   3.321   1.347   0.870
 5690SOL     OW17968   2.665   5.644   0.064
 5690SOL    HW117969   2.760   5.673   0.058
 5690SOL    HW217970   2.660   5.545   0.076
 5691SOL     OW17971   3.398   0.417   2.444
 5691SOL    HW117972   3.338   0.342   2.415
 5691SOL    HW217973   3.343   0.497   2.468
 5692SOL     OW17974   5.481   3.706   0.884
 5692SOL    HW117975   5.514   3.613   0.899
 5692SOL    HW217976   5.455   3.716   0.788
 5693SOL     OW17977   5.250   2.403   2.808
 5693SOL    HW117978   5.233   2.395   2.906
 5693SOL    HW217979   5.167   2.434   2.762
 5694SOL     OW17980   0.725   1.733   3.284
 5694SOL    HW117981   0.722   1.822   3.329
 5694SOL    HW217982   0.762   1.744   3.191
 5695SOL     OW17983   1.613   1.842   3.167
 5695SOL    HW117984   1.530   1.878   3.210
 5695SOL    HW217985   1.597   1.825   3.070
 5696SOL     OW17986   0.847   1.134   3.108
 5696SOL    HW117987   0.834   1.150   3.010
 5696SOL    HW217988   0.889   1.044   3.122
 5697SOL     OW17989   5.437   2.414   0.782
 5697SOL    HW117990   5.395   2.392   0.870
 5697SOL    HW217991   5.533   2.387   0.784
 5698SOL     OW17992   1.382   4.750   3.963
 5698SOL    HW117993   1.379   4.766   4.062
 5698SOL    HW217994   1.316   4.679   3.939
 5699SOL     OW17995   0.557   2.809   3.109
 5699SOL    HW117996   0.591   2.758   3.188
 5699SOL    HW217997   0.461   2.786   3.093
 5700SOL     OW17998   6.707   6.779   3.201
 5700SOL    HW117999   6.621   6.735   3.224
 5700SOL    HW218000   6.702   6.876   3.225
 5701SOL     OW18001   1.749   0.802   1.732
 5701SOL    HW118002   1.726   0.727   1.794
 5701SOL    HW218003   1.756   0.887   1.784
 5702SOL     OW18004   2.637   5.495   4.338
 5702SOL    HW118005   2.555   5.530   4.384
 5702SOL    HW218006   2.638   5.395   4.345
 5703SOL     OW18007   6.500   4.696   2.063
 5703SOL    HW118008   6.527   4.644   2.144
 5703SOL    HW218009   6.527   4.646   1.980
 5704SOL     OW18010   4.740   4.431   2.969
 5704SOL    HW118011   4.782   4.513   3.008
 5704SOL    HW218012   4.803   4.390   2.903
 5705SOL     OW18013   5.117   6.993   0.068
 5705SOL    HW118014   5.074   6.989   0.158
 5705SOL    HW218015   5.200   6.937   0.069
 5706SOL     OW18016   6.905   4.035   1.316
 5706SOL    HW118017   6.911   4.032   1.216
 5706SOL    HW218018   6.909   4.130   1.347
 5707SOL     OW18019   0.220   6.389   0.319
 5707SOL    HW118020   0.209   6.403   0.221
 5707SOL    HW218021   0.242   6.477   0.363
 5708SOL     OW18022   5.287   5.533   2.057
 5708SOL    HW118023   5.241   5.464   2.113
 5708SOL    HW218024   5.220   5.579   1.999
 5709SOL     OW18025   1.507   0.857   2.374
 5709SOL    HW118026   1.551   0.838   2.286
 5709SOL    HW218027   1.518   0.954   2.396
 5710SOL     OW18028   2.198   2.784   0.536
 5710SOL    HW118029   2.118   2.738   0.497
 5710SOL    HW218030   2.173   2.877   0.563
 5711SOL     OW18031   5.425   0.773   2.543
 5711SOL    HW118032   5.393   0.694   2.595
 5711SOL    HW218033   5.479   0.742   2.465
 5712SOL     OW18034   6.479   0.961   6.364
 5712SOL    HW118035   6.488   1.055   6.333
 5712SOL    HW218036   6.490   0.957   6.463
 5713SOL     OW18037   3.830   2.854   1.837
 5713SOL    HW118038   3.743   2.854   1.886
 5713SOL    HW218039   3.904   2.832   1.901
 5714SOL     OW18040   0.555   5.780   0.279
 5714SOL    HW118041   0.637   5.800   0.225
 5714SOL    HW218042   0.548   5.846   0.354
 5715SOL     OW18043   1.243   0.902   2.508
 5715SOL    HW118044   1.227   0.882   2.604
 5715SOL    HW218045   1.300   0.830   2.467
 5716SOL     OW18046   1.520   4.521   6.311
 5716SOL    HW118047   1.610   4.515   6.355
 5716SOL    HW218048   1.449   4.514   6.381
 5717SOL     OW18049   1.863   5.035   1.359
 5717SOL    HW118050   1.778   4.983   1.369
 5717SOL    HW218051   1.936   4.974   1.330
 5718SOL     OW18052   0.176   3.781   5.541
 5718SOL    HW118053   0.213   3.746   5.627
 5718SOL    HW218054   0.151   3.877   5.553
 5719SOL     OW18055   2.610   2.103   6.373
 5719SOL    HW118056   2.589   2.107   6.470
 5719SOL    HW218057   2.603   2.195   6.333
 5720SOL     OW18058   1.817   5.973   4.763
 5720SOL    HW118059   1.750   5.910   4.802
 5720SOL    HW218060   1.815   5.966   4.663
 5721SOL     OW18061   6.578   3.105   1.201
 5721SOL    HW118062   6.544   3.017   1.235
 5721SOL    HW218063   6.563   3.175   1.270
 5722SOL     OW18064   6.889   1.451   5.066
 5722SOL    HW118065   6.888   1.360   5.024
 5722SOL    HW218066   6.981   1.470   5.102
 5723SOL     OW18067   4.921   2.854   0.659
 5723SOL    HW118068   4.935   2.895   0.569
 5723SOL    HW218069   4.884   2.923   0.721
 5724SOL     OW18070   5.525   2.915   4.931
 5724SOL    HW118071   5.486   2.872   4.850
 5724SOL    HW218072   5.508   3.014   4.928
 5725SOL     OW18073   5.322   5.851   4.517
 5725SOL    HW118074   5.293   5.756   4.527
 5725SOL    HW218075   5.294   5.903   4.597
 5726SOL     OW18076   0.087   5.426   4.608
 5726SOL    HW118077   0.058   5.355   4.671
 5726SOL    HW218078   0.153   5.388   4.543
 5727SOL     OW18079   0.097   1.696   4.340
 5727SOL    HW118080   0.140   1.735   4.421
 5727SOL    HW218081   0.163   1.639   4.291
 5728SOL     OW18082   4.012   0.288   6.069
 5728SOL    HW118083   4.082   0.335   6.015
 5728SOL    HW218084   3.999   0.337   6.156
 5729SOL     OW18085   1.361   0.859   0.651
 5729SOL    HW118086   1.444   0.904   0.617
 5729SOL    HW218087   1.387   0.775   0.699
 5730SOL     OW18088   5.391   5.107   6.812
 5730SOL    HW118089   5.387   5.155   6.724
 5730SOL    HW218090   5.305   5.059   6.828
 5731SOL     OW18091   0.181   6.244   3.752
 5731SOL    HW118092   0.100   6.301   3.739
 5731SOL    HW218093   0.240   6.250   3.672
 5732SOL     OW18094   6.549   5.454   4.699
 5732SOL    HW118095   6.628   5.516   4.701
 5732SOL    HW218096   6.496   5.471   4.617
 5733SOL     OW18097   4.260   6.518   5.479
 5733SOL    HW118098   4.237   6.613   5.498
 5733SOL    HW218099   4.202   6.484   5.405
 5734SOL     OW18100   1.414   6.531   5.358
 5734SOL    HW118101   1.318   6.530   5.331
 5734SOL    HW218102   1.436   6.448   5.409
 5735SOL     OW18103   4.100   2.070   1.733
 5735SOL    HW118104   4.072   2.164   1.755
 5735SOL    HW218105   4.032   2.006   1.766
 5736SOL     OW18106   6.326   4.017   0.169
 5736SOL    HW118107   6.421   3.985   0.173
 5736SOL    HW218108   6.267   3.954   0.220
 5737SOL     OW18109   5.953   6.751   1.311
 5737SOL    HW118110   5.975   6.689   1.386
 5737SOL    HW218111   5.893   6.824   1.344
 5738SOL     OW18112   2.411   2.242   5.487
 5738SOL    HW118113   2.322   2.218   5.525
 5738SOL    HW218114   2.463   2.158   5.469
 5739SOL     OW18115   1.348   0.278   6.164
 5739SOL    HW118116   1.282   0.203   6.163
 5739SOL    HW218117   1.424   0.257   6.104
 5740SOL     OW18118   4.206   3.707   1.404
 5740SOL    HW118119   4.283   3.765   1.378
 5740SOL    HW218120   4.139   3.705   1.331
 5741SOL     OW18121   0.713   4.503   4.333
 5741SOL    HW118122   0.622   4.500   4.373
 5741SOL    HW218123   0.770   4.431   4.373
 5742SOL     OW18124   5.128   6.919   1.852
 5742SOL    HW118125   5.040   6.874   1.864
 5742SOL    HW218126   5.121   6.986   1.778
 5743SOL     OW18127   2.487   5.289   5.199
 5743SOL    HW118128   2.434   5.328   5.275
 5743SOL    HW218129   2.425   5.262   5.126
 5744SOL     OW18130   4.680   0.884   2.139
 5744SOL    HW118131   4.599   0.829   2.120
 5744SOL    HW218132   4.762   0.834   2.113
 5745SOL     OW18133   2.213   1.047   3.892
 5745SOL    HW118134   2.127   1.011   3.855
 5745SOL    HW218135   2.275   1.071   3.817
 5746SOL     OW18136   6.126   0.011   1.652
 5746SOL    HW118137   6.208   6.985   1.681
 5746SOL    HW218138   6.046   6.975   1.659
 5747SOL     OW18139   6.433   4.611   2.975
 5747SOL    HW118140   6.529   4.641   2.975
 5747SOL    HW218141   6.377   4.680   2.929
 5748SOL     OW18142   1.904   6.004   1.239
 5748SOL    HW118143   1.982   5.974   1.184
 5748SOL    HW218144   1.841   5.928   1.251
 5749SOL     OW18145   1.432   0.368   4.918
 5749SOL    HW118146   1.485   0.292   4.956
 5749SOL    HW218147   1.473   0.398   4.831
 5750SOL     OW18148   5.168   6.614   4.600
 5750SOL    HW118149   5.222   6.697   4.583
 5750SOL    HW218150   5.105   6.600   4.524
 5751SOL     OW18151   2.250   2.807   4.909
 5751SOL    HW118152   2.301   2.871   4.966
 5751SOL    HW218153   2.155   2.837   4.902
 5752SOL     OW18154   6.387   0.932   6.887
 5752SOL    HW118155   6.323   0.895   6.820
 5752SOL    HW218156   6.469   0.967   6.840
 5753SOL     OW18157   3.868   3.949   5.657
 5753SOL    HW118158   3.915   3.886   5.597
 5753SOL    HW218159   3.872   3.916   5.751
 5754SOL     OW18160   5.987   4.343   1.713
 5754SOL    HW118161   6.054   4.381   1.649
 5754SOL    HW218162   5.895   4.361   1.679
 5755SOL     OW18163   2.274   3.227   6.394
 5755SOL    HW118164   2.257   3.248   6.298
 5755SOL    HW218165   2.194   3.181   6.433
 5756SOL     OW18166   5.888   6.582   3.851
 5756SOL    HW118167   5.834   6.559   3.932
 5756SOL    HW218168   5.865   6.520   3.777
 5757SOL     OW18169   6.908   6.820   2.672
 5757SOL    HW118170   6.834   6.886   2.688
 5757SOL    HW218171   6.910   6.753   2.745
 5758SOL     OW18172   2.526   0.962   4.343
 5758SOL    HW118173   2.472   0.878   4.352
 5758SOL    HW218174   2.469   1.033   4.302
 5759SOL     OW18175   5.325   1.432   6.607
 5759SOL    HW118176   5.308   1.466   6.514
 5759SOL    HW218177   5.331   1.333   6.605
 5760SOL     OW18178   0.906   4.670   1.044
 5760SOL    HW118179   0.972   4.731   0.999
 5760SOL    HW218180   0.922   4.672   1.143
 5761SOL     OW18181   5.696   0.027   6.537
 5761SOL    HW118182   5.617   6.993   6.518
 5761SOL    HW218183   5.778   6.994   6.547
 5762SOL     OW18184   4.471   6.353   0.423
 5762SOL    HW118185   4.476   6.327   0.520
 5762SOL    HW218186   4.526   6.289   0.369
 5763SOL     OW18187   0.004   0.678   0.042
 5763SOL    HW118188   6.966   0.755   0.027
 5763SOL    HW218189   6.999   0.601   7.009
 5764SOL     OW18190   4.472   4.381   6.316
 5764SOL    HW118191   4.571   4.375   6.322
 5764SOL    HW218192   4.442   4.474   6.336
 5765SOL     OW18193   6.909   4.117   6.679
 5765SOL    HW118194   6.901   4.080   6.772
 5765SOL    HW218195   6.819   4.148   6.648
 5766SOL     OW18196   2.796   2.582   0.411
 5766SOL    HW118197   2.703   2.582   0.448
 5766SOL    HW218198   2.796   2.539   0.321
 5767SOL     OW18199   2.540   6.225   0.236
 5767SOL    HW118200   2.573   6.159   0.169
 5767SOL    HW218201   2.454   6.193   0.276
 5768SOL     OW18202   0.871   0.446   2.982
 5768SOL    HW118203   0.894   0.505   2.905
 5768SOL    HW218204   0.787   0.396   2.962
 5769SOL     OW18205   2.262   6.402   4.318
 5769SOL    HW118206   2.271   6.502   4.323
 5769SOL    HW218207   2.170   6.375   4.345
 5770SOL     OW18208   6.042   0.378   6.447
 5770SOL    HW118209   6.063   0.432   6.366
 5770SOL    HW218210   5.956   0.408   6.486
 5771SOL     OW18211   0.883   6.233   2.717
 5771SOL    HW118212   0.953   6.218   2.787
 5771SOL    HW218213   0.927   6.239   2.627
 5772SOL     OW18214   6.529   2.771   0.315
 5772SOL    HW118215   6.503   2.694   0.257
 5772SOL    HW218216   6.447   2.819   0.345
 5773SOL     OW18217   5.252   0.922   4.152
 5773SOL    HW118218   5.163   0.889   4.181
 5773SOL    HW218219   5.285   0.992   4.216
 5774SOL     OW18220   2.793   5.214   3.654
 5774SOL    HW118221   2.721   5.146   3.671
 5774SOL    HW218222   2.783   5.289   3.719
 5775SOL     OW18223   1.584   0.580   1.971
 5775SOL    HW118224   1.509   0.578   2.038
 5775SOL    HW218225   1.656   0.518   2.001
 5776SOL     OW18226   6.673   1.227   6.090
 5776SOL    HW118227   6.728   1.143   6.094
 5776SOL    HW218228   6.721   1.301   6.137
 5777SOL     OW18229   6.298   0.875   4.309
 5777SOL    HW118230   6.209   0.835   4.330
 5777SOL    HW218231   6.370   0.810   4.330
 5778SOL     OW18232   2.261   0.124   1.569
 5778SOL    HW118233   2.251   0.057   1.642
 5778SOL    HW218234   2.174   0.170   1.553
 5779SOL     OW18235   4.119   0.953   0.547
 5779SOL    HW118236   4.103   0.897   0.465
 5779SOL    HW218237   4.078   0.907   0.626
 5780SOL     OW18238   5.608   5.566   3.229
 5780SOL    HW118239   5.664   5.484   3.232
 5780SOL    HW218240   5.644   5.634   3.293
 5781SOL     OW18241   1.292   3.966   4.488
 5781SOL    HW118242   1.253   3.921   4.569
 5781SOL    HW218243   1.387   3.990   4.507
 5782SOL     OW18244   1.643   0.936   1.267
 5782SOL    HW118245   1.580   0.886   1.208
 5782SOL    HW218246   1.592   0.986   1.336
 5783SOL     OW18247   1.934   1.267   0.957
 5783SOL    HW118248   1.884   1.299   1.037
 5783SOL    HW218249   2.025   1.237   0.985
 5784SOL     OW18250   0.203   6.575   6.633
 5784SOL    HW118251   0.162   6.569   6.724
 5784SOL    HW218252   0.202   6.671   6.603
 5785SOL     OW18253   2.030   1.788   1.439
 5785SOL    HW118254   2.039   1.796   1.340
 5785SOL    HW218255   1.934   1.795   1.465
 5786SOL     OW18256   0.704   4.191   0.753
 5786SOL    HW118257   0.703   4.157   0.659
 5786SOL    HW218258   0.637   4.142   0.807
 5787SOL     OW18259   4.643   2.469   4.743
 5787SOL    HW118260   4.574   2.471   4.670
 5787SOL    HW218261   4.729   2.505   4.707
 5788SOL     OW18262   3.283   0.723   1.717
 5788SOL    HW118263   3.226   0.804   1.707
 5788SOL    HW218264   3.253   0.653   1.651
 5789SOL     OW18265   3.427   3.085   5.905
 5789SOL    HW118266   3.390   2.993   5.910
 5789SOL    HW218267   3.525   3.083   5.925
 5790SOL     OW18268   0.297   5.124   4.775
 5790SOL    HW118269   0.337   5.094   4.861
 5790SOL    HW218270   0.208   5.167   4.792
 5791SOL     OW18271   2.971   2.176   2.421
 5791SOL    HW118272   2.956   2.274   2.431
 5791SOL    HW218273   2.990   2.154   2.325
 5792SOL     OW18274   5.532   4.030   2.203
 5792SOL    HW118275   5.596   4.045   2.127
 5792SOL    HW218276   5.478   3.948   2.185
 5793SOL     OW18277   5.438   0.640   4.665
 5793SOL    HW118278   5.536   0.661   4.670
 5793SOL    HW218279   5.398   0.689   4.588
 5794SOL     OW18280   3.297   6.954   6.983
 5794SOL    HW118281   3.340   6.951   6.893
 5794SOL    HW218282   3.367   6.973   0.029
 5795SOL     OW18283   0.050   0.149   0.739
 5795SOL    HW118284   6.983   0.124   0.773
 5795SOL    HW218285   0.040   0.201   0.654
 5796SOL     OW18286   4.502   0.784   6.727
 5796SOL    HW118287   4.461   0.778   6.636
 5796SOL    HW218288   4.538   0.876   6.741
 5797SOL     OW18289   5.166   1.321   0.381
 5797SOL    HW118290   5.116   1.279   0.456
 5797SOL    HW218291   5.136   1.416   0.370
 5798SOL     OW18292   0.061   4.008   4.399
 5798SOL    HW118293   0.109   3.962   4.325
 5798SOL    HW218294   0.117   4.083   4.434
 5799SOL     OW18295   0.159   0.476   3.875
 5799SOL    HW118296   0.103   0.439   3.801
 5799SOL    HW218297   0.107   0.476   3.960
 5800SOL     OW18298   0.962   6.996   1.788
 5800SOL    HW118299   0.913   6.931   1.846
 5800SOL    HW218300   0.947   6.973   1.692
 5801SOL     OW18301   2.120   2.530   3.318
 5801SOL    HW118302   2.165   2.576   3.395
 5801SOL    HW218303   2.188   2.494   3.255
 5802SOL     OW18304   6.370   3.287   2.654
 5802SOL    HW118305   6.326   3.338   2.580
 5802SOL    HW218306   6.307   3.218   2.689
 5803SOL     OW18307   1.384   5.152   3.715
 5803SOL    HW118308   1.357   5.151   3.619
 5803SOL    HW218309   1.422   5.063   3.741
 5804SOL     OW18310   6.547   5.902   3.294
 5804SOL    HW118311   6.504   5.812   3.287
 5804SOL    HW218312   6.502   5.966   3.231
 5805SOL     OW18313   1.416   2.658   0.588
 5805SOL    HW118314   1.497   2.717   0.595
 5805SOL    HW218315   1.436   2.569   0.629
 5806SOL     OW18316   6.909   4.956   5.050
 5806SOL    HW118317   6.823   5.007   5.055
 5806SOL    HW218318   6.889   4.860   5.031
 5807SOL     OW18319   1.292   5.376   1.279
 5807SOL    HW118320   1.214   5.349   1.222
 5807SOL    HW218321   1.269   5.461   1.328
 5808SOL     OW18322   6.585   0.046   4.726
 5808SOL    HW118323   6.653   7.021   4.672
 5808SOL    HW218324   6.632   0.101   4.796
 5809SOL     OW18325   6.198   2.141   5.420
 5809SOL    HW118326   6.167   2.050   5.393
 5809SOL    HW218327   6.144   2.211   5.373
 5810SOL     OW18328   4.471   1.330   5.918
 5810SOL    HW118329   4.504   1.378   6.000
 5810SOL    HW218330   4.497   1.380   5.836
 5811SOL     OW18331   3.079   1.572   5.529
 5811SOL    HW118332   2.996   1.556   5.475
 5811SOL    HW218333   3.155   1.592   5.467
 5812SOL     OW18334   5.061   3.266   5.811
 5812SOL    HW118335   5.113   3.259   5.726
 5812SOL    HW218336   5.025   3.175   5.835
 5813SOL     OW18337   2.600   0.307   0.842
 5813SOL    HW118338   2.556   0.291   0.754
 5813SOL    HW218339   2.639   0.222   0.876
 5814SOL     OW18340   0.042   3.014   2.177
 5814SOL    HW118341   0.120   2.954   2.195
 5814SOL    HW218342   0.076   3.105   2.152
 5815SOL     OW18343   4.689   1.850   4.182
 5815SOL    HW118344   4.740   1.828   4.099
 5815SOL    HW218345   4.616   1.784   4.194
 5816SOL     OW18346   6.218   4.794   0.730
 5816SOL    HW118347   6.127   4.767   0.698
 5816SOL    HW218348   6.250   4.728   0.798
 5817SOL     OW18349   6.057   5.037   5.634
 5817SOL    HW118350   5.961   5.059   5.656
 5817SOL    HW218351   6.072   4.939   5.646
 5818SOL     OW18352   6.875   5.510   5.191
 5818SOL    HW118353   6.973   5.507   5.174
 5818SOL    HW218354   6.843   5.605   5.182
 5819SOL     OW18355   3.121   5.271   6.801
 5819SOL    HW118356   3.137   5.368   6.817
 5819SOL    HW218357   3.031   5.258   6.759
 5820SOL     OW18358   4.417   4.521   2.623
 5820SOL    HW118359   4.377   4.502   2.533
 5820SOL    HW218360   4.470   4.442   2.653
 5821SOL     OW18361   6.844   0.393   0.937
 5821SOL    HW118362   6.799   0.306   0.918
 5821SOL    HW218363   6.939   0.377   0.965
 5822SOL     OW18364   1.740   2.592   1.656
 5822SOL    HW118365   1.683   2.540   1.592
 5822SOL    HW218366   1.828   2.613   1.613
 5823SOL     OW18367   2.749   6.814   4.764
 5823SOL    HW118368   2.697   6.890   4.803
 5823SOL    HW218369   2.789   6.843   4.677
 5824SOL     OW18370   0.760   6.281   3.566
 5824SOL    HW118371   0.673   6.290   3.615
 5824SOL    HW218372   0.764   6.349   3.493
 5825SOL     OW18373   0.309   6.060   4.998
 5825SOL    HW118374   0.406   6.058   5.019
 5825SOL    HW218375   0.257   6.072   5.082
 5826SOL     OW18376   0.709   6.068   6.007
 5826SOL    HW118377   0.729   6.166   6.001
 5826SOL    HW218378   0.709   6.028   5.916
 5827SOL     OW18379   1.184   3.252   4.971
 5827SOL    HW118380   1.198   3.312   4.892
 5827SOL    HW218381   1.210   3.301   5.054
 5828SOL     OW18382   5.141   1.309   3.080
 5828SOL    HW118383   5.232   1.337   3.047
 5828SOL    HW218384   5.127   1.212   3.060
 5829SOL     OW18385   1.402   0.775   4.892
 5829SOL    HW118386   1.395   0.727   4.979
 5829SOL    HW218387   1.321   0.832   4.879
 5830SOL     OW18388   4.528   0.178   5.378
 5830SOL    HW118389   4.601   0.236   5.414
 5830SOL    HW218390   4.551   0.151   5.284
 5831SOL     OW18391   1.699   1.313   5.868
 5831SOL    HW118392   1.664   1.407   5.861
 5831SOL    HW218393   1.676   1.275   5.957
 5832SOL     OW18394   3.960   4.077   0.556
 5832SOL    HW118395   3.931   4.168   0.524
 5832SOL    HW218396   3.911   4.055   0.640
 5833SOL     OW18397   4.109   3.257   5.213
 5833SOL    HW118398   4.198   3.229   5.248
 5833SOL    HW218399   4.050   3.283   5.289
 5834SOL     OW18400   6.659   4.263   6.614
 5834SOL    HW118401   6.575   4.210   6.627
 5834SOL    HW218402   6.686   4.304   6.701
 5835SOL     OW18403   6.096   1.900   2.744
 5835SOL    HW118404   6.184   1.900   2.697
 5835SOL    HW218405   6.022   1.893   2.677
 5836SOL     OW18406   3.091   6.604   2.232
 5836SOL    HW118407   3.089   6.704   2.233
 5836SOL    HW218408   3.175   6.573   2.186
 5837SOL     OW18409   3.469   3.473   6.909
 5837SOL    HW118410   3.532   3.519   6.846
 5837SOL    HW218411   3.506   3.477   7.002
 5838SOL     OW18412   3.339   1.975   1.529
 5838SOL    HW118413   3.425   1.973   1.580
 5838SOL    HW218414   3.323   2.067   1.492
 5839SOL     OW18415   0.643   2.015   0.565
 5839SOL    HW118416   0.579   2.003   0.641
 5839SOL    HW218417   0.591   2.035   0.481
 5840SOL     OW18418   0.532   3.977   0.851
 5840SOL    HW118419   0.457   3.986   0.916
 5840SOL    HW218420   0.602   3.916   0.888
 5841SOL     OW18421   5.273   0.848   1.644
 5841SOL    HW118422   5.276   0.891   1.734
 5841SOL    HW218423   5.231   0.757   1.652
 5842SOL     OW18424   4.981   2.227   2.063
 5842SOL    HW118425   5.003   2.182   1.977
 5842SOL    HW218426   4.885   2.256   2.062
 5843SOL     OW18427   1.062   4.126   1.799
 5843SOL    HW118428   0.981   4.173   1.763
 5843SOL    HW218429   1.102   4.068   1.727
 5844SOL     OW18430   1.329   5.964   5.332
 5844SOL    HW118431   1.385   5.933   5.409
 5844SOL    HW218432   1.380   5.952   5.247
 5845SOL     OW18433   0.897   0.271   2.059
 5845SOL    HW118434   0.827   0.321   2.109
 5845SOL    HW218435   0.985   0.279   2.107
 5846SOL     OW18436   5.527   3.292   5.545
 5846SOL    HW118437   5.469   3.372   5.560
 5846SOL    HW218438   5.471   3.216   5.514
 5847SOL     OW18439   2.730   2.533   1.756
 5847SOL    HW118440   2.698   2.491   1.671
 5847SOL    HW218441   2.824   2.504   1.775
 5848SOL     OW18442   1.583   5.716   3.340
 5848SOL    HW118443   1.647   5.639   3.335
 5848SOL    HW218444   1.495   5.683   3.373
 5849SOL     OW18445   2.109   6.725   4.885
 5849SOL    HW118446   2.125   6.770   4.972
 5849SOL    HW218447   2.196   6.692   4.848
 5850SOL     OW18448   0.156   3.266   1.936
 5850SOL    HW118449   0.080   3.288   1.875
 5850SOL    HW218450   0.133   3.293   2.029
 5851SOL     OW18451   5.291   3.881   4.109
 5851SOL    HW118452   5.269   3.854   4.015
 5851SOL    HW218453   5.269   3.805   4.171
 5852SOL     OW18454   4.764   6.006   2.725
 5852SOL    HW118455   4.775   6.101   2.752
 5852SOL    HW218456   4.680   5.969   2.764
 5853SOL     OW18457   4.300   5.077   6.011
 5853SOL    HW118458   4.309   5.103   5.915
 5853SOL    HW218459   4.389   5.081   6.055
 5854SOL     OW18460   4.474   4.639   5.738
 5854SOL    HW118461   4.425   4.557   5.708
 5854SOL    HW218462   4.573   4.622   5.735
 5855SOL     OW18463   1.397   1.447   4.665
 5855SOL    HW118464   1.466   1.470   4.597
 5855SOL    HW218465   1.311   1.426   4.619
 5856SOL     OW18466   1.192   6.454   3.253
 5856SOL    HW118467   1.290   6.470   3.258
 5856SOL    HW218468   1.152   6.460   3.345
 5857SOL     OW18469   6.389   3.625   5.367
 5857SOL    HW118470   6.406   3.567   5.287
 5857SOL    HW218471   6.331   3.577   5.432
 5858SOL     OW18472   2.289   2.419   3.149
 5858SOL    HW118473   2.384   2.440   3.125
 5858SOL    HW218474   2.257   2.341   3.094
 5859SOL     OW18475   6.405   6.339   1.190
 5859SOL    HW118476   6.483   6.275   1.188
 5859SOL    HW218477   6.410   6.399   1.110
 5860SOL     OW18478   0.379   5.084   2.759
 5860SOL    HW118479   0.390   5.035   2.673
 5860SOL    HW218480   0.351   5.021   2.831
 5861SOL     OW18481   5.512   0.788   4.308
 5861SOL    HW118482   5.587   0.747   4.360
 5861SOL    HW218483   5.541   0.805   4.214
 5862SOL     OW18484   6.080   5.260   1.813
 5862SOL    HW118485   6.135   5.184   1.777
 5862SOL    HW218486   5.999   5.223   1.858
 5863SOL     OW18487   3.010   2.228   4.704
 5863SOL    HW118488   3.078   2.280   4.756
 5863SOL    HW218489   2.924   2.224   4.755
 5864SOL     OW18490   3.169   3.320   2.254
 5864SOL    HW118491   3.213   3.354   2.171
 5864SOL    HW218492   3.073   3.347   2.255
 5865SOL     OW18493   5.519   0.769   5.059
 5865SOL    HW118494   5.537   0.836   4.987
 5865SOL    HW218495   5.525   0.814   5.148
 5866SOL     OW18496   3.278   2.777   1.151
 5866SOL    HW118497   3.282   2.717   1.232
 5866SOL    HW218498   3.316   2.729   1.072
 5867SOL     OW18499   1.883   3.286   0.989
 5867SOL    HW118500   1.845   3.308   1.079
 5867SOL    HW218501   1.874   3.188   0.972
 5868SOL     OW18502   1.566   1.387   6.172
 5868SOL    HW118503   1.546   1.450   6.097
 5868SOL    HW218504   1.513   1.412   6.252
 5869SOL     OW18505   1.836   4.596   2.721
 5869SOL    HW118506   1.789   4.510   2.736
 5869SOL    HW218507   1.791   4.646   2.647
 5870SOL     OW18508   4.767   6.476   4.998
 5870SOL    HW118509   4.815   6.446   4.915
 5870SOL    HW218510   4.785   6.573   5.013
 5871SOL     OW18511   3.832   3.172   1.843
 5871SOL    HW118512   3.832   3.077   1.814
 5871SOL    HW218513   3.918   3.194   1.889
 5872SOL     OW18514   4.198   6.902   1.111
 5872SOL    HW118515   4.158   6.935   1.026
 5872SOL    HW218516   4.138   6.927   1.187
 5873SOL     OW18517   3.302   6.234   2.261
 5873SOL    HW118518   3.345   6.244   2.350
 5873SOL    HW218519   3.371   6.243   2.189
 5874SOL     OW18520   2.376   4.324   4.628
 5874SOL    HW118521   2.410   4.327   4.722
 5874SOL    HW218522   2.386   4.414   4.586
 5875SOL     OW18523   3.815   1.581   0.420
 5875SOL    HW118524   3.858   1.671   0.421
 5875SOL    HW218525   3.787   1.556   0.513
 5876SOL     OW18526   4.013   3.384   1.669
 5876SOL    HW118527   4.101   3.348   1.638
 5876SOL    HW218528   4.029   3.467   1.723
 5877SOL     OW18529   6.499   6.471   0.962
 5877SOL    HW118530   6.511   6.570   0.960
 5877SOL    HW218531   6.580   6.426   0.924
 5878SOL     OW18532   0.107   5.708   4.221
 5878SOL    HW118533   0.072   5.636   4.281
 5878SOL    HW218534   0.049   5.789   4.229
 5879SOL     OW18535   1.291   4.205   6.986
 5879SOL    HW118536   1.382   4.193   6.946
 5879SOL    HW218537   1.255   4.116   7.015
 5880SOL     OW18538   4.168   3.871   0.146
 5880SOL    HW118539   4.137   3.884   0.051
 5880SOL    HW218540   4.099   3.906   0.208
 5881SOL     OW18541   0.387   5.589   3.090
 5881SOL    HW118542   0.296   5.619   3.062
 5881SOL    HW218543   0.401   5.494   3.061
 5882SOL     OW18544   0.002   6.360   0.948
 5882SOL    HW118545   0.017   6.454   0.919
 5882SOL    HW218546   0.050   6.298   0.886
 5883SOL     OW18547   0.893   1.655   6.491
 5883SOL    HW118548   0.920   1.560   6.474
 5883SOL    HW218549   0.831   1.659   6.569
 5884SOL     OW18550   2.889   1.709   4.502
 5884SOL    HW118551   2.985   1.710   4.472
 5884SOL    HW218552   2.865   1.797   4.541
 5885SOL     OW18553   0.561   0.505   2.614
 5885SOL    HW118554   0.559   0.534   2.710
 5885SOL    HW218555   0.585   0.582   2.556
 5886SOL     OW18556   0.320   2.566   4.816
 5886SOL    HW118557   0.248   2.630   4.841
 5886SOL    HW218558   0.289   2.472   4.832
 5887SOL     OW18559   2.884   1.394   3.538
 5887SOL    HW118560   2.896   1.322   3.469
 5887SOL    HW218561   2.908   1.482   3.498
 5888SOL     OW18562   3.319   0.806   2.117
 5888SOL    HW118563   3.345   0.902   2.118
 5888SOL    HW218564   3.401   0.749   2.124
 5889SOL     OW18565   1.514   6.674   1.352
 5889SOL    HW118566   1.495   6.755   1.297
 5889SOL    HW218567   1.517   6.699   1.449
 5890SOL     OW18568   1.792   0.448   4.504
 5890SOL    HW118569   1.693   0.450   4.515
 5890SOL    HW218570   1.815   0.440   4.406
 5891SOL     OW18571   3.287   3.221   5.733
 5891SOL    HW118572   3.258   3.149   5.669
 5891SOL    HW218573   3.344   3.181   5.805
 5892SOL     OW18574   0.316   5.275   1.160
 5892SOL    HW118575   0.391   5.310   1.103
 5892SOL    HW218576   0.351   5.202   1.218
 5893SOL     OW18577   1.718   4.323   4.578
 5893SOL    HW118578   1.787   4.378   4.531
 5893SOL    HW218579   1.646   4.383   4.614
 5894SOL     OW18580   6.536   5.358   4.395
 5894SOL    HW118581   6.569   5.374   4.302
 5894SOL    HW218582   6.493   5.441   4.430
 5895SOL     OW18583   5.259   3.337   4.295
 5895SOL    HW118584   5.245   3.281   4.377
 5895SOL    HW218585   5.357   3.342   4.275
 5896SOL     OW18586   4.295   1.004   0.117
 5896SOL    HW118587   4.303   0.924   0.058
 5896SOL    HW218588   4.201   1.014   0.148
 5897SOL     OW18589   3.930   0.687   1.456
 5897SOL    HW118590   3.941   0.592   1.428
 5897SOL    HW218591   3.911   0.691   1.554
 5898SOL     OW18592   2.664   6.661   3.135
 5898SOL    HW118593   2.743   6.653   3.074
 5898SOL    HW218594   2.645   6.573   3.178
 5899SOL     OW18595   5.041   6.592   5.820
 5899SOL    HW118596   5.109   6.521   5.836
 5899SOL    HW218597   5.004   6.623   5.908
 5900SOL     OW18598   5.026   5.184   3.596
 5900SOL    HW118599   4.933   5.173   3.631
 5900SOL    HW218600   5.023   5.219   3.503
 5901SOL     OW18601   2.321   0.437   0.293
 5901SOL    HW118602   2.405   0.418   0.243
 5901SOL    HW218603   2.321   0.388   0.380
 5902SOL     OW18604   6.937   2.529   6.036
 5902SOL    HW118605   6.947   2.576   5.949
 5902SOL    HW218606   6.960   2.432   6.025
 5903SOL     OW18607   3.934   3.831   0.393
 5903SOL    HW118608   3.841   3.851   0.361
 5903SOL    HW218609   3.968   3.909   0.446
 5904SOL     OW18610   0.950   3.530   2.019
 5904SOL    HW118611   0.918   3.440   1.987
 5904SOL    HW218612   0.875   3.577   2.065
 5905SOL     OW18613   6.207   6.178   3.005
 5905SOL    HW118614   6.116   6.163   3.042
 5905SOL    HW218615   6.222   6.277   2.994
 5906SOL     OW18616   4.348   2.073   3.588
 5906SOL    HW118617   4.436   2.097   3.629
 5906SOL    HW218618   4.354   2.082   3.489
 5907SOL     OW18619   1.288   5.078   1.142
 5907SOL    HW118620   1.231   5.024   1.204
 5907SOL    HW218621   1.381   5.085   1.180
 5908SOL     OW18622   0.253   2.614   6.683
 5908SOL    HW118623   0.189   2.559   6.628
 5908SOL    HW218624   0.227   2.606   6.780
 5909SOL     OW18625   6.700   5.190   0.705
 5909SOL    HW118626   6.791   5.185   0.664
 5909SOL    HW218627   6.646   5.112   0.674
 5910SOL     OW18628   0.504   3.122   3.945
 5910SOL    HW118629   0.488   3.090   3.851
 5910SOL    HW218630   0.435   3.084   4.006
 5911SOL     OW18631   6.436   6.696   6.336
 5911SOL    HW118632   6.361   6.681   6.271
 5911SOL    HW218633   6.402   6.747   6.415
 5912SOL     OW18634   0.188   0.596   5.716
 5912SOL    HW118635   0.261   0.562   5.775
 5912SOL    HW218636   0.191   0.548   5.628
 5913SOL     OW18637   4.653   2.758   6.370
 5913SOL    HW118638   4.580   2.753   6.438
 5913SOL    HW218639   4.681   2.853   6.357
 5914SOL     OW18640   1.625   5.403   0.092
 5914SOL    HW118641   1.656   5.498   0.091
 5914SOL    HW218642   1.545   5.394   0.033
 5915SOL     OW18643   4.636   5.848   1.222
 5915SOL    HW118644   4.642   5.754   1.189
 5915SOL    HW218645   4.726   5.892   1.215
 5916SOL     OW18646   6.184   6.139   3.597
 5916SOL    HW118647   6.245   6.212   3.627
 5916SOL    HW218648   6.214   6.105   3.507
 5917SOL     OW18649   3.408   4.069   4.190
 5917SOL    HW118650   3.427   3.976   4.221
 5917SOL    HW218651   3.349   4.115   4.257
 5918SOL     OW18652   2.529   4.257   5.356
 5918SOL    HW118653   2.583   4.190   5.305
 5918SOL    HW218654   2.433   4.228   5.358
 5919SOL     OW18655   3.949   3.031   3.349
 5919SOL    HW118656   3.976   3.113   3.299
 5919SOL    HW218657   3.872   2.988   3.303
 5920SOL     OW18658   4.956   0.705   6.410
 5920SOL    HW118659   4.963   0.699   6.310
 5920SOL    HW218660   5.047   0.705   6.450
 5921SOL     OW18661   4.050   5.158   6.561
 5921SOL    HW118662   4.110   5.234   6.535
 5921SOL    HW218663   3.955   5.184   6.544
 5922SOL     OW18664   5.754   3.667   3.734
 5922SOL    HW118665   5.677   3.721   3.770
 5922SOL    HW218666   5.745   3.659   3.635
 5923SOL     OW18667   0.060   1.668   1.721
 5923SOL    HW118668   7.002   1.699   1.769
 5923SOL    HW218669   0.061   1.568   1.718
 5924SOL     OW18670   6.743   7.020   2.739
 5924SOL    HW118671   6.645   0.017   2.740
 5924SOL    HW218672   6.789   0.051   2.670
 5925SOL     OW18673   3.793   6.755   1.682
 5925SOL    HW118674   3.699   6.757   1.649
 5925SOL    HW218675   3.798   6.706   1.769
 5926SOL     OW18676   3.750   5.177   2.682
 5926SOL    HW118677   3.747   5.080   2.705
 5926SOL    HW218678   3.686   5.195   2.607
 5927SOL     OW18679   0.904   4.837   2.395
 5927SOL    HW118680   0.909   4.913   2.459
 5927SOL    HW218681   0.841   4.860   2.321
 5928SOL     OW18682   3.054   6.499   0.835
 5928SOL    HW118683   3.051   6.400   0.820
 5928SOL    HW218684   2.963   6.538   0.820
 5929SOL     OW18685   6.437   0.661   5.939
 5929SOL    HW118686   6.433   0.731   6.011
 5929SOL    HW218687   6.385   0.581   5.968
 5930SOL     OW18688   6.893   3.938   3.002
 5930SOL    HW118689   6.907   3.931   2.903
 5930SOL    HW218690   6.954   3.874   3.049
 5931SOL     OW18691   6.239   6.464   3.020
 5931SOL    HW118692   6.159   6.498   3.068
 5931SOL    HW218693   6.306   6.537   3.009
 5932SOL     OW18694   3.150   6.900   1.054
 5932SOL    HW118695   3.137   6.803   1.034
 5932SOL    HW218696   3.229   6.912   1.113
 5933SOL     OW18697   6.406   4.957   4.185
 5933SOL    HW118698   6.408   4.870   4.234
 5933SOL    HW218699   6.389   5.031   4.250
 5934SOL     OW18700   3.578   2.897   5.119
 5934SOL    HW118701   3.504   2.849   5.167
 5934SOL    HW218702   3.591   2.987   5.160
 5935SOL     OW18703   0.080   5.421   6.298
 5935SOL    HW118704   0.042   5.345   6.350
 5935SOL    HW218705   0.019   5.500   6.305
 5936SOL     OW18706   3.366   2.551   1.304
 5936SOL    HW118707   3.304   2.591   1.371
 5936SOL    HW218708   3.458   2.548   1.341
 5937SOL     OW18709   6.244   3.176   1.852
 5937SOL    HW118710   6.314   3.124   1.901
 5937SOL    HW218711   6.233   3.266   1.895
 5938SOL     OW18712   6.363   5.731   3.492
 5938SOL    HW118713   6.376   5.736   3.591
 5938SOL    HW218714   6.368   5.822   3.453
 5939SOL     OW18715   2.066   6.065   3.238
 5939SOL    HW118716   2.142   6.079   3.302
 5939SOL    HW218717   2.075   6.130   3.163
 5940SOL     OW18718   4.746   5.164   2.564
 5940SOL    HW118719   4.703   5.253   2.576
 5940SOL    HW218720   4.705   5.117   2.485
 5941SOL     OW18721   6.044   3.922   2.010
 5941SOL    HW118722   5.950   3.890   2.014
 5941SOL    HW218723   6.055   4.000   2.072
 5942SOL     OW18724   5.101   3.590   6.850
 5942SOL    HW118725   5.056   3.503   6.868
 5942SOL    HW218726   5.143   3.589   6.759
 5943SOL     OW18727   3.483   3.967   5.888
 5943SOL    HW118728   3.496   3.919   5.975
 5943SOL    HW218729   3.390   4.004   5.884
 5944SOL     OW18730   0.092   2.304   0.098
 5944SOL    HW118731   0.192   2.309   0.103
 5944SOL    HW218732   0.061   2.216   0.135
 5945SOL     OW18733   6.349   4.783   5.021
 5945SOL    HW118734   6.323   4.769   4.926
 5945SOL    HW218735   6.322   4.703   5.075
 5946SOL     OW18736   3.332   3.526   6.111
 5946SOL    HW118737   3.346   3.570   6.023
 5946SOL    HW218738   3.286   3.589   6.174
 5947SOL     OW18739   3.827   3.596   3.032
 5947SOL    HW118740   3.792   3.558   3.117
 5947SOL    HW218741   3.828   3.525   2.961
 5948SOL     OW18742   4.129   4.834   2.784
 5948SOL    HW118743   4.207   4.779   2.813
 5948SOL    HW218744   4.076   4.784   2.716
 5949SOL     OW18745   5.285   4.221   1.767
 5949SOL    HW118746   5.378   4.257   1.779
 5949SOL    HW218747   5.251   4.187   1.854
 5950SOL     OW18748   5.068   1.539   5.144
 5950SOL    HW118749   5.018   1.582   5.068
 5950SOL    HW218750   5.029   1.450   5.164
 5951SOL     OW18751   1.477   5.140   4.258
 5951SOL    HW118752   1.519   5.115   4.171
 5951SOL    HW218753   1.409   5.071   4.283
 5952SOL     OW18754   5.208   5.783   3.382
 5952SOL    HW118755   5.300   5.822   3.393
 5952SOL    HW218756   5.192   5.714   3.453
 5953SOL     OW18757   6.644   3.732   5.438
 5953SOL    HW118758   6.565   3.693   5.390
 5953SOL    HW218759   6.692   3.659   5.486
 5954SOL     OW18760   6.129   5.845   5.648
 5954SOL    HW118761   6.177   5.929   5.621
 5954SOL    HW218762   6.194   5.782   5.692
 5955SOL     OW18763   4.507   5.567   1.916
 5955SOL    HW118764   4.442   5.536   1.985
 5955SOL    HW218765   4.600   5.554   1.949
 5956SOL     OW18766   4.860   2.363   4.015
 5956SOL    HW118767   4.779   2.359   4.073
 5956SOL    HW218768   4.909   2.449   4.032
 5957SOL     OW18769   3.023   1.299   4.592
 5957SOL    HW118770   3.076   1.317   4.509
 5957SOL    HW218771   3.026   1.201   4.613
 5958SOL     OW18772   4.317   0.191   2.909
 5958SOL    HW118773   4.302   0.165   2.813
 5958SOL    HW218774   4.280   0.282   2.925
 5959SOL     OW18775   4.334   2.906   5.331
 5959SOL    HW118776   4.418   2.960   5.336
 5959SOL    HW218777   4.266   2.944   5.395
 5960SOL     OW18778   3.974   5.296   5.057
 5960SOL    HW118779   3.889   5.310   5.109
 5960SOL    HW218780   4.010   5.385   5.028
 5961SOL     OW18781   4.187   2.299   2.773
 5961SOL    HW118782   4.131   2.368   2.727
 5961SOL    HW218783   4.148   2.208   2.757
 5962SOL     OW18784   6.540   6.400   6.564
 5962SOL    HW118785   6.586   6.338   6.628
 5962SOL    HW218786   6.501   6.477   6.614
 5963SOL     OW18787   3.235   3.748   6.259
 5963SOL    HW118788   3.215   3.845   6.242
 5963SOL    HW218789   3.226   3.729   6.357
 5964SOL     OW18790   1.432   6.580   4.871
 5964SOL    HW118791   1.512   6.624   4.832
 5964SOL    HW218792   1.352   6.640   4.862
 5965SOL     OW18793   1.745   1.800   0.012
 5965SOL    HW118794   1.702   1.710   0.025
 5965SOL    HW218795   1.840   1.796   0.041
 5966SOL     OW18796   2.675   5.810   6.041
 5966SOL    HW118797   2.721   5.899   6.041
 5966SOL    HW218798   2.680   5.770   6.133
 5967SOL     OW18799   2.754   6.923   6.035
 5967SOL    HW118800   2.713   6.992   6.094
 5967SOL    HW218801   2.683   6.881   5.978
 5968SOL     OW18802   4.957   2.156   0.127
 5968SOL    HW118803   4.962   2.086   0.198
 5968SOL    HW218804   4.868   2.202   0.132
 5969SOL     OW18805   6.168   0.540   6.635
 5969SOL    HW118806   6.252   0.576   6.595
 5969SOL    HW218807   6.115   0.493   6.564
 5970SOL     OW18808   0.165   4.241   2.616
 5970SOL    HW118809   0.205   4.152   2.639
 5970SOL    HW218810   0.182   4.261   2.520
 5971SOL     OW18811   0.215   1.539   1.977
 5971SOL    HW118812   0.130   1.511   1.934
 5971SOL    HW218813   0.261   1.607   1.920
 5972SOL     OW18814   5.072   5.753   6.629
 5972SOL    HW118815   5.072   5.811   6.548
 5972SOL    HW218816   5.022   5.668   6.609
 5973SOL     OW18817   1.702   3.017   1.847
 5973SOL    HW118818   1.781   3.031   1.788
 5973SOL    HW218819   1.665   2.925   1.831
 5974SOL     OW18820   5.729   5.941   6.949
 5974SOL    HW118821   5.735   5.949   6.849
 5974SOL    HW218822   5.642   5.980   6.980
 5975SOL     OW18823   4.032   6.987   0.914
 5975SOL    HW118824   3.990   0.050   0.941
 5975SOL    HW218825   4.000   6.962   0.823
 5976SOL     OW18826   4.157   2.665   6.070
 5976SOL    HW118827   4.246   2.710   6.060
 5976SOL    HW218828   4.093   2.703   6.004
 5977SOL     OW18829   1.011   6.231   0.898
 5977SOL    HW118830   1.111   6.236   0.907
 5977SOL    HW218831   0.986   6.246   0.803
 5978SOL     OW18832   3.929   5.446   1.586
 5978SOL    HW118833   3.846   5.500   1.572
 5978SOL    HW218834   3.963   5.413   1.498
 5979SOL     OW18835   6.578   0.547   3.113
 5979SOL    HW118836   6.567   0.643   3.088
 5979SOL    HW218837   6.519   0.524   3.190
 5980SOL     OW18838   3.991   3.935   1.935
 5980SOL    HW118839   3.972   4.000   1.861
 5980SOL    HW218840   3.910   3.926   1.993
 5981SOL     OW18841   5.270   2.130   0.657
 5981SOL    HW118842   5.227   2.041   0.639
 5981SOL    HW218843   5.244   2.194   0.585
 5982SOL     OW18844   6.336   2.313   1.844
 5982SOL    HW118845   6.316   2.240   1.910
 5982SOL    HW218846   6.251   2.354   1.813
 5983SOL     OW18847   0.927   1.185   4.341
 5983SOL    HW118848   0.849   1.123   4.341
 5983SOL    HW218849   1.010   1.135   4.319
 5984SOL     OW18850   5.379   6.182   3.436
 5984SOL    HW118851   5.336   6.098   3.402
 5984SOL    HW218852   5.375   6.252   3.365
 5985SOL     OW18853   6.514   3.056   3.780
 5985SOL    HW118854   6.591   3.111   3.749
 5985SOL    HW218855   6.541   2.960   3.786
 5986SOL     OW18856   3.189   4.078   4.385
 5986SOL    HW118857   3.154   3.985   4.379
 5986SOL    HW218858   3.179   4.112   4.479
 5987SOL     OW18859   6.024   0.465   4.151
 5987SOL    HW118860   6.042   0.380   4.100
 5987SOL    HW218861   5.933   0.499   4.128
 5988SOL     OW18862   4.229   0.884   5.497
 5988SOL    HW118863   4.200   0.839   5.412
 5988SOL    HW218864   4.214   0.982   5.489
 5989SOL     OW18865   2.006   5.723   6.396
 5989SOL    HW118866   2.057   5.765   6.321
 5989SOL    HW218867   1.908   5.734   6.380
 5990SOL     OW18868   3.149   3.259   0.969
 5990SOL    HW118869   3.140   3.248   0.870
 5990SOL    HW218870   3.205   3.185   1.005
 5991SOL     OW18871   4.179   5.438   6.764
 5991SOL    HW118872   4.120   5.418   6.842
 5991SOL    HW218873   4.233   5.520   6.783
 5992SOL     OW18874   3.599   0.206   2.383
 5992SOL    HW118875   3.550   0.290   2.362
 5992SOL    HW218876   3.695   0.216   2.355
 5993SOL     OW18877   3.753   4.244   6.413
 5993SOL    HW118878   3.658   4.241   6.441
 5993SOL    HW218879   3.795   4.154   6.426
 5994SOL     OW18880   6.768   2.286   0.308
 5994SOL    HW118881   6.722   2.209   0.353
 5994SOL    HW218882   6.829   2.331   0.373
 5995SOL     OW18883   4.940   3.445   2.371
 5995SOL    HW118884   4.891   3.458   2.285
 5995SOL    HW218885   5.035   3.421   2.353
 5996SOL     OW18886   0.325   6.742   0.807
 5996SOL    HW118887   0.360   6.651   0.784
 5996SOL    HW218888   0.401   6.806   0.817
 5997SOL     OW18889   0.183   5.276   2.433
 5997SOL    HW118890   0.170   5.371   2.461
 5997SOL    HW218891   0.099   5.241   2.391
 5998SOL     OW18892   6.472   1.582   2.074
 5998SOL    HW118893   6.492   1.522   1.996
 5998SOL    HW218894   6.466   1.528   2.158
 5999SOL     OW18895   2.979   2.968   1.644
 5999SOL    HW118896   3.000   2.890   1.703
 5999SOL    HW218897   2.971   2.938   1.549
 6000SOL     OW18898   2.547   6.476   7.006
 6000SOL    HW118899   2.581   6.502   0.073
 6000SOL    HW218900   2.536   6.376   7.002
 6001SOL     OW18901   6.966   4.901   6.960
 6001SOL    HW118902   6.927   4.979   6.911
 6001SOL    HW218903   0.038   4.889   6.933
 6002SOL     OW18904   5.982   0.280   0.087
 6002SOL    HW118905   6.008   0.318   7.022
 6002SOL    HW218906   5.930   0.349   0.138
 6003SOL     OW18907   5.429   2.012   5.043
 6003SOL    HW118908   5.330   2.019   5.051
 6003SOL    HW218909   5.452   1.936   4.983
 6004SOL     OW18910   0.367   3.979   2.874
 6004SOL    HW118911   0.358   3.951   2.970
 6004SOL    HW218912   0.291   4.038   2.849
 6005SOL     OW18913   5.282   5.552   5.062
 6005SOL    HW118914   5.204   5.613   5.073
 6005SOL    HW218915   5.250   5.457   5.057
 6006SOL     OW18916   2.418   0.391   5.749
 6006SOL    HW118917   2.376   0.431   5.830
 6006SOL    HW218918   2.364   0.313   5.718
 6007SOL     OW18919   5.624   3.706   5.713
 6007SOL    HW118920   5.568   3.706   5.630
 6007SOL    HW218921   5.707   3.652   5.698
 6008SOL     OW18922   2.872   4.673   5.402
 6008SOL    HW118923   2.773   4.682   5.388
 6008SOL    HW218924   2.912   4.625   5.324
 6009SOL     OW18925   2.616   0.903   3.693
 6009SOL    HW118926   2.700   0.848   3.689
 6009SOL    HW218927   2.549   0.865   3.629
 6010SOL     OW18928   1.007   5.375   3.932
 6010SOL    HW118929   1.104   5.397   3.943
 6010SOL    HW218930   0.964   5.441   3.871
 6011SOL     OW18931   6.011   2.926   3.443
 6011SOL    HW118932   6.041   2.833   3.421
 6011SOL    HW218933   5.934   2.922   3.507
 6012SOL     OW18934   5.768   0.915   0.830
 6012SOL    HW118935   5.697   0.845   0.832
 6012SOL    HW218936   5.858   0.871   0.823
 6013SOL     OW18937   5.415   1.126   2.920
 6013SOL    HW118938   5.440   1.191   2.848
 6013SOL    HW218939   5.444   1.034   2.893
 6014SOL     OW18940   3.768   4.072   3.212
 6014SOL    HW118941   3.740   4.082   3.308
 6014SOL    HW218942   3.705   4.123   3.153
 6015SOL     OW18943   5.544   4.138   4.365
 6015SOL    HW118944   5.621   4.192   4.398
 6015SOL    HW218945   5.474   4.132   4.436
 6016SOL     OW18946   6.601   2.298   5.833
 6016SOL    HW118947   6.655   2.359   5.775
 6016SOL    HW218948   6.574   2.348   5.916
 6017SOL     OW18949   5.939   4.792   3.447
 6017SOL    HW118950   5.995   4.727   3.395
 6017SOL    HW218951   5.903   4.748   3.529
 6018SOL     OW18952   3.898   0.744   6.210
 6018SOL    HW118953   3.799   0.748   6.197
 6018SOL    HW218954   3.942   0.716   6.124
 6019SOL     OW18955   0.752   2.984   4.620
 6019SOL    HW118956   0.770   3.079   4.647
 6019SOL    HW218957   0.802   2.922   4.680
 6020SOL     OW18958   0.564   5.267   0.644
 6020SOL    HW118959   0.468   5.279   0.623
 6020SOL    HW218960   0.575   5.258   0.743
 6021SOL     OW18961   4.534   0.791   3.172
 6021SOL    HW118962   4.616   0.733   3.179
 6021SOL    HW218963   4.468   0.748   3.110
 6022SOL     OW18964   6.461   1.786   3.284
 6022SOL    HW118965   6.473   1.867   3.227
 6022SOL    HW218966   6.408   1.718   3.233
 6023SOL     OW18967   5.841   1.013   1.689
 6023SOL    HW118968   5.865   0.946   1.759
 6023SOL    HW218969   5.886   1.100   1.709
 6024SOL     OW18970   1.373   4.585   2.172
 6024SOL    HW118971   1.391   4.684   2.173
 6024SOL    HW218972   1.361   4.553   2.266
 6025SOL     OW18973   3.291   1.940   3.463
 6025SOL    HW118974   3.227   1.911   3.533
 6025SOL    HW218975   3.375   1.886   3.470
 6026SOL     OW18976   0.252   4.831   5.650
 6026SOL    HW118977   0.208   4.768   5.587
 6026SOL    HW218978   0.269   4.918   5.604
 6027SOL     OW18979   0.260   3.607   5.349
 6027SOL    HW118980   0.337   3.558   5.389
 6027SOL    HW218981   0.217   3.665   5.419
 6028SOL     OW18982   5.973   4.773   0.489
 6028SOL    HW118983   5.914   4.850   0.510
 6028SOL    HW218984   6.007   4.782   0.395
 6029SOL     OW18985   2.175   6.903   4.545
 6029SOL    HW118986   2.179   6.805   4.526
 6029SOL    HW218987   2.197   6.919   4.641
 6030SOL     OW18988   4.252   5.060   2.743
 6030SOL    HW118989   4.212   4.970   2.756
 6030SOL    HW218990   4.342   5.063   2.786
 6031SOL     OW18991   3.392   5.355   4.380
 6031SOL    HW118992   3.335   5.433   4.354
 6031SOL    HW218993   3.412   5.300   4.299
 6032SOL     OW18994   2.123   4.454   2.189
 6032SOL    HW118995   2.085   4.545   2.206
 6032SOL    HW218996   2.048   4.390   2.170
 6033SOL     OW18997   2.485   2.581   3.342
 6033SOL    HW118998   2.516   2.509   3.405
 6033SOL    HW218999   2.514   2.557   3.249
 6034SOL     OW19000   1.248   0.183   5.190
 6034SOL    HW119001   1.230   0.177   5.091
 6034SOL    HW219002   1.210   0.268   5.225
 6035SOL     OW19003   1.207   1.414   2.051
 6035SOL    HW119004   1.209   1.400   1.952
 6035SOL    HW219005   1.221   1.511   2.071
 6036SOL     OW19006   5.146   5.101   3.176
 6036SOL    HW119007   5.047   5.090   3.164
 6036SOL    HW219008   5.193   5.077   3.091
 6037SOL     OW19009   3.949   7.022   0.631
 6037SOL    HW119010   3.935   6.934   0.584
 6037SOL    HW219011   4.046   0.013   0.646
 6038SOL     OW19012   1.089   2.960   5.887
 6038SOL    HW119013   1.144   2.897   5.832
 6038SOL    HW219014   1.125   2.964   5.980
 6039SOL     OW19015   3.987   3.104   2.582
 6039SOL    HW119016   3.925   3.048   2.636
 6039SOL    HW219017   4.048   3.045   2.529
 6040SOL     OW19018   1.607   2.310   1.139
 6040SOL    HW119019   1.686   2.250   1.142
 6040SOL    HW219020   1.539   2.279   1.205
 6041SOL     OW19021   2.994   0.824   5.234
 6041SOL    HW119022   3.040   0.746   5.193
 6041SOL    HW219023   2.914   0.793   5.286
 6042SOL     OW19024   4.185   6.960   2.415
 6042SOL    HW119025   4.120   6.894   2.454
 6042SOL    HW219026   4.249   6.912   2.355
 6043SOL     OW19027   1.089   6.116   5.360
 6043SOL    HW119028   1.087   6.200   5.306
 6043SOL    HW219029   1.176   6.069   5.345
 6044SOL     OW19030   1.545   2.849   1.355
 6044SOL    HW119031   1.640   2.831   1.377
 6044SOL    HW219032   1.500   2.895   1.432
 6045SOL     OW19033   6.439   3.912   2.255
 6045SOL    HW119034   6.359   3.928   2.314
 6045SOL    HW219035   6.461   3.995   2.205
 6046SOL     OW19036   3.639   2.414   0.872
 6046SOL    HW119037   3.618   2.487   0.807
 6046SOL    HW219038   3.554   2.380   0.913
 6047SOL     OW19039   5.421   1.783   2.000
 6047SOL    HW119040   5.460   1.825   1.918
 6047SOL    HW219041   5.367   1.702   1.974
 6048SOL     OW19042   4.576   5.151   5.424
 6048SOL    HW119043   4.647   5.098   5.470
 6048SOL    HW219044   4.570   5.242   5.467
 6049SOL     OW19045   4.959   3.356   6.890
 6049SOL    HW119046   4.889   3.412   6.935
 6049SOL    HW219047   4.932   3.259   6.895
 6050SOL     OW19048   3.332   4.680   5.922
 6050SOL    HW119049   3.416   4.734   5.929
 6050SOL    HW219050   3.260   4.736   5.880
 6051SOL     OW19051   1.533   0.315   3.676
 6051SOL    HW119052   1.617   0.350   3.634
 6051SOL    HW219053   1.492   0.247   3.616
 6052SOL     OW19054   5.378   1.424   0.959
 6052SOL    HW119055   5.302   1.382   0.909
 6052SOL    HW219056   5.459   1.366   0.949
 6053SOL     OW19057   4.394   1.135   6.334
 6053SOL    HW119058   4.340   1.195   6.275
 6053SOL    HW219059   4.483   1.118   6.293
 6054SOL     OW19060   2.472   2.759   6.758
 6054SOL    HW119061   2.458   2.660   6.757
 6054SOL    HW219062   2.485   2.790   6.852
 6055SOL     OW19063   5.352   0.189   5.502
 6055SOL    HW119064   5.363   0.186   5.601
 6055SOL    HW219065   5.442   0.196   5.458
 6056SOL     OW19066   4.899   3.334   4.856
 6056SOL    HW119067   4.897   3.253   4.915
 6056SOL    HW219068   4.849   3.409   4.899
 6057SOL     OW19069   0.118   1.333   2.644
 6057SOL    HW119070   0.059   1.402   2.687
 6057SOL    HW219071   0.132   1.257   2.708
 6058SOL     OW19072   4.674   3.815   1.740
 6058SOL    HW119073   4.641   3.757   1.666
 6058SOL    HW219074   4.603   3.880   1.765
 6059SOL     OW19075   5.071   5.407   6.325
 6059SOL    HW119076   5.043   5.327   6.272
 6059SOL    HW219077   5.011   5.419   6.403
 6060SOL     OW19078   3.133   3.367   6.182
 6060SOL    HW119079   3.080   3.363   6.097
 6060SOL    HW219080   3.227   3.394   6.161
 6061SOL     OW19081   4.948   3.315   1.078
 6061SOL    HW119082   5.042   3.327   1.107
 6061SOL    HW219083   4.914   3.227   1.111
 6062SOL     OW19084   2.665   1.437   5.558
 6062SOL    HW119085   2.733   1.456   5.488
 6062SOL    HW219086   2.676   1.502   5.633
 6063SOL     OW19087   4.660   2.286   6.191
 6063SOL    HW119088   4.601   2.367   6.193
 6063SOL    HW219089   4.670   2.250   6.284
 6064SOL     OW19090   1.019   0.081   1.434
 6064SOL    HW119091   0.946   0.032   1.482
 6064SOL    HW219092   1.048   0.159   1.489
 6065SOL     OW19093   0.752   6.463   3.148
 6065SOL    HW119094   0.800   6.383   3.115
 6065SOL    HW219095   0.748   6.461   3.248
 6066SOL     OW19096   4.677   1.665   5.237
 6066SOL    HW119097   4.633   1.731   5.297
 6066SOL    HW219098   4.610   1.628   5.173
 6067SOL     OW19099   5.795   0.899   5.804
 6067SOL    HW119100   5.697   0.916   5.809
 6067SOL    HW219101   5.845   0.985   5.811
 6068SOL     OW19102   4.659   2.659   4.374
 6068SOL    HW119103   4.621   2.657   4.282
 6068SOL    HW219104   4.718   2.739   4.384
 6069SOL     OW19105   6.093   2.768   5.229
 6069SOL    HW119106   6.099   2.789   5.131
 6069SOL    HW219107   6.159   2.823   5.280
 6070SOL     OW19108   2.929   2.114   1.366
 6070SOL    HW119109   2.843   2.073   1.335
 6070SOL    HW219110   3.003   2.088   1.304
 6071SOL     OW19111   6.006   5.457   5.322
 6071SOL    HW119112   6.015   5.546   5.366
 6071SOL    HW219113   5.938   5.463   5.249
 6072SOL     OW19114   6.723   0.190   1.624
 6072SOL    HW119115   6.682   0.140   1.548
 6072SOL    HW219116   6.814   0.223   1.598
 6073SOL     OW19117   5.687   3.060   0.835
 6073SOL    HW119118   5.630   3.142   0.836
 6073SOL    HW219119   5.679   3.015   0.746
 6074SOL     OW19120   0.997   6.081   2.134
 6074SOL    HW119121   1.018   6.178   2.139
 6074SOL    HW219122   0.972   6.047   2.225
 6075SOL     OW19123   4.845   0.602   5.846
 6075SOL    HW119124   4.808   0.599   5.753
 6075SOL    HW219125   4.944   0.616   5.841
 6076SOL     OW19126   3.480   5.745   3.258
 6076SOL    HW119127   3.552   5.691   3.301
 6076SOL    HW219128   3.401   5.749   3.320
 6077SOL     OW19129   6.420   5.365   0.657
 6077SOL    HW119130   6.400   5.302   0.581
 6077SOL    HW219131   6.518   5.364   0.675
 6078SOL     OW19132   4.878   5.466   0.717
 6078SOL    HW119133   4.926   5.394   0.666
 6078SOL    HW219134   4.940   5.506   0.784
 6079SOL     OW19135   4.510   3.728   6.076
 6079SOL    HW119136   4.602   3.765   6.080
 6079SOL    HW219137   4.514   3.628   6.073
 6080SOL     OW19138   0.169   6.255   0.745
 6080SOL    HW119139   0.182   6.168   0.791
 6080SOL    HW219140   0.183   6.243   0.646
 6081SOL     OW19141   6.653   2.471   4.857
 6081SOL    HW119142   6.647   2.371   4.856
 6081SOL    HW219143   6.747   2.499   4.873
 6082SOL     OW19144   2.625   1.126   3.845
 6082SOL    HW119145   2.653   1.111   3.940
 6082SOL    HW219146   2.626   1.039   3.796
 6083SOL     OW19147   6.130   6.026   0.178
 6083SOL    HW119148   6.037   5.999   0.202
 6083SOL    HW219149   6.137   6.125   0.175
 6084SOL     OW19150   0.941   6.831   3.249
 6084SOL    HW119151   0.846   6.862   3.254
 6084SOL    HW219152   0.944   6.742   3.203
 6085SOL     OW19153   7.001   7.016   7.022
 6085SOL    HW119154   6.976   0.040   6.937
 6085SOL    HW219155   6.989   0.054   0.076
 6086SOL     OW19156   3.044   1.054   5.412
 6086SOL    HW119157   2.980   1.131   5.422
 6086SOL    HW219158   3.011   0.993   5.340
 6087SOL     OW19159   3.835   5.890   1.139
 6087SOL    HW119160   3.855   5.905   1.042
 6087SOL    HW219161   3.858   5.972   1.191
 6088SOL     OW19162   5.455   6.522   4.590
 6088SOL    HW119163   5.361   6.489   4.583
 6088SOL    HW219164   5.478   6.574   4.508
 6089SOL     OW19165   5.675   2.772   2.499
 6089SOL    HW119166   5.663   2.697   2.565
 6089SOL    HW219167   5.770   2.802   2.501
 6090SOL     OW19168   2.411   5.497   4.726
 6090SOL    HW119169   2.501   5.463   4.756
 6090SOL    HW219170   2.405   5.595   4.746
 6091SOL     OW19171   1.973   1.196   0.425
 6091SOL    HW119172   2.053   1.217   0.481
 6091SOL    HW219173   1.919   1.280   0.412
 6092SOL     OW19174   4.382   0.490   2.545
 6092SOL    HW119175   4.454   0.467   2.611
 6092SOL    HW219176   4.297   0.510   2.595
 6093SOL     OW19177   1.948   2.947   1.675
 6093SOL    HW119178   1.987   2.939   1.766
 6093SOL    HW219179   1.983   2.873   1.617
 6094SOL     OW19180   1.607   6.106   2.361
 6094SOL    HW119181   1.538   6.038   2.385
 6094SOL    HW219182   1.685   6.061   2.319
 6095SOL     OW19183   5.259   4.266   0.662
 6095SOL    HW119184   5.288   4.207   0.587
 6095SOL    HW219185   5.186   4.327   0.630
 6096SOL     OW19186   6.354   7.009   3.691
 6096SOL    HW119187   6.387   0.026   3.777
 6096SOL    HW219188   6.282   0.042   3.652
 6097SOL     OW19189   2.087   5.817   2.281
 6097SOL    HW119190   2.109   5.793   2.376
 6097SOL    HW219191   2.007   5.876   2.280
 6098SOL     OW19192   0.601   1.667   5.134
 6098SOL    HW119193   0.662   1.746   5.143
 6098SOL    HW219194   0.637   1.591   5.188
 6099SOL     OW19195   5.563   6.240   0.160
 6099SOL    HW119196   5.490   6.181   0.194
 6099SOL    HW219197   5.573   6.226   0.061
 6100SOL     OW19198   5.552   6.213   1.325
 6100SOL    HW119199   5.551   6.153   1.244
 6100SOL    HW219200   5.609   6.293   1.306
 6101SOL     OW19201   6.898   3.358   3.247
 6101SOL    HW119202   6.862   3.305   3.323
 6101SOL    HW219203   6.839   3.437   3.231
 6102SOL     OW19204   3.288   6.006   2.940
 6102SOL    HW119205   3.364   6.011   2.874
 6102SOL    HW219206   3.246   5.915   2.936
 6103SOL     OW19207   6.204   1.794   1.453
 6103SOL    HW119208   6.154   1.871   1.492
 6103SOL    HW219209   6.142   1.717   1.439
 6104SOL     OW19210   5.720   0.452   5.901
 6104SOL    HW119211   5.643   0.507   5.868
 6104SOL    HW219212   5.695   0.355   5.899
 6105SOL     OW19213   3.114   6.047   6.818
 6105SOL    HW119214   3.206   6.026   6.785
 6105SOL    HW219215   3.120   6.102   6.902
 6106SOL     OW19216   1.081   4.655   6.369
 6106SOL    HW119217   1.070   4.665   6.270
 6106SOL    HW219218   1.167   4.609   6.389
 6107SOL     OW19219   4.163   6.018   4.891
 6107SOL    HW119220   4.139   6.082   4.818
 6107SOL    HW219221   4.262   6.000   4.888
 6108SOL     OW19222   2.343   2.566   2.138
 6108SOL    HW119223   2.288   2.561   2.055
 6108SOL    HW219224   2.343   2.659   2.174
 6109SOL     OW19225   5.693   1.616   5.130
 6109SOL    HW119226   5.774   1.617   5.071
 6109SOL    HW219227   5.715   1.662   5.216
 6110SOL     OW19228   3.048   3.733   1.251
 6110SOL    HW119229   2.970   3.672   1.262
 6110SOL    HW219230   3.123   3.684   1.206
 6111SOL     OW19231   1.365   3.774   2.793
 6111SOL    HW119232   1.449   3.773   2.739
 6111SOL    HW219233   1.286   3.761   2.732
 6112SOL     OW19234   3.160   0.117   3.158
 6112SOL    HW119235   3.239   0.178   3.167
 6112SOL    HW219236   3.111   0.138   3.073
 6113SOL     OW19237   3.298   2.175   6.024
 6113SOL    HW119238   3.213   2.164   6.075
 6113SOL    HW219239   3.374   2.187   6.088
 6114SOL     OW19240   4.584   4.779   2.145
 6114SOL    HW119241   4.486   4.775   2.126
 6114SOL    HW219242   4.626   4.693   2.118
 6115SOL     OW19243   6.064   0.633   3.767
 6115SOL    HW119244   6.032   0.728   3.763
 6115SOL    HW219245   6.140   0.627   3.833
 6116SOL     OW19246   4.154   1.460   6.200
 6116SOL    HW119247   4.250   1.458   6.170
 6116SOL    HW219248   4.130   1.553   6.229
 6117SOL     OW19249   1.577   1.202   3.476
 6117SOL    HW119250   1.558   1.300   3.469
 6117SOL    HW219251   1.581   1.162   3.385
 6118SOL     OW19252   0.277   1.233   1.714
 6118SOL    HW119253   0.188   1.277   1.705
 6118SOL    HW219254   0.348   1.292   1.676
 6119SOL     OW19255   0.825   3.902   6.699
 6119SOL    HW119256   0.789   3.809   6.690
 6119SOL    HW219257   0.922   3.903   6.674
 6120SOL     OW19258   3.650   6.082   5.463
 6120SOL    HW119259   3.716   6.015   5.431
 6120SOL    HW219260   3.587   6.038   5.528
 6121SOL     OW19261   0.576   3.509   5.044
 6121SOL    HW119262   0.571   3.601   5.005
 6121SOL    HW219263   0.546   3.442   4.976
 6122SOL     OW19264   4.468   5.378   0.767
 6122SOL    HW119265   4.395   5.371   0.699
 6122SOL    HW219266   4.556   5.388   0.720
 6123SOL     OW19267   5.425   0.077   6.254
 6123SOL    HW119268   5.350   0.100   6.190
 6123SOL    HW219269   5.396   0.096   6.347
 6124SOL     OW19270   1.810   6.705   5.875
 6124SOL    HW119271   1.891   6.758   5.902
 6124SOL    HW219272   1.767   6.666   5.957
 6125SOL     OW19273   1.987   4.176   0.700
 6125SOL    HW119274   1.922   4.131   0.761
 6125SOL    HW219275   2.077   4.177   0.743
 6126SOL     OW19276   0.710   0.073   4.448
 6126SOL    HW119277   0.615   0.044   4.457
 6126SOL    HW219278   0.715   0.150   4.385
 6127SOL     OW19279   2.931   0.472   1.596
 6127SOL    HW119280   2.903   0.464   1.500
 6127SOL    HW219281   3.030   0.460   1.603
 6128SOL     OW19282   6.161   3.761   0.677
 6128SOL    HW119283   6.121   3.690   0.619
 6128SOL    HW219284   6.152   3.849   0.631
 6129SOL     OW19285   0.132   3.616   2.147
 6129SOL    HW119286   0.042   3.601   2.107
 6129SOL    HW219287   0.141   3.560   2.230
 6130SOL     OW19288   5.915   3.151   2.440
 6130SOL    HW119289   5.830   3.176   2.393
 6130SOL    HW219290   5.898   3.075   2.502
 6131SOL     OW19291   0.844   1.884   4.289
 6131SOL    HW119292   0.752   1.908   4.322
 6131SOL    HW219293   0.911   1.905   4.360
 6132SOL     OW19294   4.866   1.838   0.057
 6132SOL    HW119295   4.959   1.858   0.026
 6132SOL    HW219296   4.869   1.769   0.129
 6133SOL     OW19297   2.030   3.253   2.599
 6133SOL    HW119298   1.962   3.218   2.664
 6133SOL    HW219299   1.984   3.292   2.520
 6134SOL     OW19300   4.272   4.387   0.018
 6134SOL    HW119301   4.299   4.435   6.959
 6134SOL    HW219302   4.310   4.295   0.018
 6135SOL     OW19303   6.988   0.373   0.261
 6135SOL    HW119304   0.038   0.385   0.195
 6135SOL    HW219305   6.931   0.455   0.263
 6136SOL     OW19306   1.455   3.038   2.214
 6136SOL    HW119307   1.528   2.974   2.188
 6136SOL    HW219308   1.382   2.989   2.261
 6137SOL     OW19309   6.740   4.090   2.358
 6137SOL    HW119310   6.813   4.158   2.363
 6137SOL    HW219311   6.728   4.060   2.263
 6138SOL     OW19312   3.844   6.750   2.774
 6138SOL    HW119313   3.769   6.814   2.755
 6138SOL    HW219314   3.813   6.681   2.840
 6139SOL     OW19315   1.700   6.645   6.100
 6139SOL    HW119316   1.706   6.552   6.138
 6139SOL    HW219317   1.691   6.711   6.174
 6140SOL     OW19318   0.814   6.405   1.936
 6140SOL    HW119319   0.857   6.383   2.024
 6140SOL    HW219320   0.882   6.403   1.863
 6141SOL     OW19321   0.491   6.827   6.183
 6141SOL    HW119322   0.513   6.795   6.090
 6141SOL    HW219323   0.555   6.899   6.209
 6142SOL     OW19324   0.791   6.507   6.820
 6142SOL    HW119325   0.871   6.481   6.766
 6142SOL    HW219326   0.794   6.460   6.908
 6143SOL     OW19327   6.489   3.213   0.983
 6143SOL    HW119328   6.412   3.149   0.990
 6143SOL    HW219329   6.557   3.191   1.053
 6144SOL     OW19330   4.570   4.789   4.079
 6144SOL    HW119331   4.479   4.772   4.041
 6144SOL    HW219332   4.577   4.885   4.106
 6145SOL     OW19333   5.297   5.012   4.228
 6145SOL    HW119334   5.282   4.945   4.300
 6145SOL    HW219335   5.210   5.031   4.181
 6146SOL     OW19336   2.966   5.597   3.677
 6146SOL    HW119337   2.882   5.560   3.717
 6146SOL    HW219338   2.970   5.574   3.580
 6147SOL     OW19339   2.167   2.223   4.089
 6147SOL    HW119340   2.250   2.275   4.072
 6147SOL    HW219341   2.088   2.285   4.092
 6148SOL     OW19342   4.988   6.874   5.444
 6148SOL    HW119343   4.911   6.823   5.407
 6148SOL    HW219344   4.977   6.885   5.542
 6149SOL     OW19345   2.807   6.362   1.395
 6149SOL    HW119346   2.747   6.331   1.469
 6149SOL    HW219347   2.819   6.288   1.329
 6150SOL     OW19348   5.148   5.432   0.620
 6150SOL    HW119349   5.186   5.389   0.702
 6150SOL    HW219350   5.217   5.491   0.578
 6151SOL     OW19351   5.985   5.325   6.458
 6151SOL    HW119352   5.966   5.239   6.505
 6151SOL    HW219353   5.974   5.313   6.360
 6152SOL     OW19354   6.194   5.742   4.638
 6152SOL    HW119355   6.184   5.677   4.713
 6152SOL    HW219356   6.143   5.710   4.559
 6153SOL     OW19357   5.224   4.720   1.651
 6153SOL    HW119358   5.230   4.621   1.635
 6153SOL    HW219359   5.313   4.754   1.681
 6154SOL     OW19360   6.277   2.438   2.437
 6154SOL    HW119361   6.274   2.340   2.418
 6154SOL    HW219362   6.185   2.474   2.449
 6155SOL     OW19363   1.446   1.458   3.468
 6155SOL    HW119364   1.367   1.474   3.408
 6155SOL    HW219365   1.486   1.545   3.495
 6156SOL     OW19366   4.304   4.666   1.975
 6156SOL    HW119367   4.388   4.615   1.990
 6156SOL    HW219368   4.242   4.611   1.919
 6157SOL     OW19369   0.040   1.746   4.695
 6157SOL    HW119370   0.102   1.777   4.623
 6157SOL    HW219371   6.997   1.682   4.656
 6158SOL     OW19372   3.858   2.027   6.210
 6158SOL    HW119373   3.779   2.069   6.255
 6158SOL    HW219374   3.907   1.971   6.277
 6159SOL     OW19375   4.789   1.862   1.836
 6159SOL    HW119376   4.796   1.789   1.904
 6159SOL    HW219377   4.693   1.888   1.824
 6160SOL     OW19378   5.423   1.086   6.264
 6160SOL    HW119379   5.495   1.080   6.194
 6160SOL    HW219380   5.338   1.117   6.222
 6161SOL     OW19381   4.814   1.705   4.983
 6161SOL    HW119382   4.806   1.804   4.986
 6161SOL    HW219383   4.784   1.666   5.070
 6162SOL     OW19384   6.812   5.987   3.340
 6162SOL    HW119385   6.826   6.085   3.331
 6162SOL    HW219386   6.716   5.965   3.321
 6163SOL     OW19387   6.188   6.837   1.210
 6163SOL    HW119388   6.190   6.737   1.206
 6163SOL    HW219389   6.106   6.867   1.260
 6164SOL     OW19390   3.109   4.024   3.326
 6164SOL    HW119391   3.172   3.962   3.373
 6164SOL    HW219392   3.158   4.076   3.256
 6165SOL     OW19393   4.620   1.835   6.930
 6165SOL    HW119394   4.685   1.807   7.001
 6165SOL    HW219395   4.661   1.820   6.840
 6166SOL     OW19396   5.374   1.740   6.402
 6166SOL    HW119397   5.309   1.816   6.392
 6166SOL    HW219398   5.412   1.742   6.495
 6167SOL     OW19399   1.133   5.038   2.607
 6167SOL    HW119400   1.115   5.022   2.704
 6167SOL    HW219401   1.046   5.043   2.558
 6168SOL     OW19402   1.721   3.444   2.095
 6168SOL    HW119403   1.686   3.532   2.064
 6168SOL    HW219404   1.804   3.458   2.148
 6169SOL     OW19405   1.632   2.211   6.694
 6169SOL    HW119406   1.725   2.191   6.724
 6169SOL    HW219407   1.567   2.178   6.763
 6170SOL     OW19408   2.263   4.170   5.328
 6170SOL    HW119409   2.277   4.107   5.252
 6170SOL    HW219410   2.222   4.255   5.294
 6171SOL     OW19411   1.274   3.417   1.277
 6171SOL    HW119412   1.202   3.369   1.326
 6171SOL    HW219413   1.234   3.488   1.220
 6172SOL     OW19414   1.939   2.186   2.944
 6172SOL    HW119415   1.850   2.140   2.931
 6172SOL    HW219416   1.924   2.278   2.978
 6173SOL     OW19417   6.398   5.557   2.133
 6173SOL    HW119418   6.446   5.520   2.054
 6173SOL    HW219419   6.316   5.607   2.103
 6174SOL     OW19420   4.974   4.798   3.943
 6174SOL    HW119421   4.926   4.745   4.013
 6174SOL    HW219422   5.070   4.808   3.970
 6175SOL     OW19423   4.832   0.405   3.643
 6175SOL    HW119424   4.782   0.491   3.633
 6175SOL    HW219425   4.768   0.331   3.662
 6176SOL     OW19426   5.201   3.550   6.601
 6176SOL    HW119427   5.217   3.477   6.536
 6176SOL    HW219428   5.204   3.638   6.554
 6177SOL     OW19429   5.233   0.814   1.203
 6177SOL    HW119430   5.302   0.833   1.273
 6177SOL    HW219431   5.191   0.725   1.222
 6178SOL     OW19432   4.904   4.640   3.017
 6178SOL    HW119433   4.985   4.586   3.039
 6178SOL    HW219434   4.926   4.707   2.946
 6179SOL     OW19435   0.122   5.035   4.110
 6179SOL    HW119436   0.217   5.024   4.082
 6179SOL    HW219437   0.065   5.056   4.030
 6180SOL     OW19438   3.639   4.322   0.118
 6180SOL    HW119439   3.728   4.365   0.102
 6180SOL    HW219440   3.651   4.245   0.181
 6181SOL     OW19441   3.759   6.882   0.819
 6181SOL    HW119442   3.693   6.957   0.818
 6181SOL    HW219443   3.756   6.834   0.732
 6182SOL     OW19444   5.311   2.847   5.110
 6182SOL    HW119445   5.234   2.846   5.045
 6182SOL    HW219446   5.397   2.848   5.059
 6183SOL     OW19447   2.147   1.699   3.386
 6183SOL    HW119448   2.085   1.626   3.359
 6183SOL    HW219449   2.134   1.778   3.326
 6184SOL     OW19450   1.986   6.618   6.258
 6184SOL    HW119451   2.025   6.590   6.171
 6184SOL    HW219452   1.901   6.668   6.243
 6185SOL     OW19453   0.308   4.195   6.378
 6185SOL    HW119454   0.319   4.294   6.371
 6185SOL    HW219455   0.361   4.150   6.306
 6186SOL     OW19456   7.019   6.875   5.932
 6186SOL    HW119457   6.972   6.958   5.962
 6186SOL    HW219458   7.000   6.860   5.835
 6187SOL     OW19459   4.718   4.809   3.169
 6187SOL    HW119460   4.801   4.764   3.135
 6187SOL    HW219461   4.709   4.792   3.268
 6188SOL     OW19462   2.374   0.355   1.013
 6188SOL    HW119463   2.290   0.406   1.000
 6188SOL    HW219464   2.435   0.368   0.935
 6189SOL     OW19465   4.965   3.962   3.705
 6189SOL    HW119466   4.924   3.876   3.675
 6189SOL    HW219467   5.065   3.956   3.699
 6190SOL     OW19468   0.739   4.131   5.424
 6190SOL    HW119469   0.804   4.080   5.368
 6190SOL    HW219470   0.648   4.089   5.415
 6191SOL     OW19471   3.206   1.616   6.998
 6191SOL    HW119472   3.255   1.701   6.979
 6191SOL    HW219473   3.107   1.633   6.995
 6192SOL     OW19474   3.694   2.279   6.591
 6192SOL    HW119475   3.699   2.237   6.682
 6192SOL    HW219476   3.685   2.208   6.522
 6193SOL     OW19477   5.174   1.146   2.457
 6193SOL    HW119478   5.196   1.049   2.445
 6193SOL    HW219479   5.076   1.156   2.470
 6194SOL     OW19480   1.683   0.266   1.381
 6194SOL    HW119481   1.737   0.314   1.312
 6194SOL    HW219482   1.590   0.304   1.384
 6195SOL     OW19483   4.472   6.048   5.828
 6195SOL    HW119484   4.511   6.140   5.835
 6195SOL    HW219485   4.406   6.035   5.902
 6196SOL     OW19486   5.688   2.630   1.689
 6196SOL    HW119487   5.668   2.534   1.708
 6196SOL    HW219488   5.709   2.677   1.774
 6197SOL     OW19489   4.402   4.661   0.445
 6197SOL    HW119490   4.331   4.592   0.439
 6197SOL    HW219491   4.408   4.694   0.540
 6198SOL     OW19492   3.698   6.542   2.148
 6198SOL    HW119493   3.764   6.513   2.218
 6198SOL    HW219494   3.607   6.552   2.190
 6199SOL     OW19495   1.193   1.123   0.191
 6199SOL    HW119496   1.227   1.116   0.097
 6199SOL    HW219497   1.253   1.070   0.252
 6200SOL     OW19498   1.526   1.463   5.726
 6200SOL    HW119499   1.527   1.363   5.726
 6200SOL    HW219500   1.476   1.495   5.646
 6201SOL     OW19501   0.885   3.347   5.254
 6201SOL    HW119502   0.814   3.414   5.276
 6201SOL    HW219503   0.909   3.295   5.336
 6202SOL     OW19504   3.858   1.688   2.554
 6202SOL    HW119505   3.940   1.692   2.611
 6202SOL    HW219506   3.851   1.598   2.511
 6203SOL     OW19507   0.021   6.852   3.110
 6203SOL    HW119508   7.008   6.930   3.061
 6203SOL    HW219509   7.012   6.767   3.068
 6204SOL     OW19510   0.535   5.023   4.603
 6204SOL    HW119511   0.447   5.027   4.650
 6204SOL    HW219512   0.526   5.061   4.511
 6205SOL     OW19513   6.238   6.499   0.903
 6205SOL    HW119514   6.331   6.465   0.896
 6205SOL    HW219515   6.226   6.576   0.840
 6206SOL     OW19516   6.883   1.535   3.558
 6206SOL    HW119517   6.974   1.523   3.599
 6206SOL    HW219518   6.864   1.633   3.548
 6207SOL     OW19519   1.619   4.761   5.199
 6207SOL    HW119520   1.527   4.723   5.190
 6207SOL    HW219521   1.614   4.861   5.191
 6208SOL     OW19522   5.715   1.833   5.814
 6208SOL    HW119523   5.759   1.858   5.900
 6208SOL    HW219524   5.646   1.902   5.790
 6209SOL     OW19525   4.599   5.526   6.977
 6209SOL    HW119526   4.573   5.438   7.015
 6209SOL    HW219527   4.695   5.544   6.998
 6210SOL     OW19528   5.244   3.519   2.946
 6210SOL    HW119529   5.277   3.530   2.852
 6210SOL    HW219530   5.161   3.463   2.946
 6211SOL     OW19531   3.209   6.365   5.650
 6211SOL    HW119532   3.121   6.319   5.660
 6211SOL    HW219533   3.195   6.457   5.613
 6212SOL     OW19534   2.016   5.452   3.909
 6212SOL    HW119535   2.050   5.414   3.995
 6212SOL    HW219536   1.936   5.508   3.927
 6213SOL     OW19537   5.740   0.195   0.545
 6213SOL    HW119538   5.675   0.127   0.580
 6213SOL    HW219539   5.830   0.179   0.586
 6214SOL     OW19540   5.024   4.881   4.302
 6214SOL    HW119541   4.954   4.816   4.274
 6214SOL    HW219542   4.989   4.974   4.293
 6215SOL     OW19543   4.013   1.178   0.401
 6215SOL    HW119544   4.073   1.258   0.409
 6215SOL    HW219545   4.043   1.107   0.464
 6216SOL     OW19546   6.492   1.101   2.005
 6216SOL    HW119547   6.586   1.098   1.972
 6216SOL    HW219548   6.492   1.110   2.104
 6217SOL     OW19549   0.617   4.107   2.794
 6217SOL    HW119550   0.701   4.094   2.847
 6217SOL    HW219551   0.547   4.042   2.825
 6218SOL     OW19552   3.975   5.884   6.470
 6218SOL    HW119553   3.991   5.840   6.381
 6218SOL    HW219554   3.925   5.820   6.529
 6219SOL     OW19555   1.034   2.699   4.471
 6219SOL    HW119556   1.133   2.698   4.454
 6219SOL    HW219557   0.995   2.612   4.442
 6220SOL     OW19558   2.051   1.482   5.170
 6220SOL    HW119559   2.104   1.563   5.194
 6220SOL    HW219560   2.039   1.425   5.251
 6221SOL     OW19561   6.002   5.923   6.287
 6221SOL    HW119562   6.049   5.996   6.338
 6221SOL    HW219563   6.026   5.834   6.326
 6222SOL     OW19564   1.222   6.545   1.449
 6222SOL    HW119565   1.278   6.491   1.513
 6222SOL    HW219566   1.226   6.503   1.358
 6223SOL     OW19567   0.955   5.251   4.175
 6223SOL    HW119568   0.979   5.292   4.087
 6223SOL    HW219569   1.037   5.217   4.220
 6224SOL     OW19570   2.651   1.794   6.004
 6224SOL    HW119571   2.591   1.729   6.052
 6224SOL    HW219572   2.671   1.871   6.065
 6225SOL     OW19573   4.091   3.911   6.873
 6225SOL    HW119574   4.033   3.981   6.914
 6225SOL    HW219575   4.151   3.952   6.805
 6226SOL     OW19576   0.079   1.718   5.347
 6226SOL    HW119577   0.145   1.791   5.330
 6226SOL    HW219578   0.097   1.641   5.285
 6227SOL     OW19579   3.356   5.735   5.312
 6227SOL    HW119580   3.392   5.766   5.224
 6227SOL    HW219581   3.289   5.662   5.296
 6228SOL     OW19582   1.426   2.843   2.677
 6228SOL    HW119583   1.439   2.775   2.606
 6228SOL    HW219584   1.383   2.801   2.757
 6229SOL     OW19585   0.423   2.291   3.064
 6229SOL    HW119586   0.458   2.272   3.156
 6229SOL    HW219587   0.461   2.225   2.999
 6230SOL     OW19588   0.673   1.749   3.850
 6230SOL    HW119589   0.720   1.788   3.930
 6230SOL    HW219590   0.714   1.786   3.767
 6231SOL     OW19591   6.255   5.878   1.105
 6231SOL    HW119592   6.244   5.959   1.163
 6231SOL    HW219593   6.323   5.817   1.147
 6232SOL     OW19594   0.069   0.606   0.847
 6232SOL    HW119595   0.091   0.644   0.758
 6232SOL    HW219596   0.006   0.667   0.895
 6233SOL     OW19597   6.816   0.916   1.264
 6233SOL    HW119598   6.842   0.959   1.177
 6233SOL    HW219599   6.897   0.881   1.309
 6234SOL     OW19600   6.726   1.598   5.560
 6234SOL    HW119601   6.733   1.625   5.464
 6234SOL    HW219602   6.631   1.602   5.589
 6235SOL     OW19603   1.248   6.894   1.056
 6235SOL    HW119604   1.331   6.906   1.110
 6235SOL    HW219605   1.180   6.961   1.085
 6236SOL     OW19606   0.586   3.718   1.422
 6236SOL    HW119607   0.496   3.720   1.380
 6236SOL    HW219608   0.655   3.741   1.353
 6237SOL     OW19609   2.982   0.416   6.576
 6237SOL    HW119610   3.020   0.432   6.485
 6237SOL    HW219611   2.974   0.318   6.593
 6238SOL     OW19612   3.746   4.881   2.656
 6238SOL    HW119613   3.835   4.861   2.614
 6238SOL    HW219614   3.745   4.847   2.750
 6239SOL     OW19615   2.821   0.107   2.017
 6239SOL    HW119616   2.736   0.151   1.986
 6239SOL    HW219617   2.821   0.011   1.990
 6240SOL     OW19618   1.710   3.295   5.517
 6240SOL    HW119619   1.794   3.350   5.518
 6240SOL    HW219620   1.734   3.198   5.525
 6241SOL     OW19621   3.622   0.009   1.705
 6241SOL    HW119622   3.658   6.969   1.772
 6241SOL    HW219623   3.533   0.044   1.737
 6242SOL     OW19624   4.646   0.438   4.036
 6242SOL    HW119625   4.730   0.490   4.053
 6242SOL    HW219626   4.571   0.502   4.016
 6243SOL     OW19627   6.087   6.120   4.343
 6243SOL    HW119628   6.121   6.029   4.368
 6243SOL    HW219629   6.155   6.167   4.287
 6244SOL     OW19630   6.834   2.024   1.930
 6244SOL    HW119631   6.735   2.014   1.943
 6244SOL    HW219632   6.882   1.966   1.996
 6245SOL     OW19633   1.288   4.391   0.461
 6245SOL    HW119634   1.294   4.368   0.364
 6245SOL    HW219635   1.288   4.307   0.515
 6246SOL     OW19636   1.938   1.888   5.398
 6246SOL    HW119637   1.862   1.920   5.341
 6246SOL    HW219638   2.017   1.947   5.385
 6247SOL     OW19639   0.090   6.077   4.827
 6247SOL    HW119640   0.149   6.079   4.908
 6247SOL    HW219641   0.146   6.081   4.745
 6248SOL     OW19642   3.559   3.174   0.655
 6248SOL    HW119643   3.505   3.250   0.690
 6248SOL    HW219644   3.656   3.197   0.659
 6249SOL     OW19645   0.524   3.871   0.603
 6249SOL    HW119646   0.520   3.772   0.602
 6249SOL    HW219647   0.521   3.904   0.697
 6250SOL     OW19648   6.681   0.249   6.786
 6250SOL    HW119649   6.683   0.230   6.884
 6250SOL    HW219650   6.759   0.306   6.761
 6251SOL     OW19651   4.318   5.933   6.435
 6251SOL    HW119652   4.413   5.902   6.426
 6251SOL    HW219653   4.286   5.918   6.529
 6252SOL     OW19654   1.893   6.001   5.471
 6252SOL    HW119655   1.806   6.013   5.519
 6252SOL    HW219656   1.948   6.084   5.479
 6253SOL     OW19657   2.407   4.506   3.707
 6253SOL    HW119658   2.495   4.530   3.666
 6253SOL    HW219659   2.414   4.509   3.806
 6254SOL     OW19660   5.412   1.336   1.249
 6254SOL    HW119661   5.487   1.283   1.289
 6254SOL    HW219662   5.429   1.433   1.264
 6255SOL     OW19663   3.416   0.368   1.092
 6255SOL    HW119664   3.415   0.326   1.001
 6255SOL    HW219665   3.383   0.462   1.086
 6256SOL     OW19666   3.602   5.484   1.867
 6256SOL    HW119667   3.549   5.448   1.943
 6256SOL    HW219668   3.627   5.579   1.886
 6257SOL     OW19669   5.058   2.084   1.231
 6257SOL    HW119670   5.002   2.157   1.192
 6257SOL    HW219671   5.001   2.002   1.243
 6258SOL     OW19672   3.390   0.481   3.827
 6258SOL    HW119673   3.379   0.382   3.816
 6258SOL    HW219674   3.324   0.528   3.768
 6259SOL     OW19675   1.950   2.312   6.965
 6259SOL    HW119676   1.983   2.219   6.982
 6259SOL    HW219677   1.899   2.344   0.021
 6260SOL     OW19678   3.302   5.472   0.346
 6260SOL    HW119679   3.204   5.484   0.331
 6260SOL    HW219680   3.338   5.406   0.280
 6261SOL     OW19681   3.673   0.953   6.870
 6261SOL    HW119682   3.765   0.991   6.884
 6261SOL    HW219683   3.616   1.021   6.825
 6262SOL     OW19684   2.643   6.321   1.623
 6262SOL    HW119685   2.567   6.262   1.652
 6262SOL    HW219686   2.636   6.409   1.670
 6263SOL     OW19687   0.137   1.161   5.459
 6263SOL    HW119688   0.047   1.155   5.502
 6263SOL    HW219689   0.195   1.088   5.494
 6264SOL     OW19690   1.551   0.220   1.826
 6264SOL    HW119691   1.571   0.174   1.913
 6264SOL    HW219692   1.632   0.270   1.795
 6265SOL     OW19693   3.722   3.360   0.228
 6265SOL    HW119694   3.791   3.347   0.157
 6265SOL    HW219695   3.715   3.278   0.284
 6266SOL     OW19696   3.973   0.783   4.610
 6266SOL    HW119697   4.031   0.827   4.541
 6266SOL    HW219698   3.890   0.838   4.623
 6267SOL     OW19699   2.181   6.825   6.226
 6267SOL    HW119700   2.257   6.814   6.291
 6267SOL    HW219701   2.119   6.748   6.234
 6268SOL     OW19702   2.483   0.348   3.289
 6268SOL    HW119703   2.447   0.378   3.377
 6268SOL    HW219704   2.438   0.399   3.216
 6269SOL     OW19705   0.159   6.650   1.729
 6269SOL    HW119706   0.144   6.609   1.638
 6269SOL    HW219707   0.255   6.671   1.741
 6270SOL     OW19708   1.752   0.003   5.960
 6270SOL    HW119709   1.671   6.969   5.950
 6270SOL    HW219710   1.830   6.970   5.986
 6271SOL     OW19711   6.717   2.419   6.466
 6271SOL    HW119712   6.645   2.466   6.417
 6271SOL    HW219713   6.773   2.367   6.402
 6272SOL     OW19714   0.270   3.099   6.964
 6272SOL    HW119715   0.295   3.176   6.905
 6272SOL    HW219716   0.353   3.056   6.999
 6273SOL     OW19717   1.057   6.570   2.560
 6273SOL    HW119718   1.055   6.476   2.528
 6273SOL    HW219719   1.072   6.571   2.659
 6274SOL     OW19720   3.445   5.588   5.898
 6274SOL    HW119721   3.387   5.663   5.864
 6274SOL    HW219722   3.519   5.626   5.953
 6275SOL     OW19723   2.428   5.944   6.384
 6275SOL    HW119724   2.338   5.984   6.398
 6275SOL    HW219725   2.485   6.008   6.332
 6276SOL     OW19726   1.274   4.217   3.703
 6276SOL    HW119727   1.196   4.204   3.763
 6276SOL    HW219728   1.316   4.306   3.722
 6277SOL     OW19729   5.373   3.750   1.777
 6277SOL    HW119730   5.312   3.691   1.724
 6277SOL    HW219731   5.381   3.839   1.732
 6278SOL     OW19732   4.933   6.351   4.548
 6278SOL    HW119733   4.971   6.404   4.472
 6278SOL    HW219734   4.850   6.395   4.581
 6279SOL     OW19735   3.528   6.913   6.811
 6279SOL    HW119736   3.543   6.814   6.822
 6279SOL    HW219737   3.607   6.962   6.847
 6280SOL     OW19738   0.958   2.207   4.771
 6280SOL    HW119739   1.013   2.123   4.778
 6280SOL    HW219740   0.862   2.185   4.784
 6281SOL     OW19741   0.635   5.123   4.166
 6281SOL    HW119742   0.729   5.091   4.160
 6281SOL    HW219743   0.582   5.087   4.089
 6282SOL     OW19744   0.923   5.873   5.389
 6282SOL    HW119745   0.829   5.907   5.395
 6282SOL    HW219746   0.984   5.949   5.367
 6283SOL     OW19747   6.261   2.909   5.418
 6283SOL    HW119748   6.328   2.875   5.352
 6283SOL    HW219749   6.310   2.948   5.496
 6284SOL     OW19750   1.009   5.433   5.052
 6284SOL    HW119751   0.961   5.468   4.971
 6284SOL    HW219752   0.982   5.487   5.132
 6285SOL     OW19753   0.174   4.160   4.691
 6285SOL    HW119754   0.098   4.096   4.688
 6285SOL    HW219755   0.186   4.193   4.785
 6286SOL     OW19756   5.687   1.649   3.678
 6286SOL    HW119757   5.784   1.645   3.657
 6286SOL    HW219758   5.636   1.590   3.615
 6287SOL     OW19759   3.591   4.908   4.708
 6287SOL    HW119760   3.584   4.919   4.807
 6287SOL    HW219761   3.680   4.868   4.685
 6288SOL     OW19762   5.145   4.378   2.612
 6288SOL    HW119763   5.211   4.305   2.594
 6288SOL    HW219764   5.175   4.462   2.567
 6289SOL     OW19765   1.739   4.858   0.961
 6289SOL    HW119766   1.727   4.913   0.878
 6289SOL    HW219767   1.748   4.761   0.936
 6290SOL     OW19768   6.252   5.098   5.893
 6290SOL    HW119769   6.195   5.021   5.920
 6290SOL    HW219770   6.193   5.176   5.870
 6291SOL     OW19771   4.115   3.453   4.270
 6291SOL    HW119772   4.021   3.417   4.268
 6291SOL    HW219773   4.160   3.422   4.354
 6292SOL     OW19774   1.190   2.248   4.351
 6292SOL    HW119775   1.225   2.332   4.312
 6292SOL    HW219776   1.167   2.263   4.448
 6293SOL     OW19777   3.347   0.827   0.611
 6293SOL    HW119778   3.301   0.783   0.534
 6293SOL    HW219779   3.295   0.810   0.695
 6294SOL     OW19780   3.562   6.434   3.890
 6294SOL    HW119781   3.505   6.352   3.882
 6294SOL    HW219782   3.505   6.511   3.920
 6295SOL     OW19783   5.586   4.878   6.303
 6295SOL    HW119784   5.598   4.781   6.286
 6295SOL    HW219785   5.611   4.930   6.222
 6296SOL     OW19786   0.750   6.366   6.031
 6296SOL    HW119787   0.795   6.428   6.095
 6296SOL    HW219788   0.801   6.363   5.946
 6297SOL     OW19789   5.556   0.705   4.025
 6297SOL    HW119790   5.602   0.768   3.961
 6297SOL    HW219791   5.462   0.690   3.994
 6298SOL     OW19792   1.756   2.895   0.429
 6298SOL    HW119793   1.683   2.909   0.363
 6298SOL    HW219794   1.805   2.981   0.444
 6299SOL     OW19795   5.927   2.118   0.495
 6299SOL    HW119796   6.006   2.158   0.542
 6299SOL    HW219797   5.959   2.051   0.428
 6300SOL     OW19798   6.353   0.697   0.431
 6300SOL    HW119799   6.278   0.635   0.407
 6300SOL    HW219800   6.324   0.792   0.419
 6301SOL     OW19801   3.947   6.631   0.243
 6301SOL    HW119802   3.931   6.634   0.145
 6301SOL    HW219803   4.004   6.552   0.265
 6302SOL     OW19804   1.753   0.619   3.354
 6302SOL    HW119805   1.746   0.556   3.432
 6302SOL    HW219806   1.663   0.660   3.337
 6303SOL     OW19807   1.945   1.280   3.802
 6303SOL    HW119808   1.870   1.214   3.798
 6303SOL    HW219809   1.908   1.373   3.796
 6304SOL     OW19810   2.376   0.854   1.214
 6304SOL    HW119811   2.309   0.788   1.247
 6304SOL    HW219812   2.442   0.807   1.155
 6305SOL     OW19813   6.473   6.845   1.161
 6305SOL    HW119814   6.376   6.824   1.176
 6305SOL    HW219815   6.526   6.815   1.241
 6306SOL     OW19816   0.676   4.236   4.142
 6306SOL    HW119817   0.731   4.261   4.222
 6306SOL    HW219818   0.601   4.176   4.170
 6307SOL     OW19819   3.575   4.297   5.108
 6307SOL    HW119820   3.498   4.270   5.051
 6307SOL    HW219821   3.555   4.275   5.204
 6308SOL     OW19822   2.284   2.195   4.369
 6308SOL    HW119823   2.268   2.293   4.352
 6308SOL    HW219824   2.378   2.172   4.346
 6309SOL     OW19825   6.091   4.401   5.390
 6309SOL    HW119826   6.069   4.374   5.483
 6309SOL    HW219827   6.148   4.331   5.347
 6310SOL     OW19828   2.090   6.081   2.656
 6310SOL    HW119829   2.070   6.017   2.731
 6310SOL    HW219830   2.182   6.066   2.623
 6311SOL     OW19831   4.914   1.079   6.253
 6311SOL    HW119832   4.838   1.095   6.315
 6311SOL    HW219833   4.894   0.999   6.196
 6312SOL     OW19834   6.347   5.674   5.371
 6312SOL    HW119835   6.305   5.737   5.307
 6312SOL    HW219836   6.390   5.598   5.321
 6313SOL     OW19837   6.857   6.012   4.891
 6313SOL    HW119838   6.834   6.056   4.978
 6313SOL    HW219839   6.953   6.028   4.870
 6314SOL     OW19840   3.966   6.951   1.741
 6314SOL    HW119841   3.928   6.995   1.822
 6314SOL    HW219842   3.897   6.892   1.699
 6315SOL     OW19843   2.097   2.470   5.608
 6315SOL    HW119844   2.020   2.521   5.570
 6315SOL    HW219845   2.179   2.526   5.605
 6316SOL     OW19846   5.078   1.783   0.386
 6316SOL    HW119847   5.015   1.706   0.396
 6316SOL    HW219848   5.037   1.865   0.424
 6317SOL     OW19849   4.376   5.240   1.803
 6317SOL    HW119850   4.279   5.224   1.788
 6317SOL    HW219851   4.416   5.282   1.721
 6318SOL     OW19852   3.509   1.332   5.926
 6318SOL    HW119853   3.585   1.382   5.885
 6318SOL    HW219854   3.458   1.393   5.987
 6319SOL     OW19855   6.243   1.664   4.697
 6319SOL    HW119856   6.288   1.679   4.609
 6319SOL    HW219857   6.194   1.576   4.695
 6320SOL     OW19858   6.170   6.352   5.195
 6320SOL    HW119859   6.158   6.448   5.218
 6320SOL    HW219860   6.257   6.319   5.232
 6321SOL     OW19861   3.687   3.141   1.036
 6321SOL    HW119862   3.770   3.126   0.983
 6321SOL    HW219863   3.612   3.164   0.974
 6322SOL     OW19864   2.079   2.350   0.408
 6322SOL    HW119865   2.053   2.271   0.465
 6322SOL    HW219866   2.045   2.335   0.315
 6323SOL     OW19867   3.114   2.799   1.888
 6323SOL    HW119868   3.056   2.717   1.889
 6323SOL    HW219869   3.200   2.778   1.841
 6324SOL     OW19870   5.649   0.320   6.980
 6324SOL    HW119871   5.554   0.297   7.000
 6324SOL    HW219872   5.691   0.362   0.037
 6325SOL     OW19873   1.744   2.163   2.668
 6325SOL    HW119874   1.707   2.091   2.727
 6325SOL    HW219875   1.824   2.128   2.619
 6326SOL     OW19876   4.876   5.109   1.747
 6326SOL    HW119877   4.959   5.162   1.764
 6326SOL    HW219878   4.799   5.152   1.794
 6327SOL     OW19879   6.867   0.791   5.123
 6327SOL    HW119880   6.826   0.702   5.140
 6327SOL    HW219881   6.912   0.790   5.034
 6328SOL     OW19882   3.424   3.257   0.384
 6328SOL    HW119883   3.509   3.208   0.405
 6328SOL    HW219884   3.425   3.285   0.288
 6329SOL     OW19885   2.235   2.172   3.304
 6329SOL    HW119886   2.331   2.146   3.310
 6329SOL    HW219887   2.227   2.270   3.289
 6330SOL     OW19888   4.864   0.522   1.128
 6330SOL    HW119889   4.853   0.426   1.153
 6330SOL    HW219890   4.776   0.558   1.097
 6331SOL     OW19891   6.411   2.818   5.201
 6331SOL    HW119892   6.504   2.854   5.191
 6331SOL    HW219893   6.409   2.723   5.170
 6332SOL     OW19894   0.259   3.398   0.977
 6332SOL    HW119895   0.217   3.411   1.067
 6332SOL    HW219896   0.189   3.405   0.906
 6333SOL     OW19897   4.209   5.546   4.972
 6333SOL    HW119898   4.277   5.472   4.973
 6333SOL    HW219899   4.238   5.619   5.033
 6334SOL     OW19900   2.951   0.405   2.261
 6334SOL    HW119901   2.902   0.487   2.290
 6334SOL    HW219902   2.958   0.341   2.337
 6335SOL     OW19903   3.321   0.546   0.316
 6335SOL    HW119904   3.255   0.607   0.360
 6335SOL    HW219905   3.318   0.456   0.361
 6336SOL     OW19906   0.613   2.442   5.777
 6336SOL    HW119907   0.577   2.403   5.862
 6336SOL    HW219908   0.712   2.432   5.776
 6337SOL     OW19909   4.928   4.849   5.976
 6337SOL    HW119910   4.977   4.867   5.890
 6337SOL    HW219911   4.994   4.828   6.048
 6338SOL     OW19912   3.141   1.635   4.371
 6338SOL    HW119913   3.130   1.626   4.272
 6338SOL    HW219914   3.236   1.661   4.392
 6339SOL     OW19915   0.837   3.726   3.316
 6339SOL    HW119916   0.788   3.690   3.395
 6339SOL    HW219917   0.909   3.789   3.346
 6340SOL     OW19918   2.083   5.304   2.432
 6340SOL    HW119919   2.095   5.365   2.511
 6340SOL    HW219920   2.022   5.229   2.458
 6341SOL     OW19921   0.224   4.262   4.453
 6341SOL    HW119922   0.213   4.226   4.546
 6341SOL    HW219923   0.140   4.307   4.424
 6342SOL     OW19924   1.853   0.959   1.955
 6342SOL    HW119925   1.912   1.038   1.939
 6342SOL    HW219926   1.897   0.896   2.019
 6343SOL     OW19927   4.540   2.199   6.821
 6343SOL    HW119928   4.616   2.134   6.820
 6343SOL    HW219929   4.496   2.196   6.911
 6344SOL     OW19930   5.228   2.658   3.986
 6344SOL    HW119931   5.239   2.559   3.978
 6344SOL    HW219932   5.297   2.694   4.048
 6345SOL     OW19933   6.224   2.801   2.296
 6345SOL    HW119934   6.322   2.792   2.283
 6345SOL    HW219935   6.185   2.855   2.222
 6346SOL     OW19936   6.628   5.508   3.998
 6346SOL    HW119937   6.569   5.500   3.917
 6346SOL    HW219938   6.641   5.418   4.039
 6347SOL     OW19939   2.224   7.018   0.576
 6347SOL    HW119940   2.152   0.035   0.632
 6347SOL    HW219941   2.193   6.931   0.539
 6348SOL     OW19942   1.005   3.620   5.598
 6348SOL    HW119943   0.919   3.671   5.600
 6348SOL    HW219944   1.004   3.550   5.669
 6349SOL     OW19945   2.193   0.660   1.272
 6349SOL    HW119946   2.145   0.675   1.186
 6349SOL    HW219947   2.229   0.567   1.274
 6350SOL     OW19948   0.741   5.627   3.994
 6350SOL    HW119949   0.679   5.561   4.037
 6350SOL    HW219950   0.691   5.712   3.975
 6351SOL     OW19951   6.380   3.984   3.790
 6351SOL    HW119952   6.419   4.073   3.769
 6351SOL    HW219953   6.282   3.993   3.805
 6352SOL     OW19954   3.806   5.896   4.852
 6352SOL    HW119955   3.776   5.983   4.814
 6352SOL    HW219956   3.741   5.866   4.922
 6353SOL     OW19957   0.835   6.631   6.125
 6353SOL    HW119958   0.777   6.655   6.047
 6353SOL    HW219959   0.809   6.685   6.204
 6354SOL     OW19960   2.025   5.883   2.856
 6354SOL    HW119961   2.109   5.829   2.851
 6354SOL    HW219962   1.976   5.862   2.941
 6355SOL     OW19963   0.997   5.590   0.084
 6355SOL    HW119964   1.016   5.631   7.019
 6355SOL    HW219965   0.901   5.560   0.086
 6356SOL     OW19966   4.874   5.864   1.947
 6356SOL    HW119967   4.835   5.956   1.947
 6356SOL    HW219968   4.849   5.818   1.862
 6357SOL     OW19969   5.983   3.810   2.568
 6357SOL    HW119970   6.041   3.889   2.588
 6357SOL    HW219971   6.024   3.728   2.608
 6358SOL     OW19972   0.907   2.450   6.102
 6358SOL    HW119973   0.872   2.538   6.067
 6358SOL    HW219974   0.997   2.464   6.143
 6359SOL     OW19975   5.845   6.921   6.756
 6359SOL    HW119976   5.768   6.983   6.739
 6359SOL    HW219977   5.835   6.880   6.846
 6360SOL     OW19978   1.476   4.348   3.868
 6360SOL    HW119979   1.482   4.256   3.909
 6360SOL    HW219980   1.409   4.402   3.919
 6361SOL     OW19981   1.228   6.839   1.699
 6361SOL    HW119982   1.156   6.836   1.630
 6361SOL    HW219983   1.240   6.749   1.740
 6362SOL     OW19984   6.905   6.335   0.035
 6362SOL    HW119985   6.864   6.244   0.034
 6362SOL    HW219986   6.913   6.369   6.965
 6363SOL     OW19987   1.634   5.163   3.339
 6363SOL    HW119988   1.660   5.229   3.409
 6363SOL    HW219989   1.586   5.211   3.265
 6364SOL     OW19990   2.864   1.263   5.798
 6364SOL    HW119991   2.809   1.193   5.753
 6364SOL    HW219992   2.812   1.304   5.872
 6365SOL     OW19993   5.599   0.507   3.771
 6365SOL    HW119994   5.599   0.565   3.853
 6365SOL    HW219995   5.585   0.563   3.690
 6366SOL     OW19996   1.119   6.175   6.213
 6366SOL    HW119997   1.219   6.168   6.223
 6366SOL    HW219998   1.093   6.272   6.210
 6367SOL     OW19999   4.035   1.294   5.251
 6367SOL    HW120000   4.111   1.301   5.315
 6367SOL    HW220001   4.015   1.384   5.212
 6368SOL     OW20002   3.761   5.007   3.957
 6368SOL    HW120003   3.828   4.977   4.024
 6368SOL    HW220004   3.770   5.106   3.943
 6369SOL     OW20005   2.284   5.524   3.687
 6369SOL    HW120006   2.305   5.537   3.784
 6369SOL    HW220007   2.185   5.520   3.674
 6370SOL     OW20008   6.847   3.048   3.908
 6370SOL    HW120009   6.892   3.040   3.818
 6370SOL    HW220010   6.795   3.133   3.912
 6371SOL     OW20011   4.833   4.478   3.610
 6371SOL    HW120012   4.800   4.491   3.517
 6371SOL    HW220013   4.857   4.381   3.624
 6372SOL     OW20014   1.919   0.561   1.945
 6372SOL    HW120015   1.978   0.503   2.001
 6372SOL    HW220016   1.873   0.506   1.876
 6373SOL     OW20017   4.814   4.046   2.357
 6373SOL    HW120018   4.859   4.007   2.277
 6373SOL    HW220019   4.748   4.115   2.329
 6374SOL     OW20020   3.268   4.130   3.148
 6374SOL    HW120021   3.352   4.162   3.104
 6374SOL    HW220022   3.210   4.085   3.080
 6375SOL     OW20023   0.000   1.734   3.773
 6375SOL    HW120024   6.941   1.737   3.717
 6375SOL    HW220025   7.003   1.763   3.866
 6376SOL     OW20026   5.813   1.956   4.885
 6376SOL    HW120027   5.718   1.952   4.857
 6376SOL    HW220028   5.851   1.864   4.890
 6377SOL     OW20029   6.953   1.742   5.571
 6377SOL    HW120030   6.873   1.683   5.561
 6377SOL    HW220031   7.012   1.734   5.490
 6378SOL     OW20032   4.311   5.167   4.217
 6378SOL    HW120033   4.286   5.073   4.194
 6378SOL    HW220034   4.280   5.187   4.310
 6379SOL     OW20035   1.603   3.745   4.423
 6379SOL    HW120036   1.661   3.817   4.461
 6379SOL    HW220037   1.511   3.751   4.462
 6380SOL     OW20038   0.316   1.614   5.509
 6380SOL    HW120039   0.271   1.693   5.467
 6380SOL    HW220040   0.371   1.567   5.441
 6381SOL     OW20041   3.873   3.026   1.619
 6381SOL    HW120042   3.961   2.999   1.580
 6381SOL    HW220043   3.833   2.948   1.668
 6382SOL     OW20044   2.427   2.132   1.226
 6382SOL    HW120045   2.433   2.069   1.304
 6382SOL    HW220046   2.517   2.171   1.207
 6383SOL     OW20047   1.486   1.926   2.930
 6383SOL    HW120048   1.570   1.911   2.878
 6383SOL    HW220049   1.408   1.894   2.876
 6384SOL     OW20050   6.436   4.290   2.218
 6384SOL    HW120051   6.372   4.356   2.179
 6384SOL    HW220052   6.502   4.261   2.149
 6385SOL     OW20053   0.531   4.462   3.973
 6385SOL    HW120054   0.451   4.490   4.025
 6385SOL    HW220055   0.534   4.362   3.965
 6386SOL     OW20056   2.598   5.041   6.001
 6386SOL    HW120057   2.568   5.131   6.033
 6386SOL    HW220058   2.532   4.971   6.030
 6387SOL     OW20059   0.286   1.619   6.583
 6387SOL    HW120060   0.319   1.550   6.647
 6387SOL    HW220061   0.304   1.710   6.620
 6388SOL     OW20062   3.835   5.780   1.675
 6388SOL    HW120063   3.927   5.753   1.645
 6388SOL    HW220064   3.842   5.857   1.738
 6389SOL     OW20065   0.279   6.072   2.378
 6389SOL    HW120066   0.330   5.993   2.343
 6389SOL    HW220067   0.238   6.050   2.466
 6390SOL     OW20068   0.866   1.147   5.854
 6390SOL    HW120069   0.835   1.053   5.844
 6390SOL    HW220070   0.862   1.174   5.951
 6391SOL     OW20071   2.845   6.913   5.776
 6391SOL    HW120072   2.770   6.935   5.714
 6391SOL    HW220073   2.814   6.925   5.870
 6392SOL     OW20074   2.616   5.457   2.550
 6392SOL    HW120075   2.572   5.370   2.574
 6392SOL    HW220076   2.660   5.496   2.632
 6393SOL     OW20077   6.820   6.801   2.252
 6393SOL    HW120078   6.902   6.855   2.233
 6393SOL    HW220079   6.763   6.798   2.170
 6394SOL     OW20080   1.908   5.128   0.627
 6394SOL    HW120081   1.829   5.094   0.678
 6394SOL    HW220082   1.899   5.102   0.531
 6395SOL     OW20083   0.282   2.238   0.828
 6395SOL    HW120084   0.323   2.323   0.795
 6395SOL    HW220085   0.272   2.242   0.927
 6396SOL     OW20086   4.831   3.004   6.333
 6396SOL    HW120087   4.851   3.092   6.376
 6396SOL    HW220088   4.876   2.999   6.244
 6397SOL     OW20089   5.661   1.734   0.497
 6397SOL    HW120090   5.572   1.705   0.532
 6397SOL    HW220091   5.666   1.715   0.398
 6398SOL     OW20092   2.417   6.832   2.073
 6398SOL    HW120093   2.460   6.881   1.996
 6398SOL    HW220094   2.482   6.766   2.111
 6399SOL     OW20095   1.573   6.524   6.574
 6399SOL    HW120096   1.604   6.461   6.503
 6399SOL    HW220097   1.500   6.482   6.628
 6400SOL     OW20098   2.828   6.025   2.256
 6400SOL    HW120099   2.873   5.937   2.245
 6400SOL    HW220100   2.892   6.098   2.228
 6401SOL     OW20101   5.858   5.042   3.433
 6401SOL    HW120102   5.886   5.101   3.358
 6401SOL    HW220103   5.893   4.950   3.418
 6402SOL     OW20104   3.125   1.869   3.215
 6402SOL    HW120105   3.166   1.913   3.135
 6402SOL    HW220106   3.163   1.909   3.299
 6403SOL     OW20107   0.121   5.928   6.792
 6403SOL    HW120108   0.220   5.916   6.802
 6403SOL    HW220109   0.097   5.925   6.696
 6404SOL     OW20110   4.274   1.136   1.841
 6404SOL    HW120111   4.258   1.076   1.919
 6404SOL    HW220112   4.350   1.198   1.862
 6405SOL     OW20113   2.714   0.337   4.111
 6405SOL    HW120114   2.766   0.252   4.115
 6405SOL    HW220115   2.776   0.414   4.095
 6406SOL     OW20116   0.476   3.073   2.804
 6406SOL    HW120117   0.457   2.980   2.772
 6406SOL    HW220118   0.560   3.107   2.762
 6407SOL     OW20119   2.613   6.194   4.566
 6407SOL    HW120120   2.593   6.260   4.494
 6407SOL    HW220121   2.575   6.227   4.653
 6408SOL     OW20122   5.450   1.728   6.663
 6408SOL    HW120123   5.531   1.669   6.654
 6408SOL    HW220124   5.400   1.701   6.746
 6409SOL     OW20125   6.739   4.520   3.961
 6409SOL    HW120126   6.661   4.520   4.023
 6409SOL    HW220127   6.817   4.476   4.006
 6410SOL     OW20128   1.664   1.516   7.000
 6410SOL    HW120129   1.569   1.487   7.008
 6410SOL    HW220130   1.691   1.514   6.904
 6411SOL     OW20131   0.952   2.992   3.065
 6411SOL    HW120132   0.883   2.923   3.045
 6411SOL    HW220133   0.919   3.082   3.037
 6412SOL     OW20134   0.663   2.570   5.132
 6412SOL    HW120135   0.653   2.512   5.051
 6412SOL    HW220136   0.628   2.662   5.112
 6413SOL     OW20137   4.150   4.918   3.945
 6413SOL    HW120138   4.130   4.971   4.028
 6413SOL    HW220139   4.170   4.823   3.970
 6414SOL     OW20140   5.432   1.001   0.797
 6414SOL    HW120141   5.449   0.956   0.710
 6414SOL    HW220142   5.480   1.089   0.799
 6415SOL     OW20143   1.530   3.449   2.934
 6415SOL    HW120144   1.541   3.390   3.014
 6415SOL    HW220145   1.436   3.484   2.931
 6416SOL     OW20146   0.857   1.539   6.735
 6416SOL    HW120147   0.861   1.526   6.834
 6416SOL    HW220148   0.887   1.455   6.689
 6417SOL     OW20149   6.510   5.119   1.060
 6417SOL    HW120150   6.453   5.176   1.001
 6417SOL    HW220151   6.587   5.082   1.007
 6418SOL     OW20152   4.892   4.013   1.810
 6418SOL    HW120153   4.975   3.976   1.769
 6418SOL    HW220154   4.812   3.965   1.773
 6419SOL     OW20155   2.210   4.862   3.060
 6419SOL    HW120156   2.125   4.810   3.048
 6419SOL    HW220157   2.277   4.832   2.992
 6420SOL     OW20158   3.130   5.536   4.485
 6420SOL    HW120159   3.136   5.437   4.484
 6420SOL    HW220160   3.218   5.576   4.459
 6421SOL     OW20161   5.115   0.342   2.509
 6421SOL    HW120162   5.178   0.419   2.501
 6421SOL    HW220163   5.163   0.261   2.542
 6422SOL     OW20164   0.280   0.679   4.496
 6422SOL    HW120165   0.193   0.675   4.448
 6422SOL    HW220166   0.355   0.674   4.429
 6423SOL     OW20167   4.678   5.443   2.995
 6423SOL    HW120168   4.744   5.377   2.960
 6423SOL    HW220169   4.618   5.473   2.920
 6424SOL     OW20170   6.982   5.892   5.919
 6424SOL    HW120171   6.963   5.954   5.843
 6424SOL    HW220172   0.050   5.854   5.909
 6425SOL     OW20173   6.326   6.549   2.701
 6425SOL    HW120174   6.252   6.489   2.670
 6425SOL    HW220175   6.355   6.522   2.793
 6426SOL     OW20176   1.341   5.217   2.579
 6426SOL    HW120177   1.279   5.139   2.591
 6426SOL    HW220178   1.427   5.185   2.539
 6427SOL     OW20179   3.419   3.407   4.578
 6427SOL    HW120180   3.487   3.339   4.548
 6427SOL    HW220181   3.341   3.360   4.618
 6428SOL     OW20182   5.715   3.436   6.319
 6428SOL    HW120183   5.736   3.533   6.305
 6428SOL    HW220184   5.725   3.388   6.232
 6429SOL     OW20185   1.897   1.919   5.755
 6429SOL    HW120186   1.839   1.838   5.766
 6429SOL    HW220187   1.927   1.925   5.659
 6430SOL     OW20188   6.627   0.778   2.542
 6430SOL    HW120189   6.556   0.776   2.612
 6430SOL    HW220190   6.598   0.726   2.462
 6431SOL     OW20191   5.607   6.852   3.833
 6431SOL    HW120192   5.610   6.900   3.921
 6431SOL    HW220193   5.686   6.880   3.778
 6432SOL     OW20194   4.266   4.233   6.447
 6432SOL    HW120195   4.295   4.249   6.352
 6432SOL    HW220196   4.179   4.279   6.463
 6433SOL     OW20197   2.538   4.802   6.598
 6433SOL    HW120198   2.460   4.771   6.545
 6433SOL    HW220199   2.508   4.832   6.689
 6434SOL     OW20200   2.550   4.159   6.938
 6434SOL    HW120201   2.472   4.107   6.972
 6434SOL    HW220202   2.518   4.246   6.900
 6435SOL     OW20203   4.682   6.880   0.276
 6435SOL    HW120204   4.751   6.808   0.278
 6435SOL    HW220205   4.684   6.931   0.362
 6436SOL     OW20206   2.147   3.101   3.167
 6436SOL    HW120207   2.153   3.004   3.146
 6436SOL    HW220208   2.140   3.153   3.082
 6437SOL     OW20209   2.220   1.932   0.548
 6437SOL    HW120210   2.310   1.938   0.505
 6437SOL    HW220211   2.211   1.843   0.594
 6438SOL     OW20212   6.602   4.668   6.518
 6438SOL    HW120213   6.532   4.597   6.532
 6438SOL    HW220214   6.688   4.638   6.560
 6439SOL     OW20215   5.566   1.032   1.597
 6439SOL    HW120216   5.652   1.032   1.648
 6439SOL    HW220217   5.492   1.064   1.657
 6440SOL     OW20218   2.063   1.093   5.849
 6440SOL    HW120219   2.148   1.136   5.877
 6440SOL    HW220220   2.000   1.164   5.815
 6441SOL     OW20221   6.773   6.643   2.475
 6441SOL    HW120222   6.805   6.697   2.552
 6441SOL    HW220223   6.794   6.690   2.389
 6442SOL     OW20224   2.100   0.687   4.436
 6442SOL    HW120225   2.027   0.698   4.369
 6442SOL    HW220226   2.156   0.608   4.412
 6443SOL     OW20227   3.992   2.158   5.674
 6443SOL    HW120228   3.898   2.188   5.663
 6443SOL    HW220229   4.034   2.204   5.752
 6444SOL     OW20230   5.913   2.507   4.099
 6444SOL    HW120231   5.902   2.592   4.151
 6444SOL    HW220232   5.877   2.431   4.153
 6445SOL     OW20233   4.088   3.335   4.914
 6445SOL    HW120234   4.072   3.433   4.922
 6445SOL    HW220235   4.095   3.294   5.005
 6446SOL     OW20236   1.356   1.191   6.199
 6446SOL    HW120237   1.434   1.251   6.183
 6446SOL    HW220238   1.307   1.175   6.113
 6447SOL     OW20239   5.436   5.162   3.237
 6447SOL    HW120240   5.493   5.118   3.307
 6447SOL    HW220241   5.341   5.136   3.252
 6448SOL     OW20242   3.977   5.403   2.071
 6448SOL    HW120243   4.076   5.401   2.057
 6448SOL    HW220244   3.932   5.353   1.998
 6449SOL     OW20245   3.663   5.007   0.452
 6449SOL    HW120246   3.637   4.928   0.397
 6449SOL    HW220247   3.587   5.073   0.453
 6450SOL     OW20248   0.648   4.039   1.212
 6450SOL    HW120249   0.709   4.102   1.165
 6450SOL    HW220250   0.690   3.949   1.218
 6451SOL     OW20251   2.304   0.485   4.730
 6451SOL    HW120252   2.295   0.394   4.690
 6451SOL    HW220253   2.279   0.553   4.661
 6452SOL     OW20254   4.204   6.040   4.242
 6452SOL    HW120255   4.261   6.122   4.226
 6452SOL    HW220256   4.263   5.960   4.251
 6453SOL     OW20257   2.377   6.240   1.181
 6453SOL    HW120258   2.398   6.298   1.103
 6453SOL    HW220259   2.382   6.144   1.153
 6454SOL     OW20260   2.111   1.923   3.220
 6454SOL    HW120261   2.147   2.009   3.255
 6454SOL    HW220262   2.015   1.936   3.193
 6455SOL     OW20263   0.345   2.666   3.550
 6455SOL    HW120264   0.341   2.726   3.470
 6455SOL    HW220265   0.321   2.573   3.523
 6456SOL     OW20266   0.949   1.079   3.679
 6456SOL    HW120267   0.863   1.037   3.649
 6456SOL    HW220268   1.026   1.028   3.641
 6457SOL     OW20269   4.788   1.786   0.852
 6457SOL    HW120270   4.783   1.861   0.786
 6457SOL    HW220271   4.767   1.820   0.943
 6458SOL     OW20272   0.824   6.417   4.009
 6458SOL    HW120273   0.776   6.454   3.930
 6458SOL    HW220274   0.883   6.488   4.048
 6459SOL     OW20275   6.360   3.374   0.780
 6459SOL    HW120276   6.273   3.335   0.751
 6459SOL    HW220277   6.410   3.306   0.835
 6460SOL     OW20278   5.267   6.131   5.391
 6460SOL    HW120279   5.253   6.100   5.297
 6460SOL    HW220280   5.216   6.073   5.454
 6461SOL     OW20281   2.655   4.813   5.603
 6461SOL    HW120282   2.680   4.893   5.657
 6461SOL    HW220283   2.592   4.840   5.530
 6462SOL     OW20284   2.353   2.668   4.494
 6462SOL    HW120285   2.364   2.740   4.426
 6462SOL    HW220286   2.283   2.695   4.560
 6463SOL     OW20287   6.265   3.469   6.623
 6463SOL    HW120288   6.262   3.399   6.551
 6463SOL    HW220289   6.355   3.513   6.622
 6464SOL     OW20290   1.166   5.329   4.376
 6464SOL    HW120291   1.186   5.262   4.305
 6464SOL    HW220292   1.190   5.292   4.466
 6465SOL     OW20293   6.717   2.842   2.871
 6465SOL    HW120294   6.745   2.883   2.959
 6465SOL    HW220295   6.671   2.756   2.888
 6466SOL     OW20296   1.120   1.478   5.995
 6466SOL    HW120297   1.158   1.525   6.075
 6466SOL    HW220298   1.069   1.398   6.025
 6467SOL     OW20299   3.145   1.308   0.310
 6467SOL    HW120300   3.070   1.246   0.285
 6467SOL    HW220301   3.221   1.255   0.348
 6468SOL     OW20302   3.643   6.365   0.570
 6468SOL    HW120303   3.545   6.378   0.552
 6468SOL    HW220304   3.683   6.307   0.499
 6469SOL     OW20305   5.223   1.091   4.405
 6469SOL    HW120306   5.268   1.035   4.474
 6469SOL    HW220307   5.291   1.131   4.344
 6470SOL     OW20308   6.423   4.174   0.418
 6470SOL    HW120309   6.453   4.244   0.483
 6470SOL    HW220310   6.420   4.085   0.464
 6471SOL     OW20311   6.362   6.684   5.914
 6471SOL    HW120312   6.412   6.647   5.835
 6471SOL    HW220313   6.322   6.772   5.889
 6472SOL     OW20314   0.499   6.126   1.475
 6472SOL    HW120315   0.578   6.093   1.526
 6472SOL    HW220316   0.484   6.223   1.495
 6473SOL     OW20317   3.371   0.916   4.699
 6473SOL    HW120318   3.368   0.855   4.779
 6473SOL    HW220319   3.412   1.004   4.726
 6474SOL     OW20320   2.469   4.462   6.166
 6474SOL    HW120321   2.523   4.437   6.085
 6474SOL    HW220322   2.478   4.391   6.235
 6475SOL     OW20323   6.355   4.963   3.741
 6475SOL    HW120324   6.285   4.934   3.675
 6475SOL    HW220325   6.319   4.958   3.833
 6476SOL     OW20326   4.132   3.579   1.130
 6476SOL    HW120327   4.169   3.541   1.045
 6476SOL    HW220328   4.051   3.528   1.157
 6477SOL     OW20329   6.347   4.749   1.281
 6477SOL    HW120330   6.440   4.721   1.305
 6477SOL    HW220331   6.326   4.837   1.325
 6478SOL     OW20332   3.524   0.359   1.929
 6478SOL    HW120333   3.497   0.414   1.850
 6478SOL    HW220334   3.616   0.322   1.914
 6479SOL     OW20335   4.025   5.492   3.972
 6479SOL    HW120336   4.005   5.582   3.932
 6479SOL    HW220337   4.083   5.503   4.052
 6480SOL     OW20338   3.007   1.819   5.964
 6480SOL    HW120339   2.909   1.800   5.972
 6480SOL    HW220340   3.055   1.776   6.041
 6481SOL     OW20341   3.804   2.020   1.989
 6481SOL    HW120342   3.885   2.070   2.021
 6481SOL    HW220343   3.731   2.086   1.968
 6482SOL     OW20344   0.338   0.933   6.393
 6482SOL    HW120345   0.269   0.953   6.462
 6482SOL    HW220346   0.332   1.001   6.320
 6483SOL     OW20347   1.273   6.195   1.828
 6483SOL    HW120348   1.210   6.125   1.864
 6483SOL    HW220349   1.293   6.261   1.900
 6484SOL     OW20350   3.350   6.615   1.264
 6484SOL    HW120351   3.318   6.522   1.282
 6484SOL    HW220352   3.384   6.655   1.349
 6485SOL     OW20353   2.001   4.918   3.648
 6485SOL    HW120354   1.916   4.941   3.696
 6485SOL    HW220355   2.036   5.000   3.603
 6486SOL     OW20356   2.407   4.877   3.569
 6486SOL    HW120357   2.489   4.822   3.555
 6486SOL    HW220358   2.417   4.964   3.522
 6487SOL     OW20359   0.041   6.343   4.963
 6487SOL    HW120360   0.134   6.375   4.948
 6487SOL    HW220361   0.014   6.281   4.889
 6488SOL     OW20362   3.610   6.196   4.082
 6488SOL    HW120363   3.674   6.269   4.108
 6488SOL    HW220364   3.520   6.216   4.121
 6489SOL     OW20365   3.053   2.537   6.389
 6489SOL    HW120366   3.148   2.508   6.385
 6489SOL    HW220367   3.002   2.477   6.452
 6490SOL     OW20368   3.997   0.721   6.742
 6490SOL    HW120369   3.993   0.816   6.774
 6490SOL    HW220370   4.043   0.717   6.653
 6491SOL     OW20371   3.482   0.498   0.693
 6491SOL    HW120372   3.434   0.540   0.770
 6491SOL    HW220373   3.510   0.569   0.629
 6492SOL     OW20374   4.285   5.045   0.395
 6492SOL    HW120375   4.367   4.996   0.363
 6492SOL    HW220376   4.247   4.999   0.475
 6493SOL     OW20377   1.261   4.976   4.779
 6493SOL    HW120378   1.182   4.978   4.841
 6493SOL    HW220379   1.229   4.976   4.684
 6494SOL     OW20380   0.042   0.359   3.395
 6494SOL    HW120381   0.063   0.376   3.491
 6494SOL    HW220382   0.065   0.440   3.341
 6495SOL     OW20383   5.211   6.966   4.349
 6495SOL    HW120384   5.115   6.980   4.373
 6495SOL    HW220385   5.259   6.925   4.427
 6496SOL     OW20386   7.015   0.275   3.079
 6496SOL    HW120387   0.083   0.275   3.040
 6496SOL    HW220388   7.020   0.288   3.178
 6497SOL     OW20389   1.691   2.492   0.878
 6497SOL    HW120390   1.672   2.454   0.968
 6497SOL    HW220391   1.605   2.497   0.826
 6498SOL     OW20392   2.197   4.017   3.285
 6498SOL    HW120393   2.193   4.055   3.193
 6498SOL    HW220394   2.240   4.084   3.347
 6499SOL     OW20395   4.955   2.721   4.774
 6499SOL    HW120396   4.976   2.623   4.776
 6499SOL    HW220397   5.024   2.769   4.721
 6500SOL     OW20398   6.958   3.846   3.724
 6500SOL    HW120399   7.018   3.925   3.713
 6500SOL    HW220400   6.864   3.876   3.733
 6501SOL     OW20401   6.800   2.228   6.915
 6501SOL    HW120402   6.714   2.212   6.964
 6501SOL    HW220403   6.857   2.292   6.968
 6502SOL     OW20404   6.103   2.519   1.988
 6502SOL    HW120405   6.014   2.503   2.032
 6502SOL    HW220406   6.096   2.498   1.891
 6503SOL     OW20407   4.941   1.505   3.075
 6503SOL    HW120408   5.010   1.436   3.098
 6503SOL    HW220409   4.982   1.576   3.018
 6504SOL     OW20410   4.572   5.852   6.101
 6504SOL    HW120411   4.502   5.818   6.164
 6504SOL    HW220412   4.557   5.815   6.010
 6505SOL     OW20413   5.615   6.062   1.102
 6505SOL    HW120414   5.656   5.977   1.133
 6505SOL    HW220415   5.665   6.095   1.021
 6506SOL     OW20416   6.875   2.688   2.429
 6506SOL    HW120417   6.880   2.623   2.353
 6506SOL    HW220418   6.807   2.656   2.495
 6507SOL     OW20419   2.018   5.034   5.680
 6507SOL    HW120420   2.100   5.060   5.731
 6507SOL    HW220421   1.963   5.115   5.662
 6508SOL     OW20422   1.164   0.829   2.753
 6508SOL    HW120423   1.083   0.802   2.804
 6508SOL    HW220424   1.219   0.892   2.809
 6509SOL     OW20425   2.996   1.964   4.653
 6509SOL    HW120426   2.984   2.063   4.668
 6509SOL    HW220427   3.091   1.939   4.670
 6510SOL     OW20428   6.398   5.125   6.914
 6510SOL    HW120429   6.351   5.212   6.903
 6510SOL    HW220430   6.461   5.111   6.837
 6511SOL     OW20431   4.550   1.519   4.532
 6511SOL    HW120432   4.609   1.438   4.525
 6511SOL    HW220433   4.530   1.538   4.628
 6512SOL     OW20434   4.734   6.260   2.119
 6512SOL    HW120435   4.670   6.334   2.099
 6512SOL    HW220436   4.776   6.228   2.035
 6513SOL     OW20437   3.153   5.389   2.744
 6513SOL    HW120438   3.082   5.459   2.746
 6513SOL    HW220439   3.197   5.383   2.833
 6514SOL     OW20440   5.875   1.151   3.991
 6514SOL    HW120441   5.928   1.067   4.000
 6514SOL    HW220442   5.846   1.163   3.895
 6515SOL     OW20443   0.348   4.744   4.785
 6515SOL    HW120444   0.348   4.742   4.685
 6515SOL    HW220445   0.358   4.839   4.817
 6516SOL     OW20446   0.120   3.370   1.208
 6516SOL    HW120447   0.118   3.353   1.306
 6516SOL    HW220448   0.027   3.388   1.175
 6517SOL     OW20449   6.290   0.507   0.941
 6517SOL    HW120450   6.241   0.521   0.855
 6517SOL    HW220451   6.388   0.500   0.923
 6518SOL     OW20452   6.708   6.842   6.653
 6518SOL    HW120453   6.650   6.812   6.577
 6518SOL    HW220454   6.652   6.847   6.736
 6519SOL     OW20455   1.595   1.707   3.453
 6519SOL    HW120456   1.686   1.719   3.493
 6519SOL    HW220457   1.560   1.795   3.422
 6520SOL     OW20458   5.329   5.734   2.631
 6520SOL    HW120459   5.334   5.813   2.570
 6520SOL    HW220460   5.291   5.762   2.719
 6521SOL     OW20461   2.148   3.068   4.408
 6521SOL    HW120462   2.171   3.026   4.497
 6521SOL    HW220463   2.049   3.081   4.402
 6522SOL     OW20464   3.878   4.434   0.085
 6522SOL    HW120465   3.966   4.451   0.129
 6522SOL    HW220466   3.884   4.457   7.012
 6523SOL     OW20467   4.456   1.310   6.828
 6523SOL    HW120468   4.448   1.409   6.838
 6523SOL    HW220469   4.442   1.266   6.916
 6524SOL     OW20470   2.917   3.988   1.508
 6524SOL    HW120471   2.858   4.022   1.581
 6524SOL    HW220472   2.897   3.891   1.491
 6525SOL     OW20473   2.124   4.749   2.560
 6525SOL    HW120474   2.070   4.733   2.642
 6525SOL    HW220475   2.219   4.769   2.586
 6526SOL     OW20476   2.462   6.558   6.759
 6526SOL    HW120477   2.504   6.525   6.844
 6526SOL    HW220478   2.439   6.655   6.769
 6527SOL     OW20479   0.713   2.672   4.752
 6527SOL    HW120480   0.635   2.732   4.737
 6527SOL    HW220481   0.782   2.719   4.808
 6528SOL     OW20482   6.938   1.040   5.209
 6528SOL    HW120483   6.854   1.094   5.207
 6528SOL    HW220484   6.915   0.943   5.217
 6529SOL     OW20485   1.244   1.594   2.780
 6529SOL    HW120486   1.238   1.693   2.776
 6529SOL    HW220487   1.335   1.565   2.750
 6530SOL     OW20488   6.876   4.063   0.182
 6530SOL    HW120489   6.811   4.123   0.229
 6530SOL    HW220490   6.861   3.968   0.210
 6531SOL     OW20491   5.692   3.029   5.181
 6531SOL    HW120492   5.635   2.961   5.136
 6531SOL    HW220493   5.670   3.120   5.146
 6532SOL     OW20494   6.298   0.982   0.336
 6532SOL    HW120495   6.363   1.048   0.372
 6532SOL    HW220496   6.269   1.009   0.244
 6533SOL     OW20497   4.556   0.096   1.601
 6533SOL    HW120498   4.473   0.086   1.546
 6533SOL    HW220499   4.534   0.084   1.697
 6534SOL     OW20500   3.459   4.131   1.389
 6534SOL    HW120501   3.397   4.119   1.466
 6534SOL    HW220502   3.508   4.218   1.398
 6535SOL     OW20503   6.414   3.978   4.418
 6535SOL    HW120504   6.360   3.972   4.334
 6535SOL    HW220505   6.374   3.920   4.489
 6536SOL     OW20506   1.150   1.398   5.695
 6536SOL    HW120507   1.113   1.446   5.774
 6536SOL    HW220508   1.193   1.464   5.633
 6537SOL     OW20509   6.619   5.327   0.185
 6537SOL    HW120510   6.542   5.391   0.173
 6537SOL    HW220511   6.597   5.240   0.141
 6538SOL     OW20512   2.815   3.187   0.080
 6538SOL    HW120513   2.896   3.235   0.046
 6538SOL    HW220514   2.810   3.096   0.038
 6539SOL     OW20515   4.037   0.797   5.945
 6539SOL    HW120516   3.972   0.853   5.893
 6539SOL    HW220517   4.040   0.704   5.907
 6540SOL     OW20518   4.588   1.879   5.395
 6540SOL    HW120519   4.488   1.876   5.399
 6540SOL    HW220520   4.625   1.889   5.487
 6541SOL     OW20521   4.919   1.865   5.310
 6541SOL    HW120522   4.858   1.790   5.284
 6541SOL    HW220523   4.865   1.940   5.348
 6542SOL     OW20524   6.097   4.305   4.177
 6542SOL    HW120525   6.054   4.388   4.142
 6542SOL    HW220526   6.170   4.329   4.240
 6543SOL     OW20527   5.995   2.970   5.467
 6543SOL    HW120528   6.084   2.962   5.421
 6543SOL    HW220529   6.009   2.981   5.565
 6544SOL     OW20530   0.381   6.679   2.987
 6544SOL    HW120531   0.336   6.736   3.056
 6544SOL    HW220532   0.344   6.700   2.897
 6545SOL     OW20533   4.400   1.770   0.346
 6545SOL    HW120534   4.334   1.807   0.281
 6545SOL    HW220535   4.418   1.837   0.417
 6546SOL     OW20536   3.387   4.436   0.089
 6546SOL    HW120537   3.468   4.378   0.095
 6546SOL    HW220538   3.414   4.532   0.097
 6547SOL     OW20539   4.513   1.475   5.666
 6547SOL    HW120540   4.535   1.454   5.571
 6547SOL    HW220541   4.592   1.519   5.710
 6548SOL     OW20542   1.316   4.369   0.200
 6548SOL    HW120543   1.378   4.445   0.179
 6548SOL    HW220544   1.302   4.314   0.117
 6549SOL     OW20545   4.486   0.946   1.398
 6549SOL    HW120546   4.538   0.865   1.427
 6549SOL    HW220547   4.434   0.981   1.476
 6550SOL     OW20548   0.485   6.576   4.244
 6550SOL    HW120549   0.510   6.495   4.297
 6550SOL    HW220550   0.425   6.549   4.169
 6551SOL     OW20551   1.623   5.046   2.664
 6551SOL    HW120552   1.631   5.062   2.762
 6551SOL    HW220553   1.549   4.980   2.646
 6552SOL     OW20554   2.054   6.551   5.816
 6552SOL    HW120555   1.985   6.574   5.747
 6552SOL    HW220556   2.013   6.494   5.886
 6553SOL     OW20557   0.721   2.172   3.101
 6553SOL    HW120558   0.756   2.259   3.136
 6553SOL    HW220559   0.740   2.099   3.166
 6554SOL     OW20560   0.137   1.128   5.079
 6554SOL    HW120561   0.047   1.120   5.122
 6554SOL    HW220562   0.133   1.193   5.003
 6555SOL     OW20563   0.045   2.227   2.491
 6555SOL    HW120564   6.973   2.200   2.501
 6555SOL    HW220565   0.051   2.306   2.429
 6556SOL     OW20566   5.457   4.437   4.729
 6556SOL    HW120567   5.446   4.475   4.637
 6556SOL    HW220568   5.458   4.512   4.796
 6557SOL     OW20569   3.153   6.584   1.584
 6557SOL    HW120570   3.053   6.588   1.582
 6557SOL    HW220571   3.188   6.589   1.490
 6558SOL     OW20572   6.208   4.701   0.120
 6558SOL    HW120573   6.232   4.744   0.207
 6558SOL    HW220574   6.202   4.771   0.049
 6559SOL     OW20575   1.081   4.420   6.146
 6559SOL    HW120576   1.167   4.373   6.130
 6559SOL    HW220577   1.092   4.518   6.127
 6560SOL     OW20578   4.335   5.333   1.151
 6560SOL    HW120579   4.286   5.254   1.189
 6560SOL    HW220580   4.313   5.342   1.054
 6561SOL     OW20581   3.673   3.862   1.676
 6561SOL    HW120582   3.702   3.793   1.743
 6561SOL    HW220583   3.573   3.870   1.678
 6562SOL     OW20584   5.729   3.797   1.005
 6562SOL    HW120585   5.642   3.753   0.985
 6562SOL    HW220586   5.754   3.780   1.100
 6563SOL     OW20587   5.815   6.673   0.632
 6563SOL    HW120588   5.888   6.709   0.573
 6563SOL    HW220589   5.737   6.647   0.576
 6564SOL     OW20590   6.928   4.337   3.325
 6564SOL    HW120591   6.863   4.404   3.361
 6564SOL    HW220592   6.892   4.245   3.340
 6565SOL     OW20593   6.600   2.810   3.830
 6565SOL    HW120594   6.565   2.776   3.917
 6565SOL    HW220595   6.684   2.761   3.806
 6566SOL     OW20596   3.706   5.872   2.669
 6566SOL    HW120597   3.764   5.913   2.740
 6566SOL    HW220598   3.740   5.781   2.647
 6567SOL     OW20599   4.050   1.478   1.649
 6567SOL    HW120600   4.095   1.445   1.566
 6567SOL    HW220601   3.970   1.532   1.625
 6568SOL     OW20602   4.069   1.169   4.044
 6568SOL    HW120603   4.147   1.232   4.042
 6568SOL    HW220604   3.996   1.209   4.100
 6569SOL     OW20605   2.741   3.383   6.530
 6569SOL    HW120606   2.678   3.454   6.497
 6569SOL    HW220607   2.830   3.395   6.487
 6570SOL     OW20608   3.642   0.257   2.638
 6570SOL    HW120609   3.596   0.222   2.557
 6570SOL    HW220610   3.734   0.218   2.644
 6571SOL     OW20611   2.449   5.503   1.955
 6571SOL    HW120612   2.374   5.488   2.019
 6571SOL    HW220613   2.534   5.464   1.993
 6572SOL     OW20614   6.579   4.906   6.089
 6572SOL    HW120615   6.517   4.963   6.035
 6572SOL    HW220616   6.672   4.941   6.079
 6573SOL     OW20617   2.812   1.609   1.911
 6573SOL    HW120618   2.752   1.596   1.990
 6573SOL    HW220619   2.886   1.671   1.935
 6574SOL     OW20620   3.467   5.567   2.780
 6574SOL    HW120621   3.484   5.648   2.837
 6574SOL    HW220622   3.524   5.492   2.813
 6575SOL     OW20623   1.097   0.552   2.325
 6575SOL    HW120624   1.094   0.591   2.232
 6575SOL    HW220625   1.190   0.555   2.359
 6576SOL     OW20626   2.551   5.722   6.285
 6576SOL    HW120627   2.523   5.809   6.325
 6576SOL    HW220628   2.481   5.690   6.221
 6577SOL     OW20629   0.687   1.081   4.273
 6577SOL    HW120630   0.662   0.995   4.229
 6577SOL    HW220631   0.700   1.151   4.202
 6578SOL     OW20632   1.367   4.436   2.977
 6578SOL    HW120633   1.288   4.410   3.033
 6578SOL    HW220634   1.407   4.520   3.013
 6579SOL     OW20635   6.769   3.509   5.132
 6579SOL    HW120636   6.851   3.484   5.183
 6579SOL    HW220637   6.759   3.608   5.129
 6580SOL     OW20638   0.013   1.998   0.559
 6580SOL    HW120639   6.961   1.998   0.494
 6580SOL    HW220640   0.019   2.088   0.603
 6581SOL     OW20641   2.300   1.337   0.211
 6581SOL    HW120642   2.283   1.245   0.246
 6581SOL    HW220643   2.386   1.373   0.249
 6582SOL     OW20644   1.316   1.277   1.417
 6582SOL    HW120645   1.383   1.295   1.345
 6582SOL    HW220646   1.358   1.223   1.490
 6583SOL     OW20647   3.268   0.211   4.682
 6583SOL    HW120648   3.316   0.130   4.648
 6583SOL    HW220649   3.180   0.220   4.635
 6584SOL     OW20650   4.182   1.899   0.221
 6584SOL    HW120651   4.152   1.857   0.136
 6584SOL    HW220652   4.236   1.982   0.201
 6585SOL     OW20653   6.671   6.542   0.029
 6585SOL    HW120654   6.718   6.630   0.019
 6585SOL    HW220655   6.739   6.471   0.051
 6586SOL     OW20656   0.207   1.622   5.881
 6586SOL    HW120657   0.204   1.523   5.872
 6586SOL    HW220658   0.233   1.647   5.974
 6587SOL     OW20659   2.467   6.249   4.786
 6587SOL    HW120660   2.488   6.339   4.824
 6587SOL    HW220661   2.478   6.179   4.857
 6588SOL     OW20662   0.978   3.902   1.952
 6588SOL    HW120663   1.055   3.891   1.888
 6588SOL    HW220664   0.896   3.929   1.901
 6589SOL     OW20665   5.031   0.434   0.338
 6589SOL    HW120666   4.961   0.504   0.324
 6589SOL    HW220667   5.109   0.453   0.278
 6590SOL     OW20668   1.137   0.887   5.229
 6590SOL    HW120669   1.092   0.949   5.293
 6590SOL    HW220670   1.226   0.859   5.266
 6591SOL     OW20671   5.397   5.927   2.010
 6591SOL    HW120672   5.307   5.960   2.038
 6591SOL    HW220673   5.451   6.003   1.973
 6592SOL     OW20674   6.231   0.012   4.087
 6592SOL    HW120675   6.211   0.045   4.179
 6592SOL    HW220676   6.235   6.936   4.087
 6593SOL     OW20677   2.886   1.737   2.598
 6593SOL    HW120678   2.931   1.651   2.576
 6593SOL    HW220679   2.796   1.740   2.555
 6594SOL     OW20680   3.448   2.182   0.076
 6594SOL    HW120681   3.455   2.247   0.001
 6594SOL    HW220682   3.503   2.101   0.056
 6595SOL     OW20683   0.894   3.659   0.486
 6595SOL    HW120684   0.808   3.625   0.448
 6595SOL    HW220685   0.928   3.595   0.555
 6596SOL     OW20686   3.218   6.296   4.460
 6596SOL    HW120687   3.124   6.303   4.426
 6596SOL    HW220688   3.237   6.200   4.484
 6597SOL     OW20689   2.674   5.302   2.062
 6597SOL    HW120690   2.657   5.251   1.978
 6597SOL    HW220691   2.636   5.252   2.140
 6598SOL     OW20692   1.444   6.739   4.218
 6598SOL    HW120693   1.346   6.724   4.209
 6598SOL    HW220694   1.485   6.663   4.268
 6599SOL     OW20695   4.993   6.914   5.713
 6599SOL    HW120696   5.067   6.981   5.710
 6599SOL    HW220697   5.028   6.827   5.749
 6600SOL     OW20698   5.044   5.183   6.135
 6600SOL    HW120699   5.128   5.131   6.128
 6600SOL    HW220700   5.016   5.214   6.044
 6601SOL     OW20701   0.968   1.980   5.266
 6601SOL    HW120702   0.878   1.946   5.238
 6601SOL    HW220703   1.000   2.050   5.202
 6602SOL     OW20704   0.842   1.388   1.680
 6602SOL    HW120705   0.779   1.371   1.756
 6602SOL    HW220706   0.839   1.310   1.617
 6603SOL     OW20707   0.462   2.662   3.785
 6603SOL    HW120708   0.450   2.569   3.819
 6603SOL    HW220709   0.413   2.673   3.698
 6604SOL     OW20710   2.346   6.823   1.368
 6604SOL    HW120711   2.249   6.827   1.345
 6604SOL    HW220712   2.377   6.728   1.366
 6605SOL     OW20713   5.677   3.506   1.692
 6605SOL    HW120714   5.627   3.524   1.777
 6605SOL    HW220715   5.614   3.470   1.623
 6606SOL     OW20716   6.591   6.353   2.164
 6606SOL    HW120717   6.635   6.349   2.074
 6606SOL    HW220718   6.504   6.303   2.160
 6607SOL     OW20719   1.648   3.160   2.649
 6607SOL    HW120720   1.677   3.081   2.704
 6607SOL    HW220721   1.637   3.132   2.554
 6608SOL     OW20722   6.313   6.640   1.495
 6608SOL    HW120723   6.241   6.693   1.540
 6608SOL    HW220724   6.283   6.616   1.402
 6609SOL     OW20725   4.674   0.915   5.560
 6609SOL    HW120726   4.665   0.887   5.655
 6609SOL    HW220727   4.760   0.963   5.547
 6610SOL     OW20728   2.472   0.590   6.756
 6610SOL    HW120729   2.439   0.651   6.684
 6610SOL    HW220730   2.398   0.531   6.786
 6611SOL     OW20731   6.241   3.133   3.469
 6611SOL    HW120732   6.215   3.068   3.541
 6611SOL    HW220733   6.334   3.115   3.440
 6612SOL     OW20734   6.437   1.797   6.604
 6612SOL    HW120735   6.455   1.715   6.548
 6612SOL    HW220736   6.456   1.879   6.550
 6613SOL     OW20737   6.814   6.114   5.154
 6613SOL    HW120738   6.810   6.205   5.194
 6613SOL    HW220739   6.752   6.053   5.203
 6614SOL     OW20740   5.444   6.333   1.022
 6614SOL    HW120741   5.376   6.384   1.075
 6614SOL    HW220742   5.536   6.359   1.052
 6615SOL     OW20743   1.368   4.892   2.257
 6615SOL    HW120744   1.422   4.964   2.302
 6615SOL    HW220745   1.325   4.930   2.174
 6616SOL     OW20746   3.620   1.176   6.293
 6616SOL    HW120747   3.613   1.077   6.284
 6616SOL    HW220748   3.635   1.218   6.204
 6617SOL     OW20749   3.685   4.853   2.948
 6617SOL    HW120750   3.628   4.927   2.984
 6617SOL    HW220751   3.744   4.818   3.020
 6618SOL     OW20752   1.209   2.886   2.470
 6618SOL    HW120753   1.176   2.953   2.536
 6618SOL    HW220754   1.266   2.818   2.517
 6619SOL     OW20755   6.158   0.109   4.368
 6619SOL    HW120756   6.140   0.206   4.386
 6619SOL    HW220757   6.077   0.068   4.326
 6620SOL     OW20758   1.229   2.860   5.671
 6620SOL    HW120759   1.314   2.878   5.621
 6620SOL    HW220760   1.184   2.780   5.633
 6621SOL     OW20761   2.135   3.027   6.659
 6621SOL    HW120762   2.231   3.017   6.635
 6621SOL    HW220763   2.110   3.124   6.659
 6622SOL     OW20764   5.769   6.979   1.410
 6622SOL    HW120765   5.677   6.993   1.449
 6622SOL    HW220766   5.811   0.044   1.392
 6623SOL     OW20767   2.530   3.051   6.421
 6623SOL    HW120768   2.490   3.130   6.373
 6623SOL    HW220769   2.627   3.070   6.440
 6624SOL     OW20770   1.015   5.641   5.258
 6624SOL    HW120771   1.110   5.643   5.290
 6624SOL    HW220772   0.963   5.715   5.302
 6625SOL     OW20773   5.162   2.155   5.470
 6625SOL    HW120774   5.167   2.253   5.449
 6625SOL    HW220775   5.156   2.103   5.385
 6626SOL     OW20776   5.038   5.880   5.883
 6626SOL    HW120777   5.098   5.919   5.814
 6626SOL    HW220778   5.078   5.796   5.919
 6627SOL     OW20779   2.555   0.094   4.992
 6627SOL    HW120780   2.510   0.032   4.928
 6627SOL    HW220781   2.517   0.186   4.982
 6628SOL     OW20782   4.502   4.545   4.733
 6628SOL    HW120783   4.539   4.536   4.825
 6628SOL    HW220784   4.416   4.595   4.736
 6629SOL     OW20785   4.659   6.141   0.310
 6629SOL    HW120786   4.662   6.061   0.369
 6629SOL    HW220787   4.752   6.176   0.296
 6630SOL     OW20788   4.046   1.294   1.937
 6630SOL    HW120789   4.010   1.366   1.878
 6630SOL    HW220790   4.132   1.259   1.900
 6631SOL     OW20791   2.558   5.503   3.192
 6631SOL    HW120792   2.612   5.533   3.114
 6631SOL    HW220793   2.620   5.475   3.266
 6632SOL     OW20794   0.295   6.381   1.105
 6632SOL    HW120795   0.282   6.364   1.007
 6632SOL    HW220796   0.285   6.294   1.154
 6633SOL     OW20797   0.896   4.463   6.512
 6633SOL    HW120798   0.962   4.517   6.460
 6633SOL    HW220799   0.848   4.400   6.451
 6634SOL     OW20800   6.069   2.297   3.769
 6634SOL    HW120801   5.971   2.275   3.774
 6634SOL    HW220802   6.082   2.394   3.789
 6635SOL     OW20803   4.202   4.706   3.196
 6635SOL    HW120804   4.127   4.736   3.138
 6635SOL    HW220805   4.223   4.610   3.177
 6636SOL     OW20806   4.847   2.584   5.502
 6636SOL    HW120807   4.889   2.564   5.590
 6636SOL    HW220808   4.838   2.683   5.490
 6637SOL     OW20809   1.562   7.020   6.361
 6637SOL    HW120810   1.576   0.090   6.329
 6637SOL    HW220811   1.531   7.021   6.456
 6638SOL     OW20812   3.175   3.542   4.121
 6638SOL    HW120813   3.218   3.476   4.183
 6638SOL    HW220814   3.093   3.502   4.082
 6639SOL     OW20815   5.681   5.206   6.608
 6639SOL    HW120816   5.605   5.263   6.577
 6639SOL    HW220817   5.763   5.263   6.615
 6640SOL     OW20818   1.221   1.901   5.255
 6640SOL    HW120819   1.243   1.980   5.197
 6640SOL    HW220820   1.124   1.877   5.242
 6641SOL     OW20821   2.066   1.660   6.734
 6641SOL    HW120822   1.982   1.668   6.680
 6641SOL    HW220823   2.098   1.751   6.760
 6642SOL     OW20824   3.362   5.020   6.472
 6642SOL    HW120825   3.425   4.945   6.495
 6642SOL    HW220826   3.326   5.006   6.380
 6643SOL     OW20827   6.097   5.336   0.345
 6643SOL    HW120828   6.164   5.268   0.315
 6643SOL    HW220829   6.005   5.305   0.319
 6644SOL     OW20830   2.406   4.886   2.044
 6644SOL    HW120831   2.468   4.807   2.040
 6644SOL    HW220832   2.318   4.856   2.080
 6645SOL     OW20833   6.846   5.378   0.314
 6645SOL    HW120834   6.759   5.373   0.266
 6645SOL    HW220835   6.839   5.441   0.391
 6646SOL     OW20836   3.774   0.057   4.961
 6646SOL    HW120837   3.691   0.080   5.012
 6646SOL    HW220838   3.781   0.115   4.880
 6647SOL     OW20839   4.402   1.199   2.377
 6647SOL    HW120840   4.408   1.112   2.328
 6647SOL    HW220841   4.316   1.244   2.354
 6648SOL     OW20842   4.132   0.172   2.303
 6648SOL    HW120843   4.145   0.075   2.324
 6648SOL    HW220844   4.050   0.205   2.350
 6649SOL     OW20845   5.776   0.613   6.893
 6649SOL    HW120846   5.743   0.524   6.861
 6649SOL    HW220847   5.715   0.647   6.965
 6650SOL     OW20848   2.962   1.601   4.957
 6650SOL    HW120849   2.921   1.691   4.944
 6650SOL    HW220850   2.990   1.564   4.868
 6651SOL     OW20851   2.225   1.640   5.550
 6651SOL    HW120852   2.203   1.613   5.456
 6651SOL    HW220853   2.284   1.721   5.548
 6652SOL     OW20854   0.307   4.908   0.811
 6652SOL    HW120855   0.370   4.928   0.736
 6652SOL    HW220856   0.353   4.924   0.898
 6653SOL     OW20857   3.528   2.885   2.857
 6653SOL    HW120858   3.457   2.878   2.927
 6653SOL    HW220859   3.512   2.966   2.801
 6654SOL     OW20860   1.908   3.756   1.713
 6654SOL    HW120861   1.980   3.753   1.644
 6654SOL    HW220862   1.865   3.846   1.712
 6655SOL     OW20863   1.525   6.817   2.815
 6655SOL    HW120864   1.431   6.844   2.835
 6655SOL    HW220865   1.577   6.897   2.785
 6656SOL     OW20866   6.351   1.746   2.262
 6656SOL    HW120867   6.391   1.701   2.341
 6656SOL    HW220868   6.395   1.713   2.178
 6657SOL     OW20869   5.899   6.340   6.401
 6657SOL    HW120870   5.967   6.350   6.329
 6657SOL    HW220871   5.823   6.403   6.385
 6658SOL     OW20872   6.652   0.770   5.365
 6658SOL    HW120873   6.695   0.808   5.284
 6658SOL    HW220874   6.708   0.694   5.399
 6659SOL     OW20875   2.318   2.477   0.468
 6659SOL    HW120876   2.341   2.384   0.494
 6659SOL    HW220877   2.252   2.475   0.393
 6660SOL     OW20878   0.957   5.601   0.879
 6660SOL    HW120879   1.049   5.634   0.904
 6660SOL    HW220880   0.924   5.652   0.799
 6661SOL     OW20881   0.876   6.654   4.675
 6661SOL    HW120882   0.951   6.710   4.639
 6661SOL    HW220883   0.903   6.558   4.676
 6662SOL     OW20884   0.562   1.243   0.355
 6662SOL    HW120885   0.605   1.274   0.270
 6662SOL    HW220886   0.605   1.290   0.432
 6663SOL     OW20887   0.145   5.448   3.882
 6663SOL    HW120888   0.155   5.414   3.976
 6663SOL    HW220889   0.163   5.374   3.817
 6664SOL     OW20890   2.661   5.974   0.062
 6664SOL    HW120891   2.668   5.886   0.110
 6664SOL    HW220892   2.703   5.965   6.996
 6665SOL     OW20893   1.407   6.371   4.030
 6665SOL    HW120894   1.472   6.335   4.097
 6665SOL    HW220895   1.314   6.349   4.058
 6666SOL     OW20896   5.487   6.923   5.735
 6666SOL    HW120897   5.416   6.854   5.750
 6666SOL    HW220898   5.445   7.014   5.734
 6667SOL     OW20899   6.628   5.805   6.467
 6667SOL    HW120900   6.664   5.876   6.406
 6667SOL    HW220901   6.605   5.724   6.413
 6668SOL     OW20902   6.863   5.929   1.358
 6668SOL    HW120903   6.931   5.895   1.423
 6668SOL    HW220904   6.778   5.951   1.406
 6669SOL     OW20905   1.751   2.411   3.596
 6669SOL    HW120906   1.799   2.422   3.509
 6669SOL    HW220907   1.759   2.496   3.649
 6670SOL     OW20908   3.960   2.389   5.369
 6670SOL    HW120909   4.022   2.381   5.447
 6670SOL    HW220910   4.013   2.409   5.287
 6671SOL     OW20911   5.971   5.864   1.069
 6671SOL    HW120912   5.942   5.873   0.974
 6671SOL    HW220913   6.057   5.914   1.082
 6672SOL     OW20914   6.569   1.737   6.339
 6672SOL    HW120915   6.591   1.834   6.349
 6672SOL    HW220916   6.494   1.726   6.274
 6673SOL     OW20917   5.639   5.982   3.852
 6673SOL    HW120918   5.562   5.927   3.883
 6673SOL    HW220919   5.691   5.930   3.784
 6674SOL     OW20920   0.835   4.803   5.976
 6674SOL    HW120921   0.843   4.844   5.886
 6674SOL    HW220922   0.787   4.865   6.038
 6675SOL     OW20923   4.834   3.451   1.849
 6675SOL    HW120924   4.762   3.391   1.815
 6675SOL    HW220925   4.886   3.404   1.920
 6676SOL     OW20926   6.902   4.107   5.713
 6676SOL    HW120927   6.944   4.071   5.796
 6676SOL    HW220928   6.818   4.156   5.736
 6677SOL     OW20929   1.280   1.818   6.485
 6677SOL    HW120930   1.246   1.828   6.391
 6677SOL    HW220931   1.375   1.787   6.483
 6678SOL     OW20932   3.140   3.070   6.730
 6678SOL    HW120933   3.167   3.165   6.746
 6678SOL    HW220934   3.222   3.015   6.715
 6679SOL     OW20935   2.236   1.539   3.916
 6679SOL    HW120936   2.150   1.584   3.938
 6679SOL    HW220937   2.263   1.563   3.823
 6680SOL     OW20938   4.535   0.131   6.563
 6680SOL    HW120939   4.504   0.163   6.653
 6680SOL    HW220940   4.613   0.070   6.574
 6681SOL     OW20941   4.364   5.778   0.750
 6681SOL    HW120942   4.455   5.756   0.786
 6681SOL    HW220943   4.296   5.718   0.792
 6682SOL     OW20944   1.266   4.436   3.375
 6682SOL    HW120945   1.355   4.482   3.382
 6682SOL    HW220946   1.241   4.401   3.465
 6683SOL     OW20947   5.965   2.708   5.538
 6683SOL    HW120948   5.999   2.796   5.506
 6683SOL    HW220949   5.931   2.655   5.460
 6684SOL     OW20950   2.473   6.652   1.692
 6684SOL    HW120951   2.513   6.696   1.611
 6684SOL    HW220952   2.539   6.657   1.768
 6685SOL     OW20953   6.240   3.461   5.827
 6685SOL    HW120954   6.158   3.493   5.779
 6685SOL    HW220955   6.215   3.428   5.918
 6686SOL     OW20956   5.341   6.203   4.666
 6686SOL    HW120957   5.290   6.275   4.712
 6686SOL    HW220958   5.321   6.115   4.708
 6687SOL     OW20959   0.761   3.052   0.356
 6687SOL    HW120960   0.756   3.107   0.273
 6687SOL    HW220961   0.845   2.997   0.355
 6688SOL     OW20962   0.068   4.629   2.031
 6688SOL    HW120963   0.098   4.541   1.994
 6688SOL    HW220964   7.007   4.616   2.082
 6689SOL     OW20965   4.552   3.044   6.892
 6689SOL    HW120966   4.463   3.083   6.917
 6689SOL    HW220967   4.559   2.951   6.928
 6690SOL     OW20968   2.426   1.066   0.965
 6690SOL    HW120969   2.382   0.978   0.947
 6690SOL    HW220970   2.517   1.051   1.003
 6691SOL     OW20971   2.823   6.098   1.334
 6691SOL    HW120972   2.801   6.028   1.266
 6691SOL    HW220973   2.804   6.062   1.425
 6692SOL     OW20974   3.943   3.971   5.170
 6692SOL    HW120975   4.003   3.961   5.090
 6692SOL    HW220976   3.856   4.011   5.142
 6693SOL     OW20977   4.379   3.913   5.507
 6693SOL    HW120978   4.304   3.970   5.473
 6693SOL    HW220979   4.397   3.839   5.442
 6694SOL     OW20980   4.636   5.244   0.574
 6694SOL    HW120981   4.712   5.271   0.515
 6694SOL    HW220982   4.654   5.153   0.611
 6695SOL     OW20983   2.886   1.353   6.779
 6695SOL    HW120984   2.903   1.319   6.872
 6695SOL    HW220985   2.923   1.446   6.770
 6696SOL     OW20986   1.511   3.006   5.813
 6696SOL    HW120987   1.544   2.970   5.725
 6696SOL    HW220988   1.411   3.004   5.814
 6697SOL     OW20989   4.811   2.232   2.394
 6697SOL    HW120990   4.811   2.220   2.493
 6697SOL    HW220991   4.722   2.207   2.357
 6698SOL     OW20992   2.689   2.730   1.260
 6698SOL    HW120993   2.667   2.828   1.256
 6698SOL    HW220994   2.736   2.703   1.176
 6699SOL     OW20995   3.083   5.258   5.867
 6699SOL    HW120996   3.117   5.348   5.895
 6699SOL    HW220997   2.996   5.267   5.820
 6700SOL     OW20998   0.012   6.855   0.434
 6700SOL    HW120999   0.032   6.765   0.395
 6700SOL    HW221000   0.074   6.873   0.510
 6701SOL     OW21001   5.444   2.709   1.641
 6701SOL    HW121002   5.543   2.696   1.651
 6701SOL    HW221003   5.414   2.784   1.700
 6702SOL     OW21004   3.001   2.080   1.643
 6702SOL    HW121005   3.003   2.079   1.543
 6702SOL    HW221006   2.925   2.137   1.674
 6703SOL     OW21007   6.701   2.210   6.664
 6703SOL    HW121008   6.705   2.291   6.605
 6703SOL    HW221009   6.755   2.227   6.747
 6704SOL     OW21010   3.494   2.058   3.265
 6704SOL    HW121011   3.396   2.061   3.247
 6704SOL    HW221012   3.513   2.098   3.354
 6705SOL     OW21013   6.651   2.234   0.958
 6705SOL    HW121014   6.561   2.250   0.999
 6705SOL    HW221015   6.694   2.321   0.935
 6706SOL     OW21016   1.210   3.866   1.782
 6706SOL    HW121017   1.287   3.918   1.747
 6706SOL    HW221018   1.237   3.771   1.794
 6707SOL     OW21019   6.507   6.003   3.552
 6707SOL    HW121020   6.558   5.986   3.467
 6707SOL    HW221021   6.570   5.995   3.630
 6708SOL     OW21022   6.964   5.398   2.218
 6708SOL    HW121023   6.900   5.437   2.285
 6708SOL    HW221024   6.994   5.470   2.155
 6709SOL     OW21025   3.000   6.890   2.270
 6709SOL    HW121026   3.079   6.938   2.234
 6709SOL    HW221027   2.927   6.956   2.290
 6710SOL     OW21028   3.191   0.947   5.644
 6710SOL    HW121029   3.171   0.967   5.548
 6710SOL    HW221030   3.289   0.958   5.661
 6711SOL     OW21031   4.977   5.347   6.932
 6711SOL    HW121032   4.889   5.300   6.921
 6711SOL    HW221033   5.034   5.298   6.998
 6712SOL     OW21034   4.758   4.864   0.186
 6712SOL    HW121035   4.824   4.800   0.225
 6712SOL    HW221036   4.797   4.908   0.105
 6713SOL     OW21037   2.517   0.863   2.472
 6713SOL    HW121038   2.488   0.900   2.384
 6713SOL    HW221039   2.508   0.763   2.471
 6714SOL     OW21040   6.427   1.205   6.244
 6714SOL    HW121041   6.358   1.198   6.172
 6714SOL    HW221042   6.517   1.218   6.203
 6715SOL     OW21043   6.858   6.735   6.106
 6715SOL    HW121044   6.940   6.744   6.050
 6715SOL    HW221045   6.883   6.710   6.199
 6716SOL     OW21046   0.306   5.996   1.775
 6716SOL    HW121047   0.284   5.985   1.872
 6716SOL    HW221048   0.316   6.093   1.754
 6717SOL     OW21049   4.213   2.614   0.077
 6717SOL    HW121050   4.262   2.545   0.023
 6717SOL    HW221051   4.131   2.643   0.027
 6718SOL     OW21052   4.938   0.291   6.359
 6718SOL    HW121053   4.862   0.354   6.344
 6718SOL    HW221054   5.007   0.304   6.288
 6719SOL     OW21055   1.805   6.949   6.617
 6719SOL    HW121056   1.892   6.976   6.658
 6719SOL    HW221057   1.815   6.947   6.518
 6720SOL     OW21058   0.710   6.023   3.457
 6720SOL    HW121059   0.627   5.989   3.502
 6720SOL    HW221060   0.723   6.119   3.482
 6721SOL     OW21061   6.679   0.384   5.792
 6721SOL    HW121062   6.672   0.483   5.789
 6721SOL    HW221063   6.728   0.356   5.874
 6722SOL     OW21064   6.827   3.685   1.528
 6722SOL    HW121065   6.854   3.666   1.433
 6722SOL    HW221066   6.749   3.746   1.529
 6723SOL     OW21067   2.267   6.680   3.193
 6723SOL    HW121068   2.219   6.638   3.116
 6723SOL    HW221069   2.271   6.779   3.180
 6724SOL     OW21070   1.345   3.800   5.852
 6724SOL    HW121071   1.291   3.728   5.895
 6724SOL    HW221072   1.441   3.790   5.880
 6725SOL     OW21073   1.204   4.154   1.123
 6725SOL    HW121074   1.195   4.070   1.071
 6725SOL    HW221075   1.165   4.230   1.071
 6726SOL     OW21076   0.726   1.902   5.180
 6726SOL    HW121077   0.719   1.985   5.125
 6726SOL    HW221078   0.684   1.916   5.269
 6727SOL     OW21079   6.106   3.862   5.996
 6727SOL    HW121080   6.150   3.951   5.994
 6727SOL    HW221081   6.175   3.790   5.999
 6728SOL     OW21082   4.380   1.503   3.532
 6728SOL    HW121083   4.358   1.526   3.627
 6728SOL    HW221084   4.360   1.406   3.516
 6729SOL     OW21085   0.292   1.622   2.688
 6729SOL    HW121086   0.320   1.530   2.715
 6729SOL    HW221087   0.325   1.642   2.596
 6730SOL     OW21088   2.676   5.969   6.567
 6730SOL    HW121089   2.722   5.894   6.614
 6730SOL    HW221090   2.579   5.945   6.554
 6731SOL     OW21091   1.144   5.792   1.166
 6731SOL    HW121092   1.049   5.823   1.160
 6731SOL    HW221093   1.152   5.722   1.237
 6732SOL     OW21094   5.229   4.970   6.163
 6732SOL    HW121095   5.205   4.875   6.141
 6732SOL    HW221096   5.290   5.006   6.094
 6733SOL     OW21097   4.179   4.430   0.429
 6733SOL    HW121098   4.142   4.448   0.337
 6733SOL    HW221099   4.120   4.473   0.497
 6734SOL     OW21100   6.334   2.356   4.813
 6734SOL    HW121101   6.287   2.349   4.901
 6734SOL    HW221102   6.326   2.269   4.763
 6735SOL     OW21103   7.013   4.963   4.757
 6735SOL    HW121104   0.030   4.965   4.848
 6735SOL    HW221105   6.989   4.869   4.734
 6736SOL     OW21106   3.295   3.798   6.787
 6736SOL    HW121107   3.381   3.839   6.756
 6736SOL    HW221108   3.305   3.767   6.881
 6737SOL     OW21109   1.961   2.711   0.428
 6737SOL    HW121110   1.889   2.773   0.456
 6737SOL    HW221111   1.940   2.618   0.461
 6738SOL     OW21112   1.735   4.345   2.793
 6738SOL    HW121113   1.796   4.274   2.829
 6738SOL    HW221114   1.659   4.302   2.744
 6739SOL     OW21115   3.839   4.786   5.980
 6739SOL    HW121116   3.925   4.818   5.939
 6739SOL    HW221117   3.820   4.840   6.062
 6740SOL     OW21118   1.685   1.408   4.137
 6740SOL    HW121119   1.621   1.468   4.185
 6740SOL    HW221120   1.735   1.353   4.204
 6741SOL     OW21121   4.250   1.381   5.718
 6741SOL    HW121122   4.336   1.432   5.715
 6741SOL    HW221123   4.257   1.309   5.788
 6742SOL     OW21124   6.225   5.908   2.936
 6742SOL    HW121125   6.245   5.867   2.848
 6742SOL    HW221126   6.228   6.008   2.928
 6743SOL     OW21127   4.355   4.242   0.334
 6743SOL    HW121128   4.295   4.307   0.380
 6743SOL    HW221129   4.409   4.192   0.402
 6744SOL     OW21130   5.144   5.896   6.400
 6744SOL    HW121131   5.202   5.848   6.334
 6744SOL    HW221132   5.187   5.983   6.424
 6745SOL     OW21133   0.497   0.162   2.567
 6745SOL    HW121134   0.441   0.245   2.566
 6745SOL    HW221135   0.441   0.084   2.597
 6746SOL     OW21136   0.910   1.115   2.830
 6746SOL    HW121137   0.883   1.038   2.772
 6746SOL    HW221138   0.912   1.199   2.775
 6747SOL     OW21139   5.496   0.915   4.843
 6747SOL    HW121140   5.475   1.007   4.876
 6747SOL    HW221141   5.415   0.875   4.800
 6748SOL     OW21142   1.350   0.181   3.521
 6748SOL    HW121143   1.279   0.169   3.590
 6748SOL    HW221144   1.320   0.139   3.435
 6749SOL     OW21145   2.907   5.889   0.236
 6749SOL    HW121146   2.930   5.798   0.203
 6749SOL    HW221147   2.964   5.957   0.190
 6750SOL     OW21148   4.323   1.322   5.065
 6750SOL    HW121149   4.364   1.238   5.103
 6750SOL    HW221150   4.368   1.402   5.106
 6751SOL     OW21151   4.270   1.134   3.691
 6751SOL    HW121152   4.171   1.145   3.700
 6751SOL    HW221153   4.296   1.043   3.721
 6752SOL     OW21154   0.263   3.262   2.787
 6752SOL    HW121155   0.352   3.222   2.811
 6752SOL    HW221156   0.211   3.196   2.734
 6753SOL     OW21157   4.309   0.821   5.975
 6753SOL    HW121158   4.340   0.900   5.922
 6753SOL    HW221159   4.209   0.822   5.981
 6754SOL     OW21160   6.865   1.856   0.160
 6754SOL    HW121161   6.916   1.771   0.154
 6754SOL    HW221162   6.786   1.853   0.099
 6755SOL     OW21163   4.694   1.389   3.030
 6755SOL    HW121164   4.773   1.448   3.013
 6755SOL    HW221165   4.641   1.426   3.107
 6756SOL     OW21166   4.019   4.966   4.932
 6756SOL    HW121167   3.952   5.018   4.984
 6756SOL    HW221168   3.991   4.963   4.835
 6757SOL     OW21169   4.280   0.149   1.502
 6757SOL    HW121170   4.201   0.151   1.441
 6757SOL    HW221171   4.310   0.243   1.521
 6758SOL     OW21172   6.817   2.957   1.015
 6758SOL    HW121173   6.839   2.896   1.091
 6758SOL    HW221174   6.873   3.040   1.021
 6759SOL     OW21175   0.995   4.390   4.678
 6759SOL    HW121176   1.027   4.367   4.770
 6759SOL    HW221177   1.042   4.334   4.611
 6760SOL     OW21178   6.636   4.919   3.995
 6760SOL    HW121179   6.549   4.945   4.037
 6760SOL    HW221180   6.693   4.873   4.064
 6761SOL     OW21181   6.054   2.370   6.548
 6761SOL    HW121182   5.980   2.392   6.484
 6761SOL    HW221183   6.017   2.315   6.623
 6762SOL     OW21184   6.600   5.623   3.140
 6762SOL    HW121185   6.542   5.652   3.063
 6762SOL    HW221186   6.555   5.549   3.190
 6763SOL     OW21187   6.999   5.111   3.905
 6763SOL    HW121188   0.036   5.135   3.829
 6763SOL    HW221189   6.915   5.164   3.898
 6764SOL     OW21190   2.998   4.908   6.464
 6764SOL    HW121191   2.924   4.852   6.426
 6764SOL    HW221192   3.053   4.945   6.389
 6765SOL     OW21193   4.552   5.146   4.098
 6765SOL    HW121194   4.491   5.130   4.021
 6765SOL    HW221195   4.498   5.157   4.182
 6766SOL     OW21196   4.322   6.561   6.570
 6766SOL    HW121197   4.244   6.523   6.620
 6766SOL    HW221198   4.384   6.487   6.545
 6767SOL     OW21199   0.854   2.183   0.484
 6767SOL    HW121200   0.799   2.119   0.538
 6767SOL    HW221201   0.836   2.277   0.515
 6768SOL     OW21202   6.792   6.299   3.725
 6768SOL    HW121203   6.866   6.338   3.779
 6768SOL    HW221204   6.791   6.200   3.737
 6769SOL     OW21205   3.055   0.370   5.475
 6769SOL    HW121206   3.027   0.321   5.392
 6769SOL    HW221207   2.980   0.427   5.507
 6770SOL     OW21208   6.661   2.002   3.174
 6770SOL    HW121209   6.579   2.023   3.121
 6770SOL    HW221210   6.741   2.043   3.128
 6771SOL     OW21211   3.451   1.122   3.092
 6771SOL    HW121212   3.425   1.028   3.114
 6771SOL    HW221213   3.531   1.122   3.032
 6772SOL     OW21214   5.146   2.706   2.497
 6772SOL    HW121215   5.182   2.795   2.524
 6772SOL    HW221216   5.220   2.646   2.469
 6773SOL     OW21217   6.736   6.742   1.758
 6773SOL    HW121218   6.793   6.721   1.678
 6773SOL    HW221219   6.681   6.824   1.740
 6774SOL     OW21220   2.150   2.559   4.714
 6774SOL    HW121221   2.081   2.523   4.776
 6774SOL    HW221222   2.241   2.537   4.748
 6775SOL     OW21223   0.610   2.151   3.528
 6775SOL    HW121224   0.646   2.194   3.611
 6775SOL    HW221225   0.510   2.160   3.527
 6776SOL     OW21226   3.847   3.250   1.383
 6776SOL    HW121227   3.812   3.308   1.311
 6776SOL    HW221228   3.932   3.206   1.353
 6777SOL     OW21229   4.327   5.885   0.492
 6777SOL    HW121230   4.419   5.923   0.482
 6777SOL    HW221231   4.312   5.860   0.588
 6778SOL     OW21232   6.310   3.698   2.531
 6778SOL    HW121233   6.356   3.778   2.495
 6778SOL    HW221234   6.373   3.647   2.590
 6779SOL     OW21235   5.679   5.032   6.890
 6779SOL    HW121236   5.738   5.051   6.812
 6779SOL    HW221237   5.583   5.047   6.864
 6780SOL     OW21238   1.605   3.733   2.655
 6780SOL    HW121239   1.670   3.734   2.731
 6780SOL    HW221240   1.608   3.643   2.611
 6781SOL     OW21241   6.737   1.860   3.831
 6781SOL    HW121242   6.694   1.881   3.919
 6781SOL    HW221243   6.681   1.898   3.758
 6782SOL     OW21244   0.696   1.154   3.344
 6782SOL    HW121245   0.719   1.076   3.402
 6782SOL    HW221246   0.762   1.161   3.269
 6783SOL     OW21247   0.732   3.582   5.255
 6783SOL    HW121248   0.673   3.594   5.334
 6783SOL    HW221249   0.677   3.559   5.175
 6784SOL     OW21250   2.139   3.970   1.536
 6784SOL    HW121251   2.107   4.052   1.583
 6784SOL    HW221252   2.195   3.915   1.598
 6785SOL     OW21253   5.728   5.149   5.719
 6785SOL    HW121254   5.685   5.232   5.683
 6785SOL    HW221255   5.659   5.080   5.736
 6786SOL     OW21256   0.314   3.207   6.291
 6786SOL    HW121257   0.228   3.161   6.275
 6786SOL    HW221258   0.373   3.149   6.347
 6787SOL     OW21259   3.324   2.222   1.361
 6787SOL    HW121260   3.319   2.291   1.433
 6787SOL    HW221261   3.402   2.241   1.302
 6788SOL     OW21262   0.446   4.077   2.564
 6788SOL    HW121263   0.496   4.061   2.650
 6788SOL    HW221264   0.476   4.163   2.524
 6789SOL     OW21265   0.005   4.812   4.254
 6789SOL    HW121266   0.066   4.832   4.331
 6789SOL    HW221267   0.037   4.861   4.172
 6790SOL     OW21268   0.371   4.289   6.795
 6790SOL    HW121269   0.313   4.356   6.749
 6790SOL    HW221270   0.318   4.207   6.815
 6791SOL     OW21271   4.318   1.987   2.985
 6791SOL    HW121272   4.283   1.995   2.892
 6791SOL    HW221273   4.304   1.894   3.019
 6792SOL     OW21274   4.628   0.116   5.122
 6792SOL    HW121275   4.619   0.211   5.093
 6792SOL    HW221276   4.725   0.095   5.137
 6793SOL     OW21277   3.194   1.461   6.745
 6793SOL    HW121278   3.209   1.501   6.836
 6793SOL    HW221279   3.209   1.531   6.675
 6794SOL     OW21280   4.538   1.177   5.499
 6794SOL    HW121281   4.591   1.242   5.553
 6794SOL    HW221282   4.546   1.085   5.538
 6795SOL     OW21283   0.929   7.006   0.121
 6795SOL    HW121284   0.908   6.955   0.037
 6795SOL    HW221285   0.941   6.942   0.197
 6796SOL     OW21286   5.650   0.126   2.635
 6796SOL    HW121287   5.725   0.186   2.662
 6796SOL    HW221288   5.618   0.074   2.714
 6797SOL     OW21289   6.308   1.633   0.032
 6797SOL    HW121290   6.387   1.607   0.088
 6797SOL    HW221291   6.271   1.720   0.065
 6798SOL     OW21292   6.206   0.534   1.181
 6798SOL    HW121293   6.234   0.521   1.086
 6798SOL    HW221294   6.287   0.553   1.237
 6799SOL     OW21295   5.239   0.115   2.581
 6799SOL    HW121296   5.262   0.068   2.667
 6799SOL    HW221297   5.322   0.124   2.526
 6800SOL     OW21298   2.377   2.130   1.768
 6800SOL    HW121299   2.392   2.128   1.867
 6800SOL    HW221300   2.440   2.196   1.726
 6801SOL     OW21301   0.522   6.365   3.706
 6801SOL    HW121302   0.486   6.458   3.709
 6801SOL    HW221303   0.492   6.320   3.622
 6802SOL     OW21304   3.707   5.565   0.901
 6802SOL    HW121305   3.719   5.664   0.899
 6802SOL    HW221306   3.796   5.521   0.893
 6803SOL     OW21307   4.367   3.652   0.076
 6803SOL    HW121308   4.322   3.714   0.139
 6803SOL    HW221309   4.432   3.702   0.019
 6804SOL     OW21310   3.146   5.338   2.467
 6804SOL    HW121311   3.128   5.332   2.566
 6804SOL    HW221312   3.084   5.276   2.418
 6805SOL     OW21313   0.959   5.255   6.912
 6805SOL    HW121314   0.918   5.180   6.859
 6805SOL    HW221315   0.985   5.329   6.849
 6806SOL     OW21316   0.046   0.517   4.113
 6806SOL    HW121317   0.097   0.454   4.173
 6806SOL    HW221318   6.972   0.500   4.122
 6807SOL     OW21319   3.669   4.126   3.460
 6807SOL    HW121320   3.673   4.152   3.556
 6807SOL    HW221321   3.577   4.143   3.424
 6808SOL     OW21322   5.749   1.241   4.740
 6808SOL    HW121323   5.775   1.182   4.817
 6808SOL    HW221324   5.819   1.312   4.728
 6809SOL     OW21325   6.103   4.003   0.570
 6809SOL    HW121326   6.027   4.041   0.624
 6809SOL    HW221327   6.133   4.071   0.503
 6810SOL     OW21328   3.443   0.845   3.130
 6810SOL    HW121329   3.531   0.820   3.091
 6810SOL    HW221330   3.371   0.790   3.090
 6811SOL     OW21331   6.854   3.252   2.149
 6811SOL    HW121332   6.896   3.170   2.188
 6811SOL    HW221333   6.759   3.233   2.126
 6812SOL     OW21334   3.375   3.733   4.827
 6812SOL    HW121335   3.455   3.773   4.873
 6812SOL    HW221336   3.401   3.706   4.734
 6813SOL     OW21337   5.500   3.496   2.310
 6813SOL    HW121338   5.490   3.432   2.386
 6813SOL    HW221339   5.595   3.497   2.279
 6814SOL     OW21340   4.771   1.772   6.702
 6814SOL    HW121341   4.732   1.761   6.610
 6814SOL    HW221342   4.837   1.698   6.719
 6815SOL     OW21343   1.915   5.674   6.776
 6815SOL    HW121344   1.992   5.656   6.837
 6815SOL    HW221345   1.879   5.586   6.743
 6816SOL     OW21346   6.929   1.769   4.934
 6816SOL    HW121347   6.974   1.733   4.852
 6816SOL    HW221348   6.894   1.694   4.989
 6817SOL     OW21349   2.312   2.722   3.837
 6817SOL    HW121350   2.282   2.818   3.841
 6817SOL    HW221351   2.294   2.685   3.746
 6818SOL     OW21352   2.268   6.184   0.277
 6818SOL    HW121353   2.210   6.116   0.232
 6818SOL    HW221354   2.267   6.269   0.224
 6819SOL     OW21355   4.392   0.975   2.790
 6819SOL    HW121356   4.460   1.006   2.857
 6819SOL    HW221357   4.377   0.876   2.801
 6820SOL     OW21358   1.207   5.630   1.762
 6820SOL    HW121359   1.307   5.641   1.769
 6820SOL    HW221360   1.187   5.546   1.711
 6821SOL     OW21361   4.831   3.002   5.611
 6821SOL    HW121362   4.886   3.064   5.555
 6821SOL    HW221363   4.783   2.937   5.551
 6822SOL     OW21364   6.583   2.737   6.468
 6822SOL    HW121365   6.626   2.824   6.492
 6822SOL    HW221366   6.609   2.711   6.375
 6823SOL     OW21367   5.486   4.500   0.119
 6823SOL    HW121368   5.455   4.405   0.120
 6823SOL    HW221369   5.585   4.502   0.102
 6824SOL     OW21370   1.655   1.685   0.507
 6824SOL    HW121371   1.640   1.626   0.428
 6824SOL    HW221372   1.751   1.713   0.510
 6825SOL     OW21373   6.409   6.790   0.486
 6825SOL    HW121374   6.414   6.869   0.548
 6825SOL    HW221375   6.376   6.710   0.536
 6826SOL     OW21376   0.889   3.582   4.052
 6826SOL    HW121377   0.820   3.564   3.983
 6826SOL    HW221378   0.845   3.611   4.137
 6827SOL     OW21379   5.298   5.646   5.749
 6827SOL    HW121380   5.377   5.595   5.715
 6827SOL    HW221381   5.255   5.595   5.823
 6828SOL     OW21382   3.983   1.397   2.684
 6828SOL    HW121383   4.053   1.415   2.754
 6828SOL    HW221384   3.897   1.440   2.711
 6829SOL     OW21385   5.269   6.991   5.388
 6829SOL    HW121386   5.175   6.966   5.411
 6829SOL    HW221387   5.290   0.057   5.428
 6830SOL     OW21388   5.926   1.092   3.426
 6830SOL    HW121389   6.017   1.051   3.420
 6830SOL    HW221390   5.896   1.121   3.335
 6831SOL     OW21391   1.279   0.905   5.787
 6831SOL    HW121392   1.337   0.921   5.708
 6831SOL    HW221393   1.336   0.887   5.867
 6832SOL     OW21394   2.184   3.914   0.513
 6832SOL    HW121395   2.253   3.885   0.578
 6832SOL    HW221396   2.093   3.906   0.555
 6833SOL     OW21397   3.243   5.325   6.398
 6833SOL    HW121398   3.246   5.232   6.436
 6833SOL    HW221399   3.258   5.321   6.300
 6834SOL     OW21400   5.142   0.333   1.050
 6834SOL    HW121401   5.215   0.394   1.085
 6834SOL    HW221402   5.117   0.268   1.122
 6835SOL     OW21403   3.645   1.516   4.790
 6835SOL    HW121404   3.661   1.495   4.694
 6835SOL    HW221405   3.548   1.503   4.811
 6836SOL     OW21406   2.355   4.145   6.026
 6836SOL    HW121407   2.278   4.156   6.089
 6836SOL    HW221408   2.437   4.119   6.077
 6837SOL     OW21409   0.526   0.936   3.305
 6837SOL    HW121410   0.433   0.969   3.287
 6837SOL    HW221411   0.585   1.013   3.330
 6838SOL     OW21412   2.234   4.075   5.568
 6838SOL    HW121413   2.332   4.063   5.581
 6838SOL    HW221414   2.217   4.131   5.488
 6839SOL     OW21415   5.585   1.819   3.875
 6839SOL    HW121416   5.655   1.887   3.895
 6839SOL    HW221417   5.611   1.766   3.795
 6840SOL     OW21418   2.818   6.092   5.447
 6840SOL    HW121419   2.881   6.015   5.436
 6840SOL    HW221420   2.725   6.062   5.424
 6841SOL     OW21421   3.895   4.630   1.189
 6841SOL    HW121422   3.942   4.683   1.119
 6841SOL    HW221423   3.954   4.623   1.270
 6842SOL     OW21424   2.026   2.545   6.499
 6842SOL    HW121425   1.995   2.527   6.592
 6842SOL    HW221426   2.045   2.643   6.489
 6843SOL     OW21427   5.215   1.142   2.148
 6843SOL    HW121428   5.212   1.213   2.078
 6843SOL    HW221429   5.194   1.182   2.237
 6844SOL     OW21430   5.703   6.332   4.305
 6844SOL    HW121431   5.691   6.274   4.386
 6844SOL    HW221432   5.765   6.287   4.241
 6845SOL     OW21433   5.271   4.593   2.525
 6845SOL    HW121434   5.298   4.534   2.448
 6845SOL    HW221435   5.213   4.667   2.491
 6846SOL     OW21436   4.070   3.119   1.281
 6846SOL    HW121437   4.123   3.165   1.210
 6846SOL    HW221438   4.128   3.100   1.360
 6847SOL     OW21439   6.321   3.974   1.856
 6847SOL    HW121440   6.294   3.892   1.906
 6847SOL    HW221441   6.239   4.025   1.830
 6848SOL     OW21442   2.655   6.408   3.220
 6848SOL    HW121443   2.749   6.387   3.192
 6848SOL    HW221444   2.592   6.352   3.166
 6849SOL     OW21445   2.942   5.730   4.410
 6849SOL    HW121446   2.972   5.798   4.478
 6849SOL    HW221447   3.007   5.655   4.408
 6850SOL     OW21448   5.439   3.305   2.503
 6850SOL    HW121449   5.348   3.291   2.463
 6850SOL    HW221450   5.432   3.315   2.602
 6851SOL     OW21451   1.494   3.104   4.563
 6851SOL    HW121452   1.512   3.059   4.651
 6851SOL    HW221453   1.481   3.202   4.578
 6852SOL     OW21454   1.339   4.601   1.152
 6852SOL    HW121455   1.336   4.639   1.060
 6852SOL    HW221456   1.367   4.505   1.147
 6853SOL     OW21457   6.692   3.501   6.639
 6853SOL    HW121458   6.739   3.585   6.666
 6853SOL    HW221459   6.627   3.474   6.711
 6854SOL     OW21460   5.499   1.406   5.843
 6854SOL    HW121461   5.588   1.383   5.804
 6854SOL    HW221462   5.465   1.489   5.800
 6855SOL     OW21463   3.581   5.823   2.434
 6855SOL    HW121464   3.638   5.826   2.517
 6855SOL    HW221465   3.496   5.874   2.450
 6856SOL     OW21466   4.711   4.554   5.493
 6856SOL    HW121467   4.688   4.533   5.588
 6856SOL    HW221468   4.770   4.481   5.457
 6857SOL     OW21469   3.524   1.722   6.916
 6857SOL    HW121470   3.568   1.669   6.843
 6857SOL    HW221471   3.524   1.668   7.000
 6858SOL     OW21472   4.058   3.667   4.635
 6858SOL    HW121473   4.084   3.589   4.577
 6858SOL    HW221474   4.040   3.635   4.728
 6859SOL     OW21475   1.754   6.529   1.257
 6859SOL    HW121476   1.663   6.555   1.289
 6859SOL    HW221477   1.813   6.611   1.256
 6860SOL     OW21478   5.445   5.665   1.841
 6860SOL    HW121479   5.404   5.601   1.906
 6860SOL    HW221480   5.450   5.756   1.882
 6861SOL     OW21481   5.710   4.513   1.627
 6861SOL    HW121482   5.669   4.428   1.596
 6861SOL    HW221483   5.769   4.551   1.555
 6862SOL     OW21484   2.437   4.401   4.329
 6862SOL    HW121485   2.402   4.314   4.363
 6862SOL    HW221486   2.498   4.442   4.396
 6863SOL     OW21487   5.663   1.572   4.482
 6863SOL    HW121488   5.587   1.509   4.469
 6863SOL    HW221489   5.729   1.560   4.408
 6864SOL     OW21490   3.455   6.061   3.569
 6864SOL    HW121491   3.550   6.032   3.554
 6864SOL    HW221492   3.394   6.004   3.514
 6865SOL     OW21493   6.079   5.619   2.657
 6865SOL    HW121494   6.072   5.526   2.692
 6865SOL    HW221495   5.989   5.663   2.657
 6866SOL     OW21496   6.591   4.531   2.263
 6866SOL    HW121497   6.623   4.545   2.357
 6866SOL    HW221498   6.577   4.433   2.247
 6867SOL     OW21499   1.626   4.604   1.399
 6867SOL    HW121500   1.544   4.571   1.445
 6867SOL    HW221501   1.605   4.684   1.344
 6868SOL     OW21502   1.941   5.125   5.037
 6868SOL    HW121503   1.943   5.028   5.061
 6868SOL    HW221504   1.970   5.179   5.116
 6869SOL     OW21505   5.858   2.115   5.378
 6869SOL    HW121506   5.917   2.195   5.376
 6869SOL    HW221507   5.787   2.124   5.308
 6870SOL     OW21508   6.949   4.266   2.333
 6870SOL    HW121509   0.020   4.268   2.363
 6870SOL    HW221510   6.908   4.356   2.347
 6871SOL     OW21511   6.361   5.002   2.449
 6871SOL    HW121512   6.442   5.021   2.505
 6871SOL    HW221513   6.336   4.906   2.460
 6872SOL     OW21514   1.191   3.683   0.862
 6872SOL    HW121515   1.235   3.606   0.816
 6872SOL    HW221516   1.242   3.767   0.844
 6873SOL     OW21517   5.877   3.573   5.264
 6873SOL    HW121518   5.842   3.494   5.314
 6873SOL    HW221519   5.806   3.609   5.204
 6874SOL     OW21520   0.959   4.895   2.960
 6874SOL    HW121521   0.952   4.918   3.057
 6874SOL    HW221522   1.005   4.807   2.949
 6875SOL     OW21523   1.591   2.870   3.569
 6875SOL    HW121524   1.656   2.860   3.644
 6875SOL    HW221525   1.640   2.894   3.485
 6876SOL     OW21526   4.075   5.353   5.308
 6876SOL    HW121527   3.988   5.389   5.273
 6876SOL    HW221528   4.073   5.353   5.408
 6877SOL     OW21529   2.653   3.929   5.984
 6877SOL    HW121530   2.580   3.875   5.942
 6877SOL    HW221531   2.614   4.013   6.021
 6878SOL     OW21532   2.710   2.414   5.229
 6878SOL    HW121533   2.675   2.341   5.287
 6878SOL    HW221534   2.805   2.434   5.254
 6879SOL     OW21535   0.999   1.886   6.836
 6879SOL    HW121536   1.060   1.936   6.775
 6879SOL    HW221537   1.054   1.830   6.899
 6880SOL     OW21538   1.976   3.356   5.058
 6880SOL    HW121539   2.016   3.428   5.002
 6880SOL    HW221540   2.046   3.286   5.076
 6881SOL     OW21541   0.318   3.781   2.070
 6881SOL    HW121542   0.255   3.707   2.095
 6881SOL    HW221543   0.386   3.792   2.143
 6882SOL     OW21544   3.124   0.338   5.792
 6882SOL    HW121545   3.162   0.278   5.722
 6882SOL    HW221546   3.025   0.325   5.796
 6883SOL     OW21547   3.722   1.512   0.813
 6883SOL    HW121548   3.814   1.513   0.775
 6883SOL    HW221549   3.656   1.531   0.740
 6884SOL     OW21550   1.890   3.716   4.403
 6884SOL    HW121551   1.796   3.721   4.371
 6884SOL    HW221552   1.918   3.805   4.440
 6885SOL     OW21553   3.725   5.525   4.916
 6885SOL    HW121554   3.717   5.486   5.008
 6885SOL    HW221555   3.638   5.570   4.892
 6886SOL     OW21556   6.966   0.643   3.250
 6886SOL    HW121557   6.969   0.743   3.259
 6886SOL    HW221558   6.933   0.619   3.159
 6887SOL     OW21559   5.094   0.162   5.760
 6887SOL    HW121560   5.028   0.162   5.685
 6887SOL    HW221561   5.048   0.139   5.846
 6888SOL     OW21562   5.266   6.693   6.860
 6888SOL    HW121563   5.239   6.768   6.799
 6888SOL    HW221564   5.186   6.661   6.910
 6889SOL     OW21565   1.381   2.243   5.672
 6889SOL    HW121566   1.345   2.214   5.584
 6889SOL    HW221567   1.435   2.169   5.712
 6890SOL     OW21568   3.595   6.263   1.798
 6890SOL    HW121569   3.671   6.299   1.743
 6890SOL    HW221570   3.545   6.195   1.744
 6891SOL     OW21571   2.231   4.028   4.315
 6891SOL    HW121572   2.260   3.950   4.259
 6891SOL    HW221573   2.177   3.996   4.392
 6892SOL     OW21574   3.291   0.811   3.592
 6892SOL    HW121575   3.358   0.821   3.519
 6892SOL    HW221576   3.277   0.899   3.637
 6893SOL     OW21577   5.444   5.814   1.150
 6893SOL    HW121578   5.515   5.868   1.194
 6893SOL    HW221579   5.454   5.821   1.051
 6894SOL     OW21580   6.496   5.745   6.915
 6894SOL    HW121581   6.414   5.750   6.973
 6894SOL    HW221582   6.508   5.832   6.867
 6895SOL     OW21583   2.848   5.237   6.705
 6895SOL    HW121584   2.816   5.328   6.682
 6895SOL    HW221585   2.841   5.177   6.625
 6896SOL     OW21586   2.282   6.871   4.138
 6896SOL    HW121587   2.239   6.932   4.071
 6896SOL    HW221588   2.373   6.904   4.160
 6897SOL     OW21589   2.267   3.714   6.927
 6897SOL    HW121590   2.229   3.740   6.839
 6897SOL    HW221591   2.367   3.720   6.924
 6898SOL     OW21592   3.808   1.613   2.174
 6898SOL    HW121593   3.738   1.678   2.144
 6898SOL    HW221594   3.803   1.530   2.117
 6899SOL     OW21595   4.766   7.005   0.985
 6899SOL    HW121596   4.675   0.015   0.960
 6899SOL    HW221597   4.815   6.977   0.902
 6900SOL     OW21598   6.268   0.938   5.819
 6900SOL    HW121599   6.203   0.914   5.891
 6900SOL    HW221600   6.252   0.880   5.739
 6901SOL     OW21601   0.942   0.211   5.916
 6901SOL    HW121602   0.956   0.129   5.861
 6901SOL    HW221603   0.999   0.285   5.881
 6902SOL     OW21604   6.841   6.683   0.659
 6902SOL    HW121605   6.761   6.661   0.603
 6902SOL    HW221606   6.921   6.634   0.624
 6903SOL     OW21607   4.296   5.117   5.408
 6903SOL    HW121608   4.384   5.163   5.395
 6903SOL    HW221609   4.248   5.112   5.320
 6904SOL     OW21610   6.054   1.868   3.962
 6904SOL    HW121611   6.020   1.778   3.988
 6904SOL    HW221612   6.034   1.934   4.035
 6905SOL     OW21613   6.113   7.011   0.438
 6905SOL    HW121614   6.081   0.008   0.345
 6905SOL    HW221615   6.043   0.015   0.504
 6906SOL     OW21616   4.077   0.579   3.895
 6906SOL    HW121617   4.118   0.591   3.985
 6906SOL    HW221618   4.081   0.666   3.845
 6907SOL     OW21619   4.744   1.339   1.208
 6907SOL    HW121620   4.834   1.327   1.168
 6907SOL    HW221621   4.746   1.309   1.304
 6908SOL     OW21622   1.142   6.497   5.478
 6908SOL    HW121623   1.134   6.512   5.380
 6908SOL    HW221624   1.201   6.567   5.518
 6909SOL     OW21625   5.472   4.725   1.760
 6909SOL    HW121626   5.537   4.779   1.813
 6909SOL    HW221627   5.520   4.684   1.682
 6910SOL     OW21628   6.680   2.620   3.360
 6910SOL    HW121629   6.739   2.603   3.282
 6910SOL    HW221630   6.683   2.541   3.422
 6911SOL     OW21631   4.078   6.776   3.204
 6911SOL    HW121632   4.015   6.752   3.131
 6911SOL    HW221633   4.067   6.873   3.228
 6912SOL     OW21634   4.841   4.968   0.841
 6912SOL    HW121635   4.928   4.940   0.882
 6912SOL    HW221636   4.782   5.008   0.911
 6913SOL     OW21637   5.330   5.121   5.951
 6913SOL    HW121638   5.417   5.167   5.970
 6913SOL    HW221639   5.335   5.076   5.862
 6914SOL     OW21640   5.995   4.921   0.167
 6914SOL    HW121641   5.964   4.829   0.191
 6914SOL    HW221642   5.977   4.938   0.070
 6915SOL     OW21643   6.198   4.775   1.943
 6915SOL    HW121644   6.199   4.762   1.844
 6915SOL    HW221645   6.289   4.755   1.981
 6916SOL     OW21646   5.823   3.664   0.325
 6916SOL    HW121647   5.913   3.670   0.282
 6916SOL    HW221648   5.833   3.634   0.420
 6917SOL     OW21649   3.508   5.733   0.569
 6917SOL    HW121650   3.492   5.779   0.657
 6917SOL    HW221651   3.430   5.747   0.509
 6918SOL     OW21652   1.176   3.087   4.637
 6918SOL    HW121653   1.135   3.058   4.551
 6918SOL    HW221654   1.151   3.183   4.655
 6919SOL     OW21655   0.595   6.175   3.258
 6919SOL    HW121656   0.625   6.105   3.322
 6919SOL    HW221657   0.664   6.186   3.186
 6920SOL     OW21658   4.300   5.952   6.027
 6920SOL    HW121659   4.302   6.020   6.101
 6920SOL    HW221660   4.208   5.947   5.989
 6921SOL     OW21661   4.646   5.630   3.328
 6921SOL    HW121662   4.643   5.537   3.290
 6921SOL    HW221663   4.715   5.634   3.400
 6922SOL     OW21664   2.418   5.422   6.565
 6922SOL    HW121665   2.434   5.346   6.502
 6922SOL    HW221666   2.334   5.470   6.539
 6923SOL     OW21667   5.233   6.104   3.958
 6923SOL    HW121668   5.264   6.195   3.930
 6923SOL    HW221669   5.300   6.063   4.020
 6924SOL     OW21670   0.929   4.576   6.903
 6924SOL    HW121671   0.920   4.580   7.002
 6924SOL    HW221672   0.893   4.488   6.870
 6925SOL     OW21673   4.111   6.107   4.519
 6925SOL    HW121674   4.147   6.173   4.585
 6925SOL    HW221675   4.186   6.076   4.459
 6926SOL     OW21676   3.222   2.942   2.708
 6926SOL    HW121677   3.287   3.003   2.754
 6926SOL    HW221678   3.129   2.974   2.725
 6927SOL     OW21679   5.259   3.805   5.851
 6927SOL    HW121680   5.334   3.858   5.811
 6927SOL    HW221681   5.289   3.710   5.863
 6928SOL     OW21682   6.680   6.738   0.903
 6928SOL    HW121683   6.731   6.699   0.826
 6928SOL    HW221684   6.739   6.742   0.984
 6929SOL     OW21685   5.046   5.378   1.412
 6929SOL    HW121686   4.984   5.435   1.466
 6929SOL    HW221687   5.117   5.436   1.371
 6930SOL     OW21688   0.101   0.043   1.751
 6930SOL    HW121689   0.084   6.985   1.805
 6930SOL    HW221690   0.193   0.079   1.773
 6931SOL     OW21691   1.800   0.705   2.399
 6931SOL    HW121692   1.709   0.743   2.417
 6931SOL    HW221693   1.823   0.638   2.470
 6932SOL     OW21694   3.947   0.569   1.100
 6932SOL    HW121695   3.954   0.544   1.003
 6932SOL    HW221696   4.038   0.565   1.142
 6933SOL     OW21697   3.569   5.867   5.017
 6933SOL    HW121698   3.582   5.838   5.111
 6933SOL    HW221699   3.472   5.877   4.998
 6934SOL     OW21700   5.060   4.524   5.963
 6934SOL    HW121701   5.034   4.436   6.002
 6934SOL    HW221702   5.088   4.512   5.868
 6935SOL     OW21703   4.474   6.283   3.770
 6935SOL    HW121704   4.516   6.251   3.854
 6935SOL    HW221705   4.489   6.382   3.760
 6936SOL     OW21706   6.807   2.955   2.655
 6936SOL    HW121707   6.900   2.928   2.631
 6936SOL    HW221708   6.769   2.888   2.719
 6937SOL     OW21709   6.466   6.172   6.868
 6937SOL    HW121710   6.409   6.251   6.888
 6937SOL    HW221711   6.551   6.202   6.824
 6938SOL     OW21712   4.873   3.678   5.370
 6938SOL    HW121713   4.878   3.600   5.433
 6938SOL    HW221714   4.818   3.653   5.291
 6939SOL     OW21715   0.099   4.453   1.061
 6939SOL    HW121716   0.150   4.419   1.140
 6939SOL    HW221717   0.158   4.512   1.006
 6940SOL     OW21718   5.028   1.143   0.180
 6940SOL    HW121719   5.017   1.177   0.087
 6940SOL    HW221720   5.090   1.203   0.230
 6941SOL     OW21721   3.698   3.154   3.020
 6941SOL    HW121722   3.794   3.154   2.994
 6941SOL    HW221723   3.642   3.186   2.944
 6942SOL     OW21724   6.396   2.678   0.617
 6942SOL    HW121725   6.340   2.619   0.559
 6942SOL    HW221726   6.462   2.622   0.667
 6943SOL     OW21727   5.071   6.302   0.127
 6943SOL    HW121728   5.099   6.342   0.040
 6943SOL    HW221729   5.088   6.204   0.126
 6944SOL     OW21730   1.537   4.485   6.044
 6944SOL    HW121731   1.529   4.493   6.144
 6944SOL    HW221732   1.632   4.464   6.020
 6945SOL     OW21733   5.525   2.978   6.256
 6945SOL    HW121734   5.468   2.902   6.286
 6945SOL    HW221735   5.515   2.991   6.157
 6946SOL     OW21736   6.399   6.526   1.928
 6946SOL    HW121737   6.478   6.468   1.906
 6946SOL    HW221738   6.415   6.570   2.016
 6947SOL     OW21739   3.080   0.016   5.736
 6947SOL    HW121740   3.105   0.013   5.639
 6947SOL    HW221741   2.997   6.987   5.751
 6948SOL     OW21742   6.609   0.975   6.673
 6948SOL    HW121743   6.673   0.916   6.624
 6948SOL    HW221744   6.619   1.069   6.643
 6949SOL     OW21745   5.745   0.228   3.857
 6949SOL    HW121746   5.724   0.227   3.759
 6949SOL    HW221747   5.807   0.152   3.878
 6950SOL     OW21748   2.049   0.235   3.722
 6950SOL    HW121749   2.080   0.329   3.734
 6950SOL    HW221750   2.090   0.197   3.638
 6951SOL     OW21751   6.236   6.434   5.984
 6951SOL    HW121752   6.282   6.523   5.986
 6951SOL    HW221753   6.253   6.390   5.895
 6952SOL     OW21754   0.374   5.852   3.782
 6952SOL    HW121755   0.305   5.907   3.830
 6952SOL    HW221756   0.328   5.787   3.722
 6953SOL     OW21757   4.662   0.438   6.867
 6953SOL    HW121758   4.728   0.363   6.871
 6953SOL    HW221759   4.594   0.419   6.797
 6954SOL     OW21760   0.657   4.082   4.496
 6954SOL    HW121761   0.747   4.038   4.495
 6954SOL    HW221762   0.620   4.082   4.589
 6955SOL     OW21763   6.814   0.605   2.620
 6955SOL    HW121764   6.909   0.630   2.602
 6955SOL    HW221765   6.757   0.687   2.618
 6956SOL     OW21766   4.479   6.335   2.670
 6956SOL    HW121767   4.548   6.302   2.734
 6956SOL    HW221768   4.463   6.264   2.600
 6957SOL     OW21769   5.902   4.812   1.676
 6957SOL    HW121770   5.834   4.875   1.638
 6957SOL    HW221771   5.896   4.724   1.629
 6958SOL     OW21772   2.936   3.939   4.876
 6958SOL    HW121773   2.984   3.852   4.867
 6958SOL    HW221774   2.845   3.932   4.834
 6959SOL     OW21775   2.779   1.155   4.769
 6959SOL    HW121776   2.729   1.126   4.687
 6959SOL    HW221777   2.782   1.255   4.773
 6960SOL     OW21778   1.477   5.716   1.384
 6960SOL    HW121779   1.408   5.761   1.442
 6960SOL    HW221780   1.554   5.685   1.440
 6961SOL     OW21781   6.386   3.028   4.092
 6961SOL    HW121782   6.474   3.040   4.139
 6961SOL    HW221783   6.379   2.934   4.059
 6962SOL     OW21784   5.051   5.448   2.517
 6962SOL    HW121785   5.150   5.462   2.519
 6962SOL    HW221786   5.024   5.411   2.429
 6963SOL     OW21787   0.053   5.334   1.056
 6963SOL    HW121788   0.141   5.300   1.090
 6963SOL    HW221789   0.030   5.419   1.103
 6964SOL     OW21790   4.159   5.655   4.707
 6964SOL    HW121791   4.065   5.622   4.697
 6964SOL    HW221792   4.173   5.685   4.801
 6965SOL     OW21793   0.790   3.629   6.245
 6965SOL    HW121794   0.769   3.580   6.160
 6965SOL    HW221795   0.803   3.726   6.225
 6966SOL     OW21796   6.697   2.387   3.481
 6966SOL    HW121797   6.730   2.292   3.488
 6966SOL    HW221798   6.617   2.398   3.540
 6967SOL     OW21799   1.757   0.344   5.523
 6967SOL    HW121800   1.692   0.268   5.520
 6967SOL    HW221801   1.715   0.422   5.568
 6968SOL     OW21802   3.663   6.968   2.291
 6968SOL    HW121803   3.612   0.027   2.318
 6968SOL    HW221804   3.747   6.962   2.346
 6969SOL     OW21805   2.902   2.297   1.072
 6969SOL    HW121806   2.974   2.255   1.127
 6969SOL    HW221807   2.944   2.354   1.001
 6970SOL     OW21808   4.528   3.780   6.941
 6970SOL    HW121809   4.618   3.786   6.898
 6970SOL    HW221810   4.482   3.869   6.935
 6971SOL     OW21811   6.434   4.571   1.094
 6971SOL    HW121812   6.403   4.640   1.159
 6971SOL    HW221813   6.360   4.547   1.032
 6972SOL     OW21814   5.265   4.833   4.003
 6972SOL    HW121815   5.328   4.910   4.006
 6972SOL    HW221816   5.263   4.788   4.092
 6973SOL     OW21817   1.257   3.699   5.494
 6973SOL    HW121818   1.344   3.665   5.530
 6973SOL    HW221819   1.187   3.690   5.565
 6974SOL     OW21820   4.143   3.367   2.977
 6974SOL    HW121821   4.168   3.462   2.959
 6974SOL    HW221822   4.124   3.320   2.891
 6975SOL     OW21823   2.397   5.933   6.069
 6975SOL    HW121824   2.488   5.894   6.080
 6975SOL    HW221825   2.392   5.983   5.982
 6976SOL     OW21826   4.463   5.369   5.795
 6976SOL    HW121827   4.375   5.358   5.841
 6976SOL    HW221828   4.509   5.280   5.787
 6977SOL     OW21829   4.386   2.359   1.885
 6977SOL    HW121830   4.305   2.414   1.863
 6977SOL    HW221831   4.388   2.277   1.827
 6978SOL     OW21832   5.691   2.251   1.488
 6978SOL    HW121833   5.676   2.164   1.535
 6978SOL    HW221834   5.680   2.238   1.390
 6979SOL     OW21835   1.317   4.769   0.497
 6979SOL    HW121836   1.347   4.777   0.402
 6979SOL    HW221837   1.227   4.809   0.508
 6980SOL     OW21838   1.528   1.098   3.718
 6980SOL    HW121839   1.436   1.127   3.746
 6980SOL    HW221840   1.537   1.109   3.619
 6981SOL     OW21841   3.001   3.165   6.302
 6981SOL    HW121842   3.035   3.254   6.271
 6981SOL    HW221843   2.987   3.106   6.223
 6982SOL     OW21844   1.480   0.981   4.188
 6982SOL    HW121845   1.543   0.960   4.263
 6982SOL    HW221846   1.496   1.074   4.157
 6983SOL     OW21847   5.222   2.224   3.478
 6983SOL    HW121848   5.275   2.290   3.426
 6983SOL    HW221849   5.261   2.133   3.465
 6984SOL     OW21850   2.414   2.360   4.151
 6984SOL    HW121851   2.427   2.432   4.083
 6984SOL    HW221852   2.483   2.369   4.223
 6985SOL     OW21853   3.870   5.624   1.188
 6985SOL    HW121854   3.853   5.723   1.186
 6985SOL    HW221855   3.928   5.602   1.267
 6986SOL     OW21856   2.154   6.117   6.466
 6986SOL    HW121857   2.153   6.027   6.511
 6986SOL    HW221858   2.097   6.181   6.517
 6987SOL     OW21859   0.367   1.974   6.378
 6987SOL    HW121860   0.429   1.896   6.368
 6987SOL    HW221861   0.414   2.056   6.345
 6988SOL     OW21862   7.009   1.122   5.914
 6988SOL    HW121863   7.003   1.044   5.852
 6988SOL    HW221864   6.944   1.110   5.988
 6989SOL     OW21865   0.536   3.526   3.680
 6989SOL    HW121866   0.542   3.426   3.687
 6989SOL    HW221867   0.507   3.551   3.588
 6990SOL     OW21868   5.243   2.296   1.453
 6990SOL    HW121869   5.314   2.362   1.478
 6990SOL    HW221870   5.160   2.315   1.506
 6991SOL     OW21871   3.147   4.902   3.446
 6991SOL    HW121872   3.230   4.857   3.479
 6991SOL    HW221873   3.121   4.975   3.510
 6992SOL     OW21874   4.765   6.769   5.289
 6992SOL    HW121875   4.780   6.754   5.191
 6992SOL    HW221876   4.677   6.730   5.315
 6993SOL     OW21877   6.972   0.940   3.181
 6993SOL    HW121878   6.918   0.942   3.097
 6993SOL    HW221879   6.962   1.028   3.228
 6994SOL     OW21880   0.503   3.316   4.810
 6994SOL    HW121881   0.533   3.359   4.725
 6994SOL    HW221882   0.580   3.268   4.852
 6995SOL     OW21883   6.626   4.919   6.360
 6995SOL    HW121884   6.592   4.853   6.427
 6995SOL    HW221885   6.585   4.900   6.271
 6996SOL     OW21886   2.711   6.910   6.477
 6996SOL    HW121887   2.628   6.953   6.442
 6996SOL    HW221888   2.687   6.830   6.532
 6997SOL     OW21889   5.856   6.646   5.367
 6997SOL    HW121890   5.882   6.595   5.449
 6997SOL    HW221891   5.797   6.722   5.392
 6998SOL     OW21892   2.059   2.470   1.093
 6998SOL    HW121893   2.127   2.416   1.043
 6998SOL    HW221894   2.026   2.545   1.035
 6999SOL     OW21895   2.238   2.929   6.262
 6999SOL    HW121896   2.283   2.978   6.187
 6999SOL    HW221897   2.252   2.977   6.348
 7000SOL     OW21898   6.215   6.285   1.892
 7000SOL    HW121899   6.174   6.258   1.804
 7000SOL    HW221900   6.219   6.385   1.896
 7001SOL     OW21901   2.609   3.130   5.582
 7001SOL    HW121902   2.630   3.038   5.549
 7001SOL    HW221903   2.694   3.181   5.594
 7002SOL     OW21904   1.885   5.136   2.556
 7002SOL    HW121905   1.789   5.114   2.575
 7002SOL    HW221906   1.903   5.231   2.582
 7003SOL     OW21907   4.354   5.608   6.879
 7003SOL    HW121908   4.305   5.666   6.944
 7003SOL    HW221909   4.451   5.605   6.903
 7004SOL     OW21910   2.162   4.774   1.735
 7004SOL    HW121911   2.170   4.786   1.834
 7004SOL    HW221912   2.253   4.780   1.693
 7005SOL     OW21913   1.666   6.532   6.936
 7005SOL    HW121914   1.710   6.605   6.883
 7005SOL    HW221915   1.712   6.523   0.001
 7006SOL     OW21916   5.182   4.733   4.490
 7006SOL    HW121917   5.103   4.779   4.448
 7006SOL    HW221918   5.181   4.749   4.589
 7007SOL     OW21919   4.495   6.541   3.733
 7007SOL    HW121920   4.589   6.557   3.760
 7007SOL    HW221921   4.480   6.573   3.640
 7008SOL     OW21922   2.100   4.381   5.322
 7008SOL    HW121923   2.047   4.317   5.378
 7008SOL    HW221924   2.050   4.401   5.238
 7009SOL     OW21925   6.245   5.704   2.407
 7009SOL    HW121926   6.166   5.684   2.465
 7009SOL    HW221927   6.325   5.654   2.441
 7010SOL     OW21928   4.400   4.391   5.939
 7010SOL    HW121929   4.337   4.314   5.937
 7010SOL    HW221930   4.379   4.453   5.864
 7011SOL     OW21931   3.017   0.042   6.035
 7011SOL    HW121932   3.073   0.027   5.953
 7011SOL    HW221933   2.921   0.024   6.013
 7012SOL     OW21934   1.857   1.274   2.278
 7012SOL    HW121935   1.767   1.253   2.240
 7012SOL    HW221936   1.905   1.189   2.299
 7013SOL     OW21937   0.691   0.371   0.438
 7013SOL    HW121938   0.729   0.310   0.368
 7013SOL    HW221939   0.760   0.439   0.465
 7014SOL     OW21940   4.802   2.931   1.494
 7014SOL    HW121941   4.741   2.899   1.566
 7014SOL    HW221942   4.760   2.912   1.405
 7015SOL     OW21943   6.345   4.689   2.494
 7015SOL    HW121944   6.431   4.732   2.467
 7015SOL    HW221945   6.309   4.637   2.417
 7016SOL     OW21946   3.710   4.762   1.629
 7016SOL    HW121947   3.678   4.732   1.539
 7016SOL    HW221948   3.662   4.710   1.700
 7017SOL     OW21949   2.248   6.791   2.653
 7017SOL    HW121950   2.310   6.713   2.646
 7017SOL    HW221951   2.266   6.841   2.738
 7018SOL     OW21952   5.702   4.037   4.684
 7018SOL    HW121953   5.775   4.015   4.619
 7018SOL    HW221954   5.696   3.965   4.754
 7019SOL     OW21955   2.403   3.633   6.542
 7019SOL    HW121956   2.360   3.552   6.581
 7019SOL    HW221957   2.473   3.606   6.477
 7020SOL     OW21958   5.992   6.988   6.483
 7020SOL    HW121959   6.036   6.908   6.523
 7020SOL    HW221960   6.014   0.045   6.538
 7021SOL     OW21961   1.679   1.144   5.507
 7021SOL    HW121962   1.748   1.134   5.436
 7021SOL    HW221963   1.679   1.238   5.541
 7022SOL     OW21964   4.616   5.943   0.486
 7022SOL    HW121965   4.650   5.873   0.548
 7022SOL    HW221966   4.615   6.031   0.533
 7023SOL     OW21967   0.436   1.731   3.616
 7023SOL    HW121968   0.530   1.754   3.593
 7023SOL    HW221969   0.423   1.632   3.609
 7024SOL     OW21970   1.786   4.298   5.718
 7024SOL    HW121971   1.788   4.392   5.683
 7024SOL    HW221972   1.694   4.260   5.705
 7025SOL     OW21973   2.319   1.329   6.968
 7025SOL    HW121974   2.277   1.325   0.034
 7025SOL    HW221975   2.416   1.304   6.974
 7026SOL     OW21976   3.114   1.547   2.191
 7026SOL    HW121977   3.046   1.613   2.225
 7026SOL    HW221978   3.206   1.580   2.213
 7027SOL     OW21979   2.771   4.736   3.798
 7027SOL    HW121980   2.731   4.723   3.708
 7027SOL    HW221981   2.718   4.685   3.867
 7028SOL     OW21982   4.769   6.857   4.270
 7028SOL    HW121983   4.692   6.797   4.251
 7028SOL    HW221984   4.764   6.937   4.210
 7029SOL     OW21985   4.483   5.531   6.218
 7029SOL    HW121986   4.420   5.590   6.168
 7029SOL    HW221987   4.527   5.583   6.291
 7030SOL     OW21988   6.829   2.507   5.105
 7030SOL    HW121989   6.786   2.420   5.130
 7030SOL    HW221990   6.916   2.489   5.060
 7031SOL     OW21991   2.061   6.462   4.670
 7031SOL    HW121992   2.016   6.415   4.745
 7031SOL    HW221993   2.035   6.420   4.583
 7032SOL     OW21994   3.798   0.051   3.341
 7032SOL    HW121995   3.874   0.068   3.279
 7032SOL    HW221996   3.714   0.040   3.288
 7033SOL     OW21997   1.234   2.204   3.684
 7033SOL    HW121998   1.235   2.111   3.720
 7033SOL    HW221999   1.327   2.234   3.664
 7034SOL     OW22000   6.261   6.782   3.324
 7034SOL    HW122001   6.323   6.712   3.289
 7034SOL    HW222002   6.282   6.870   3.281
 7035SOL     OW22003   1.663   6.293   1.540
 7035SOL    HW122004   1.664   6.194   1.524
 7035SOL    HW222005   1.601   6.337   1.475
 7036SOL     OW22006   0.022   0.796   2.295
 7036SOL    HW122007   0.117   0.793   2.262
 7036SOL    HW222008   7.002   0.707   2.281
 7037SOL     OW22009   1.608   0.327   6.682
 7037SOL    HW122010   1.705   0.321   6.660
 7037SOL    HW222011   1.565   0.400   6.629
 7038SOL     OW22012   1.870   3.126   4.404
 7038SOL    HW122013   1.776   3.107   4.375
 7038SOL    HW222014   1.891   3.222   4.389
 7039SOL     OW22015   2.892   5.200   1.792
 7039SOL    HW122016   2.822   5.164   1.854
 7039SOL    HW222017   2.888   5.152   1.705
 7040SOL     OW22018   5.971   1.739   4.724
 7040SOL    HW122019   6.067   1.744   4.753
 7040SOL    HW222020   5.967   1.719   4.626
 7041SOL     OW22021   0.882   2.600   1.602
 7041SOL    HW122022   0.878   2.686   1.551
 7041SOL    HW222023   0.862   2.617   1.698
 7042SOL     OW22024   5.360   5.816   6.640
 7042SOL    HW122025   5.266   5.784   6.634
 7042SOL    HW222026   5.396   5.798   6.732
 7043SOL     OW22027   2.229   2.958   2.799
 7043SOL    HW122028   2.225   3.038   2.859
 7043SOL    HW222029   2.152   2.898   2.817
 7044SOL     OW22030   4.545   5.256   3.148
 7044SOL    HW122031   4.592   5.300   3.072
 7044SOL    HW222032   4.454   5.297   3.159
 7045SOL     OW22033   4.870   5.837   2.521
 7045SOL    HW122034   4.847   5.740   2.532
 7045SOL    HW222035   4.832   5.889   2.597
 7046SOL     OW22036   3.646   1.354   2.944
 7046SOL    HW122037   3.700   1.429   2.906
 7046SOL    HW222038   3.674   1.337   3.038
 7047SOL     OW22039   0.936   2.990   2.023
 7047SOL    HW122040   0.988   3.042   1.955
 7047SOL    HW222041   0.991   2.981   2.107
 7048SOL     OW22042   6.675   6.020   2.547
 7048SOL    HW122043   6.659   6.115   2.523
 7048SOL    HW222044   6.587   5.976   2.569
 7049SOL     OW22045   3.107   1.800   0.946
 7049SOL    HW122046   3.094   1.886   0.896
 7049SOL    HW222047   3.201   1.768   0.932
 7050SOL     OW22048   3.938   3.720   2.467
 7050SOL    HW122049   3.973   3.647   2.408
 7050SOL    HW222050   3.869   3.682   2.529
 7051SOL     OW22051   0.603   0.446   0.945
 7051SOL    HW122052   0.659   0.519   0.985
 7051SOL    HW222053   0.601   0.368   1.007
 7052SOL     OW22054   5.916   2.722   3.705
 7052SOL    HW122055   5.882   2.784   3.634
 7052SOL    HW222056   5.981   2.770   3.763
 7053SOL     OW22057   1.098   3.772   5.140
 7053SOL    HW122058   1.031   3.756   5.212
 7053SOL    HW222059   1.180   3.718   5.159
 7054SOL     OW22060   0.718   6.573   0.617
 7054SOL    HW122061   0.724   6.531   0.708
 7054SOL    HW222062   0.738   6.505   0.547
 7055SOL     OW22063   3.895   5.627   5.520
 7055SOL    HW122064   3.934   5.673   5.441
 7055SOL    HW222065   3.800   5.603   5.501
 7056SOL     OW22066   5.734   5.688   2.611
 7056SOL    HW122067   5.696   5.595   2.618
 7056SOL    HW222068   5.681   5.740   2.544
 7057SOL     OW22069   0.764   5.749   3.590
 7057SOL    HW122070   0.810   5.727   3.504
 7057SOL    HW222071   0.673   5.708   3.590
 7058SOL     OW22072   6.731   5.874   6.031
 7058SOL    HW122073   6.659   5.906   5.969
 7058SOL    HW222074   6.820   5.885   5.987
 7059SOL     OW22075   6.979   0.752   3.683
 7059SOL    HW122076   6.906   0.718   3.625
 7059SOL    HW222077   6.943   0.772   3.774
 7060SOL     OW22078   4.031   0.461   1.845
 7060SOL    HW122079   4.085   0.450   1.761
 7060SOL    HW222080   4.058   0.390   1.911
 7061SOL     OW22081   0.117   3.332   3.904
 7061SOL    HW122082   0.171   3.264   3.955
 7061SOL    HW222083   0.139   3.424   3.938
 7062SOL     OW22084   5.153   1.161   5.190
 7062SOL    HW122085   5.065   1.187   5.150
 7062SOL    HW222086   5.166   1.062   5.178
 7063SOL     OW22087   0.777   0.622   1.325
 7063SOL    HW122088   0.814   0.697   1.381
 7063SOL    HW222089   0.678   0.617   1.338
 7064SOL     OW22090   4.240   2.054   2.446
 7064SOL    HW122091   4.158   2.024   2.396
 7064SOL    HW222092   4.283   2.129   2.398
 7065SOL     OW22093   4.258   3.428   6.479
 7065SOL    HW122094   4.171   3.420   6.527
 7065SOL    HW222095   4.333   3.415   6.543
 7066SOL     OW22096   4.205   0.072   0.326
 7066SOL    HW122097   4.202   0.060   0.426
 7066SOL    HW222098   4.278   0.135   0.302
 7067SOL     OW22099   1.422   1.736   5.347
 7067SOL    HW122100   1.364   1.812   5.318
 7067SOL    HW222101   1.443   1.677   5.269
 7068SOL     OW22102   0.447   4.133   4.295
 7068SOL    HW122103   0.370   4.175   4.343
 7068SOL    HW222104   0.526   4.128   4.357
 7069SOL     OW22105   5.952   1.613   3.678
 7069SOL    HW122106   6.051   1.595   3.674
 7069SOL    HW222107   5.915   1.575   3.762
 7070SOL     OW22108   6.367   6.355   4.700
 7070SOL    HW122109   6.312   6.282   4.660
 7070SOL    HW222110   6.338   6.370   4.795
 7071SOL     OW22111   1.669   6.217   6.368
 7071SOL    HW122112   1.742   6.283   6.387
 7071SOL    HW222113   1.709   6.132   6.335
 7072SOL     OW22114   0.737   6.267   6.372
 7072SOL    HW122115   0.729   6.189   6.434
 7072SOL    HW222116   0.665   6.263   6.303
 7073SOL     OW22117   4.979   6.993   4.455
 7073SOL    HW122118   4.911   6.991   4.382
 7073SOL    HW222119   4.944   6.941   4.534
 7074SOL     OW22120   4.490   1.888   1.850
 7074SOL    HW122121   4.448   1.973   1.818
 7074SOL    HW222122   4.420   1.829   1.890
 7075SOL     OW22123   1.910   4.884   5.143
 7075SOL    HW122124   1.864   4.802   5.109
 7075SOL    HW222125   1.926   4.876   5.241
 7076SOL     OW22126   5.767   2.258   6.623
 7076SOL    HW122127   5.668   2.264   6.616
 7076SOL    HW222128   5.793   2.222   6.712
 7077SOL     OW22129   2.450   4.455   4.054
 7077SOL    HW122130   2.409   4.372   4.015
 7077SOL    HW222131   2.461   4.444   4.153
 7078SOL     OW22132   6.886   0.056   1.084
 7078SOL    HW122133   6.928   0.142   1.112
 7078SOL    HW222134   6.886   7.015   1.161
 7079SOL     OW22135   6.624   6.303   4.787
 7079SOL    HW122136   6.528   6.293   4.761
 7079SOL    HW222137   6.664   6.213   4.804
 7080SOL     OW22138   2.492   2.614   4.020
 7080SOL    HW122139   2.429   2.633   3.945
 7080SOL    HW222140   2.494   2.691   4.082
 7081SOL     OW22141   2.704   1.650   6.998
 7081SOL    HW122142   2.799   1.673   6.976
 7081SOL    HW222143   2.659   1.614   6.917
 7082SOL     OW22144   6.288   4.448   0.113
 7082SOL    HW122145   6.233   4.406   0.041
 7082SOL    HW222146   6.263   4.545   0.121
 7083SOL     OW22147   2.686   0.619   0.473
 7083SOL    HW122148   2.657   0.536   0.426
 7083SOL    HW222149   2.786   0.620   0.479
 7084SOL     OW22150   0.330   6.739   5.310
 7084SOL    HW122151   0.391   6.739   5.389
 7084SOL    HW222152   0.366   6.800   5.240
 7085SOL     OW22153   1.201   2.053   1.830
 7085SOL    HW122154   1.270   2.115   1.867
 7085SOL    HW222155   1.241   1.962   1.817
 7086SOL     OW22156   5.167   1.206   4.812
 7086SOL    HW122157   5.212   1.281   4.859
 7086SOL    HW222158   5.082   1.182   4.860
 7087SOL     OW22159   6.424   4.046   3.452
 7087SOL    HW122160   6.410   4.024   3.356
 7087SOL    HW222161   6.425   3.962   3.506
 7088SOL     OW22162   5.743   2.886   3.522
 7088SOL    HW122163   5.668   2.943   3.489
 7088SOL    HW222164   5.716   2.790   3.522
 7089SOL     OW22165   3.322   2.133   4.817
 7089SOL    HW122166   3.239   2.173   4.857
 7089SOL    HW222167   3.302   2.103   4.723
 7090SOL     OW22168   2.409   0.781   6.556
 7090SOL    HW122169   2.434   0.704   6.497
 7090SOL    HW222170   2.351   0.844   6.506
 7091SOL     OW22171   0.376   1.375   6.726
 7091SOL    HW122172   0.475   1.380   6.733
 7091SOL    HW222173   0.335   1.391   6.816
 7092SOL     OW22174   4.499   2.560   6.198
 7092SOL    HW122175   4.529   2.652   6.172
 7092SOL    HW222176   4.449   2.565   6.284
 7093SOL     OW22177   2.992   3.897   3.549
 7093SOL    HW122178   3.047   3.912   3.631
 7093SOL    HW222179   2.996   3.978   3.491
 7094SOL     OW22180   1.258   5.762   6.260
 7094SOL    HW122181   1.320   5.837   6.281
 7094SOL    HW222182   1.270   5.689   6.327
 7095SOL     OW22183   2.917   3.912   5.932
 7095SOL    HW122184   2.821   3.930   5.952
 7095SOL    HW222185   2.925   3.829   5.877
 7096SOL     OW22186   6.432   1.131   3.423
 7096SOL    HW122187   6.462   1.204   3.486
 7096SOL    HW222188   6.505   1.063   3.415
 7097SOL     OW22189   5.767   1.379   1.335
 7097SOL    HW122190   5.734   1.432   1.413
 7097SOL    HW222191   5.719   1.292   1.329
 7098SOL     OW22192   1.097   0.455   4.847
 7098SOL    HW122193   1.150   0.488   4.925
 7098SOL    HW222194   1.147   0.472   4.763
 7099SOL     OW22195   2.350   0.660   5.019
 7099SOL    HW122196   2.395   0.595   5.080
 7099SOL    HW222197   2.334   0.617   4.930
 7100SOL     OW22198   5.362   2.691   1.065
 7100SOL    HW122199   5.281   2.749   1.079
 7100SOL    HW222200   5.441   2.734   1.110
 7101SOL     OW22201   2.422   1.121   4.621
 7101SOL    HW122202   2.507   1.070   4.632
 7101SOL    HW222203   2.439   1.202   4.565
 7102SOL     OW22204   4.263   0.657   0.827
 7102SOL    HW122205   4.239   0.708   0.910
 7102SOL    HW222206   4.262   0.559   0.846
 7103SOL     OW22207   4.623   5.289   1.892
 7103SOL    HW122208   4.532   5.253   1.870
 7103SOL    HW222209   4.661   5.239   1.969
 7104SOL     OW22210   0.417   3.046   4.571
 7104SOL    HW122211   0.413   2.947   4.573
 7104SOL    HW222212   0.509   3.075   4.543
 7105SOL     OW22213   2.915   2.762   5.391
 7105SOL    HW122214   2.972   2.760   5.473
 7105SOL    HW222215   2.920   2.674   5.345
 7106SOL     OW22216   2.906   3.309   3.142
 7106SOL    HW122217   2.901   3.313   3.241
 7106SOL    HW222218   2.912   3.402   3.105
 7107SOL     OW22219   2.534   1.875   0.043
 7107SOL    HW122220   2.611   1.814   0.023
 7107SOL    HW222221   2.454   1.820   0.068
 7108SOL     OW22222   3.873   6.315   2.805
 7108SOL    HW122223   3.971   6.334   2.797
 7108SOL    HW222224   3.848   6.309   2.902
 7109SOL     OW22225   2.902   0.448   6.028
 7109SOL    HW122226   2.894   0.379   5.956
 7109SOL    HW222227   2.907   0.539   5.987
 7110SOL     OW22228   3.637   5.675   4.302
 7110SOL    HW122229   3.649   5.611   4.379
 7110SOL    HW222230   3.721   5.677   4.248
 7111SOL     OW22231   1.615   1.841   4.071
 7111SOL    HW122232   1.630   1.847   3.973
 7111SOL    HW222233   1.650   1.923   4.116
 7112SOL     OW22234   1.225   5.647   4.096
 7112SOL    HW122235   1.280   5.568   4.071
 7112SOL    HW222236   1.184   5.687   4.014
 7113SOL     OW22237   3.670   3.874   4.730
 7113SOL    HW122238   3.653   3.867   4.828
 7113SOL    HW222239   3.737   3.946   4.713
 7114SOL     OW22240   3.903   0.106   1.952
 7114SOL    HW122241   3.847   0.176   1.907
 7114SOL    HW222242   3.848   0.058   2.020
 7115SOL     OW22243   5.491   3.487   1.940
 7115SOL    HW122244   5.473   3.532   2.028
 7115SOL    HW222245   5.405   3.469   1.893
 7116SOL     OW22246   6.232   4.052   3.156
 7116SOL    HW122247   6.306   3.989   3.177
 7116SOL    HW222248   6.261   4.114   3.083
 7117SOL     OW22249   6.547   5.649   5.002
 7117SOL    HW122250   6.628   5.705   5.021
 7117SOL    HW222251   6.544   5.627   4.904
 7118SOL     OW22252   2.584   3.559   0.980
 7118SOL    HW122253   2.510   3.609   1.026
 7118SOL    HW222254   2.601   3.473   1.028
 7119SOL     OW22255   5.375   1.754   2.466
 7119SOL    HW122256   5.406   1.847   2.446
 7119SOL    HW222257   5.384   1.736   2.564
 7120SOL     OW22258   3.616   2.112   3.016
 7120SOL    HW122259   3.554   2.036   2.996
 7120SOL    HW222260   3.592   2.150   3.106
 7121SOL     OW22261   1.864   6.836   3.136
 7121SOL    HW122262   1.891   6.904   3.068
 7121SOL    HW222263   1.846   6.749   3.091
 7122SOL     OW22264   1.468   6.968   5.699
 7122SOL    HW122265   1.494   6.903   5.629
 7122SOL    HW222266   1.501   6.937   5.788
 7123SOL     OW22267   2.044   4.598   3.039
 7123SOL    HW122268   1.981   4.578   3.114
 7123SOL    HW222269   2.000   4.660   2.974
 7124SOL     OW22270   6.885   2.418   0.791
 7124SOL    HW122271   6.934   2.421   0.879
 7124SOL    HW222272   6.884   2.510   0.751
 7125SOL     OW22273   6.398   0.008   0.621
 7125SOL    HW122274   6.341   0.050   0.550
 7125SOL    HW222275   6.351   0.011   0.709
 7126SOL     OW22276   3.454   4.908   6.993
 7126SOL    HW122277   3.527   4.958   6.947
 7126SOL    HW222278   3.367   4.954   6.976
 7127SOL     OW22279   1.744   5.081   5.384
 7127SOL    HW122280   1.666   5.059   5.325
 7127SOL    HW222281   1.817   5.015   5.368
 7128SOL     OW22282   3.480   4.743   0.526
 7128SOL    HW122283   3.412   4.813   0.506
 7128SOL    HW222284   3.462   4.703   0.616
 7129SOL     OW22285   1.900   1.383   0.052
 7129SOL    HW122286   1.806   1.415   0.040
 7129SOL    HW222287   1.948   1.385   6.988
 7130SOL     OW22288   4.135   5.328   5.579
 7130SOL    HW122289   4.210   5.266   5.557
 7130SOL    HW222290   4.172   5.412   5.618
 7131SOL     OW22291   2.311   0.818   0.894
 7131SOL    HW122292   2.230   0.811   0.952
 7131SOL    HW222293   2.311   0.743   0.827
 7132SOL     OW22294   3.861   3.528   7.000
 7132SOL    HW122295   3.917   3.490   6.926
 7132SOL    HW222296   3.777   3.566   6.962
 7133SOL     OW22297   5.104   5.590   5.364
 7133SOL    HW122298   5.011   5.554   5.366
 7133SOL    HW222299   5.113   5.655   5.289
 7134SOL     OW22300   5.988   6.941   1.985
 7134SOL    HW122301   5.908   6.938   2.045
 7134SOL    HW222302   5.958   6.945   1.890
 7135SOL     OW22303   0.667   3.281   3.135
 7135SOL    HW122304   0.600   3.354   3.153
 7135SOL    HW222305   0.619   3.195   3.120
 7136SOL     OW22306   1.959   2.619   0.875
 7136SOL    HW122307   2.012   2.580   0.800
 7136SOL    HW222308   1.865   2.585   0.871
 7137SOL     OW22309   3.787   6.902   6.560
 7137SOL    HW122310   3.768   6.998   6.581
 7137SOL    HW222311   3.800   6.892   6.461
 7138SOL     OW22312   1.593   2.538   6.685
 7138SOL    HW122313   1.692   2.544   6.695
 7138SOL    HW222314   1.568   2.448   6.650
 7139SOL     OW22315   5.688   4.090   1.952
 7139SOL    HW122316   5.655   4.150   1.880
 7139SOL    HW222317   5.686   3.995   1.920
 7140SOL     OW22318   5.585   4.463   4.178
 7140SOL    HW122319   5.663   4.521   4.203
 7140SOL    HW222320   5.507   4.486   4.235
 7141SOL     OW22321   3.948   6.150   1.691
 7141SOL    HW122322   3.892   6.103   1.760
 7141SOL    HW222323   3.892   6.218   1.644
 7142SOL     OW22324   4.288   0.262   3.857
 7142SOL    HW122325   4.383   0.235   3.872
 7142SOL    HW222326   4.231   0.181   3.849
 7143SOL     OW22327   1.171   2.442   6.190
 7143SOL    HW122328   1.259   2.484   6.211
 7143SOL    HW222329   1.185   2.346   6.164
 7144SOL     OW22330   1.808   1.878   2.524
 7144SOL    HW122331   1.866   1.960   2.527
 7144SOL    HW222332   1.822   1.831   2.437
 7145SOL     OW22333   4.268   6.796   0.324
 7145SOL    HW122334   4.232   6.738   0.251
 7145SOL    HW222335   4.244   6.891   0.307
 7146SOL     OW22336   2.393   0.069   1.023
 7146SOL    HW122337   2.406   0.066   1.122
 7146SOL    HW222338   2.372   0.163   0.995
 7147SOL     OW22339   0.663   6.765   3.467
 7147SOL    HW122340   0.706   6.852   3.492
 7147SOL    HW222341   0.602   6.778   3.389
 7148SOL     OW22342   0.802   6.398   0.400
 7148SOL    HW122343   0.722   6.344   0.426
 7148SOL    HW222344   0.878   6.375   0.460
 7149SOL     OW22345   5.843   6.611   2.853
 7149SOL    HW122346   5.779   6.535   2.854
 7149SOL    HW222347   5.829   6.664   2.769
 7150SOL     OW22348   3.419   1.846   2.168
 7150SOL    HW122349   3.349   1.916   2.153
 7150SOL    HW222350   3.506   1.876   2.129
 7151SOL     OW22351   2.192   6.332   0.927
 7151SOL    HW122352   2.231   6.243   0.951
 7151SOL    HW222353   2.215   6.354   0.832
 7152SOL     OW22354   1.348   1.131   4.880
 7152SOL    HW122355   1.340   1.231   4.880
 7152SOL    HW222356   1.437   1.105   4.843
 7153SOL     OW22357   3.442   5.434   2.068
 7153SOL    HW122358   3.346   5.452   2.048
 7153SOL    HW222359   3.476   5.503   2.133
 7154SOL     OW22360   3.576   0.715   3.894
 7154SOL    HW122361   3.597   0.697   3.990
 7154SOL    HW222362   3.513   0.645   3.860
 7155SOL     OW22363   2.014   3.343   1.838
 7155SOL    HW122364   1.976   3.283   1.909
 7155SOL    HW222365   2.104   3.376   1.868
 7156SOL     OW22366   0.395   3.922   4.646
 7156SOL    HW122367   0.459   3.899   4.718
 7156SOL    HW222368   0.369   4.019   4.654
 7157SOL     OW22369   6.215   3.720   1.959
 7157SOL    HW122370   6.146   3.792   1.960
 7157SOL    HW222371   6.223   3.680   2.051
 7158SOL     OW22372   1.277   6.902   2.805
 7158SOL    HW122373   1.200   6.860   2.854
 7158SOL    HW222374   1.247   6.988   2.764
 7159SOL     OW22375   0.676   4.704   2.589
 7159SOL    HW122376   0.657   4.687   2.686
 7159SOL    HW222377   0.714   4.621   2.549
 7160SOL     OW22378   5.160   0.238   3.104
 7160SOL    HW122379   5.117   0.242   3.194
 7160SOL    HW222380   5.260   0.231   3.115
 7161SOL     OW22381   2.920   3.372   4.590
 7161SOL    HW122382   2.843   3.340   4.646
 7161SOL    HW222383   3.001   3.381   4.648
 7162SOL     OW22384   1.602   5.434   6.163
 7162SOL    HW122385   1.673   5.449   6.094
 7162SOL    HW222386   1.633   5.362   6.226
 7163SOL     OW22387   2.608   6.427   2.830
 7163SOL    HW122388   2.530   6.375   2.796
 7163SOL    HW222389   2.681   6.364   2.858
 7164SOL     OW22390   2.006   0.950   3.783
 7164SOL    HW122391   2.025   0.981   3.690
 7164SOL    HW222392   1.911   0.970   3.807
 7165SOL     OW22393   0.021   1.362   1.823
 7165SOL    HW122394   6.972   1.406   1.770
 7165SOL    HW222395   7.007   1.285   1.874
 7166SOL     OW22396   6.008   3.040   0.328
 7166SOL    HW122397   6.068   2.967   0.361
 7166SOL    HW222398   6.007   3.115   0.394
 7167SOL     OW22399   5.289   3.316   3.893
 7167SOL    HW122400   5.261   3.222   3.913
 7167SOL    HW222401   5.340   3.353   3.971
 7168SOL     OW22402   1.731   2.240   3.227
 7168SOL    HW122403   1.799   2.293   3.279
 7168SOL    HW222404   1.640   2.265   3.258
 7169SOL     OW22405   6.491   2.697   4.850
 7169SOL    HW122406   6.424   2.667   4.917
 7169SOL    HW222407   6.554   2.622   4.830
 7170SOL     OW22408   5.129   6.094   3.577
 7170SOL    HW122409   5.170   6.089   3.486
 7170SOL    HW222410   5.088   6.185   3.590
 7171SOL     OW22411   5.308   3.873   0.186
 7171SOL    HW122412   5.336   3.778   0.172
 7171SOL    HW222413   5.338   3.928   0.107
 7172SOL     OW22414   1.625   0.647   5.138
 7172SOL    HW122415   1.684   0.722   5.110
 7172SOL    HW222416   1.679   0.575   5.182
 7173SOL     OW22417   6.927   4.414   6.047
 7173SOL    HW122418   6.916   4.509   6.075
 7173SOL    HW222419   6.972   4.362   6.120
 7174SOL     OW22420   0.460   4.775   0.459
 7174SOL    HW122421   0.530   4.752   0.392
 7174SOL    HW222422   0.482   4.862   0.503
 7175SOL     OW22423   5.086   2.314   6.543
 7175SOL    HW122424   5.038   2.321   6.630
 7175SOL    HW222425   5.064   2.227   6.499
 7176SOL     OW22426   0.830   6.655   2.810
 7176SOL    HW122427   0.831   6.560   2.778
 7176SOL    HW222428   0.750   6.669   2.869
 7177SOL     OW22429   2.073   5.827   4.560
 7177SOL    HW122430   2.138   5.844   4.486
 7177SOL    HW222431   1.980   5.834   4.525
 7178SOL     OW22432   1.788   2.196   5.730
 7178SOL    HW122433   1.864   2.130   5.732
 7178SOL    HW222434   1.794   2.250   5.646
 7179SOL     OW22435   2.216   3.833   4.094
 7179SOL    HW122436   2.162   3.901   4.045
 7179SOL    HW222437   2.271   3.780   4.030
 7180SOL     OW22438   2.697   5.130   0.357
 7180SOL    HW122439   2.637   5.156   0.433
 7180SOL    HW222440   2.722   5.034   0.367
 7181SOL     OW22441   2.435   5.986   0.460
 7181SOL    HW122442   2.470   6.077   0.478
 7181SOL    HW222443   2.365   5.964   0.528
 7182SOL     OW22444   1.352   2.404   4.908
 7182SOL    HW122445   1.435   2.460   4.915
 7182SOL    HW222446   1.272   2.461   4.928
 7183SOL     OW22447   2.750   6.029   0.450
 7183SOL    HW122448   2.803   5.981   0.381
 7183SOL    HW222449   2.654   6.033   0.421
 7184SOL     OW22450   6.908   1.165   3.337
 7184SOL    HW122451   6.834   1.231   3.324
 7184SOL    HW222452   6.987   1.211   3.378
 7185SOL     OW22453   5.178   0.656   5.048
 7185SOL    HW122454   5.245   0.682   4.979
 7185SOL    HW222455   5.211   0.577   5.099
 7186SOL     OW22456   6.405   0.748   0.070
 7186SOL    HW122457   6.400   0.810   7.016
 7186SOL    HW222458   6.423   0.800   0.153
 7187SOL     OW22459   3.671   4.453   6.664
 7187SOL    HW122460   3.686   4.386   6.592
 7187SOL    HW222461   3.755   4.506   6.679
 7188SOL     OW22462   6.733   0.301   0.424
 7188SOL    HW122463   6.694   0.391   0.443
 7188SOL    HW222464   6.811   0.312   0.363
 7189SOL     OW22465   0.755   0.899   5.830
 7189SOL    HW122466   0.677   0.957   5.807
 7189SOL    HW222467   0.729   0.833   5.900
 7190SOL     OW22468   0.031   3.857   2.767
 7190SOL    HW122469   0.047   3.954   2.787
 7190SOL    HW222470   0.073   3.834   2.679
 7191SOL     OW22471   0.679   4.622   2.844
 7191SOL    HW122472   0.637   4.638   2.933
 7191SOL    HW222473   0.697   4.524   2.832
 7192SOL     OW22474   3.541   4.378   5.462
 7192SOL    HW122475   3.493   4.296   5.430
 7192SOL    HW222476   3.537   4.383   5.561
 7193SOL     OW22477   2.038   2.651   2.005
 7193SOL    HW122478   1.963   2.604   1.959
 7193SOL    HW222479   2.017   2.660   2.102
 7194SOL     OW22480   2.214   2.355   0.903
 7194SOL    HW122481   2.305   2.328   0.870
 7194SOL    HW222482   2.169   2.411   0.833
 7195SOL     OW22483   0.005   4.162   6.980
 7195SOL    HW122484   6.956   4.145   0.022
 7195SOL    HW222485   0.013   4.260   6.964
 7196SOL     OW22486   3.477   3.937   1.211
 7196SOL    HW122487   3.404   3.921   1.145
 7196SOL    HW222488   3.448   4.004   1.279
 7197SOL     OW22489   0.201   2.767   5.613
 7197SOL    HW122490   0.195   2.687   5.552
 7197SOL    HW222491   0.291   2.809   5.604
 7198SOL     OW22492   0.624   0.628   6.617
 7198SOL    HW122493   0.633   0.699   6.686
 7198SOL    HW222494   0.541   0.642   6.564
 7199SOL     OW22495   2.210   1.061   2.741
 7199SOL    HW122496   2.303   1.038   2.767
 7199SOL    HW222497   2.205   1.073   2.642
 7200SOL     OW22498   2.446   1.901   0.335
 7200SOL    HW122499   2.536   1.864   0.356
 7200SOL    HW222500   2.425   1.883   0.239
 7201SOL     OW22501   0.829   5.775   4.309
 7201SOL    HW122502   0.733   5.751   4.326
 7201SOL    HW222503   0.878   5.695   4.274
 7202SOL     OW22504   4.254   0.563   6.041
 7202SOL    HW122505   4.293   0.655   6.034
 7202SOL    HW222506   4.171   0.558   5.985
 7203SOL     OW22507   6.836   2.053   0.932
 7203SOL    HW122508   6.850   2.082   0.837
 7203SOL    HW222509   6.757   2.101   0.970
 7204SOL     OW22510   0.691   6.989   5.705
 7204SOL    HW122511   0.636   6.969   5.786
 7204SOL    HW222512   0.788   6.985   5.728
 7205SOL     OW22513   0.833   5.495   3.480
 7205SOL    HW122514   0.752   5.471   3.426
 7205SOL    HW222515   0.808   5.504   3.576
 7206SOL     OW22516   1.895   0.450   1.263
 7206SOL    HW122517   1.883   0.455   1.164
 7206SOL    HW222518   1.866   0.536   1.305
 7207SOL     OW22519   3.606   0.328   2.945
 7207SOL    HW122520   3.655   0.406   2.986
 7207SOL    HW222521   3.632   0.319   2.849
 7208SOL     OW22522   3.928   6.423   3.445
 7208SOL    HW122523   4.005   6.397   3.386
 7208SOL    HW222524   3.908   6.349   3.508
 7209SOL     OW22525   2.939   3.430   2.382
 7209SOL    HW122526   2.867   3.371   2.347
 7209SOL    HW222527   2.945   3.421   2.481
 7210SOL     OW22528   4.451   0.590   3.886
 7210SOL    HW122529   4.525   0.642   3.843
 7210SOL    HW222530   4.394   0.549   3.814
 7211SOL     OW22531   2.598   5.763   3.831
 7211SOL    HW122532   2.517   5.709   3.853
 7211SOL    HW222533   2.599   5.784   3.733
 7212SOL     OW22534   0.270   6.117   4.616
 7212SOL    HW122535   0.275   6.215   4.635
 7212SOL    HW222536   0.302   6.100   4.522
 7213SOL     OW22537   5.250   0.448   0.143
 7213SOL    HW122538   5.208   0.522   0.089
 7213SOL    HW222539   5.304   0.390   0.082
 7214SOL     OW22540   0.267   5.063   5.485
 7214SOL    HW122541   0.173   5.095   5.472
 7214SOL    HW222542   0.328   5.142   5.491
 7215SOL     OW22543   0.102   3.617   5.075
 7215SOL    HW122544   0.124   3.644   5.169
 7215SOL    HW222545   0.032   3.545   5.077
 7216SOL     OW22546   3.252   6.516   6.742
 7216SOL    HW122547   3.181   6.456   6.705
 7216SOL    HW222548   3.295   6.566   6.668
 7217SOL     OW22549   2.426   4.346   2.736
 7217SOL    HW122550   2.351   4.384   2.790
 7217SOL    HW222551   2.494   4.416   2.719
 7218SOL     OW22552   4.728   2.309   5.531
 7218SOL    HW122553   4.669   2.321   5.610
 7218SOL    HW222554   4.755   2.399   5.496
 7219SOL     OW22555   4.369   6.620   4.578
 7219SOL    HW122556   4.380   6.675   4.661
 7219SOL    HW222557   4.385   6.524   4.599
 7220SOL     OW22558   0.635   5.642   5.044
 7220SOL    HW122559   0.711   5.704   5.022
 7220SOL    HW222560   0.672   5.552   5.067
 7221SOL     OW22561   4.358   5.799   4.546
 7221SOL    HW122562   4.421   5.736   4.590
 7221SOL    HW222563   4.265   5.761   4.549
 7222SOL     OW22564   5.870   0.298   3.071
 7222SOL    HW122565   5.876   0.231   3.145
 7222SOL    HW222566   5.944   0.366   3.081
 7223SOL     OW22567   2.991   2.379   1.383
 7223SOL    HW122568   2.959   2.284   1.385
 7223SOL    HW222569   3.018   2.406   1.475
 7224SOL     OW22570   5.745   2.268   3.615
 7224SOL    HW122571   5.650   2.237   3.613
 7224SOL    HW222572   5.766   2.305   3.706
 7225SOL     OW22573   0.845   6.301   0.132
 7225SOL    HW122574   0.861   6.334   0.225
 7225SOL    HW222575   0.751   6.268   0.123
 7226SOL     OW22576   6.906   1.026   1.014
 7226SOL    HW122577   6.892   1.082   0.933
 7226SOL    HW222578   6.999   1.040   1.049
 7227SOL     OW22579   0.758   2.547   0.858
 7227SOL    HW122580   0.713   2.493   0.787
 7227SOL    HW222581   0.703   2.545   0.942
 7228SOL     OW22582   1.061   1.216   2.188
 7228SOL    HW122583   0.974   1.257   2.159
 7228SOL    HW222584   1.137   1.274   2.158
 7229SOL     OW22585   1.516   6.637   5.127
 7229SOL    HW122586   1.479   6.605   5.213
 7229SOL    HW222587   1.467   6.594   5.051
 7230SOL     OW22588   4.791   5.194   4.510
 7230SOL    HW122589   4.777   5.126   4.583
 7230SOL    HW222590   4.712   5.254   4.504
 7231SOL     OW22591   4.971   6.995   0.314
 7231SOL    HW122592   5.042   0.042   0.322
 7231SOL    HW222593   4.889   0.001   0.363
 7232SOL     OW22594   5.085   5.703   3.125
 7232SOL    HW122595   5.118   5.612   3.098
 7232SOL    HW222596   5.158   5.752   3.171
 7233SOL     OW22597   0.472   2.780   4.539
 7233SOL    HW122598   0.555   2.756   4.489
 7233SOL    HW222599   0.403   2.709   4.525
 7234SOL     OW22600   5.219   3.675   3.385
 7234SOL    HW122601   5.227   3.701   3.288
 7234SOL    HW222602   5.250   3.580   3.396
 7235SOL     OW22603   6.816   4.301   1.801
 7235SOL    HW122604   6.768   4.283   1.715
 7235SOL    HW222605   6.903   4.251   1.802
 7236SOL     OW22606   2.559   1.600   2.150
 7236SOL    HW122607   2.631   1.656   2.190
 7236SOL    HW222608   2.481   1.658   2.126
 7237SOL     OW22609   5.477   0.263   5.186
 7237SOL    HW122610   5.527   0.181   5.215
 7237SOL    HW222611   5.441   0.249   5.094
 7238SOL     OW22612   3.135   2.125   1.148
 7238SOL    HW122613   3.198   2.179   1.203
 7238SOL    HW222614   3.161   2.028   1.153
 7239SOL     OW22615   1.995   2.067   2.530
 7239SOL    HW122616   2.025   1.996   2.593
 7239SOL    HW222617   2.068   2.084   2.463
 7240SOL     OW22618   2.436   4.800   6.002
 7240SOL    HW122619   2.393   4.841   5.922
 7240SOL    HW222620   2.371   4.739   6.047
 7241SOL     OW22621   2.683   0.746   0.742
 7241SOL    HW122622   2.707   0.842   0.726
 7241SOL    HW222623   2.668   0.700   0.654
 7242SOL     OW22624   6.199   5.817   0.410
 7242SOL    HW122625   6.169   5.904   0.450
 7242SOL    HW222626   6.277   5.832   0.350
 7243SOL     OW22627   6.833   4.427   6.443
 7243SOL    HW122628   6.857   4.505   6.502
 7243SOL    HW222629   6.772   4.366   6.493
 7244SOL     OW22630   5.668   0.549   1.118
 7244SOL    HW122631   5.610   0.584   1.191
 7244SOL    HW222632   5.750   0.605   1.110
 7245SOL     OW22633   0.345   2.037   5.141
 7245SOL    HW122634   0.283   2.104   5.182
 7245SOL    HW222635   0.418   2.086   5.093
 7246SOL     OW22636   6.536   0.443   4.188
 7246SOL    HW122637   6.556   0.347   4.171
 7246SOL    HW222638   6.471   0.451   4.264
 7247SOL     OW22639   3.152   6.819   4.244
 7247SOL    HW122640   3.085   6.857   4.180
 7247SOL    HW222641   3.115   6.735   4.284
 7248SOL     OW22642   3.605   0.950   3.724
 7248SOL    HW122643   3.582   0.872   3.782
 7248SOL    HW222644   3.698   0.940   3.690
 7249SOL     OW22645   5.411   4.743   2.270
 7249SOL    HW122646   5.439   4.787   2.356
 7249SOL    HW222647   5.356   4.805   2.216
 7250SOL     OW22648   4.327   6.128   6.258
 7250SOL    HW122649   4.255   6.197   6.268
 7250SOL    HW222650   4.310   6.054   6.323
 7251SOL     OW22651   0.594   6.646   5.095
 7251SOL    HW122652   0.669   6.581   5.082
 7251SOL    HW222653   0.525   6.631   5.024
 7252SOL     OW22654   3.754   3.288   3.468
 7252SOL    HW122655   3.733   3.198   3.504
 7252SOL    HW222656   3.831   3.328   3.518
 7253SOL     OW22657   2.367   6.173   6.708
 7253SOL    HW122658   2.325   6.120   6.634
 7253SOL    HW222659   2.451   6.216   6.674
 7254SOL     OW22660   4.576   5.680   4.873
 7254SOL    HW122661   4.587   5.673   4.774
 7254SOL    HW222662   4.501   5.742   4.894
 7255SOL     OW22663   3.806   3.554   1.118
 7255SOL    HW122664   3.749   3.492   1.171
 7255SOL    HW222665   3.779   3.649   1.137
 7256SOL     OW22666   4.348   4.717   4.427
 7256SOL    HW122667   4.275   4.719   4.495
 7256SOL    HW222668   4.324   4.651   4.355
 7257SOL     OW22669   4.822   3.152   3.761
 7257SOL    HW122670   4.798   3.244   3.794
 7257SOL    HW222671   4.903   3.158   3.703
 7258SOL     OW22672   3.954   1.031   3.004
 7258SOL    HW122673   4.050   1.048   2.983
 7258SOL    HW222674   3.929   1.082   3.086
 7259SOL     OW22675   3.364   3.002   1.306
 7259SOL    HW122676   3.326   2.924   1.258
 7259SOL    HW222677   3.291   3.067   1.328
 7260SOL     OW22678   2.856   2.279   2.962
 7260SOL    HW122679   2.794   2.285   2.884
 7260SOL    HW222680   2.817   2.329   3.040
 7261SOL     OW22681   2.081   2.797   1.301
 7261SOL    HW122682   2.057   2.814   1.205
 7261SOL    HW222683   2.171   2.836   1.320
 7262SOL     OW22684   5.391   1.649   4.616
 7262SOL    HW122685   5.468   1.682   4.561
 7262SOL    HW222686   5.415   1.561   4.657
 7263SOL     OW22687   0.217   6.527   2.500
 7263SOL    HW122688   0.128   6.513   2.456
 7263SOL    HW222689   0.289   6.518   2.432
 7264SOL     OW22690   6.052   1.543   6.490
 7264SOL    HW122691   6.103   1.617   6.533
 7264SOL    HW222692   6.056   1.462   6.548
 7265SOL     OW22693   5.421   5.985   6.088
 7265SOL    HW122694   5.483   6.054   6.125
 7265SOL    HW222695   5.393   6.012   5.995
 7266SOL     OW22696   4.410   0.169   1.107
 7266SOL    HW122697   4.442   0.125   1.191
 7266SOL    HW222698   4.318   0.205   1.120
 7267SOL     OW22699   6.642   5.415   5.684
 7267SOL    HW122700   6.660   5.431   5.587
 7267SOL    HW222701   6.549   5.442   5.706
 7268SOL     OW22702   4.314   4.660   2.822
 7268SOL    HW122703   4.377   4.641   2.898
 7268SOL    HW222704   4.339   4.605   2.743
 7269SOL     OW22705   6.992   6.327   1.212
 7269SOL    HW122706   7.016   6.238   1.250
 7269SOL    HW222707   7.010   6.326   1.113
 7270SOL     OW22708   0.978   2.843   4.704
 7270SOL    HW122709   1.066   2.888   4.717
 7270SOL    HW222710   0.969   2.812   4.609
 7271SOL     OW22711   0.371   5.013   4.000
 7271SOL    HW122712   0.417   5.090   3.957
 7271SOL    HW222713   0.422   4.929   3.981
 7272SOL     OW22714   5.585   4.888   1.970
 7272SOL    HW122715   5.495   4.888   2.014
 7272SOL    HW222716   5.656   4.893   2.041
 7273SOL     OW22717   5.471   5.067   2.551
 7273SOL    HW122718   5.462   4.997   2.622
 7273SOL    HW222719   5.567   5.074   2.524
 7274SOL     OW22720   0.905   6.249   6.898
 7274SOL    HW122721   1.003   6.242   6.879
 7274SOL    HW222722   0.890   6.259   6.996
 7275SOL     OW22723   7.011   1.318   2.407
 7275SOL    HW122724   6.930   1.274   2.446
 7275SOL    HW222725   0.063   1.313   2.472
 7276SOL     OW22726   3.469   1.399   3.536
 7276SOL    HW122727   3.497   1.338   3.461
 7276SOL    HW222728   3.407   1.469   3.500
 7277SOL     OW22729   5.377   1.449   4.010
 7277SOL    HW122730   5.340   1.515   3.945
 7277SOL    HW222731   5.353   1.477   4.103
 7278SOL     OW22732   3.316   1.777   1.871
 7278SOL    HW122733   3.226   1.814   1.847
 7278SOL    HW222734   3.384   1.850   1.869
 7279SOL     OW22735   3.871   2.896   6.792
 7279SOL    HW122736   3.873   2.928   6.886
 7279SOL    HW222737   3.879   2.974   6.730
 7280SOL     OW22738   6.727   2.243   4.133
 7280SOL    HW122739   6.827   2.249   4.134
 7280SOL    HW222740   6.688   2.314   4.191
 7281SOL     OW22741   2.146   0.618   0.514
 7281SOL    HW122742   2.180   0.653   0.426
 7281SOL    HW222743   2.067   0.559   0.498
 7282SOL     OW22744   6.641   6.687   0.470
 7282SOL    HW122745   6.707   6.747   0.423
 7282SOL    HW222746   6.554   6.736   0.480
 7283SOL     OW22747   3.296   6.819   1.957
 7283SOL    HW122748   3.269   6.831   1.862
 7283SOL    HW222749   3.262   6.895   2.011
 7284SOL     OW22750   6.948   3.474   4.684
 7284SOL    HW122751   6.862   3.455   4.636
 7284SOL    HW222752   7.002   3.390   4.691
 7285SOL     OW22753   5.815   3.868   2.155
 7285SOL    HW122754   5.840   3.798   2.222
 7285SOL    HW222755   5.718   3.862   2.134
 7286SOL     OW22756   0.910   0.501   0.568
 7286SOL    HW122757   0.981   0.433   0.553
 7286SOL    HW222758   0.928   0.550   0.653
 7287SOL     OW22759   6.684   3.521   4.527
 7287SOL    HW122760   6.657   3.556   4.617
 7287SOL    HW222761   6.690   3.597   4.462
 7288SOL     OW22762   1.203   2.740   2.041
 7288SOL    HW122763   1.121   2.683   2.034
 7288SOL    HW222764   1.186   2.815   2.106
 7289SOL     OW22765   6.924   1.991   2.758
 7289SOL    HW122766   6.924   1.984   2.858
 7289SOL    HW222767   6.971   2.075   2.731
 7290SOL     OW22768   3.117   0.678   5.601
 7290SOL    HW122769   3.100   0.604   5.666
 7290SOL    HW222770   3.118   0.766   5.649
 7291SOL     OW22771   3.029   0.131   1.014
 7291SOL    HW122772   2.933   0.107   1.005
 7291SOL    HW222773   3.083   0.047   1.024
 7292SOL     OW22774   2.758   0.324   3.108
 7292SOL    HW122775   2.821   0.351   3.180
 7292SOL    HW222776   2.664   0.337   3.139
 7293SOL     OW22777   1.723   0.926   6.144
 7293SOL    HW122778   1.817   0.910   6.117
 7293SOL    HW222779   1.711   1.022   6.169
 7294SOL     OW22780   2.980   4.009   0.716
 7294SOL    HW122781   2.925   3.967   0.643
 7294SOL    HW222782   2.940   3.985   0.805
 7295SOL     OW22783   0.087   4.351   1.434
 7295SOL    HW122784   0.080   4.291   1.514
 7295SOL    HW222785   0.135   4.435   1.460
 7296SOL     OW22786   4.654   4.721   2.655
 7296SOL    HW122787   4.590   4.651   2.688
 7296SOL    HW222788   4.644   4.731   2.556
 7297SOL     OW22789   2.906   6.770   2.495
 7297SOL    HW122790   2.810   6.799   2.495
 7297SOL    HW222791   2.947   6.791   2.406
 7298SOL     OW22792   5.190   5.653   0.333
 7298SOL    HW122793   5.269   5.710   0.312
 7298SOL    HW222794   5.208   5.559   0.306
 7299SOL     OW22795   0.791   1.591   0.657
 7299SOL    HW122796   0.797   1.654   0.579
 7299SOL    HW222797   0.767   1.642   0.740
 7300SOL     OW22798   0.781   5.736   2.364
 7300SOL    HW122799   0.687   5.714   2.388
 7300SOL    HW222800   0.786   5.760   2.267
 7301SOL     OW22801   6.463   1.725   6.063
 7301SOL    HW122802   6.552   1.697   6.025
 7301SOL    HW222803   6.439   1.816   6.029
 7302SOL     OW22804   0.362   1.972   5.574
 7302SOL    HW122805   0.365   1.912   5.654
 7302SOL    HW222806   0.449   1.965   5.524
 7303SOL     OW22807   3.409   0.497   6.904
 7303SOL    HW122808   3.338   0.559   6.938
 7303SOL    HW222809   3.366   0.427   6.846
 7304SOL     OW22810   1.964   5.564   1.922
 7304SOL    HW122811   1.914   5.645   1.890
 7304SOL    HW222812   2.022   5.530   1.848
 7305SOL     OW22813   5.717   2.128   1.246
 7305SOL    HW122814   5.669   2.134   1.159
 7305SOL    HW222815   5.813   2.104   1.231
 7306SOL     OW22816   3.922   1.874   1.784
 7306SOL    HW122817   3.939   1.780   1.815
 7306SOL    HW222818   3.877   1.926   1.856
 7307SOL     OW22819   4.448   0.134   2.201
 7307SOL    HW122820   4.375   0.097   2.142
 7307SOL    HW222821   4.412   0.150   2.292
 7308SOL     OW22822   6.594   1.416   3.171
 7308SOL    HW122823   6.623   1.415   3.266
 7308SOL    HW222824   6.517   1.479   3.160
 7309SOL     OW22825   2.682   6.599   1.870
 7309SOL    HW122826   2.761   6.583   1.812
 7309SOL    HW222827   2.692   6.548   1.956
 7310SOL     OW22828   1.742   3.153   6.435
 7310SOL    HW122829   1.758   3.067   6.484
 7310SOL    HW222830   1.721   3.225   6.502
 7311SOL     OW22831   0.900   0.050   0.463
 7311SOL    HW122832   0.859   0.123   0.409
 7311SOL    HW222833   0.913   6.993   0.405
 7312SOL     OW22834   0.938   1.772   5.018
 7312SOL    HW122835   0.942   1.716   5.101
 7312SOL    HW222836   0.848   1.815   5.012
 7313SOL     OW22837   2.245   1.695   0.706
 7313SOL    HW122838   2.274   1.614   0.654
 7313SOL    HW222839   2.296   1.700   0.791
 7314SOL     OW22840   0.175   4.061   5.940
 7314SOL    HW122841   0.104   4.053   6.010
 7314SOL    HW222842   0.249   4.119   5.973
 7315SOL     OW22843   5.316   5.509   2.474
 7315SOL    HW122844   5.336   5.555   2.388
 7315SOL    HW222845   5.329   5.573   2.550
 7316SOL     OW22846   3.641   2.083   6.358
 7316SOL    HW122847   3.589   2.144   6.298
 7316SOL    HW222848   3.584   2.005   6.383
 7317SOL     OW22849   3.609   1.226   2.188
 7317SOL    HW122850   3.693   1.215   2.134
 7317SOL    HW222851   3.561   1.308   2.157
 7318SOL     OW22852   3.447   6.383   2.839
 7318SOL    HW122853   3.456   6.467   2.784
 7318SOL    HW222854   3.395   6.403   2.922
 7319SOL     OW22855   6.108   3.777   6.342
 7319SOL    HW122856   6.097   3.740   6.434
 7319SOL    HW222857   6.164   3.716   6.287
 7320SOL     OW22858   0.655   3.601   6.941
 7320SOL    HW122859   0.655   3.684   6.996
 7320SOL    HW222860   0.572   3.549   6.958
 7321SOL     OW22861   2.431   6.639   6.299
 7321SOL    HW122862   2.435   6.723   6.352
 7321SOL    HW222863   2.492   6.570   6.339
 7322SOL     OW22864   0.163   3.048   2.631
 7322SOL    HW122865   0.211   2.964   2.656
 7322SOL    HW222866   0.090   3.026   2.566
 7323SOL     OW22867   2.569   2.484   1.233
 7323SOL    HW122868   2.476   2.516   1.217
 7323SOL    HW222869   2.633   2.559   1.216
 7324SOL     OW22870   6.329   4.492   2.737
 7324SOL    HW122871   6.375   4.527   2.818
 7324SOL    HW222872   6.351   4.550   2.658
 7325SOL     OW22873   2.780   6.924   5.097
 7325SOL    HW122874   2.736   6.865   5.166
 7325SOL    HW222875   2.712   6.986   5.059
 7326SOL     OW22876   3.936   0.385   6.341
 7326SOL    HW122877   3.929   0.321   6.417
 7326SOL    HW222878   4.021   0.437   6.348
 7327SOL     OW22879   5.775   3.363   3.653
 7327SOL    HW122880   5.777   3.462   3.670
 7327SOL    HW222881   5.847   3.339   3.587
 7328SOL     OW22882   4.648   6.555   5.889
 7328SOL    HW122883   4.567   6.604   5.859
 7328SOL    HW222884   4.711   6.545   5.811
 7329SOL     OW22885   1.022   2.686   0.477
 7329SOL    HW122886   1.034   2.593   0.444
 7329SOL    HW222887   1.074   2.698   0.562
 7330SOL     OW22888   2.071   3.015   0.634
 7330SOL    HW122889   2.023   3.000   0.720
 7330SOL    HW222890   2.145   3.080   0.648
 7331SOL     OW22891   5.144   6.250   2.217
 7331SOL    HW122892   5.227   6.303   2.197
 7331SOL    HW222893   5.170   6.166   2.265
 7332SOL     OW22894   3.969   4.101   6.984
 7332SOL    HW122895   3.987   4.102   0.059
 7332SOL    HW222896   3.998   4.188   6.944
 7333SOL     OW22897   5.992   3.362   2.715
 7333SOL    HW122898   6.029   3.454   2.725
 7333SOL    HW222899   6.048   3.298   2.768
 7334SOL     OW22900   2.987   5.615   5.615
 7334SOL    HW122901   3.040   5.539   5.577
 7334SOL    HW222902   2.996   5.695   5.556
 7335SOL     OW22903   7.023   2.243   3.315
 7335SOL    HW122904   0.044   2.154   3.323
 7335SOL    HW222905   6.929   2.236   3.349
 7336SOL     OW22906   2.320   6.319   1.450
 7336SOL    HW122907   2.339   6.242   1.511
 7336SOL    HW222908   2.334   6.290   1.355
 7337SOL     OW22909   2.276   3.060   1.102
 7337SOL    HW122910   2.342   3.084   1.173
 7337SOL    HW222911   2.299   2.970   1.064
 7338SOL     OW22912   5.683   2.017   1.619
 7338SOL    HW122913   5.699   1.967   1.534
 7338SOL    HW222914   5.610   1.971   1.671
 7339SOL     OW22915   7.001   0.217   5.366
 7339SOL    HW122916   7.008   0.151   5.291
 7339SOL    HW222917   0.066   0.262   5.378
 7340SOL     OW22918   3.967   2.070   7.018
 7340SOL    HW122919   4.036   2.014   6.972
 7340SOL    HW222920   3.908   2.011   0.050
 7341SOL     OW22921   1.564   5.040   5.166
 7341SOL    HW122922   1.474   5.000   5.146
 7341SOL    HW222923   1.595   5.094   5.088
 7342SOL     OW22924   6.085   6.806   0.014
 7342SOL    HW122925   6.117   6.782   0.105
 7342SOL    HW222926   5.986   6.802   0.011
 7343SOL     OW22927   5.619   3.155   2.050
 7343SOL    HW122928   5.611   3.172   1.952
 7343SOL    HW222929   5.670   3.070   2.065
 7344SOL     OW22930   2.075   0.099   6.486
 7344SOL    HW122931   2.173   0.104   6.465
 7344SOL    HW222932   2.061   0.044   6.567
 7345SOL     OW22933   4.902   5.912   5.297
 7345SOL    HW122934   4.962   5.950   5.367
 7345SOL    HW222935   4.808   5.941   5.314
 7346SOL     OW22936   3.674   4.059   1.520
 7346SOL    HW122937   3.595   4.056   1.458
 7346SOL    HW222938   3.664   3.990   1.591
 7347SOL     OW22939   6.376   2.461   1.415
 7347SOL    HW122940   6.439   2.524   1.461
 7347SOL    HW222941   6.351   2.387   1.478
 7348SOL     OW22942   1.728   3.395   3.467
 7348SOL    HW122943   1.700   3.409   3.562
 7348SOL    HW222944   1.793   3.319   3.462
 7349SOL     OW22945   3.781   1.757   1.223
 7349SOL    HW122946   3.698   1.706   1.247
 7349SOL    HW222947   3.836   1.770   1.306
 7350SOL     OW22948   1.437   3.536   4.111
 7350SOL    HW122949   1.524   3.584   4.118
 7350SOL    HW222950   1.454   3.438   4.097
 7351SOL     OW22951   4.016   4.871   6.584
 7351SOL    HW122952   3.921   4.866   6.554
 7351SOL    HW222953   4.051   4.963   6.567
 7352SOL     OW22954   1.803   2.711   3.279
 7352SOL    HW122955   1.769   2.803   3.301
 7352SOL    HW222956   1.903   2.711   3.278
 7353SOL     OW22957   0.861   0.598   5.862
 7353SOL    HW122958   0.922   0.653   5.804
 7353SOL    HW222959   0.769   0.600   5.823
 7354SOL     OW22960   0.598   1.703   5.987
 7354SOL    HW122961   0.662   1.740   6.054
 7354SOL    HW222962   0.538   1.637   6.032
 7355SOL     OW22963   1.302   6.930   0.020
 7355SOL    HW122964   1.260   7.017   0.046
 7355SOL    HW222965   1.247   6.887   6.972
 7356SOL     OW22966   5.465   2.642   5.980
 7356SOL    HW122967   5.530   2.611   5.910
 7356SOL    HW222968   5.393   2.573   5.991
 7357SOL     OW22969   4.369   0.958   1.161
 7357SOL    HW122970   4.416   0.957   1.249
 7357SOL    HW222971   4.404   1.033   1.105
 7358SOL     OW22972   1.807   2.277   2.020
 7358SOL    HW122973   1.884   2.272   1.957
 7358SOL    HW222974   1.758   2.364   2.007
 7359SOL     OW22975   3.149   2.683   0.788
 7359SOL    HW122976   3.094   2.762   0.761
 7359SOL    HW222977   3.103   2.632   0.861
 7360SOL     OW22978   3.523   2.276   6.197
 7360SOL    HW122979   3.590   2.292   6.124
 7360SOL    HW222980   3.484   2.364   6.226
 7361SOL     OW22981   4.100   0.283   2.027
 7361SOL    HW122982   4.038   0.205   2.020
 7361SOL    HW222983   4.149   0.279   2.115
 7362SOL     OW22984   0.821   6.866   5.013
 7362SOL    HW122985   0.849   6.776   5.049
 7362SOL    HW222986   0.758   6.853   4.937
 7363SOL     OW22987   4.051   1.636   1.119
 7363SOL    HW122988   4.109   1.714   1.141
 7363SOL    HW222989   3.955   1.662   1.130
 7364SOL     OW22990   4.222   0.011   1.727
 7364SOL    HW122991   4.138   6.983   1.743
 7364SOL    HW222992   4.221   0.051   1.636
 7365SOL     OW22993   1.463   5.873   1.984
 7365SOL    HW122994   1.560   5.898   1.991
 7365SOL    HW222995   1.425   5.910   1.900
 7366SOL     OW22996   1.632   5.602   0.758
 7366SOL    HW122997   1.709   5.580   0.699
 7366SOL    HW222998   1.580   5.678   0.719
 7367SOL     OW22999   4.542   4.120   1.378
 7367SOL    HW123000   4.627   4.126   1.430
 7367SOL    HW223001   4.486   4.201   1.396
 7368SOL     OW23002   3.671   2.918   4.109
 7368SOL    HW123003   3.692   2.856   4.185
 7368SOL    HW223004   3.572   2.920   4.094
 7369SOL     OW23005   4.666   3.226   0.939
 7369SOL    HW123006   4.622   3.290   0.875
 7369SOL    HW223007   4.720   3.278   1.006
 7370SOL     OW23008   2.304   0.137   5.392
 7370SOL    HW123009   2.299   0.154   5.491
 7370SOL    HW223010   2.397   0.109   5.368
 7371SOL     OW23011   2.354   5.794   3.611
 7371SOL    HW123012   2.308   5.839   3.688
 7371SOL    HW223013   2.350   5.695   3.623
 7372SOL     OW23014   2.761   1.015   5.704
 7372SOL    HW123015   2.688   0.962   5.660
 7372SOL    HW223016   2.819   0.955   5.757
 7373SOL     OW23017   5.299   1.921   3.468
 7373SOL    HW123018   5.337   1.834   3.436
 7373SOL    HW223019   5.244   1.962   3.395
 7374SOL     OW23020   3.002   2.139   5.209
 7374SOL    HW123021   3.061   2.216   5.186
 7374SOL    HW223022   2.973   2.093   5.125
 7375SOL     OW23023   1.808   2.432   3.018
 7375SOL    HW123024   1.768   2.523   3.006
 7375SOL    HW223025   1.737   2.367   3.042
 7376SOL     OW23026   4.086   1.458   0.440
 7376SOL    HW123027   4.185   1.470   0.429
 7376SOL    HW223028   4.039   1.497   0.361
 7377SOL     OW23029   5.150   5.977   2.098
 7377SOL    HW123030   5.097   6.019   2.171
 7377SOL    HW223031   5.088   5.936   2.031
 7378SOL     OW23032   6.903   1.929   5.199
 7378SOL    HW123033   6.911   1.844   5.251
 7378SOL    HW223034   6.910   1.910   5.102
 7379SOL     OW23035   3.873   2.195   3.030
 7379SOL    HW123036   3.936   2.127   2.993
 7379SOL    HW223037   3.780   2.158   3.032
 7380SOL     OW23038   6.823   3.335   4.926
 7380SOL    HW123039   6.787   3.411   4.980
 7380SOL    HW223040   6.898   3.368   4.868
 7381SOL     OW23041   5.085   4.133   2.391
 7381SOL    HW123042   4.991   4.127   2.425
 7381SOL    HW223043   5.094   4.212   2.331
 7382SOL     OW23044   0.290   5.880   5.961
 7382SOL    HW123045   0.296   5.831   5.874
 7382SOL    HW223046   0.259   5.817   6.032
 7383SOL     OW23047   0.798   6.691   1.616
 7383SOL    HW123048   0.893   6.713   1.593
 7383SOL    HW223049   0.796   6.640   1.703
 7384SOL     OW23050   5.520   0.679   2.292
 7384SOL    HW123051   5.597   0.615   2.293
 7384SOL    HW223052   5.511   0.718   2.200
 7385SOL     OW23053   4.418   6.720   2.018
 7385SOL    HW123054   4.339   6.668   1.985
 7385SOL    HW223055   4.471   6.753   1.941
 7386SOL     OW23056   0.072   2.108   5.518
 7386SOL    HW123057   0.075   2.022   5.569
 7386SOL    HW223058   7.010   2.114   5.468
 7387SOL     OW23059   4.138   6.589   4.435
 7387SOL    HW123060   4.224   6.619   4.477
 7387SOL    HW223061   4.155   6.566   4.339
 7388SOL     OW23062   6.757   5.377   3.584
 7388SOL    HW123063   6.692   5.448   3.555
 7388SOL    HW223064   6.809   5.345   3.505
 7389SOL     OW23065   1.040   4.900   0.139
 7389SOL    HW123066   1.094   4.818   0.162
 7389SOL    HW223067   0.992   4.932   0.220
 7390SOL     OW23068   1.480   1.173   0.088
 7390SOL    HW123069   1.507   1.268   0.073
 7390SOL    HW223070   1.559   1.122   0.123
 7391SOL     OW23071   4.738   4.168   4.620
 7391SOL    HW123072   4.668   4.137   4.556
 7391SOL    HW223073   4.816   4.105   4.616
 7392SOL     OW23074   3.105   5.770   6.867
 7392SOL    HW123075   3.127   5.710   6.790
 7392SOL    HW223076   3.104   5.865   6.836
 7393SOL     OW23077   5.880   5.551   1.481
 7393SOL    HW123078   5.904   5.581   1.388
 7393SOL    HW223079   5.884   5.451   1.484
 7394SOL     OW23080   3.048   2.181   6.258
 7394SOL    HW123081   2.981   2.247   6.292
 7394SOL    HW223082   3.019   2.148   6.168
 7395SOL     OW23083   2.133   1.547   0.158
 7395SOL    HW123084   2.039   1.514   0.167
 7395SOL    HW223085   2.196   1.472   0.182
 7396SOL     OW23086   1.475   6.835   0.327
 7396SOL    HW123087   1.466   6.789   0.238
 7396SOL    HW223088   1.476   6.934   0.314
 7397SOL     OW23089   5.213   5.272   4.973
 7397SOL    HW123090   5.203   5.176   4.999
 7397SOL    HW223091   5.276   5.279   4.896
 7398SOL     OW23092   2.957   5.193   3.940
 7398SOL    HW123093   2.885   5.124   3.937
 7398SOL    HW223094   2.924   5.274   3.989
 7399SOL     OW23095   0.432   3.372   5.244
 7399SOL    HW123096   0.482   3.426   5.176
 7399SOL    HW223097   0.388   3.294   5.199
 7400SOL     OW23098   2.710   3.759   6.515
 7400SOL    HW123099   2.802   3.784   6.486
 7400SOL    HW223100   2.686   3.809   6.599
 7401SOL     OW23101   0.930   0.935   4.131
 7401SOL    HW123102   0.834   0.934   4.158
 7401SOL    HW223103   0.961   0.841   4.114
 7402SOL     OW23104   2.099   5.323   5.190
 7402SOL    HW123105   2.163   5.268   5.243
 7402SOL    HW223106   2.143   5.408   5.161
 7403SOL     OW23107   1.436   3.671   3.273
 7403SOL    HW123108   1.523   3.632   3.244
 7403SOL    HW223109   1.378   3.686   3.193
 7404SOL     OW23110   2.840   5.953   1.575
 7404SOL    HW123111   2.847   5.873   1.515
 7404SOL    HW223112   2.772   5.935   1.646
 7405SOL     OW23113   2.663   4.962   4.207
 7405SOL    HW123114   2.730   4.899   4.167
 7405SOL    HW223115   2.614   4.917   4.282
 7406SOL     OW23116   1.300   3.637   3.532
 7406SOL    HW123117   1.342   3.670   3.448
 7406SOL    HW223118   1.256   3.549   3.515
 7407SOL     OW23119   6.955   5.860   5.274
 7407SOL    HW123120   6.925   5.824   5.186
 7407SOL    HW223121   6.904   5.943   5.294
 7408SOL     OW23122   1.156   3.710   6.049
 7408SOL    HW123123   1.225   3.760   6.102
 7408SOL    HW223124   1.088   3.672   6.111
 7409SOL     OW23125   0.694   1.283   4.987
 7409SOL    HW123126   0.666   1.352   4.920
 7409SOL    HW223127   0.612   1.239   5.025
 7410SOL     OW23128   6.954   5.069   0.958
 7410SOL    HW123129   0.008   5.085   0.897
 7410SOL    HW223130   6.956   5.135   1.033
 7411SOL     OW23131   2.914   6.319   4.331
 7411SOL    HW123132   2.825   6.293   4.294
 7411SOL    HW223133   2.958   6.384   4.270
 7412SOL     OW23134   4.025   0.593   2.348
 7412SOL    HW123135   3.990   0.585   2.255
 7412SOL    HW223136   3.966   0.542   2.411
 7413SOL     OW23137   5.771   5.367   4.894
 7413SOL    HW123138   5.780   5.272   4.926
 7413SOL    HW223139   5.750   5.367   4.797
 7414SOL     OW23140   7.008   6.764   4.039
 7414SOL    HW123141   0.066   6.821   4.040
 7414SOL    HW223142   0.002   6.681   4.092
 7415SOL     OW23143   1.049   4.302   2.879
 7415SOL    HW123144   1.071   4.323   2.974
 7415SOL    HW223145   1.089   4.214   2.854
 7416SOL     OW23146   2.956   0.739   3.860
 7416SOL    HW123147   3.023   0.672   3.829
 7416SOL    HW223148   2.901   0.770   3.782
 7417SOL     OW23149   2.218   6.981   5.836
 7417SOL    HW123150   2.217   6.900   5.776
 7417SOL    HW223151   2.311   7.016   5.842
 7418SOL     OW23152   3.923   5.046   0.432
 7418SOL    HW123153   3.978   4.974   0.474
 7418SOL    HW223154   3.826   5.030   0.452
 7419SOL     OW23155   6.287   2.517   4.578
 7419SOL    HW123156   6.242   2.599   4.613
 7419SOL    HW223157   6.309   2.456   4.654
 7420SOL     OW23158   6.466   6.653   2.145
 7420SOL    HW123159   6.535   6.723   2.125
 7420SOL    HW223160   6.473   6.627   2.241
 7421SOL     OW23161   3.175   3.496   1.594
 7421SOL    HW123162   3.223   3.576   1.558
 7421SOL    HW223163   3.240   3.436   1.641
 7422SOL     OW23164   0.254   3.486   2.394
 7422SOL    HW123165   0.339   3.478   2.341
 7422SOL    HW223166   0.275   3.497   2.491
 7423SOL     OW23167   6.740   4.275   5.855
 7423SOL    HW123168   6.698   4.359   5.823
 7423SOL    HW223169   6.825   4.296   5.903
 7424SOL     OW23170   6.489   0.711   4.391
 7424SOL    HW123171   6.447   0.623   4.411
 7424SOL    HW223172   6.589   0.703   4.401
 7425SOL     OW23173   4.532   5.835   6.735
 7425SOL    HW123174   4.549   5.740   6.708
 7425SOL    HW223175   4.434   5.853   6.731
 7426SOL     OW23176   1.397   1.881   6.169
 7426SOL    HW123177   1.474   1.882   6.106
 7426SOL    HW223178   1.430   1.897   6.262
 7427SOL     OW23179   3.013   5.810   3.830
 7427SOL    HW123180   2.999   5.738   3.762
 7427SOL    HW223181   2.929   5.825   3.880
 7428SOL     OW23182   3.667   1.693   5.669
 7428SOL    HW123183   3.724   1.658   5.744
 7428SOL    HW223184   3.701   1.783   5.641
 7429SOL     OW23185   5.257   0.158   3.448
 7429SOL    HW123186   5.166   0.125   3.421
 7429SOL    HW223187   5.317   0.158   3.367
 7430SOL     OW23188   0.325   3.843   6.281
 7430SOL    HW123189   0.346   3.843   6.379
 7430SOL    HW223190   0.384   3.909   6.234
 7431SOL     OW23191   0.348   3.498   2.646
 7431SOL    HW123192   0.319   3.584   2.689
 7431SOL    HW223193   0.317   3.421   2.701
 7432SOL     OW23194   0.339   0.184   3.586
 7432SOL    HW123195   0.378   0.147   3.502
 7432SOL    HW223196   0.308   0.278   3.571
 7433SOL     OW23197   5.769   4.862   0.858
 7433SOL    HW123198   5.802   4.942   0.807
 7433SOL    HW223199   5.694   4.819   0.806
 7434SOL     OW23200   4.411   0.758   6.218
 7434SOL    HW123201   4.500   0.795   6.244
 7434SOL    HW223202   4.378   0.804   6.136
 7435SOL     OW23203   3.937   5.381   0.318
 7435SOL    HW123204   3.870   5.338   0.379
 7435SOL    HW223205   3.889   5.440   0.253
 7436SOL     OW23206   5.456   3.231   6.367
 7436SOL    HW123207   5.532   3.293   6.380
 7436SOL    HW223208   5.491   3.139   6.349
 7437SOL     OW23209   0.271   6.208   0.497
 7437SOL    HW123210   0.259   6.290   0.442
 7437SOL    HW223211   0.243   6.128   0.444
 7438SOL     OW23212   0.740   5.527   1.004
 7438SOL    HW123213   0.824   5.542   0.951
 7438SOL    HW223214   0.759   5.466   1.080
 7439SOL     OW23215   1.719   6.114   4.974
 7439SOL    HW123216   1.729   6.077   4.882
 7439SOL    HW223217   1.629   6.090   5.011
 7440SOL     OW23218   1.064   3.168   4.342
 7440SOL    HW123219   1.026   3.133   4.256
 7440SOL    HW223220   1.149   3.120   4.362
 7441SOL     OW23221   4.446   5.930   4.957
 7441SOL    HW123222   4.546   5.929   4.953
 7441SOL    HW223223   4.417   5.941   5.052
 7442SOL     OW23224   1.006   1.130   6.384
 7442SOL    HW123225   0.913   1.164   6.401
 7442SOL    HW223226   1.007   1.030   6.394
 7443SOL     OW23227   0.276   0.692   1.436
 7443SOL    HW123228   0.354   0.661   1.382
 7443SOL    HW223229   0.247   0.782   1.404
 7444SOL     OW23230   6.605   3.633   4.776
 7444SOL    HW123231   6.509   3.631   4.803
 7444SOL    HW223232   6.653   3.704   4.828
 7445SOL     OW23233   3.300   1.018   1.196
 7445SOL    HW123234   3.372   1.062   1.142
 7445SOL    HW223235   3.322   1.027   1.294
 7446SOL     OW23236   5.461   4.149   1.115
 7446SOL    HW123237   5.451   4.060   1.158
 7446SOL    HW223238   5.458   4.139   1.016
 7447SOL     OW23239   1.362   2.911   5.411
 7447SOL    HW123240   1.442   2.965   5.384
 7447SOL    HW223241   1.286   2.930   5.349
 7448SOL     OW23242   5.441   6.789   5.342
 7448SOL    HW123243   5.438   6.772   5.244
 7448SOL    HW223244   5.384   6.868   5.364
 7449SOL     OW23245   6.564   2.472   1.844
 7449SOL    HW123246   6.628   2.453   1.918
 7449SOL    HW223247   6.484   2.413   1.854
 7450SOL     OW23248   5.240   2.200   4.443
 7450SOL    HW123249   5.247   2.169   4.537
 7450SOL    HW223250   5.171   2.272   4.436
 7451SOL     OW23251   1.082   6.781   2.414
 7451SOL    HW123252   1.083   6.691   2.457
 7451SOL    HW223253   1.139   6.780   2.332
 7452SOL     OW23254   0.914   6.375   4.883
 7452SOL    HW123255   0.923   6.378   4.784
 7452SOL    HW223256   0.889   6.282   4.911
 7453SOL     OW23257   4.854   6.136   6.202
 7453SOL    HW123258   4.869   6.046   6.243
 7453SOL    HW223259   4.759   6.142   6.170
 7454SOL     OW23260   1.267   2.629   1.462
 7454SOL    HW123261   1.365   2.616   1.479
 7454SOL    HW223262   1.246   2.604   1.368
 7455SOL     OW23263   0.215   2.030   2.026
 7455SOL    HW123264   0.293   2.018   1.964
 7455SOL    HW223265   0.171   2.118   2.008
 7456SOL     OW23266   0.617   2.606   4.277
 7456SOL    HW123267   0.639   2.684   4.336
 7456SOL    HW223268   0.630   2.521   4.328
 7457SOL     OW23269   3.476   0.873   5.398
 7457SOL    HW123270   3.526   0.953   5.432
 7457SOL    HW223271   3.539   0.815   5.345
 7458SOL     OW23272   2.827   6.745   6.241
 7458SOL    HW123273   2.806   6.791   6.328
 7458SOL    HW223274   2.814   6.810   6.166
 7459SOL     OW23275   4.407   0.747   0.634
 7459SOL    HW123276   4.345   0.712   0.705
 7459SOL    HW223277   4.383   0.706   0.547
 7460SOL     OW23278   1.823   4.501   1.173
 7460SOL    HW123279   1.789   4.577   1.229
 7460SOL    HW223280   1.922   4.511   1.159
 7461SOL     OW23281   5.686   1.424   6.212
 7461SOL    HW123282   5.586   1.418   6.221
 7461SOL    HW223283   5.709   1.493   6.144
 7462SOL     OW23284   1.932   3.978   3.042
 7462SOL    HW123285   1.928   3.957   3.140
 7462SOL    HW223286   2.012   3.934   3.002
 7463SOL     OW23287   3.274   4.776   1.314
 7463SOL    HW123288   3.264   4.826   1.400
 7463SOL    HW223289   3.284   4.679   1.332
 7464SOL     OW23290   3.826   6.915   6.284
 7464SOL    HW123291   3.832   7.003   6.236
 7464SOL    HW223292   3.900   6.856   6.254
 7465SOL     OW23293   1.755   6.918   6.983
 7465SOL    HW123294   1.823   6.937   0.030
 7465SOL    HW223295   1.700   7.000   6.966
 7466SOL     OW23296   0.289   6.693   6.320
 7466SOL    HW123297   0.361   6.717   6.255
 7466SOL    HW223298   0.291   6.595   6.337
 7467SOL     OW23299   6.520   1.188   0.397
 7467SOL    HW123300   6.548   1.284   0.403
 7467SOL    HW223301   6.594   1.130   0.432
 7468SOL     OW23302   6.360   3.222   2.272
 7468SOL    HW123303   6.264   3.219   2.246
 7468SOL    HW223304   6.378   3.152   2.342
 7469SOL     OW23305   6.412   6.938   0.098
 7469SOL    HW123306   6.489   6.991   0.134
 7469SOL    HW223307   6.355   6.998   0.042
 7470SOL     OW23308   0.169   3.105   4.134
 7470SOL    HW123309   0.179   3.037   4.206
 7470SOL    HW223310   0.142   3.061   4.049
 7471SOL     OW23311   5.686   6.065   5.608
 7471SOL    HW123312   5.686   5.972   5.571
 7471SOL    HW223313   5.605   6.114   5.575
 7472SOL     OW23314   6.179   6.736   4.344
 7472SOL    HW123315   6.203   6.791   4.424
 7472SOL    HW223316   6.194   6.640   4.364
 7473SOL     OW23317   0.050   4.757   2.695
 7473SOL    HW123318   0.112   4.796   2.627
 7473SOL    HW223319   6.979   4.769   2.666
 7474SOL     OW23320   2.715   1.215   5.202
 7474SOL    HW123321   2.644   1.284   5.191
 7474SOL    HW223322   2.725   1.193   5.299
 7475SOL     OW23323   3.823   1.448   2.439
 7475SOL    HW123324   3.842   1.492   2.351
 7475SOL    HW223325   3.839   1.350   2.431
 7476SOL     OW23326   3.804   5.291   4.345
 7476SOL    HW123327   3.767   5.383   4.355
 7476SOL    HW223328   3.823   5.273   4.248
 7477SOL     OW23329   6.387   1.692   4.415
 7477SOL    HW123330   6.480   1.657   4.420
 7477SOL    HW223331   6.356   1.691   4.319
 7478SOL     OW23332   4.275   4.794   6.891
 7478SOL    HW123333   4.294   4.715   6.834
 7478SOL    HW223334   4.176   4.802   6.904
 7479SOL     OW23335   4.029   2.359   1.442
 7479SOL    HW123336   4.031   2.415   1.359
 7479SOL    HW223337   4.121   2.355   1.482
 7480SOL     OW23338   6.356   4.311   1.787
 7480SOL    HW123339   6.316   4.235   1.838
 7480SOL    HW223340   6.345   4.294   1.689
 7481SOL     OW23341   6.358   5.405   2.339
 7481SOL    HW123342   6.368   5.470   2.264
 7481SOL    HW223343   6.305   5.327   2.308
 7482SOL     OW23344   5.253   2.115   3.000
 7482SOL    HW123345   5.351   2.132   3.008
 7482SOL    HW223346   5.234   2.070   2.913
 7483SOL     OW23347   4.575   2.385   5.195
 7483SOL    HW123348   4.566   2.470   5.142
 7483SOL    HW223349   4.659   2.338   5.169
 7484SOL     OW23350   0.660   0.346   3.384
 7484SOL    HW123351   0.678   0.311   3.476
 7484SOL    HW223352   0.743   0.389   3.348
 7485SOL     OW23353   3.162   6.959   4.515
 7485SOL    HW123354   3.241   7.014   4.489
 7485SOL    HW223355   3.191   6.881   4.570
 7486SOL     OW23356   2.856   0.829   5.861
 7486SOL    HW123357   2.913   0.751   5.833
 7486SOL    HW223358   2.764   0.797   5.884
 7487SOL     OW23359   2.881   6.373   2.506
 7487SOL    HW123360   2.850   6.445   2.568
 7487SOL    HW223361   2.898   6.412   2.415
 7488SOL     OW23362   2.001   6.988   4.223
 7488SOL    HW123363   1.958   6.925   4.158
 7488SOL    HW223364   2.030   6.936   4.304
 7489SOL     OW23365   5.287   2.126   4.699
 7489SOL    HW123366   5.232   2.053   4.740
 7489SOL    HW223367   5.295   2.202   4.764
 7490SOL     OW23368   0.635   1.730   0.843
 7490SOL    HW123369   0.576   1.749   0.764
 7490SOL    HW223370   0.601   1.648   0.890
 7491SOL     OW23371   6.527   3.307   6.499
 7491SOL    HW123372   6.436   3.300   6.457
 7491SOL    HW223373   6.592   3.341   6.431
 7492SOL     OW23374   2.397   0.723   4.296
 7492SOL    HW123375   2.373   0.627   4.312
 7492SOL    HW223376   2.343   0.760   4.221
 7493SOL     OW23377   6.937   3.882   6.535
 7493SOL    HW123378   6.990   3.908   6.454
 7493SOL    HW223379   6.928   3.961   6.595
 7494SOL     OW23380   5.822   0.630   3.053
 7494SOL    HW123381   5.896   0.588   3.000
 7494SOL    HW223382   5.802   0.574   3.133
 7495SOL     OW23383   2.343   0.868   0.032
 7495SOL    HW123384   2.421   0.916   7.016
 7495SOL    HW223385   2.264   0.930   0.035
 7496SOL     OW23386   0.074   3.095   6.270
 7496SOL    HW123387   0.050   3.107   6.366
 7496SOL    HW223388   0.032   3.011   6.235
 7497SOL     OW23389   2.489   4.361   0.526
 7497SOL    HW123390   2.587   4.345   0.540
 7497SOL    HW223391   2.473   4.390   0.432
 7498SOL     OW23392   2.363   1.178   5.309
 7498SOL    HW123393   2.296   1.144   5.244
 7498SOL    HW223394   2.422   1.245   5.265
 7499SOL     OW23395   4.720   1.343   3.525
 7499SOL    HW123396   4.698   1.354   3.622
 7499SOL    HW223397   4.801   1.286   3.515
 7500SOL     OW23398   3.883   5.679   4.186
 7500SOL    HW123399   3.920   5.771   4.187
 7500SOL    HW223400   3.951   5.615   4.221
 7501SOL     OW23401   6.416   4.743   4.343
 7501SOL    HW123402   6.508   4.707   4.334
 7501SOL    HW223403   6.407   4.791   4.430
 7502SOL     OW23404   1.515   0.482   4.525
 7502SOL    HW123405   1.540   0.532   4.608
 7502SOL    HW223406   1.483   0.547   4.455
 7503SOL     OW23407   2.475   1.992   0.833
 7503SOL    HW123408   2.407   2.038   0.889
 7503SOL    HW223409   2.537   1.939   0.891
 7504SOL     OW23410   2.093   0.273   3.085
 7504SOL    HW123411   2.154   0.335   3.134
 7504SOL    HW223412   2.145   0.220   3.019
 7505SOL     OW23413   2.429   2.050   5.708
 7505SOL    HW123414   2.437   2.136   5.757
 7505SOL    HW223415   2.358   1.993   5.750
 7506SOL     OW23416   4.916   6.850   2.792
 7506SOL    HW123417   4.949   6.919   2.857
 7506SOL    HW223418   4.818   6.860   2.778
 7507SOL     OW23419   0.380   0.773   1.677
 7507SOL    HW123420   0.362   0.734   1.587
 7507SOL    HW223421   0.358   0.870   1.675
 7508SOL     OW23422   6.684   6.852   2.018
 7508SOL    HW123423   6.692   6.798   1.934
 7508SOL    HW223424   6.615   6.924   2.006
 7509SOL     OW23425   5.667   4.415   0.839
 7509SOL    HW123426   5.624   4.350   0.777
 7509SOL    HW223427   5.753   4.376   0.873
 7510SOL     OW23428   2.863   4.277   5.322
 7510SOL    HW123429   2.887   4.348   5.255
 7510SOL    HW223430   2.839   4.193   5.275
 7511SOL     OW23431   1.825   6.648   3.509
 7511SOL    HW123432   1.912   6.697   3.503
 7511SOL    HW223433   1.764   6.679   3.437
 7512SOL     OW23434   3.084   4.826   6.716
 7512SOL    HW123435   3.070   4.727   6.717
 7512SOL    HW223436   3.051   4.864   6.630
 7513SOL     OW23437   2.122   1.253   1.744
 7513SOL    HW123438   2.129   1.220   1.838
 7513SOL    HW223439   2.126   1.353   1.743
 7514SOL     OW23440   2.210   5.529   1.754
 7514SOL    HW123441   2.245   5.476   1.677
 7514SOL    HW223442   2.265   5.510   1.835
 7515SOL     OW23443   0.248   5.558   2.471
 7515SOL    HW123444   0.182   5.616   2.424
 7515SOL    HW223445   0.235   5.566   2.570
 7516SOL     OW23446   6.001   5.672   4.431
 7516SOL    HW123447   6.023   5.592   4.375
 7516SOL    HW223448   5.994   5.753   4.372
 7517SOL     OW23449   6.820   3.403   1.149
 7517SOL    HW123450   6.804   3.386   1.052
 7517SOL    HW223451   6.733   3.406   1.197
 7518SOL     OW23452   4.265   5.130   3.349
 7518SOL    HW123453   4.300   5.051   3.301
 7518SOL    HW223454   4.264   5.209   3.288
 7519SOL     OW23455   0.020   6.896   4.631
 7519SOL    HW123456   0.118   6.913   4.620
 7519SOL    HW223457   0.005   6.835   4.709
 7520SOL     OW23458   3.325   6.567   2.062
 7520SOL    HW123459   3.285   6.516   1.987
 7520SOL    HW223460   3.333   6.663   2.036
 7521SOL     OW23461   4.845   4.560   6.226
 7521SOL    HW123462   4.754   4.544   6.189
 7521SOL    HW223463   4.886   4.473   6.253
 7522SOL     OW23464   3.047   6.575   6.234
 7522SOL    HW123465   3.087   6.591   6.143
 7522SOL    HW223466   2.970   6.637   6.249
 7523SOL     OW23467   5.631   0.742   6.045
 7523SOL    HW123468   5.545   0.787   6.024
 7523SOL    HW223469   5.634   0.653   5.998
 7524SOL     OW23470   1.626   2.650   6.393
 7524SOL    HW123471   1.657   2.579   6.456
 7524SOL    HW223472   1.692   2.661   6.319
 7525SOL     OW23473   2.626   0.501   6.474
 7525SOL    HW123474   2.673   0.569   6.530
 7525SOL    HW223475   2.656   0.409   6.501
 7526SOL     OW23476   2.975   3.379   1.768
 7526SOL    HW123477   3.032   3.315   1.820
 7526SOL    HW223478   3.034   3.437   1.711
 7527SOL     OW23479   4.491   6.065   3.201
 7527SOL    HW123480   4.557   6.139   3.213
 7527SOL    HW223481   4.419   6.071   3.270
 7528SOL     OW23482   4.708   1.520   6.956
 7528SOL    HW123483   4.776   1.556   6.892
 7528SOL    HW223484   4.752   1.452   7.015
 7529SOL     OW23485   6.106   0.390   4.394
 7529SOL    HW123486   6.070   0.452   4.463
 7529SOL    HW223487   6.066   0.413   4.305
 7530SOL     OW23488   0.007   4.090   2.044
 7530SOL    HW123489   7.018   3.996   2.078
 7530SOL    HW223490   6.979   4.153   2.101
 7531SOL     OW23491   4.402   2.134   3.942
 7531SOL    HW123492   4.380   2.043   3.978
 7531SOL    HW223493   4.319   2.190   3.942
 7532SOL     OW23494   5.463   4.806   1.458
 7532SOL    HW123495   5.475   4.895   1.502
 7532SOL    HW223496   5.514   4.804   1.373
 7533SOL     OW23497   2.912   1.483   2.481
 7533SOL    HW123498   2.868   1.481   2.570
 7533SOL    HW223499   2.920   1.390   2.445
 7534SOL     OW23500   4.249   6.542   5.774
 7534SOL    HW123501   4.323   6.605   5.797
 7534SOL    HW223502   4.237   6.538   5.675
 7535SOL     OW23503   2.855   0.292   5.800
 7535SOL    HW123504   2.828   0.201   5.768
 7535SOL    HW223505   2.844   0.357   5.726
 7536SOL     OW23506   5.152   5.010   5.082
 7536SOL    HW123507   5.159   5.058   5.169
 7536SOL    HW223508   5.058   4.978   5.069
 7537SOL     OW23509   2.694   5.447   3.445
 7537SOL    HW123510   2.777   5.399   3.472
 7537SOL    HW223511   2.614   5.405   3.489
 7538SOL     OW23512   3.359   3.381   1.763
 7538SOL    HW123513   3.337   3.292   1.724
 7538SOL    HW223514   3.404   3.369   1.852
 7539SOL     OW23515   1.511   2.877   3.996
 7539SOL    HW123516   1.453   2.917   3.925
 7539SOL    HW223517   1.478   2.905   4.086
 7540SOL     OW23518   3.485   6.531   5.828
 7540SOL    HW123519   3.432   6.448   5.845
 7540SOL    HW223520   3.582   6.508   5.820
 7541SOL     OW23521   6.981   4.359   4.431
 7541SOL    HW123522   6.951   4.362   4.526
 7541SOL    HW223523   6.938   4.433   4.380
 7542SOL     OW23524   0.758   5.827   6.947
 7542SOL    HW123525   0.724   5.912   6.906
 7542SOL    HW223526   0.821   5.849   7.022
 7543SOL     OW23527   3.851   1.893   0.996
 7543SOL    HW123528   3.774   1.887   0.932
 7543SOL    HW223529   3.826   1.850   1.083
 7544SOL     OW23530   0.365   2.615   3.235
 7544SOL    HW123531   0.266   2.614   3.247
 7544SOL    HW223532   0.404   2.531   3.272
 7545SOL     OW23533   5.637   6.325   2.310
 7545SOL    HW123534   5.657   6.423   2.298
 7545SOL    HW223535   5.722   6.277   2.330
 7546SOL     OW23536   3.241   0.939   2.418
 7546SOL    HW123537   3.253   0.851   2.370
 7546SOL    HW223538   3.240   1.013   2.351
 7547SOL     OW23539   4.600   0.321   0.451
 7547SOL    HW123540   4.699   0.309   0.441
 7547SOL    HW223541   4.570   0.398   0.394
 7548SOL     OW23542   3.520   2.257   0.341
 7548SOL    HW123543   3.478   2.343   0.368
 7548SOL    HW223544   3.475   2.222   0.259
 7549SOL     OW23545   5.516   2.103   0.758
 7549SOL    HW123546   5.424   2.130   0.731
 7549SOL    HW223547   5.567   2.072   0.677
 7550SOL     OW23548   2.365   4.349   2.045
 7550SOL    HW123549   2.425   4.428   2.058
 7550SOL    HW223550   2.289   4.354   2.110
 7551SOL     OW23551   5.044   3.839   6.773
 7551SOL    HW123552   5.118   3.856   6.708
 7551SOL    HW223553   5.063   3.755   6.824
 7552SOL     OW23554   1.267   5.946   3.631
 7552SOL    HW123555   1.283   5.888   3.551
 7552SOL    HW223556   1.223   6.031   3.601
 7553SOL     OW23557   4.747   5.045   6.019
 7553SOL    HW123558   4.822   5.104   6.049
 7553SOL    HW223559   4.784   4.958   5.987
 7554SOL     OW23560   4.340   1.091   1.587
 7554SOL    HW123561   4.310   1.099   1.683
 7554SOL    HW223562   4.272   1.134   1.528
 7555SOL     OW23563   2.124   4.605   5.498
 7555SOL    HW123564   2.203   4.582   5.555
 7555SOL    HW223565   2.103   4.529   5.437
 7556SOL     OW23566   0.946   3.163   5.467
 7556SOL    HW123567   1.039   3.190   5.493
 7556SOL    HW223568   0.901   3.120   5.546
 7557SOL     OW23569   5.298   2.368   5.984
 7557SOL    HW123570   5.381   2.313   5.981
 7557SOL    HW223571   5.219   2.308   5.991
 7558SOL     OW23572   1.747   2.624   4.357
 7558SOL    HW123573   1.666   2.677   4.381
 7558SOL    HW223574   1.720   2.539   4.313
 7559SOL     OW23575   6.564   5.090   0.093
 7559SOL    HW123576   6.485   5.102   0.033
 7559SOL    HW223577   6.621   5.014   0.059
 7560SOL     OW23578   5.108   6.622   0.984
 7560SOL    HW123579   5.022   6.573   0.969
 7560SOL    HW223580   5.170   6.566   1.039
 7561SOL     OW23581   0.978   3.271   6.984
 7561SOL    HW123582   0.988   3.357   0.010
 7561SOL    HW223583   1.030   3.275   6.898
 7562SOL     OW23584   5.913   5.907   5.139
 7562SOL    HW123585   5.822   5.882   5.104
 7562SOL    HW223586   5.903   5.967   5.218
 7563SOL     OW23587   2.608   6.095   0.860
 7563SOL    HW123588   2.653   6.017   0.818
 7563SOL    HW223589   2.511   6.075   0.873
 7564SOL     OW23590   4.992   1.733   2.926
 7564SOL    HW123591   4.988   1.742   2.826
 7564SOL    HW223592   4.910   1.774   2.966
 7565SOL     OW23593   5.623   3.832   0.355
 7565SOL    HW123594   5.649   3.926   0.329
 7565SOL    HW223595   5.705   3.775   0.358
 7566SOL     OW23596   6.807   4.546   3.479
 7566SOL    HW123597   6.811   4.576   3.575
 7566SOL    HW223598   6.842   4.620   3.420
 7567SOL     OW23599   1.874   1.879   4.945
 7567SOL    HW123600   1.885   1.780   4.955
 7567SOL    HW223601   1.932   1.912   4.870
 7568SOL     OW23602   5.250   6.397   3.264
 7568SOL    HW123603   5.198   6.482   3.267
 7568SOL    HW223604   5.254   6.363   3.170
 7569SOL     OW23605   3.832   5.143   6.219
 7569SOL    HW123606   3.827   5.206   6.297
 7569SOL    HW223607   3.928   5.125   6.198
 7570SOL     OW23608   5.536   4.459   5.465
 7570SOL    HW123609   5.607   4.406   5.418
 7570SOL    HW223610   5.569   4.486   5.555
 7571SOL     OW23611   4.934   5.826   3.447
 7571SOL    HW123612   5.012   5.800   3.390
 7571SOL    HW223613   4.915   5.753   3.513
 7572SOL     OW23614   4.286   0.732   2.837
 7572SOL    HW123615   4.205   0.713   2.783
 7572SOL    HW223616   4.259   0.757   2.930
 7573SOL     OW23617   6.813   6.456   4.888
 7573SOL    HW123618   6.898   6.411   4.916
 7573SOL    HW223619   6.754   6.390   4.841
 7574SOL     OW23620   6.230   1.146   4.418
 7574SOL    HW123621   6.135   1.174   4.426
 7574SOL    HW223622   6.234   1.053   4.380
 7575SOL     OW23623   4.068   0.521   5.856
 7575SOL    HW123624   3.992   0.478   5.807
 7575SOL    HW223625   4.132   0.560   5.790
 7576SOL     OW23626   5.663   4.852   0.074
 7576SOL    HW123627   5.707   4.866   7.009
 7576SOL    HW223628   5.581   4.910   0.080
 7577SOL     OW23629   6.935   6.522   5.433
 7577SOL    HW123630   0.003   6.549   5.405
 7577SOL    HW223631   6.934   6.501   5.530
 7578SOL     OW23632   2.553   5.624   2.300
 7578SOL    HW123633   2.456   5.614   2.282
 7578SOL    HW223634   2.578   5.571   2.381
 7579SOL     OW23635   5.968   2.201   1.890
 7579SOL    HW123636   6.043   2.135   1.890
 7579SOL    HW223637   5.933   2.213   1.797
 7580SOL     OW23638   1.409   4.102   3.991
 7580SOL    HW123639   1.367   4.063   4.072
 7580SOL    HW223640   1.413   4.032   3.919
 7581SOL     OW23641   0.189   0.191   1.364
 7581SOL    HW123642   0.155   0.111   1.413
 7581SOL    HW223643   0.272   0.224   1.408
 7582SOL     OW23644   2.641   1.084   0.367
 7582SOL    HW123645   2.684   1.172   0.345
 7582SOL    HW223646   2.660   1.019   0.294
 7583SOL     OW23647   6.402   2.955   0.701
 7583SOL    HW123648   6.411   2.857   0.679
 7583SOL    HW223649   6.486   2.986   0.745
 7584SOL     OW23650   2.581   6.819   1.508
 7584SOL    HW123651   2.654   6.819   1.440
 7584SOL    HW223652   2.493   6.832   1.463
 7585SOL     OW23653   2.067   2.435   5.874
 7585SOL    HW123654   2.141   2.500   5.891
 7585SOL    HW223655   2.061   2.416   5.776
 7586SOL     OW23656   4.001   1.139   3.787
 7586SOL    HW123657   3.941   1.060   3.775
 7586SOL    HW223658   4.016   1.156   3.884
 7587SOL     OW23659   2.295   1.784   6.343
 7587SOL    HW123660   2.382   1.750   6.379
 7587SOL    HW223661   2.227   1.711   6.342
 7588SOL     OW23662   1.288   3.327   2.653
 7588SOL    HW123663   1.360   3.295   2.592
 7588SOL    HW223664   1.200   3.293   2.621
 7589SOL     OW23665   0.073   6.839   1.890
 7589SOL    HW123666   0.091   6.772   1.817
 7589SOL    HW223667   0.008   6.801   1.955
 7590SOL     OW23668   4.666   1.760   6.443
 7590SOL    HW123669   4.652   1.679   6.386
 7590SOL    HW223670   4.582   1.814   6.445
 7591SOL     OW23671   0.042   4.544   0.475
 7591SOL    HW123672   0.121   4.483   0.466
 7591SOL    HW223673   7.008   4.537   0.394
 7592SOL     OW23674   6.460   4.348   6.830
 7592SOL    HW123675   6.542   4.401   6.848
 7592SOL    HW223676   6.479   4.251   6.845
 7593SOL     OW23677   5.358   2.338   1.036
 7593SOL    HW123678   5.307   2.255   1.015
 7593SOL    HW223679   5.302   2.400   1.091
 7594SOL     OW23680   0.616   5.379   2.068
 7594SOL    HW123681   0.680   5.344   2.136
 7594SOL    HW223682   0.551   5.307   2.043
 7595SOL     OW23683   0.115   2.733   5.887
 7595SOL    HW123684   0.141   2.742   5.791
 7595SOL    HW223685   0.174   2.666   5.931
 7596SOL     OW23686   4.830   5.771   3.879
 7596SOL    HW123687   4.888   5.843   3.841
 7596SOL    HW223688   4.747   5.811   3.917
 7597SOL     OW23689   3.535   6.131   2.805
 7597SOL    HW123690   3.629   6.142   2.774
 7597SOL    HW223691   3.500   6.218   2.840
 7598SOL     OW23692   0.102   1.488   3.681
 7598SOL    HW123693   0.193   1.467   3.644
 7598SOL    HW223694   0.109   1.562   3.748
 7599SOL     OW23695   6.076   1.753   2.244
 7599SOL    HW123696   6.160   1.806   2.253
 7599SOL    HW223697   5.997   1.812   2.258
 7600SOL     OW23698   1.623   1.320   2.872
 7600SOL    HW123699   1.651   1.361   2.959
 7600SOL    HW223700   1.693   1.338   2.803
 7601SOL     OW23701   2.135   5.287   2.892
 7601SOL    HW123702   2.058   5.351   2.892
 7601SOL    HW223703   2.216   5.333   2.856
 7602SOL     OW23704   0.411   4.410   0.007
 7602SOL    HW123705   0.378   4.386   6.939
 7602SOL    HW223706   0.457   4.331   0.048
 7603SOL     OW23707   2.176   4.825   6.182
 7603SOL    HW123708   2.089   4.860   6.216
 7603SOL    HW223709   2.171   4.726   6.173
 7604SOL     OW23710   1.451   4.733   4.239
 7604SOL    HW123711   1.410   4.784   4.315
 7604SOL    HW223712   1.442   4.635   4.256
 7605SOL     OW23713   0.472   0.019   0.852
 7605SOL    HW123714   0.468   0.088   0.779
 7605SOL    HW223715   0.541   6.974   0.827
 7606SOL     OW23716   6.583   3.472   3.759
 7606SOL    HW123717   6.529   3.536   3.813
 7606SOL    HW223718   6.671   3.514   3.736
 7607SOL     OW23719   4.489   4.909   0.265
 7607SOL    HW123720   4.588   4.918   0.255
 7607SOL    HW223721   4.467   4.816   0.293
 7608SOL     OW23722   3.285   3.752   3.058
 7608SOL    HW123723   3.384   3.746   3.044
 7608SOL    HW223724   3.256   3.683   3.124
 7609SOL     OW23725   0.653   3.606   3.902
 7609SOL    HW123726   0.629   3.536   3.970
 7609SOL    HW223727   0.602   3.589   3.817
 7610SOL     OW23728   6.068   6.077   0.492
 7610SOL    HW123729   6.160   6.110   0.471
 7610SOL    HW223730   6.003   6.153   0.487
 7611SOL     OW23731   0.237   1.684   0.199
 7611SOL    HW123732   0.299   1.746   0.152
 7611SOL    HW223733   0.281   1.649   0.282
 7612SOL     OW23734   5.133   3.070   4.901
 7612SOL    HW123735   5.166   3.163   4.884
 7612SOL    HW223736   5.036   3.065   4.879
 7613SOL     OW23737   6.211   3.514   1.014
 7613SOL    HW123738   6.241   3.471   1.099
 7613SOL    HW223739   6.279   3.497   0.943
 7614SOL     OW23740   4.867   3.562   0.948
 7614SOL    HW123741   4.768   3.570   0.941
 7614SOL    HW223742   4.891   3.508   1.028
 7615SOL     OW23743   3.777   3.831   6.736
 7615SOL    HW123744   3.854   3.835   6.672
 7615SOL    HW223745   3.698   3.876   6.695
 7616SOL     OW23746   6.429   5.114   5.685
 7616SOL    HW123747   6.411   5.179   5.611
 7616SOL    HW223748   6.356   5.119   5.753
 7617SOL     OW23749   4.163   5.630   2.995
 7617SOL    HW123750   4.136   5.721   3.028
 7617SOL    HW223751   4.094   5.563   3.021
 7618SOL     OW23752   0.646   1.564   5.758
 7618SOL    HW123753   0.626   1.603   5.848
 7618SOL    HW223754   0.568   1.509   5.727
 7619SOL     OW23755   5.698   2.979   5.434
 7619SOL    HW123756   5.691   3.014   5.341
 7619SOL    HW223757   5.794   2.981   5.463
 7620SOL     OW23758   4.118   5.636   0.761
 7620SOL    HW123759   4.059   5.573   0.812
 7620SOL    HW223760   4.173   5.584   0.696
 7621SOL     OW23761   0.164   1.798   0.472
 7621SOL    HW123762   0.171   1.819   0.375
 7621SOL    HW223763   0.104   1.865   0.516
 7622SOL     OW23764   5.425   5.540   1.600
 7622SOL    HW123765   5.500   5.571   1.541
 7622SOL    HW223766   5.424   5.594   1.684
 7623SOL     OW23767   4.757   3.814   6.806
 7623SOL    HW123768   4.712   3.838   6.720
 7623SOL    HW223769   4.849   3.854   6.808
 7624SOL     OW23770   6.965   2.939   4.766
 7624SOL    HW123771   6.877   2.917   4.725
 7624SOL    HW223772   6.971   2.896   4.856
 7625SOL     OW23773   4.693   1.127   1.395
 7625SOL    HW123774   4.617   1.063   1.409
 7625SOL    HW223775   4.769   1.079   1.350
 7626SOL     OW23776   5.895   6.754   4.268
 7626SOL    HW123777   5.991   6.778   4.275
 7626SOL    HW223778   5.850   6.769   4.357
 7627SOL     OW23779   5.136   2.379   0.133
 7627SOL    HW123780   5.234   2.369   0.152
 7627SOL    HW223781   5.094   2.288   0.127
 7628SOL     OW23782   3.778   0.548   3.007
 7628SOL    HW123783   3.846   0.510   3.069
 7628SOL    HW223784   3.785   0.648   3.007
 7629SOL     OW23785   6.659   6.799   2.892
 7629SOL    HW123786   6.699   6.812   2.983
 7629SOL    HW223787   6.684   6.876   2.833
 7630SOL     OW23788   6.426   0.148   1.688
 7630SOL    HW123789   6.510   0.196   1.711
 7630SOL    HW223790   6.373   0.203   1.623
 7631SOL     OW23791   0.999   0.671   6.094
 7631SOL    HW123792   0.927   0.655   6.027
 7631SOL    HW223793   1.026   0.767   6.091
 7632SOL     OW23794   3.611   2.801   1.969
 7632SOL    HW123795   3.587   2.828   2.062
 7632SOL    HW223796   3.596   2.702   1.959
 7633SOL     OW23797   5.017   1.432   1.483
 7633SOL    HW123798   4.947   1.370   1.520
 7633SOL    HW223799   5.072   1.383   1.416
 7634SOL     OW23800   0.773   2.017   2.805
 7634SOL    HW123801   0.694   2.039   2.863
 7634SOL    HW223802   0.803   2.099   2.756
 7635SOL     OW23803   3.514   5.665   4.789
 7635SOL    HW123804   3.550   5.707   4.706
 7635SOL    HW223805   3.521   5.730   4.865
 7636SOL     OW23806   1.240   2.478   4.200
 7636SOL    HW123807   1.145   2.459   4.174
 7636SOL    HW223808   1.291   2.510   4.121
 7637SOL     OW23809   2.568   4.876   2.371
 7637SOL    HW123810   2.498   4.807   2.351
 7637SOL    HW223811   2.659   4.839   2.352
 7638SOL     OW23812   3.728   6.610   0.720
 7638SOL    HW123813   3.711   6.519   0.683
 7638SOL    HW223814   3.826   6.623   0.734
 7639SOL     OW23815   1.061   2.200   0.106
 7639SOL    HW123816   1.005   2.168   0.029
 7639SOL    HW223817   1.070   2.127   0.173
 7640SOL     OW23818   3.266   1.671   6.599
 7640SOL    HW123819   3.358   1.681   6.562
 7640SOL    HW223820   3.203   1.645   6.526
 7641SOL     OW23821   1.321   4.442   1.970
 7641SOL    HW123822   1.342   4.517   2.033
 7641SOL    HW223823   1.336   4.355   2.017
 7642SOL     OW23824   4.008   0.880   3.247
 7642SOL    HW123825   4.088   0.909   3.299
 7642SOL    HW223826   4.010   0.923   3.157
 7643SOL     OW23827   5.011   3.306   4.086
 7643SOL    HW123828   5.012   3.216   4.043
 7643SOL    HW223829   5.069   3.305   4.167
 7644SOL     OW23830   5.939   2.856   2.556
 7644SOL    HW123831   5.904   2.882   2.646
 7644SOL    HW223832   6.008   2.784   2.567
 7645SOL     OW23833   4.123   4.304   5.603
 7645SOL    HW123834   4.117   4.380   5.537
 7645SOL    HW223835   4.036   4.255   5.604
 7646SOL     OW23836   1.665   3.422   2.674
 7646SOL    HW123837   1.657   3.322   2.673
 7646SOL    HW223838   1.630   3.457   2.761
 7647SOL     OW23839   6.841   3.857   2.489
 7647SOL    HW123840   6.941   3.852   2.481
 7647SOL    HW223841   6.808   3.938   2.441
 7648SOL     OW23842   2.992   1.532   3.310
 7648SOL    HW123843   3.042   1.494   3.233
 7648SOL    HW223844   2.950   1.619   3.284
 7649SOL     OW23845   0.559   0.679   3.358
 7649SOL    HW123846   0.559   0.774   3.327
 7649SOL    HW223847   0.626   0.627   3.307
 7650SOL     OW23848   4.495   2.527   1.432
 7650SOL    HW123849   4.454   2.612   1.401
 7650SOL    HW223850   4.583   2.546   1.477
 7651SOL     OW23851   2.613   0.850   4.695
 7651SOL    HW123852   2.641   0.860   4.791
 7651SOL    HW223853   2.683   0.887   4.635
 7652SOL     OW23854   6.730   3.725   4.369
 7652SOL    HW123855   6.708   3.759   4.278
 7652SOL    HW223856   6.762   3.800   4.426
 7653SOL     OW23857   2.249   1.895   6.838
 7653SOL    HW123858   2.313   1.819   6.854
 7653SOL    HW223859   2.240   1.910   6.740
 7654SOL     OW23860   5.022   3.144   3.231
 7654SOL    HW123861   5.122   3.138   3.231
 7654SOL    HW223862   4.991   3.177   3.320
 7655SOL     OW23863   4.404   0.531   3.464
 7655SOL    HW123864   4.317   0.483   3.473
 7655SOL    HW223865   4.391   0.628   3.482
 7656SOL     OW23866   2.259   5.296   6.043
 7656SOL    HW123867   2.267   5.339   5.953
 7656SOL    HW223868   2.163   5.294   6.070
 7657SOL     OW23869   1.960   3.062   3.953
 7657SOL    HW123870   1.884   3.126   3.967
 7657SOL    HW223871   1.968   3.003   4.033
 7658SOL     OW23872   3.675   0.030   5.747
 7658SOL    HW123873   3.669   0.079   5.834
 7658SOL    HW223874   3.584   0.010   5.713
 7659SOL     OW23875   5.880   5.139   0.322
 7659SOL    HW123876   5.939   5.060   0.308
 7659SOL    HW223877   5.820   5.123   0.401
 7660SOL     OW23878   0.609   6.128   3.806
 7660SOL    HW123879   0.619   6.139   3.905
 7660SOL    HW223880   0.571   6.211   3.766
 7661SOL     OW23881   6.142   2.638   4.262
 7661SOL    HW123882   6.110   2.706   4.196
 7661SOL    HW223883   6.103   2.658   4.352
 7662SOL     OW23884   1.090   2.743   2.790
 7662SOL    HW123885   1.104   2.652   2.830
 7662SOL    HW223886   1.131   2.812   2.850
 7663SOL     OW23887   1.380   6.156   6.265
 7663SOL    HW123888   1.417   6.208   6.342
 7663SOL    HW223889   1.416   6.062   6.268
 7664SOL     OW23890   3.375   0.273   1.500
 7664SOL    HW123891   3.317   0.234   1.429
 7664SOL    HW223892   3.376   0.213   1.580
 7665SOL     OW23893   4.349   7.006   4.967
 7665SOL    HW123894   4.414   0.001   5.040
 7665SOL    HW223895   4.358   0.051   4.895
 7666SOL     OW23896   0.440   6.511   1.349
 7666SOL    HW123897   0.400   6.488   1.437
 7666SOL    HW223898   0.377   6.568   1.297
 7667SOL     OW23899   5.037   5.427   2.229
 7667SOL    HW123900   4.947   5.469   2.237
 7667SOL    HW223901   5.028   5.328   2.236
 7668SOL     OW23902   2.984   4.699   0.711
 7668SOL    HW123903   2.940   4.774   0.761
 7668SOL    HW223904   3.014   4.629   0.776
 7669SOL     OW23905   5.679   1.772   5.343
 7669SOL    HW123906   5.723   1.773   5.433
 7669SOL    HW223907   5.666   1.867   5.312
 7670SOL     OW23908   0.746   5.077   6.811
 7670SOL    HW123909   0.714   5.088   6.717
 7670SOL    HW223910   0.752   4.980   6.834
 7671SOL     OW23911   4.131   1.125   3.282
 7671SOL    HW123912   4.211   1.156   3.334
 7671SOL    HW223913   4.096   1.200   3.226
 7672SOL     OW23914   7.016   6.345   3.111
 7672SOL    HW123915   6.986   6.440   3.120
 7672SOL    HW223916   0.032   6.332   3.020
 7673SOL     OW23917   1.907   5.495   0.336
 7673SOL    HW123918   1.936   5.507   0.241
 7673SOL    HW223919   1.819   5.448   0.338
 7674SOL     OW23920   5.721   1.400   3.544
 7674SOL    HW123921   5.630   1.360   3.539
 7674SOL    HW223922   5.746   1.416   3.639
 7675SOL     OW23923   5.901   6.759   2.399
 7675SOL    HW123924   5.970   6.692   2.425
 7675SOL    HW223925   5.937   6.851   2.416
 7676SOL     OW23926   1.544   2.043   0.779
 7676SOL    HW123927   1.529   2.023   0.682
 7676SOL    HW223928   1.635   2.011   0.805
 7677SOL     OW23929   0.419   5.172   2.016
 7677SOL    HW123930   0.383   5.111   2.086
 7677SOL    HW223931   0.453   5.117   1.939
 7678SOL     OW23932   2.187   1.935   4.321
 7678SOL    HW123933   2.120   1.929   4.248
 7678SOL    HW223934   2.250   2.011   4.302
 7679SOL     OW23935   3.023   5.608   6.629
 7679SOL    HW123936   2.946   5.544   6.630
 7679SOL    HW223937   3.098   5.568   6.575
 7680SOL     OW23938   1.719   1.945   0.451
 7680SOL    HW123939   1.722   1.972   0.355
 7680SOL    HW223940   1.661   1.865   0.462
 7681SOL     OW23941   2.415   0.109   0.720
 7681SOL    HW123942   2.419   0.058   0.806
 7681SOL    HW223943   2.339   0.076   0.665
 7682SOL     OW23944   3.235   0.196   2.490
 7682SOL    HW123945   3.264   0.175   2.583
 7682SOL    HW223946   3.257   0.119   2.430
 7683SOL     OW23947   6.161   1.424   3.407
 7683SOL    HW123948   6.121   1.516   3.403
 7683SOL    HW223949   6.260   1.431   3.406
 7684SOL     OW23950   3.568   2.060   2.531
 7684SOL    HW123951   3.485   2.079   2.479
 7684SOL    HW223952   3.645   2.048   2.468
 7685SOL     OW23953   3.190   2.322   0.090
 7685SOL    HW123954   3.264   2.256   0.104
 7685SOL    HW223955   3.213   2.382   0.013
 7686SOL     OW23956   6.464   0.001   2.742
 7686SOL    HW123957   6.461   0.044   2.653
 7686SOL    HW223958   6.401   6.947   2.744
 7687SOL     OW23959   5.622   4.787   3.861
 7687SOL    HW123960   5.649   4.737   3.943
 7687SOL    HW223961   5.552   4.854   3.885
 7688SOL     OW23962   0.946   6.055   5.612
 7688SOL    HW123963   0.957   6.146   5.651
 7688SOL    HW223964   1.002   6.047   5.529
 7689SOL     OW23965   5.332   6.706   3.343
 7689SOL    HW123966   5.236   6.681   3.329
 7689SOL    HW223967   5.379   6.630   3.388
 7690SOL     OW23968   5.782   5.297   0.776
 7690SOL    HW123969   5.804   5.393   0.757
 7690SOL    HW223970   5.715   5.264   0.709
 7691SOL     OW23971   5.403   2.441   5.087
 7691SOL    HW123972   5.423   2.539   5.088
 7691SOL    HW223973   5.397   2.408   5.181
 7692SOL     OW23974   0.341   6.282   1.794
 7692SOL    HW123975   0.434   6.247   1.807
 7692SOL    HW223976   0.299   6.298   1.884
 7693SOL     OW23977   3.723   0.448   1.218
 7693SOL    HW123978   3.808   0.478   1.175
 7693SOL    HW223979   3.666   0.400   1.151
 7694SOL     OW23980   0.405   4.817   5.343
 7694SOL    HW123981   0.402   4.765   5.257
 7694SOL    HW223982   0.312   4.844   5.368
 7695SOL     OW23983   4.283   6.783   0.698
 7695SOL    HW123984   4.301   6.712   0.630
 7695SOL    HW223985   4.204   6.756   0.754
 7696SOL     OW23986   6.698   1.206   5.158
 7696SOL    HW123987   6.627   1.276   5.167
 7696SOL    HW223988   6.750   1.222   5.074
 7697SOL     OW23989   3.045   6.170   2.133
 7697SOL    HW123990   3.078   6.078   2.116
 7697SOL    HW223991   3.112   6.219   2.190
 7698SOL     OW23992   6.756   2.127   3.434
 7698SOL    HW123993   6.761   2.068   3.514
 7698SOL    HW223994   6.699   2.083   3.364
 7699SOL     OW23995   3.790   5.756   6.974
 7699SOL    HW123996   3.780   5.767   6.875
 7699SOL    HW223997   3.716   5.805   7.020
 7700SOL     OW23998   4.631   6.357   4.382
 7700SOL    HW123999   4.669   6.265   4.376
 7700SOL    HW224000   4.659   6.399   4.469
 7701SOL     OW24001   6.536   1.565   0.164
 7701SOL    HW124002   6.536   1.523   0.254
 7701SOL    HW224003   6.602   1.518   0.105
 7702SOL     OW24004   3.681   6.148   6.103
 7702SOL    HW124005   3.690   6.241   6.138
 7702SOL    HW224006   3.773   6.111   6.084
 7703SOL     OW24007   6.118   0.641   5.435
 7703SOL    HW124008   6.198   0.697   5.455
 7703SOL    HW224009   6.049   0.654   5.506
 7704SOL     OW24010   5.319   5.452   5.439
 7704SOL    HW124011   5.227   5.487   5.429
 7704SOL    HW224012   5.320   5.353   5.419
 7705SOL     OW24013   3.803   5.290   6.457
 7705SOL    HW124014   3.723   5.319   6.509
 7705SOL    HW224015   3.862   5.369   6.439
 7706SOL     OW24016   4.359   3.212   5.334
 7706SOL    HW124017   4.450   3.170   5.335
 7706SOL    HW224018   4.343   3.259   5.420
 7707SOL     OW24019   0.739   5.670   6.003
 7707SOL    HW124020   0.692   5.738   5.946
 7707SOL    HW224021   0.822   5.639   5.956
 7708SOL     OW24022   6.096   0.198   6.030
 7708SOL    HW124023   6.085   0.254   5.947
 7708SOL    HW224024   6.026   0.224   6.096
 7709SOL     OW24025   5.508   4.388   1.826
 7709SOL    HW124026   5.559   4.459   1.875
 7709SOL    HW224027   5.568   4.343   1.760
 7710SOL     OW24028   2.774   0.519   0.856
 7710SOL    HW124029   2.729   0.605   0.833
 7710SOL    HW224030   2.719   0.442   0.822
 7711SOL     OW24031   6.629   5.964   5.297
 7711SOL    HW124032   6.648   5.894   5.366
 7711SOL    HW224033   6.553   6.021   5.328
 7712SOL     OW24034   5.433   6.013   2.708
 7712SOL    HW124035   5.483   6.074   2.647
 7712SOL    HW224036   5.335   6.023   2.692
 7713SOL     OW24037   1.479   4.574   0.569
 7713SOL    HW124038   1.428   4.491   0.590
 7713SOL    HW224039   1.416   4.646   0.540
 7714SOL     OW24040   6.360   4.421   5.707
 7714SOL    HW124041   6.333   4.324   5.706
 7714SOL    HW224042   6.438   4.433   5.768
 7715SOL     OW24043   4.039   2.124   6.656
 7715SOL    HW124044   3.997   2.211   6.682
 7715SOL    HW224045   4.062   2.072   6.739
 7716SOL     OW24046   6.330   4.418   3.706
 7716SOL    HW124047   6.394   4.343   3.691
 7716SOL    HW224048   6.237   4.381   3.715
 7717SOL     OW24049   1.700   1.061   5.101
 7717SOL    HW124050   1.659   1.150   5.118
 7717SOL    HW224051   1.674   1.028   5.010
 7718SOL     OW24052   1.580   2.175   2.984
 7718SOL    HW124053   1.562   2.078   2.968
 7718SOL    HW224054   1.549   2.200   3.076
 7719SOL     OW24055   6.662   4.469   4.747
 7719SOL    HW124056   6.611   4.554   4.736
 7719SOL    HW224057   6.621   4.415   4.820
 7720SOL     OW24058   0.153   0.865   6.967
 7720SOL    HW124059   0.106   0.951   6.986
 7720SOL    HW224060   0.118   0.794   0.004
 7721SOL     OW24061   0.498   5.438   2.372
 7721SOL    HW124062   0.489   5.419   2.275
 7721SOL    HW224063   0.407   5.454   2.412
 7722SOL     OW24064   0.888   5.902   2.937
 7722SOL    HW124065   0.790   5.891   2.952
 7722SOL    HW224066   0.934   5.913   3.025
 7723SOL     OW24067   4.916   2.908   0.073
 7723SOL    HW124068   4.993   2.887   0.133
 7723SOL    HW224069   4.853   2.830   0.071
 7724SOL     OW24070   2.955   4.385   1.196
 7724SOL    HW124071   2.984   4.431   1.280
 7724SOL    HW224072   2.996   4.432   1.117
 7725SOL     OW24073   6.267   2.255   3.567
 7725SOL    HW124074   6.323   2.212   3.638
 7725SOL    HW224075   6.176   2.274   3.604
 7726SOL     OW24076   2.060   5.914   5.264
 7726SOL    HW124077   1.985   5.933   5.327
 7726SOL    HW224078   2.124   5.850   5.306
 7727SOL     OW24079   0.097   0.995   2.505
 7727SOL    HW124080   0.175   1.055   2.492
 7727SOL    HW224081   0.082   0.941   2.421
 7728SOL     OW24082   1.269   4.750   3.256
 7728SOL    HW124083   1.296   4.841   3.225
 7728SOL    HW224084   1.270   4.748   3.356
 7729SOL     OW24085   5.904   2.883   1.291
 7729SOL    HW124086   5.861   2.911   1.205
 7729SOL    HW224087   5.834   2.873   1.361
 7730SOL     OW24088   6.116   6.017   1.303
 7730SOL    HW124089   6.120   6.115   1.322
 7730SOL    HW224090   6.023   5.983   1.319
 7731SOL     OW24091   6.783   0.716   6.740
 7731SOL    HW124092   6.840   0.727   6.821
 7731SOL    HW224093   6.811   0.633   6.690
 7732SOL     OW24094   4.453   6.123   0.646
 7732SOL    HW124095   4.436   6.141   0.743
 7732SOL    HW224096   4.366   6.124   0.596
 7733SOL     OW24097   4.455   6.513   2.462
 7733SOL    HW124098   4.505   6.599   2.464
 7733SOL    HW224099   4.481   6.457   2.541
 7734SOL     OW24100   2.605   5.109   2.877
 7734SOL    HW124101   2.562   5.066   2.798
 7734SOL    HW224102   2.561   5.197   2.895
 7735SOL     OW24103   4.860   6.124   6.857
 7735SOL    HW124104   4.885   6.201   6.917
 7735SOL    HW224105   4.854   6.156   6.762
 7736SOL     OW24106   3.387   3.995   0.069
 7736SOL    HW124107   3.462   3.929   0.057
 7736SOL    HW224108   3.300   3.946   0.077
 7737SOL     OW24109   3.145   0.499   2.615
 7737SOL    HW124110   3.148   0.433   2.690
 7737SOL    HW224111   3.050   0.512   2.586
 7738SOL     OW24112   3.185   6.272   0.382
 7738SOL    HW124113   3.243   6.196   0.350
 7738SOL    HW224114   3.241   6.337   0.433
 7739SOL     OW24115   0.668   2.301   0.738
 7739SOL    HW124116   0.594   2.238   0.714
 7739SOL    HW224117   0.684   2.365   0.663
 7740SOL     OW24118   2.042   0.830   3.333
 7740SOL    HW124119   2.141   0.817   3.327
 7740SOL    HW224120   1.995   0.754   3.288
 7741SOL     OW24121   0.615   4.648   6.091
 7741SOL    HW124122   0.696   4.660   6.033
 7741SOL    HW224123   0.642   4.654   6.187
 7742SOL     OW24124   5.467   1.626   3.490
 7742SOL    HW124125   5.392   1.607   3.553
 7742SOL    HW224126   5.433   1.629   3.396
 7743SOL     OW24127   5.743   1.141   0.439
 7743SOL    HW124128   5.836   1.148   0.477
 7743SOL    HW224129   5.715   1.045   0.437
 7744SOL     OW24130   0.802   5.830   3.304
 7744SOL    HW124131   0.893   5.857   3.271
 7744SOL    HW224132   0.766   5.901   3.364
 7745SOL     OW24133   3.618   1.069   5.950
 7745SOL    HW124134   3.560   1.149   5.937
 7745SOL    HW224135   3.693   1.071   5.883
 7746SOL     OW24136   2.855   6.477   0.082
 7746SOL    HW124137   2.941   6.446   0.125
 7746SOL    HW224138   2.778   6.454   0.142
 7747SOL     OW24139   4.770   5.714   1.481
 7747SOL    HW124140   4.810   5.797   1.521
 7747SOL    HW224141   4.707   5.741   1.407
 7748SOL     OW24142   3.076   3.472   4.832
 7748SOL    HW124143   3.079   3.563   4.874
 7748SOL    HW224144   3.038   3.407   4.897
 7749SOL     OW24145   2.271   2.639   5.865
 7749SOL    HW124146   2.318   2.610   5.782
 7749SOL    HW224147   2.212   2.718   5.844
 7750SOL     OW24148   0.100   6.555   1.439
 7750SOL    HW124149   0.131   6.588   1.350
 7750SOL    HW224150   0.174   6.504   1.483
 7751SOL     OW24151   1.436   2.294   2.196
 7751SOL    HW124152   1.487   2.375   2.228
 7751SOL    HW224153   1.425   2.230   2.272
 7752SOL     OW24154   5.259   0.457   6.094
 7752SOL    HW124155   5.274   0.429   5.999
 7752SOL    HW224156   5.343   0.496   6.131
 7753SOL     OW24157   2.732   1.499   4.168
 7753SOL    HW124158   2.734   1.462   4.261
 7753SOL    HW224159   2.798   1.449   4.112
 7754SOL     OW24160   3.474   5.995   1.055
 7754SOL    HW124161   3.497   6.090   1.075
 7754SOL    HW224162   3.474   5.942   1.140
 7755SOL     OW24163   2.132   2.193   5.553
 7755SOL    HW124164   2.087   2.282   5.561
 7755SOL    HW224165   2.157   2.160   5.644
 7756SOL     OW24166   2.603   6.763   2.659
 7756SOL    HW124167   2.557   6.683   2.620
 7756SOL    HW224168   2.568   6.780   2.751
 7757SOL     OW24169   5.968   4.674   0.854
 7757SOL    HW124170   5.943   4.620   0.774
 7757SOL    HW224171   5.892   4.736   0.877
 7758SOL     OW24172   2.288   0.065   6.214
 7758SOL    HW124173   2.237   0.149   6.191
 7758SOL    HW224174   2.228   7.010   6.201
 7759SOL     OW24175   1.811   1.654   5.540
 7759SOL    HW124176   1.866   1.595   5.599
 7759SOL    HW224177   1.871   1.718   5.492
 7760SOL     OW24178   5.843   3.707   2.364
 7760SOL    HW124179   5.878   3.613   2.369
 7760SOL    HW224180   5.875   3.758   2.443
 7761SOL     OW24181   6.460   6.784   4.710
 7761SOL    HW124182   6.419   6.806   4.621
 7761SOL    HW224183   6.512   6.863   4.742
 7762SOL     OW24184   2.269   0.376   4.082
 7762SOL    HW124185   2.218   0.446   4.130
 7762SOL    HW224186   2.241   0.285   4.114
 7763SOL     OW24187   2.508   0.057   6.390
 7763SOL    HW124188   2.435   0.043   6.322
 7763SOL    HW224189   2.485   0.135   6.447
 7764SOL     OW24190   3.542   3.737   5.320
 7764SOL    HW124191   3.577   3.771   5.408
 7764SOL    HW224192   3.500   3.648   5.334
 7765SOL     OW24193   5.901   3.006   4.977
 7765SOL    HW124194   5.858   2.974   4.893
 7765SOL    HW224195   5.833   3.012   5.050
 7766SOL     OW24196   6.645   4.149   0.641
 7766SOL    HW124197   6.727   4.092   0.642
 7766SOL    HW224198   6.670   4.245   0.651
 7767SOL     OW24199   4.438   6.091   2.440
 7767SOL    HW124200   4.420   6.055   2.531
 7767SOL    HW224201   4.513   6.040   2.399
 7768SOL     OW24202   4.995   4.313   2.853
 7768SOL    HW124203   5.057   4.368   2.908
 7768SOL    HW224204   5.027   4.310   2.758
 7769SOL     OW24205   4.497   1.682   4.266
 7769SOL    HW124206   4.554   1.601   4.251
 7769SOL    HW224207   4.483   1.694   4.364
 7770SOL     OW24208   0.876   3.447   4.989
 7770SOL    HW124209   0.919   3.428   5.077
 7770SOL    HW224210   0.776   3.448   5.000
 7771SOL     OW24211   3.336   1.612   5.398
 7771SOL    HW124212   3.294   1.677   5.336
 7771SOL    HW224213   3.379   1.538   5.346
 7772SOL     OW24214   4.974   6.526   1.897
 7772SOL    HW124215   4.976   6.496   1.993
 7772SOL    HW224216   5.049   6.485   1.847
 7773SOL     OW24217   1.617   4.668   5.490
 7773SOL    HW124218   1.596   4.571   5.479
 7773SOL    HW224219   1.630   4.710   5.401
 7774SOL     OW24220   4.951   2.587   4.174
 7774SOL    HW124221   5.047   2.590   4.144
 7774SOL    HW224222   4.931   2.669   4.228
 7775SOL     OW24223   4.474   0.126   6.995
 7775SOL    HW124224   4.466   0.181   6.912
 7775SOL    HW224225   4.411   0.161   0.040
 7776SOL     OW24226   0.976   5.994   6.729
 7776SOL    HW124227   1.068   6.007   6.692
 7776SOL    HW224228   0.909   6.027   6.663
 7777SOL     OW24229   5.984   5.566   3.975
 7777SOL    HW124230   6.060   5.572   4.040
 7777SOL    HW224231   5.898   5.567   4.026
 7778SOL     OW24232   5.635   3.817   1.897
 7778SOL    HW124233   5.635   3.769   1.984
 7778SOL    HW224234   5.558   3.785   1.841
 7779SOL     OW24235   2.831   1.039   1.954
 7779SOL    HW124236   2.855   1.136   1.945
 7779SOL    HW224237   2.748   1.021   1.901
 7780SOL     OW24238   0.834   4.967   5.790
 7780SOL    HW124239   0.743   4.943   5.755
 7780SOL    HW224240   0.869   5.046   5.739
 7781SOL     OW24241   2.172   4.280   1.604
 7781SOL    HW124242   2.196   4.338   1.682
 7781SOL    HW224243   2.084   4.310   1.566
 7782SOL     OW24244   4.924   5.139   4.271
 7782SOL    HW124245   4.865   5.157   4.349
 7782SOL    HW224246   4.873   5.152   4.186
 7783SOL     OW24247   0.989   0.016   5.726
 7783SOL    HW124248   0.956   0.016   5.632
 7783SOL    HW224249   1.076   6.991   5.731
 7784SOL     OW24250   3.640   2.561   1.387
 7784SOL    HW124251   3.693   2.475   1.388
 7784SOL    HW224252   3.628   2.594   1.481
 7785SOL     OW24253   2.121   6.061   4.181
 7785SOL    HW124254   2.212   6.072   4.221
 7785SOL    HW224255   2.062   6.012   4.246
 7786SOL     OW24256   3.569   7.022   0.445
 7786SOL    HW124257   3.586   6.945   0.506
 7786SOL    HW224258   3.471   0.018   0.442
 7787SOL     OW24259   2.379   3.087   0.011
 7787SOL    HW124260   2.283   3.105   0.034
 7787SOL    HW224261   2.435   3.166   0.038
 7788SOL     OW24262   1.936   5.021   1.605
 7788SOL    HW124263   1.905   5.047   1.513
 7788SOL    HW224264   1.916   4.925   1.621
 7789SOL     OW24265   3.114   6.991   6.290
 7789SOL    HW124266   3.087   6.903   6.329
 7789SOL    HW224267   3.046   7.020   6.223
 7790SOL     OW24268   5.193   5.737   2.868
 7790SOL    HW124269   5.252   5.752   2.947
 7790SOL    HW224270   5.122   5.808   2.866
 7791SOL     OW24271   2.015   5.014   2.320
 7791SOL    HW124272   1.983   5.027   2.414
 7791SOL    HW224273   2.087   5.081   2.300
 7792SOL     OW24274   1.340   5.924   4.046
 7792SOL    HW124275   1.396   5.986   3.991
 7792SOL    HW224276   1.283   5.868   3.985
 7793SOL     OW24277   3.771   0.477   0.203
 7793SOL    HW124278   3.782   0.567   0.161
 7793SOL    HW224279   3.710   0.485   0.282
 7794SOL     OW24280   0.240   4.185   1.945
 7794SOL    HW124281   0.280   4.120   1.881
 7794SOL    HW224282   0.156   4.147   1.983
 7795SOL     OW24283   2.662   5.058   5.300
 7795SOL    HW124284   2.713   5.003   5.233
 7795SOL    HW224285   2.605   5.124   5.252
 7796SOL     OW24286   3.532   2.739   5.398
 7796SOL    HW124287   3.519   2.783   5.487
 7796SOL    HW224288   3.627   2.709   5.390
 7797SOL     OW24289   0.865   6.745   1.296
 7797SOL    HW124290   0.831   6.827   1.249
 7797SOL    HW224291   0.942   6.707   1.244
 7798SOL     OW24292   0.921   2.585   3.119
 7798SOL    HW124293   0.997   2.559   3.059
 7798SOL    HW224294   0.874   2.664   3.081
 7799SOL     OW24295   1.768   5.285   2.226
 7799SOL    HW124296   1.715   5.318   2.148
 7799SOL    HW224297   1.735   5.328   2.310
 7800SOL     OW24298   1.191   5.311   3.143
 7800SOL    HW124299   1.173   5.229   3.088
 7800SOL    HW224300   1.289   5.319   3.160
 7801SOL     OW24301   1.671   1.432   2.453
 7801SOL    HW124302   1.728   1.443   2.372
 7801SOL    HW224303   1.686   1.341   2.492
 7802SOL     OW24304   6.332   3.008   0.446
 7802SOL    HW124305   6.254   2.947   0.437
 7802SOL    HW224306   6.357   3.017   0.542
 7803SOL     OW24307   4.374   2.221   0.054
 7803SOL    HW124308   4.280   2.231   0.088
 7803SOL    HW224309   4.437   2.219   0.132
 7804SOL     OW24310   4.607   2.159   4.884
 7804SOL    HW124311   4.642   2.149   4.791
 7804SOL    HW224312   4.635   2.248   4.920
 7805SOL     OW24313   5.183   3.357   2.174
 7805SOL    HW124314   5.205   3.451   2.150
 7805SOL    HW224315   5.253   3.296   2.138
 7806SOL     OW24316   5.424   1.354   6.122
 7806SOL    HW124317   5.475   1.387   6.044
 7806SOL    HW224318   5.355   1.288   6.091
 7807SOL     OW24319   0.846   4.791   5.511
 7807SOL    HW124320   0.817   4.720   5.576
 7807SOL    HW224321   0.766   4.833   5.469
 7808SOL     OW24322   5.965   3.275   3.491
 7808SOL    HW124323   6.064   3.270   3.481
 7808SOL    HW224324   5.924   3.186   3.469
 7809SOL     OW24325   5.111   5.082   5.335
 7809SOL    HW124326   5.027   5.134   5.350
 7809SOL    HW224327   5.188   5.129   5.379
 7810SOL     OW24328   2.907   6.619   5.217
 7810SOL    HW124329   2.829   6.677   5.243
 7810SOL    HW224330   2.916   6.544   5.282
 7811SOL     OW24331   1.448   5.239   1.521
 7811SOL    HW124332   1.408   5.298   1.450
 7811SOL    HW224333   1.545   5.261   1.532
 7812SOL     OW24334   1.654   2.600   3.961
 7812SOL    HW124335   1.648   2.692   4.000
 7812SOL    HW224336   1.562   2.568   3.936
 7813SOL     OW24337   4.183   2.049   1.168
 7813SOL    HW124338   4.189   2.008   1.077
 7813SOL    HW224339   4.258   2.015   1.225
 7814SOL     OW24340   6.863   3.104   3.363
 7814SOL    HW124341   6.777   3.118   3.412
 7814SOL    HW224342   6.938   3.145   3.416
 7815SOL     OW24343   5.843   2.170   4.012
 7815SOL    HW124344   5.818   2.231   3.937
 7815SOL    HW224345   5.811   2.078   3.993
 7816SOL     OW24346   0.575   2.287   6.692
 7816SOL    HW124347   0.660   2.247   6.658
 7816SOL    HW224348   0.553   2.370   6.641
 7817SOL     OW24349   4.810   4.548   4.747
 7817SOL    HW124350   4.841   4.526   4.655
 7817SOL    HW224351   4.711   4.533   4.754
 7818SOL     OW24352   4.965   0.998   2.748
 7818SOL    HW124353   4.982   0.923   2.683
 7818SOL    HW224354   5.041   1.004   2.813
 7819SOL     OW24355   0.201   3.803   3.600
 7819SOL    HW124356   0.189   3.894   3.559
 7819SOL    HW224357   0.124   3.784   3.660
 7820SOL     OW24358   1.449   0.989   5.543
 7820SOL    HW124359   1.543   1.021   5.536
 7820SOL    HW224360   1.428   0.931   5.464
 7821SOL     OW24361   5.715   6.151   0.877
 7821SOL    HW124362   5.791   6.091   0.853
 7821SOL    HW224363   5.724   6.238   0.828
 7822SOL     OW24364   1.238   1.408   6.862
 7822SOL    HW124365   1.171   1.339   6.836
 7822SOL    HW224366   1.275   1.450   6.780
 7823SOL     OW24367   2.522   3.682   6.116
 7823SOL    HW124368   2.446   3.716   6.060
 7823SOL    HW224369   2.603   3.670   6.059
 7824SOL     OW24370   6.068   0.744   4.325
 7824SOL    HW124371   5.976   0.766   4.356
 7824SOL    HW224372   6.067   0.654   4.281
 7825SOL     OW24373   0.908   3.603   0.899
 7825SOL    HW124374   0.997   3.648   0.893
 7825SOL    HW224375   0.894   3.546   0.818
 7826SOL     OW24376   5.566   1.983   6.542
 7826SOL    HW124377   5.539   1.943   6.629
 7826SOL    HW224378   5.512   2.066   6.525
 7827SOL     OW24379   2.573   4.563   0.747
 7827SOL    HW124380   2.657   4.529   0.789
 7827SOL    HW224381   2.562   4.524   0.656
 7828SOL     OW24382   0.672   5.182   1.174
 7828SOL    HW124383   0.738   5.256   1.183
 7828SOL    HW224384   0.711   5.098   1.214
 7829SOL     OW24385   1.866   3.129   0.492
 7829SOL    HW124386   1.807   3.154   0.569
 7829SOL    HW224387   1.962   3.128   0.522
 7830SOL     OW24388   4.432   3.685   6.365
 7830SOL    HW124389   4.350   3.631   6.347
 7830SOL    HW224390   4.458   3.735   6.282
 7831SOL     OW24391   1.229   5.576   0.922
 7831SOL    HW124392   1.273   5.645   0.979
 7831SOL    HW224393   1.253   5.484   0.955
 7832SOL     OW24394   3.307   1.337   4.139
 7832SOL    HW124395   3.402   1.317   4.165
 7832SOL    HW224396   3.274   1.265   4.078
 7833SOL     OW24397   0.501   0.673   6.930
 7833SOL    HW124398   0.423   0.663   6.867
 7833SOL    HW224399   0.468   0.669   0.000
 7834SOL     OW24400   0.382   1.475   3.590
 7834SOL    HW124401   0.408   1.426   3.507
 7834SOL    HW224402   0.439   1.444   3.666
 7835SOL     OW24403   2.378   2.568   4.856
 7835SOL    HW124404   2.430   2.535   4.935
 7835SOL    HW224405   2.326   2.649   4.882
 7836SOL     OW24406   3.823   2.656   5.503
 7836SOL    HW124407   3.916   2.680   5.475
 7836SOL    HW224408   3.789   2.581   5.446
 7837SOL     OW24409   6.663   6.089   1.746
 7837SOL    HW124410   6.587   6.153   1.748
 7837SOL    HW224411   6.735   6.123   1.685
 7838SOL     OW24412   4.186   6.195   0.507
 7838SOL    HW124413   4.217   6.281   0.466
 7838SOL    HW224414   4.174   6.127   0.436
 7839SOL     OW24415   6.032   4.782   5.202
 7839SOL    HW124416   6.107   4.717   5.210
 7839SOL    HW224417   6.067   4.875   5.217
 7840SOL     OW24418   4.900   3.138   4.351
 7840SOL    HW124419   4.905   3.174   4.444
 7840SOL    HW224420   4.886   3.214   4.287
 7841SOL     OW24421   5.648   1.521   6.642
 7841SOL    HW124422   5.610   1.431   6.619
 7841SOL    HW224423   5.724   1.509   6.706
 7842SOL     OW24424   2.305   1.355   3.071
 7842SOL    HW124425   2.274   1.415   3.145
 7842SOL    HW224426   2.252   1.375   2.988
 7843SOL     OW24427   5.083   4.587   2.148
 7843SOL    HW124428   5.064   4.666   2.207
 7843SOL    HW224429   5.181   4.580   2.132
 7844SOL     OW24430   4.178   0.857   4.062
 7844SOL    HW124431   4.267   0.903   4.057
 7844SOL    HW224432   4.112   0.919   4.105
 7845SOL     OW24433   6.250   1.403   3.826
 7845SOL    HW124434   6.336   1.414   3.875
 7845SOL    HW224435   6.175   1.394   3.892
 7846SOL     OW24436   1.888   0.603   1.624
 7846SOL    HW124437   1.840   0.689   1.642
 7846SOL    HW224438   1.974   0.622   1.578
 7847SOL     OW24439   6.368   2.013   1.896
 7847SOL    HW124440   6.336   1.998   1.803
 7847SOL    HW224441   6.453   1.962   1.911
 7848SOL     OW24442   2.886   3.511   1.274
 7848SOL    HW124443   2.927   3.477   1.360
 7848SOL    HW224444   2.860   3.434   1.217
 7849SOL     OW24445   5.462   3.955   3.557
 7849SOL    HW124446   5.505   4.042   3.578
 7849SOL    HW224447   5.482   3.929   3.463
 7850SOL     OW24448   0.042   1.761   4.080
 7850SOL    HW124449   0.066   1.744   4.176
 7850SOL    HW224450   0.095   1.699   4.022
 7851SOL     OW24451   6.840   6.968   0.667
 7851SOL    HW124452   6.837   6.868   0.661
 7851SOL    HW224453   6.785   7.008   0.594
 7852SOL     OW24454   2.809   0.047   5.333
 7852SOL    HW124455   2.853   0.126   5.290
 7852SOL    HW224456   2.817   6.992   5.273
 7853SOL     OW24457   4.002   1.641   1.856
 7853SOL    HW124458   4.057   1.640   1.940
 7853SOL    HW224459   4.040   1.574   1.791
 7854SOL     OW24460   3.383   3.386   0.640
 7854SOL    HW124461   3.289   3.369   0.669
 7854SOL    HW224462   3.395   3.352   0.547
 7855SOL     OW24463   2.827   5.883   5.696
 7855SOL    HW124464   2.826   5.794   5.741
 7855SOL    HW224465   2.880   5.876   5.611
 7856SOL     OW24466   5.666   5.120   4.056
 7856SOL    HW124467   5.581   5.098   4.008
 7856SOL    HW224468   5.739   5.133   3.989
 7857SOL     OW24469   5.870   2.600   5.279
 7857SOL    HW124470   5.845   2.547   5.198
 7857SOL    HW224471   5.946   2.661   5.257
 7858SOL     OW24472   4.293   5.541   3.840
 7858SOL    HW124473   4.392   5.532   3.840
 7858SOL    HW224474   4.267   5.627   3.884
 7859SOL     OW24475   6.299   4.170   5.736
 7859SOL    HW124476   6.361   4.120   5.796
 7859SOL    HW224477   6.219   4.113   5.715
 7860SOL     OW24478   4.539   0.654   2.917
 7860SOL    HW124479   4.446   0.681   2.892
 7860SOL    HW224480   4.604   0.699   2.855
 7861SOL     OW24481   3.838   5.335   1.820
 7861SOL    HW124482   3.757   5.387   1.846
 7861SOL    HW224483   3.865   5.360   1.727
 7862SOL     OW24484   2.991   4.774   1.689
 7862SOL    HW124485   3.012   4.676   1.697
 7862SOL    HW224486   2.958   4.793   1.597
 7863SOL     OW24487   6.502   6.238   3.993
 7863SOL    HW124488   6.491   6.331   4.029
 7863SOL    HW224489   6.499   6.173   4.068
 7864SOL     OW24490   0.174   6.504   5.361
 7864SOL    HW124491   0.215   6.448   5.433
 7864SOL    HW224492   0.241   6.571   5.329
 7865SOL     OW24493   4.497   6.762   4.371
 7865SOL    HW124494   4.473   6.716   4.457
 7865SOL    HW224495   4.470   6.705   4.294
 7866SOL     OW24496   2.611   1.639   6.678
 7866SOL    HW124497   2.527   1.621   6.728
 7866SOL    HW224498   2.589   1.680   6.589
 7867SOL     OW24499   4.965   6.563   2.753
 7867SOL    HW124500   4.914   6.498   2.697
 7867SOL    HW224501   4.940   6.656   2.728
 7868SOL     OW24502   5.557   6.823   2.155
 7868SOL    HW124503   5.506   6.835   2.070
 7868SOL    HW224504   5.647   6.866   2.147
 7869SOL     OW24505   5.753   3.372   0.332
 7869SOL    HW124506   5.777   3.460   0.290
 7869SOL    HW224507   5.772   3.298   0.268
 7870SOL     OW24508   5.060   5.424   4.603
 7870SOL    HW124509   5.003   5.454   4.679
 7870SOL    HW224510   5.021   5.343   4.561
 7871SOL     OW24511   5.374   3.893   2.608
 7871SOL    HW124512   5.452   3.882   2.546
 7871SOL    HW224513   5.398   3.857   2.698
 7872SOL     OW24514   2.082   4.378   2.644
 7872SOL    HW124515   2.035   4.464   2.662
 7872SOL    HW224516   2.120   4.342   2.729
 7873SOL     OW24517   5.451   0.729   5.505
 7873SOL    HW124518   5.548   0.711   5.524
 7873SOL    HW224519   5.432   0.826   5.516
 7874SOL     OW24520   4.939   1.544   0.441
 7874SOL    HW124521   4.906   1.517   0.350
 7874SOL    HW224522   4.862   1.570   0.498
 7875SOL     OW24523   4.504   2.468   6.777
 7875SOL    HW124524   4.544   2.377   6.788
 7875SOL    HW224525   4.425   2.478   6.838
 7876SOL     OW24526   6.702   0.211   4.964
 7876SOL    HW124527   6.644   0.185   5.041
 7876SOL    HW224528   6.685   0.306   4.941
 7877SOL     OW24529   0.005   2.906   2.462
 7877SOL    HW124530   6.972   2.825   2.473
 7877SOL    HW224531   0.003   2.935   2.366
 7878SOL     OW24532   4.229   4.899   4.240
 7878SOL    HW124533   4.289   4.894   4.320
 7878SOL    HW224534   4.227   4.810   4.194
 7879SOL     OW24535   4.905   5.648   3.659
 7879SOL    HW124536   4.870   5.696   3.740
 7879SOL    HW224537   4.971   5.579   3.688
 7880SOL     OW24538   1.021   5.335   0.841
 7880SOL    HW124539   0.978   5.425   0.844
 7880SOL    HW224540   1.085   5.331   0.765
 7881SOL     OW24541   5.604   3.497   4.509
 7881SOL    HW124542   5.640   3.578   4.555
 7881SOL    HW224543   5.592   3.516   4.412
 7882SOL     OW24544   1.631   3.029   3.074
 7882SOL    HW124545   1.714   2.983   3.045
 7882SOL    HW224546   1.551   2.982   3.037
 7883SOL     OW24547   1.712   6.979   1.398
 7883SOL    HW124548   1.713   0.053   1.419
 7883SOL    HW224549   1.689   6.927   1.480
 7884SOL     OW24550   1.879   3.842   3.723
 7884SOL    HW124551   1.952   3.892   3.676
 7884SOL    HW224552   1.911   3.750   3.747
 7885SOL     OW24553   6.157   6.642   1.871
 7885SOL    HW124554   6.242   6.596   1.899
 7885SOL    HW224555   6.091   6.639   1.947
 7886SOL     OW24556   4.174   4.525   1.091
 7886SOL    HW124557   4.186   4.465   1.012
 7886SOL    HW224558   4.105   4.487   1.152
 7887SOL     OW24559   3.370   2.540   5.481
 7887SOL    HW124560   3.423   2.611   5.436
 7887SOL    HW224561   3.375   2.455   5.427
 7888SOL     OW24562   0.214   0.638   5.170
 7888SOL    HW124563   0.147   0.672   5.236
 7888SOL    HW224564   0.305   0.669   5.196
 7889SOL     OW24565   0.768   4.803   6.842
 7889SOL    HW124566   0.722   4.790   6.930
 7889SOL    HW224567   0.845   4.740   6.835
 7890SOL     OW24568   0.607   3.426   4.102
 7890SOL    HW124569   0.513   3.399   4.124
 7890SOL    HW224570   0.653   3.349   4.057
 7891SOL     OW24571   1.725   3.947   4.771
 7891SOL    HW124572   1.772   4.024   4.815
 7891SOL    HW224573   1.733   3.866   4.829
 7892SOL     OW24574   1.696   2.174   4.067
 7892SOL    HW124575   1.741   2.209   3.985
 7892SOL    HW224576   1.722   2.230   4.146
 7893SOL     OW24577   6.160   0.123   1.941
 7893SOL    HW124578   6.103   0.042   1.948
 7893SOL    HW224579   6.174   0.147   1.845
 7894SOL     OW24580   3.066   0.899   1.707
 7894SOL    HW124581   3.046   0.950   1.791
 7894SOL    HW224582   2.984   0.852   1.676
 7895SOL     OW24583   4.889   0.016   5.143
 7895SOL    HW124584   4.963   0.063   5.095
 7895SOL    HW224585   4.912   6.942   5.151
 7896SOL     OW24586   5.357   3.040   1.199
 7896SOL    HW124587   5.303   3.055   1.117
 7896SOL    HW224588   5.308   2.979   1.261
 7897SOL     OW24589   3.665   2.713   1.163
 7897SOL    HW124590   3.639   2.805   1.191
 7897SOL    HW224591   3.650   2.650   1.239
 7898SOL     OW24592   3.638   0.260   3.733
 7898SOL    HW124593   3.643   0.357   3.757
 7898SOL    HW224594   3.642   0.205   3.817
 7899SOL     OW24595   5.850   6.572   1.549
 7899SOL    HW124596   5.827   6.579   1.646
 7899SOL    HW224597   5.767   6.581   1.494
 7900SOL     OW24598   0.936   5.413   1.483
 7900SOL    HW124599   1.034   5.429   1.483
 7900SOL    HW224600   0.918   5.315   1.484
 7901SOL     OW24601   5.002   0.950   6.608
 7901SOL    HW124602   5.077   0.906   6.558
 7901SOL    HW224603   4.977   0.892   6.686
 7902SOL     OW24604   5.804   5.901   2.760
 7902SOL    HW124605   5.777   5.822   2.706
 7902SOL    HW224606   5.874   5.874   2.826
 7903SOL     OW24607   4.723   1.953   2.606
 7903SOL    HW124608   4.653   1.887   2.630
 7903SOL    HW224609   4.805   1.906   2.573
 7904SOL     OW24610   5.519   0.026   2.910
 7904SOL    HW124611   5.597   6.988   2.920
 7904SOL    HW224612   5.435   7.001   2.933
 7905SOL     OW24613   5.354   2.366   0.510
 7905SOL    HW124614   5.385   2.331   0.599
 7905SOL    HW224615   5.404   2.450   0.488
 7906SOL     OW24616   0.415   5.740   0.720
 7906SOL    HW124617   0.381   5.669   0.659
 7906SOL    HW224618   0.381   5.829   0.690
 7907SOL     OW24619   6.393   1.970   3.456
 7907SOL    HW124620   6.296   1.985   3.476
 7907SOL    HW224621   6.403   1.889   3.398
 7908SOL     OW24622   0.867   1.487   6.123
 7908SOL    HW124623   0.915   1.539   6.052
 7908SOL    HW224624   0.814   1.550   6.181
 7909SOL     OW24625   4.739   4.286   4.006
 7909SOL    HW124626   4.689   4.326   3.930
 7909SOL    HW224627   4.801   4.354   4.045
 7910SOL     OW24628   2.062   3.540   0.268
 7910SOL    HW124629   2.138   3.522   0.206
 7910SOL    HW224630   2.041   3.638   0.268
 7911SOL     OW24631   0.900   4.897   0.753
 7911SOL    HW124632   0.888   4.980   0.807
 7911SOL    HW224633   0.811   4.857   0.733
 7912SOL     OW24634   6.045   4.866   1.041
 7912SOL    HW124635   6.019   4.794   0.976
 7912SOL    HW224636   6.125   4.914   1.006
 7913SOL     OW24637   1.647   3.907   2.014
 7913SOL    HW124638   1.604   3.818   2.001
 7913SOL    HW224639   1.698   3.932   1.932
 7914SOL     OW24640   0.060   4.737   0.869
 7914SOL    HW124641   0.135   4.803   0.876
 7914SOL    HW224642   0.021   4.721   0.959
 7915SOL     OW24643   5.102   2.134   2.512
 7915SOL    HW124644   5.196   2.129   2.546
 7915SOL    HW224645   5.052   2.205   2.561
 7916SOL     OW24646   0.189   6.260   5.695
 7916SOL    HW124647   0.143   6.329   5.750
 7916SOL    HW224648   0.257   6.304   5.637
 7917SOL     OW24649   4.093   3.237   5.738
 7917SOL    HW124650   4.060   3.331   5.737
 7917SOL    HW224651   4.191   3.235   5.759
 7918SOL     OW24652   6.483   1.221   4.306
 7918SOL    HW124653   6.397   1.192   4.347
 7918SOL    HW224654   6.537   1.141   4.280
 7919SOL     OW24655   1.580   4.925   3.090
 7919SOL    HW124656   1.643   4.903   3.165
 7919SOL    HW224657   1.522   5.001   3.118
 7920SOL     OW24658   6.428   6.856   0.883
 7920SOL    HW124659   6.410   6.888   0.976
 7920SOL    HW224660   6.525   6.837   0.872
 7921SOL     OW24661   5.607   5.845   2.418
 7921SOL    HW124662   5.529   5.906   2.404
 7921SOL    HW224663   5.646   5.818   2.330
 7922SOL     OW24664   0.470   6.417   0.063
 7922SOL    HW124665   0.377   6.401   0.031
 7922SOL    HW224666   0.478   6.510   0.099
 7923SOL     OW24667   3.908   0.963   6.562
 7923SOL    HW124668   3.819   0.920   6.577
 7923SOL    HW224669   3.960   0.911   6.495
 7924SOL     OW24670   4.704   0.304   1.518
 7924SOL    HW124671   4.660   0.388   1.549
 7924SOL    HW224672   4.656   0.225   1.556
 7925SOL     OW24673   0.881   0.247   0.270
 7925SOL    HW124674   0.934   0.323   0.231
 7925SOL    HW224675   0.829   0.203   0.197
 7926SOL     OW24676   5.134   1.939   5.867
 7926SOL    HW124677   5.169   1.850   5.841
 7926SOL    HW224678   5.038   1.931   5.894
 7927SOL     OW24679   4.722   6.611   2.640
 7927SOL    HW124680   4.735   6.674   2.564
 7927SOL    HW224681   4.744   6.518   2.611
 7928SOL     OW24682   1.228   1.968   3.845
 7928SOL    HW124683   1.307   2.022   3.876
 7928SOL    HW224684   1.230   1.879   3.890
 7929SOL     OW24685   4.051   3.575   5.952
 7929SOL    HW124686   4.148   3.594   5.938
 7929SOL    HW224687   4.008   3.553   5.864
 7930SOL     OW24688   4.532   5.107   6.181
 7930SOL    HW124689   4.616   5.077   6.135
 7930SOL    HW224690   4.520   5.054   6.265
 7931SOL     OW24691   3.272   3.633   0.380
 7931SOL    HW124692   3.204   3.635   0.453
 7931SOL    HW224693   3.290   3.726   0.348
 7932SOL     OW24694   1.546   6.120   6.612
 7932SOL    HW124695   1.585   6.028   6.624
 7932SOL    HW224696   1.575   6.158   6.524
 7933SOL     OW24697   6.585   0.628   6.288
 7933SOL    HW124698   6.500   0.674   6.263
 7933SOL    HW224699   6.658   0.659   6.228
 7934SOL     OW24700   1.535   5.489   6.715
 7934SOL    HW124701   1.508   5.463   6.807
 7934SOL    HW224702   1.526   5.410   6.654
 7935SOL     OW24703   6.220   6.579   1.241
 7935SOL    HW124704   6.122   6.564   1.255
 7935SOL    HW224705   6.250   6.529   1.161
 7936SOL     OW24706   3.030   5.985   2.578
 7936SOL    HW124707   2.952   6.040   2.547
 7936SOL    HW224708   3.059   6.018   2.668
 7937SOL     OW24709   6.935   5.605   3.921
 7937SOL    HW124710   6.907   5.535   3.987
 7937SOL    HW224711   7.008   5.569   3.863
 7938SOL     OW24712   6.549   6.461   4.514
 7938SOL    HW124713   6.619   6.395   4.544
 7938SOL    HW224714   6.474   6.461   4.580
 7939SOL     OW24715   1.555   2.029   5.778
 7939SOL    HW124716   1.566   1.963   5.704
 7939SOL    HW224717   1.642   2.077   5.792
 7940SOL     OW24718   2.363   2.426   2.366
 7940SOL    HW124719   2.331   2.476   2.446
 7940SOL    HW224720   2.355   2.484   2.285
 7941SOL     OW24721   5.807   6.176   2.030
 7941SOL    HW124722   5.841   6.263   1.995
 7941SOL    HW224723   5.870   6.103   2.003
 7942SOL     OW24724   0.340   4.363   2.779
 7942SOL    HW124725   0.282   4.311   2.716
 7942SOL    HW224726   0.380   4.441   2.731
 7943SOL     OW24727   0.670   4.374   6.099
 7943SOL    HW124728   0.639   4.469   6.107
 7943SOL    HW224729   0.751   4.371   6.041
 7944SOL     OW24730   0.724   2.480   0.539
 7944SOL    HW124731   0.755   2.575   0.533
 7944SOL    HW224732   0.722   2.440   0.447
 7945SOL     OW24733   6.448   5.668   1.618
 7945SOL    HW124734   6.423   5.758   1.654
 7945SOL    HW224735   6.392   5.648   1.538
 7946SOL     OW24736   3.473   0.465   5.344
 7946SOL    HW124737   3.415   0.546   5.357
 7946SOL    HW224738   3.452   0.398   5.415
 7947SOL     OW24739   2.861   1.532   5.362
 7947SOL    HW124740   2.917   1.471   5.306
 7947SOL    HW224741   2.827   1.608   5.305
 7948SOL     OW24742   1.165   5.997   0.957
 7948SOL    HW124743   1.090   6.058   0.981
 7948SOL    HW224744   1.176   5.928   1.029
 7949SOL     OW24745   4.903   4.018   5.886
 7949SOL    HW124746   4.953   3.955   5.944
 7949SOL    HW224747   4.872   3.971   5.803
 7950SOL     OW24748   4.835   5.680   4.505
 7950SOL    HW124749   4.868   5.692   4.599
 7950SOL    HW224750   4.879   5.748   4.446
 7951SOL     OW24751   2.023   4.693   2.311
 7951SOL    HW124752   1.947   4.631   2.326
 7951SOL    HW224753   2.066   4.716   2.399
 7952SOL     OW24754   0.010   3.210   6.752
 7952SOL    HW124755   0.060   3.175   6.673
 7952SOL    HW224756   0.057   3.292   6.788
 7953SOL     OW24757   3.741   2.090   2.748
 7953SOL    HW124758   3.671   2.093   2.677
 7953SOL    HW224759   3.698   2.093   2.838
 7954SOL     OW24760   2.827   4.279   6.057
 7954SOL    HW124761   2.868   4.353   6.110
 7954SOL    HW224762   2.900   4.218   6.024
 7955SOL     OW24763   2.219   0.934   6.392
 7955SOL    HW124764   2.189   1.025   6.362
 7955SOL    HW224765   2.207   0.869   6.317
 7956SOL     OW24766   4.970   0.278   1.781
 7956SOL    HW124767   5.004   0.372   1.782
 7956SOL    HW224768   4.901   0.266   1.852
 7957SOL     OW24769   1.653   0.581   0.562
 7957SOL    HW124770   1.631   0.633   0.480
 7957SOL    HW224771   1.608   0.492   0.559
 7958SOL     OW24772   4.289   4.927   6.412
 7958SOL    HW124773   4.289   5.023   6.382
 7958SOL    HW224774   4.224   4.875   6.357
 7959SOL     OW24775   5.282   6.505   1.174
 7959SOL    HW124776   5.223   6.566   1.228
 7959SOL    HW224777   5.368   6.552   1.154
 7960SOL     OW24778   1.995   0.601   5.809
 7960SOL    HW124779   1.958   0.679   5.759
 7960SOL    HW224780   1.960   0.602   5.903
 7961SOL     OW24781   0.057   0.916   0.703
 7961SOL    HW124782   0.076   0.839   0.643
 7961SOL    HW224783   7.002   0.894   0.761
 7962SOL     OW24784   1.253   1.340   5.320
 7962SOL    HW124785   1.178   1.292   5.366
 7962SOL    HW224786   1.313   1.274   5.276
 7963SOL     OW24787   5.559   6.216   4.514
 7963SOL    HW124788   5.629   6.254   4.574
 7963SOL    HW224789   5.480   6.187   4.568
 7964SOL     OW24790   0.106   4.109   2.845
 7964SOL    HW124791   0.037   4.121   2.916
 7964SOL    HW224792   0.112   4.192   2.789
 7965SOL     OW24793   4.329   2.379   6.010
 7965SOL    HW124794   4.390   2.405   6.085
 7965SOL    HW224795   4.329   2.451   5.940
 7966SOL     OW24796   3.068   2.744   5.630
 7966SOL    HW124797   2.976   2.743   5.668
 7966SOL    HW224798   3.117   2.661   5.658
 7967SOL     OW24799   3.483   6.248   2.034
 7967SOL    HW124800   3.564   6.235   2.091
 7967SOL    HW224801   3.510   6.276   1.942
 7968SOL     OW24802   0.009   2.216   4.021
 7968SOL    HW124803   0.020   2.117   4.029
 7968SOL    HW224804   0.047   2.260   4.102
 7969SOL     OW24805   5.415   5.773   0.866
 7969SOL    HW124806   5.465   5.769   0.779
 7969SOL    HW224807   5.317   5.775   0.848
 7970SOL     OW24808   6.447   2.739   2.126
 7970SOL    HW124809   6.366   2.780   2.082
 7970SOL    HW224810   6.512   2.811   2.149
 7971SOL     OW24811   3.463   1.682   1.266
 7971SOL    HW124812   3.429   1.715   1.354
 7971SOL    HW224813   3.397   1.619   1.225
 7972SOL     OW24814   2.437   3.042   0.596
 7972SOL    HW124815   2.443   2.959   0.651
 7972SOL    HW224816   2.479   3.027   0.507
 7973SOL     OW24817   4.146   4.773   4.589
 7973SOL    HW124818   4.211   4.771   4.665
 7973SOL    HW224819   4.068   4.830   4.614
 7974SOL     OW24820   5.825   1.011   5.261
 7974SOL    HW124821   5.876   0.927   5.242
 7974SOL    HW224822   5.878   1.070   5.322
 7975SOL     OW24823   6.521   0.789   1.502
 7975SOL    HW124824   6.444   0.806   1.565
 7975SOL    HW224825   6.584   0.867   1.505
 7976SOL     OW24826   1.327   0.243   5.857
 7976SOL    HW124827   1.265   0.308   5.900
 7976SOL    HW224828   1.309   0.239   5.759
 7977SOL     OW24829   4.586   5.812   3.119
 7977SOL    HW124830   4.574   5.724   3.163
 7977SOL    HW224831   4.536   5.883   3.169
 7978SOL     OW24832   6.366   1.991   6.094
 7978SOL    HW124833   6.348   1.987   6.192
 7978SOL    HW224834   6.430   2.065   6.075
 7979SOL     OW24835   3.732   4.996   5.668
 7979SOL    HW124836   3.662   5.034   5.729
 7979SOL    HW224837   3.807   5.062   5.659
 7980SOL     OW24838   3.333   5.658   6.698
 7980SOL    HW124839   3.433   5.662   6.706
 7980SOL    HW224840   3.308   5.649   6.601
 7981SOL     OW24841   0.951   5.148   1.470
 7981SOL    HW124842   1.036   5.097   1.453
 7981SOL    HW224843   0.883   5.124   1.401
 7982SOL     OW24844   1.399   0.965   0.300
 7982SOL    HW124845   1.421   0.957   0.397
 7982SOL    HW224846   1.483   0.975   0.247
 7983SOL     OW24847   5.913   2.509   0.627
 7983SOL    HW124848   5.928   2.605   0.604
 7983SOL    HW224849   5.912   2.499   0.727
 7984SOL     OW24850   1.305   1.146   0.801
 7984SOL    HW124851   1.351   1.166   0.888
 7984SOL    HW224852   1.321   1.050   0.776
 7985SOL     OW24853   2.774   1.471   4.490
 7985SOL    HW124854   2.804   1.567   4.495
 7985SOL    HW224855   2.822   1.417   4.559
 7986SOL     OW24856   2.213   0.794   6.146
 7986SOL    HW124857   2.254   0.706   6.169
 7986SOL    HW224858   2.268   0.840   6.077
 7987SOL     OW24859   1.932   2.630   0.053
 7987SOL    HW124860   1.925   2.729   0.065
 7987SOL    HW224861   2.029   2.604   0.044
 7988SOL     OW24862   0.861   1.842   2.983
 7988SOL    HW124863   0.838   1.897   2.903
 7988SOL    HW224864   0.916   1.763   2.955
 7989SOL     OW24865   2.543   3.274   0.168
 7989SOL    HW124866   2.499   3.361   0.192
 7989SOL    HW224867   2.636   3.292   0.135
 7990SOL     OW24868   1.511   5.070   4.709
 7990SOL    HW124869   1.567   4.988   4.706
 7990SOL    HW224870   1.425   5.051   4.757
 7991SOL     OW24871   6.227   0.688   3.545
 7991SOL    HW124872   6.178   0.645   3.620
 7991SOL    HW224873   6.163   0.712   3.472
 7992SOL     OW24874   1.268   0.467   0.319
 7992SOL    HW124875   1.264   0.437   0.224
 7992SOL    HW224876   1.282   0.566   0.323
 7993SOL     OW24877   0.196   6.945   0.655
 7993SOL    HW124878   0.161   7.022   0.708
 7993SOL    HW224879   0.212   6.867   0.715
 7994SOL     OW24880   3.821   0.061   3.599
 7994SOL    HW124881   3.749   0.115   3.641
 7994SOL    HW224882   3.806   0.054   3.501
 7995SOL     OW24883   6.144   5.317   3.396
 7995SOL    HW124884   6.118   5.403   3.441
 7995SOL    HW224885   6.209   5.267   3.454
 7996SOL     OW24886   3.108   6.562   4.382
 7996SOL    HW124887   3.029   6.582   4.441
 7996SOL    HW224888   3.170   6.500   4.430
 7997SOL     OW24889   0.107   1.230   0.943
 7997SOL    HW124890   0.176   1.242   1.014
 7997SOL    HW224891   0.140   1.165   0.875
 7998SOL     OW24892   2.568   0.305   0.375
 7998SOL    HW124893   2.528   0.269   0.460
 7998SOL    HW224894   2.586   0.230   0.312
 7999SOL     OW24895   1.075   0.965   6.090
 7999SOL    HW124896   1.166   0.968   6.048
 7999SOL    HW224897   1.037   1.058   6.092
 8000SOL     OW24898   5.082   0.156   6.568
 8000SOL    HW124899   5.044   0.178   6.479
 8000SOL    HW224900   5.055   0.225   6.635
 8001SOL     OW24901   4.289   6.568   1.570
 8001SOL    HW124902   4.191   6.573   1.553
 8001SOL    HW224903   4.324   6.659   1.593
 8002SOL     OW24904   1.939   0.699   6.577
 8002SOL    HW124905   1.865   0.766   6.577
 8002SOL    HW224906   1.970   0.683   6.483
 8003SOL     OW24907   2.775   5.558   2.031
 8003SOL    HW124908   2.741   5.465   2.046
 8003SOL    HW224909   2.820   5.591   2.114
 8004SOL     OW24910   2.109   2.817   3.155
 8004SOL    HW124911   2.145   2.811   3.248
 8004SOL    HW224912   2.130   2.733   3.106
 8005SOL     OW24913   3.176   1.114   3.505
 8005SOL    HW124914   3.194   1.194   3.562
 8005SOL    HW224915   3.255   1.097   3.446
 8006SOL     OW24916   2.212   6.313   5.759
 8006SOL    HW124917   2.161   6.269   5.833
 8006SOL    HW224918   2.176   6.405   5.743
 8007SOL     OW24919   5.958   1.476   5.894
 8007SOL    HW124920   5.987   1.569   5.914
 8007SOL    HW224921   6.028   1.430   5.840
 8008SOL     OW24922   4.254   5.941   6.712
 8008SOL    HW124923   4.178   6.004   6.696
 8008SOL    HW224924   4.271   5.933   6.810
 8009SOL     OW24925   5.548   0.663   1.330
 8009SOL    HW124926   5.598   0.628   1.409
 8009SOL    HW224927   5.490   0.740   1.359
 8010SOL     OW24928   2.224   0.995   5.162
 8010SOL    HW124929   2.144   0.967   5.215
 8010SOL    HW224930   2.219   0.955   5.071
 8011SOL     OW24931   3.022   2.547   0.961
 8011SOL    HW124932   3.090   2.516   1.026
 8011SOL    HW224933   2.944   2.587   1.009
 8012SOL     OW24934   2.244   3.477   0.062
 8012SOL    HW124935   2.229   3.544   7.012
 8012SOL    HW224936   2.205   3.389   0.035
 8013SOL     OW24937   1.472   5.298   3.139
 8013SOL    HW124938   1.470   5.398   3.129
 8013SOL    HW224939   1.468   5.256   3.048
 8014SOL     OW24940   1.215   6.488   4.603
 8014SOL    HW124941   1.271   6.409   4.629
 8014SOL    HW224942   1.200   6.546   4.683
 8015SOL     OW24943   2.639   0.112   6.161
 8015SOL    HW124944   2.634   0.210   6.146
 8015SOL    HW224945   2.603   0.089   6.251
 8016SOL     OW24946   3.866   0.433   5.703
 8016SOL    HW124947   3.942   0.373   5.676
 8016SOL    HW224948   3.799   0.438   5.629
 8017SOL     OW24949   5.560   0.011   0.629
 8017SOL    HW124950   5.590   6.980   0.550
 8017SOL    HW224951   5.585   6.987   0.713
 8018SOL     OW24952   2.951   1.681   6.896
 8018SOL    HW124953   2.952   1.673   6.796
 8018SOL    HW224954   2.990   1.768   6.923
 8019SOL     OW24955   2.563   4.826   1.062
 8019SOL    HW124956   2.557   4.787   1.154
 8019SOL    HW224957   2.515   4.767   0.998
 8020SOL     OW24958   6.247   0.053   6.977
 8020SOL    HW124959   6.264   0.094   6.888
 8020SOL    HW224960   6.174   7.009   6.969
 8021SOL     OW24961   1.248   2.846   0.661
 8021SOL    HW124962   1.275   2.825   0.755
 8021SOL    HW224963   1.289   2.778   0.599
 8022SOL     OW24964   5.788   0.582   2.284
 8022SOL    HW124965   5.786   0.632   2.197
 8022SOL    HW224966   5.873   0.601   2.332
 8023SOL     OW24967   6.277   5.035   3.228
 8023SOL    HW124968   6.209   4.991   3.169
 8023SOL    HW224969   6.337   4.965   3.267
 8024SOL     OW24970   1.263   4.764   5.489
 8024SOL    HW124971   1.184   4.786   5.546
 8024SOL    HW224972   1.336   4.831   5.506
 8025SOL     OW24973   2.117   5.680   0.765
 8025SOL    HW124974   2.048   5.694   0.694
 8025SOL    HW224975   2.096   5.596   0.815
 8026SOL     OW24976   0.073   4.105   0.361
 8026SOL    HW124977   0.007   4.095   0.287
 8026SOL    HW224978   0.039   4.170   0.429
 8027SOL     OW24979   3.974   0.162   5.123
 8027SOL    HW124980   3.891   0.134   5.073
 8027SOL    HW224981   4.046   0.184   5.057
 8028SOL     OW24982   4.110   5.652   5.731
 8028SOL    HW124983   4.044   5.646   5.656
 8028SOL    HW224984   4.195   5.691   5.697
 8029SOL     OW24985   5.722   3.270   1.252
 8029SOL    HW124986   5.808   3.293   1.297
 8029SOL    HW224987   5.740   3.216   1.170
 8030SOL     OW24988   5.048   4.865   0.424
 8030SOL    HW124989   4.989   4.790   0.395
 8030SOL    HW224990   4.998   4.925   0.487
 8031SOL     OW24991   6.223   6.718   2.425
 8031SOL    HW124992   6.197   6.622   2.427
 8031SOL    HW224993   6.261   6.744   2.514
 8032SOL     OW24994   6.521   4.556   1.479
 8032SOL    HW124995   6.616   4.569   1.508
 8032SOL    HW224996   6.518   4.485   1.408
 8033SOL     OW24997   4.408   2.146   6.530
 8033SOL    HW124998   4.352   2.187   6.602
 8033SOL    HW224999   4.491   2.200   6.517
 8034SOL     OW25000   4.481   0.589   4.830
 8034SOL    HW125001   4.553   0.582   4.761
 8034SOL    HW225002   4.395   0.613   4.786
 8035SOL     OW25003   5.527   1.302   2.702
 8035SOL    HW125004   5.549   1.400   2.703
 8035SOL    HW225005   5.497   1.276   2.610
 8036SOL     OW25006   6.533   4.259   3.976
 8036SOL    HW125007   6.559   4.232   3.883
 8036SOL    HW225008   6.437   4.234   3.992
 8037SOL     OW25009   1.989   3.225   6.929
 8037SOL    HW125010   1.909   3.165   6.919
 8037SOL    HW225011   2.038   3.201   7.013
 8038SOL     OW25012   4.582   0.698   2.627
 8038SOL    HW125013   4.525   0.771   2.588
 8038SOL    HW225014   4.574   0.616   2.570
 8039SOL     OW25015   0.475   1.444   5.351
 8039SOL    HW125016   0.568   1.436   5.313
 8039SOL    HW225017   0.417   1.372   5.312
 8040SOL     OW25018   1.523   5.631   0.378
 8040SOL    HW125019   1.577   5.547   0.391
 8040SOL    HW225020   1.470   5.624   0.294
 8041SOL     OW25021   3.187   0.752   3.090
 8041SOL    HW125022   3.117   0.822   3.102
 8041SOL    HW225023   3.172   0.704   3.003
 8042SOL     OW25024   3.821   2.929   4.777
 8042SOL    HW125025   3.892   2.979   4.728
 8042SOL    HW225026   3.829   2.831   4.756
 8043SOL     OW25027   3.335   6.350   1.001
 8043SOL    HW125028   3.416   6.400   0.971
 8043SOL    HW225029   3.316   6.276   0.937
 8044SOL     OW25030   4.730   3.016   0.781
 8044SOL    HW125031   4.656   2.988   0.719
 8044SOL    HW225032   4.696   3.089   0.841
 8045SOL     OW25033   6.413   1.779   2.700
 8045SOL    HW125034   6.510   1.798   2.714
 8045SOL    HW225035   6.377   1.841   2.631
 8046SOL     OW25036   0.934   4.348   1.712
 8046SOL    HW125037   0.866   4.312   1.649
 8046SOL    HW225038   1.007   4.393   1.660
 8047SOL     OW25039   4.265   5.634   6.069
 8047SOL    HW125040   4.311   5.690   5.999
 8047SOL    HW225041   4.230   5.551   6.027
 8048SOL     OW25042   4.055   1.727   0.052
 8048SOL    HW125043   4.043   1.673   6.993
 8048SOL    HW225044   3.988   1.700   0.120
 8049SOL     OW25045   0.827   0.192   6.572
 8049SOL    HW125046   0.831   0.127   6.647
 8049SOL    HW225047   0.752   0.257   6.587
 8050SOL     OW25048   1.888   3.885   3.293
 8050SOL    HW125049   1.819   3.814   3.304
 8050SOL    HW225050   1.959   3.874   3.363
 8051SOL     OW25051   4.538   6.162   4.029
 8051SOL    HW125052   4.478   6.171   4.109
 8051SOL    HW225053   4.633   6.163   4.060
 8052SOL     OW25054   3.152   1.897   1.283
 8052SOL    HW125055   3.092   1.820   1.304
 8052SOL    HW225056   3.224   1.904   1.352
 8053SOL     OW25057   3.581   2.924   4.614
 8053SOL    HW125058   3.492   2.898   4.652
 8053SOL    HW225059   3.645   2.941   4.689
 8054SOL     OW25060   6.763   4.638   5.020
 8054SOL    HW125061   6.699   4.708   5.052
 8054SOL    HW225062   6.773   4.644   4.921
 8055SOL     OW25063   0.191   0.402   5.378
 8055SOL    HW125064   0.142   0.486   5.402
 8055SOL    HW225065   0.259   0.423   5.308
 8056SOL     OW25066   2.641   0.761   4.147
 8056SOL    HW125067   2.588   0.705   4.210
 8056SOL    HW225068   2.625   0.858   4.167
 8057SOL     OW25069   2.715   2.066   3.063
 8057SOL    HW125070   2.759   2.156   3.065
 8057SOL    HW225071   2.753   2.012   2.988
 8058SOL     OW25072   3.458   6.957   3.439
 8058SOL    HW125073   3.548   6.922   3.467
 8058SOL    HW225074   3.397   6.957   3.518
 8059SOL     OW25075   2.602   1.952   4.233
 8059SOL    HW125076   2.531   1.995   4.176
 8059SOL    HW225077   2.582   1.854   4.241
 8060SOL     OW25078   6.644   2.153   6.167
 8060SOL    HW125079   6.616   2.229   6.108
 8060SOL    HW225080   6.714   2.185   6.232
 8061SOL     OW25081   6.946   0.034   2.934
 8061SOL    HW125082   6.887   0.021   2.855
 8061SOL    HW225083   6.944   0.130   2.963
 8062SOL     OW25084   3.310   4.903   4.333
 8062SOL    HW125085   3.232   4.923   4.273
 8062SOL    HW225086   3.280   4.908   4.428
 8063SOL     OW25087   2.257   1.723   2.805
 8063SOL    HW125088   2.344   1.675   2.794
 8063SOL    HW225089   2.245   1.749   2.901
 8064SOL     OW25090   6.731   2.682   0.707
 8064SOL    HW125091   6.726   2.700   0.609
 8064SOL    HW225092   6.702   2.588   0.726
 8065SOL     OW25093   2.401   5.612   3.931
 8065SOL    HW125094   2.452   5.528   3.951
 8065SOL    HW225095   2.362   5.648   4.015
 8066SOL     OW25096   0.545   1.205   5.615
 8066SOL    HW125097   0.639   1.235   5.598
 8066SOL    HW225098   0.486   1.285   5.624
 8067SOL     OW25099   5.250   2.868   2.894
 8067SOL    HW125100   5.220   2.963   2.889
 8067SOL    HW225101   5.275   2.836   2.803
 8068SOL     OW25102   6.959   4.664   1.406
 8068SOL    HW125103   0.030   4.636   1.417
 8068SOL    HW225104   6.954   4.747   1.352
 8069SOL     OW25105   2.327   5.172   0.875
 8069SOL    HW125106   2.288   5.084   0.900
 8069SOL    HW225107   2.399   5.159   0.808
 8070SOL     OW25108   4.098   3.143   0.706
 8070SOL    HW125109   4.155   3.060   0.703
 8070SOL    HW225110   4.078   3.173   0.613
 8071SOL     OW25111   3.515   6.277   5.016
 8071SOL    HW125112   3.419   6.248   5.014
 8071SOL    HW225113   3.554   6.269   4.925
 8072SOL     OW25114   3.807   1.130   0.577
 8072SOL    HW125115   3.855   1.185   0.510
 8072SOL    HW225116   3.815   1.172   0.668
 8073SOL     OW25117   3.031   5.212   4.950
 8073SOL    HW125118   2.995   5.151   5.020
 8073SOL    HW225119   3.125   5.185   4.927
 8074SOL     OW25120   2.812   2.962   0.939
 8074SOL    HW125121   2.834   2.898   0.865
 8074SOL    HW225122   2.829   3.056   0.908
 8075SOL     OW25123   6.407   6.659   0.200
 8075SOL    HW125124   6.409   6.725   0.125
 8075SOL    HW225125   6.440   6.703   0.284
 8076SOL     OW25126   6.043   0.796   5.197
 8076SOL    HW125127   6.095   0.753   5.271
 8076SOL    HW225128   6.037   0.734   5.120
 8077SOL     OW25129   3.383   6.203   2.543
 8077SOL    HW125130   3.383   6.201   2.643
 8077SOL    HW225131   3.477   6.201   2.509
 8078SOL     OW25132   6.730   1.826   0.385
 8078SOL    HW125133   6.755   1.742   0.432
 8078SOL    HW225134   6.770   1.826   0.293
 8079SOL     OW25135   6.437   1.588   3.488
 8079SOL    HW125136   6.360   1.633   3.535
 8079SOL    HW225137   6.450   1.631   3.399
 8080SOL     OW25138   0.772   2.824   2.376
 8080SOL    HW125139   0.815   2.821   2.286
 8080SOL    HW225140   0.704   2.751   2.382
 8081SOL     OW25141   6.172   5.589   5.992
 8081SOL    HW125142   6.202   5.568   6.085
 8081SOL    HW225143   6.171   5.688   5.979
 8082SOL     OW25144   4.165   0.670   2.031
 8082SOL    HW125145   4.251   0.630   2.063
 8082SOL    HW225146   4.099   0.597   2.014
 8083SOL     OW25147   5.115   3.106   2.938
 8083SOL    HW125148   5.083   3.136   2.848
 8083SOL    HW225149   5.039   3.110   3.003
 8084SOL     OW25150   3.935   6.314   0.377
 8084SOL    HW125151   4.016   6.265   0.343
 8084SOL    HW225152   3.855   6.255   0.370
 8085SOL     OW25153   5.969   6.573   2.063
 8085SOL    HW125154   5.883   6.615   2.091
 8085SOL    HW225155   6.010   6.525   2.141
 8086SOL     OW25156   6.769   0.597   2.116
 8086SOL    HW125157   6.688   0.568   2.168
 8086SOL    HW225158   6.755   0.689   2.081
 8087SOL     OW25159   2.114   0.432   0.093
 8087SOL    HW125160   2.101   0.335   0.074
 8087SOL    HW225161   2.161   0.443   0.180
 8088SOL     OW25162   6.403   1.176   1.535
 8088SOL    HW125163   6.434   1.097   1.588
 8088SOL    HW225164   6.425   1.162   1.438
 8089SOL     OW25165   5.819   2.655   0.967
 8089SOL    HW125166   5.881   2.636   1.043
 8089SOL    HW225167   5.776   2.570   0.936
 8090SOL     OW25168   4.149   1.339   6.784
 8090SOL    HW125169   4.148   1.242   6.758
 8090SOL    HW225170   4.101   1.350   6.871
 8091SOL     OW25171   1.853   3.748   4.977
 8091SOL    HW125172   1.834   3.766   5.074
 8091SOL    HW225173   1.947   3.777   4.956
 8092SOL     OW25174   6.032   1.884   5.323
 8092SOL    HW125175   5.960   1.952   5.307
 8092SOL    HW225176   6.002   1.820   5.393
 8093SOL     OW25177   3.423   4.951   2.876
 8093SOL    HW125178   3.465   4.861   2.861
 8093SOL    HW225179   3.379   4.952   2.966
 8094SOL     OW25180   0.507   3.771   4.962
 8094SOL    HW125181   0.582   3.797   4.901
 8094SOL    HW225182   0.436   3.724   4.910
 8095SOL     OW25183   0.119   4.818   4.495
 8095SOL    HW125184   0.207   4.775   4.513
 8095SOL    HW225185   0.047   4.771   4.546
 8096SOL     OW25186   2.073   6.565   3.024
 8096SOL    HW125187   2.133   6.499   2.980
 8096SOL    HW225188   2.016   6.610   2.955
 8097SOL     OW25189   3.864   6.601   4.429
 8097SOL    HW125190   3.964   6.594   4.430
 8097SOL    HW225191   3.836   6.684   4.476
 8098SOL     OW25192   1.909   6.442   3.207
 8098SOL    HW125193   1.858   6.505   3.265
 8098SOL    HW225194   1.979   6.492   3.156
 8099SOL     OW25195   4.002   5.846   5.023
 8099SOL    HW125196   3.935   5.842   4.949
 8099SOL    HW225197   4.075   5.910   4.998
 8100SOL     OW25198   0.370   0.239   6.707
 8100SOL    HW125199   0.320   0.199   6.630
 8100SOL    HW225200   0.315   0.311   6.749
 8101SOL     OW25201   1.858   6.007   2.299
 8101SOL    HW125202   1.929   6.077   2.293
 8101SOL    HW225203   1.848   5.977   2.393
 8102SOL     OW25204   0.803   3.912   3.750
 8102SOL    HW125205   0.753   3.948   3.829
 8102SOL    HW225206   0.816   3.984   3.682
 8103SOL     OW25207   3.013   0.139   1.472
 8103SOL    HW125208   3.074   0.134   1.393
 8103SOL    HW225209   3.065   0.169   1.552
 8104SOL     OW25210   2.225   0.213   5.689
 8104SOL    HW125211   2.132   0.250   5.677
 8104SOL    HW225212   2.223   0.142   5.760
 8105SOL     OW25213   0.531   3.067   3.070
 8105SOL    HW125214   0.506   3.055   2.974
 8105SOL    HW225215   0.551   2.978   3.110
 8106SOL     OW25216   3.132   6.229   2.866
 8106SOL    HW125217   3.173   6.142   2.894
 8106SOL    HW225218   3.182   6.304   2.910
 8107SOL     OW25219   1.199   5.121   4.197
 8107SOL    HW125220   1.191   5.049   4.266
 8107SOL    HW225221   1.206   5.080   4.106
 8108SOL     OW25222   6.372   2.617   5.778
 8108SOL    HW125223   6.302   2.645   5.844
 8108SOL    HW225224   6.341   2.536   5.728
 8109SOL     OW25225   0.420   4.180   5.482
 8109SOL    HW125226   0.341   4.165   5.542
 8109SOL    HW225227   0.438   4.096   5.430
 8110SOL     OW25228   3.992   6.204   2.077
 8110SOL    HW125229   3.986   6.251   1.989
 8110SOL    HW225230   4.035   6.265   2.144
 8111SOL     OW25231   5.111   1.262   4.085
 8111SOL    HW125232   5.074   1.320   4.158
 8111SOL    HW225233   5.199   1.299   4.054
 8112SOL     OW25234   2.747   2.313   4.206
 8112SOL    HW125235   2.814   2.276   4.141
 8112SOL    HW225236   2.698   2.238   4.249
 8113SOL     OW25237   1.729   3.751   0.185
 8113SOL    HW125238   1.720   3.652   0.172
 8113SOL    HW225239   1.644   3.796   0.159
 8114SOL     OW25240   1.667   4.449   3.057
 8114SOL    HW125241   1.715   4.422   2.973
 8114SOL    HW225242   1.636   4.544   3.048
 8115SOL     OW25243   3.722   0.240   6.876
 8115SOL    HW125244   3.792   0.304   6.844
 8115SOL    HW225245   3.666   0.284   6.946
 8116SOL     OW25246   4.222   4.521   6.781
 8116SOL    HW125247   4.307   4.468   6.772
 8116SOL    HW225248   4.189   4.547   6.691
 8117SOL     OW25249   2.140   6.819   3.596
 8117SOL    HW125250   2.093   6.856   3.516
 8117SOL    HW225251   2.209   6.884   3.627
 8118SOL     OW25252   5.147   4.728   6.985
 8118SOL    HW125253   5.111   4.791   0.030
 8118SOL    HW225254   5.078   4.710   6.915
 8119SOL     OW25255   5.328   5.461   6.817
 8119SOL    HW125256   5.232   5.442   6.841
 8119SOL    HW225257   5.353   5.407   6.737
 8120SOL     OW25258   2.939   4.838   0.938
 8120SOL    HW125259   2.862   4.856   0.999
 8120SOL    HW225260   3.020   4.815   0.992
 8121SOL     OW25261   7.000   5.139   2.265
 8121SOL    HW125262   6.988   5.236   2.246
 8121SOL    HW225263   6.993   5.087   2.180
 8122SOL     OW25264   0.401   5.316   3.487
 8122SOL    HW125265   0.451   5.252   3.429
 8122SOL    HW225266   0.459   5.344   3.564
 8123SOL     OW25267   0.062   1.855   6.886
 8123SOL    HW125268   7.001   1.894   6.849
 8123SOL    HW225269   0.102   1.919   6.951
 8124SOL     OW25270   5.634   6.063   1.528
 8124SOL    HW125271   5.556   6.047   1.588
 8124SOL    HW225272   5.607   6.120   1.452
 8125SOL     OW25273   1.047   1.611   2.969
 8125SOL    HW125274   1.139   1.605   2.930
 8125SOL    HW225275   1.054   1.630   3.067
 8126SOL     OW25276   4.623   4.303   2.621
 8126SOL    HW125277   4.723   4.310   2.617
 8126SOL    HW225278   4.596   4.263   2.709
 8127SOL     OW25279   2.633   4.596   6.736
 8127SOL    HW125280   2.607   4.676   6.681
 8127SOL    HW225281   2.718   4.558   6.701
 8128SOL     OW25282   3.016   2.119   2.148
 8128SOL    HW125283   2.996   2.198   2.089
 8128SOL    HW225284   3.115   2.105   2.151
 8129SOL     OW25285   4.062   0.753   6.423
 8129SOL    HW125286   4.135   0.694   6.386
 8129SOL    HW225287   3.981   0.745   6.365
 8130SOL     OW25288   0.393   3.803   6.570
 8130SOL    HW125289   0.440   3.724   6.530
 8130SOL    HW225290   0.318   3.771   6.628
 8131SOL     OW25291   2.685   1.985   1.319
 8131SOL    HW125292   2.618   2.012   1.388
 8131SOL    HW225293   2.705   2.063   1.260
 8132SOL     OW25294   5.922   0.160   6.310
 8132SOL    HW125295   5.933   0.075   6.361
 8132SOL    HW225296   5.946   0.238   6.370
 8133SOL     OW25297   3.489   5.825   1.342
 8133SOL    HW125298   3.460   5.737   1.303
 8133SOL    HW225299   3.410   5.870   1.383
 8134SOL     OW25300   6.882   2.661   5.810
 8134SOL    HW125301   6.903   2.648   5.713
 8134SOL    HW225302   6.948   2.725   5.850
 8135SOL     OW25303   2.870   6.623   1.533
 8135SOL    HW125304   2.828   6.564   1.464
 8135SOL    HW225305   2.874   6.717   1.497
 8136SOL     OW25306   4.367   5.553   3.325
 8136SOL    HW125307   4.353   5.500   3.409
 8136SOL    HW225308   4.449   5.608   3.334
 8137SOL     OW25309   3.572   1.979   5.195
 8137SOL    HW125310   3.484   2.021   5.215
 8137SOL    HW225311   3.646   2.042   5.218
 8138SOL     OW25312   4.882   0.893   0.802
 8138SOL    HW125313   4.887   0.808   0.855
 8138SOL    HW225314   4.922   0.968   0.856
 8139SOL     OW25315   0.153   1.097   2.185
 8139SOL    HW125316   0.078   1.161   2.199
 8139SOL    HW225317   0.227   1.118   2.249
 8140SOL     OW25318   5.399   0.365   0.404
 8140SOL    HW125319   5.373   0.296   0.471
 8140SOL    HW225320   5.321   0.384   0.344
 8141SOL     OW25321   4.178   6.280   4.733
 8141SOL    HW125322   4.274   6.300   4.712
 8141SOL    HW225323   4.125   6.365   4.729
 8142SOL     OW25324   0.596   5.331   0.249
 8142SOL    HW125325   0.551   5.243   0.234
 8142SOL    HW225326   0.691   5.325   0.220
 8143SOL     OW25327   5.868   4.632   1.463
 8143SOL    HW125328   5.859   4.726   1.431
 8143SOL    HW225329   5.915   4.578   1.393
 8144SOL     OW25330   6.164   6.057   6.481
 8144SOL    HW125331   6.212   6.045   6.568
 8144SOL    HW225332   6.231   6.059   6.407
 8145SOL     OW25333   5.690   5.907   1.788
 8145SOL    HW125334   5.781   5.949   1.782
 8145SOL    HW225335   5.676   5.847   1.710
 8146SOL     OW25336   4.431   0.684   4.436
 8146SOL    HW125337   4.453   0.593   4.470
 8146SOL    HW225338   4.391   0.677   4.344
 8147SOL     OW25339   6.150   1.753   1.784
 8147SOL    HW125340   6.087   1.696   1.835
 8147SOL    HW225341   6.228   1.699   1.754
 8148SOL     OW25342   5.076   4.377   1.211
 8148SOL    HW125343   5.155   4.403   1.267
 8148SOL    HW225344   4.995   4.372   1.269
 8149SOL     OW25345   3.053   5.889   2.121
 8149SOL    HW125346   3.078   5.901   2.025
 8149SOL    HW225347   3.055   5.791   2.144
 8150SOL     OW25348   1.441   3.933   0.708
 8150SOL    HW125349   1.426   3.870   0.632
 8150SOL    HW225350   1.521   3.989   0.690
 8151SOL     OW25351   6.018   2.369   1.340
 8151SOL    HW125352   5.996   2.467   1.338
 8151SOL    HW225353   5.948   2.319   1.289
 8152SOL     OW25354   0.010   1.587   2.711
 8152SOL    HW125355   7.017   1.592   2.809
 8152SOL    HW225356   0.104   1.614   2.691
 8153SOL     OW25357   1.894   0.073   3.866
 8153SOL    HW125358   1.946   0.137   3.811
 8153SOL    HW225359   1.897   7.006   3.823
 8154SOL     OW25360   3.063   4.868   2.393
 8154SOL    HW125361   3.047   4.910   2.482
 8154SOL    HW225362   2.975   4.839   2.354
 8155SOL     OW25363   1.688   3.619   1.794
 8155SOL    HW125364   1.716   3.522   1.795
 8155SOL    HW225365   1.769   3.676   1.777
 8156SOL     OW25366   4.943   6.909   0.708
 8156SOL    HW125367   4.884   6.967   0.651
 8156SOL    HW225368   5.022   6.880   0.655
 8157SOL     OW25369   0.193   5.528   6.676
 8157SOL    HW125370   0.249   5.447   6.658
 8157SOL    HW225371   0.244   5.610   6.649
 8158SOL     OW25372   4.956   5.060   0.597
 8158SOL    HW125373   4.937   5.135   0.534
 8158SOL    HW225374   4.887   5.060   0.670
 8159SOL     OW25375   3.347   5.835   2.141
 8159SOL    HW125376   3.424   5.781   2.175
 8159SOL    HW225377   3.297   5.875   2.219
 8160SOL     OW25378   5.299   1.224   3.486
 8160SOL    HW125379   5.285   1.139   3.537
 8160SOL    HW225380   5.375   1.213   3.423
 8161SOL     OW25381   5.283   2.058   6.433
 8161SOL    HW125382   5.243   2.128   6.373
 8161SOL    HW225383   5.334   2.103   6.507
 8162SOL     OW25384   5.959   6.209   5.856
 8162SOL    HW125385   5.933   6.195   5.951
 8162SOL    HW225386   6.043   6.263   5.852
 8163SOL     OW25387   2.752   4.015   5.272
 8163SOL    HW125388   2.793   3.979   5.356
 8163SOL    HW225389   2.669   3.963   5.251
 8164SOL     OW25390   5.850   3.333   0.589
 8164SOL    HW125391   5.823   3.344   0.493
 8164SOL    HW225392   5.772   3.301   0.642
 8165SOL     OW25393   1.029   4.767   6.627
 8165SOL    HW125394   1.022   4.719   6.540
 8165SOL    HW225395   1.078   4.710   6.693
 8166SOL     OW25396   1.359   0.150   2.105
 8166SOL    HW125397   1.313   0.207   2.173
 8166SOL    HW225398   1.295   0.130   2.030
 8167SOL     OW25399   6.238   7.023   5.257
 8167SOL    HW125400   6.146   0.035   5.243
 8167SOL    HW225401   6.239   6.966   5.339
 8168SOL     OW25402   2.679   1.661   3.954
 8168SOL    HW125403   2.638   1.613   4.032
 8168SOL    HW225404   2.772   1.688   3.977
 8169SOL     OW25405   4.808   2.464   1.933
 8169SOL    HW125406   4.806   2.553   1.979
 8169SOL    HW225407   4.752   2.468   1.850
 8170SOL     OW25408   1.628   5.680   2.194
 8170SOL    HW125409   1.725   5.666   2.175
 8170SOL    HW225410   1.598   5.763   2.147
 8171SOL     OW25411   1.382   1.460   0.085
 8171SOL    HW125412   1.332   1.424   0.006
 8171SOL    HW225413   1.347   1.418   0.169
 8172SOL     OW25414   0.864   1.779   1.624
 8172SOL    HW125415   0.895   1.874   1.622
 8172SOL    HW225416   0.943   1.719   1.622
 8173SOL     OW25417   4.440   0.792   1.768
 8173SOL    HW125418   4.352   0.830   1.740
 8173SOL    HW225419   4.508   0.865   1.772
 8174SOL     OW25420   6.099   2.274   0.653
 8174SOL    HW125421   6.051   2.350   0.608
 8174SOL    HW225422   6.085   2.279   0.752
 8175SOL     OW25423   0.037   3.299   6.058
 8175SOL    HW125424   0.032   3.202   6.037
 8175SOL    HW225425   0.094   3.313   6.138
 8176SOL     OW25426   2.879   5.571   2.432
 8176SOL    HW125427   2.907   5.476   2.436
 8176SOL    HW225428   2.780   5.577   2.446
 8177SOL     OW25429   2.353   6.279   3.723
 8177SOL    HW125430   2.341   6.351   3.791
 8177SOL    HW225431   2.444   6.238   3.733
 8178SOL     OW25432   3.069   6.338   6.689
 8178SOL    HW125433   2.979   6.316   6.727
 8178SOL    HW225434   3.094   6.268   6.623
 8179SOL     OW25435   4.371   2.600   5.829
 8179SOL    HW125436   4.311   2.679   5.816
 8179SOL    HW225437   4.466   2.628   5.823
 8180SOL     OW25438   6.323   0.131   4.793
 8180SOL    HW125439   6.226   0.110   4.785
 8180SOL    HW225440   6.377   0.057   4.752
 8181SOL     OW25441   2.150   1.549   1.731
 8181SOL    HW125442   2.172   1.643   1.756
 8181SOL    HW225443   2.132   1.544   1.633
 8182SOL     OW25444   3.360   2.530   6.343
 8182SOL    HW125445   3.445   2.492   6.379
 8182SOL    HW225446   3.380   2.598   6.273
 8183SOL     OW25447   0.232   2.815   4.145
 8183SOL    HW125448   0.305   2.748   4.139
 8183SOL    HW225449   0.201   2.822   4.240
 8184SOL     OW25450   5.539   2.218   6.025
 8184SOL    HW125451   5.638   2.219   6.008
 8184SOL    HW225452   5.518   2.150   6.095
 8185SOL     OW25453   2.889   6.207   0.101
 8185SOL    HW125454   2.813   6.194   0.037
 8185SOL    HW225455   2.854   6.203   0.195
 8186SOL     OW25456   3.402   5.203   6.717
 8186SOL    HW125457   3.386   5.140   6.642
 8186SOL    HW225458   3.317   5.220   6.766
 8187SOL     OW25459   1.615   1.878   5.543
 8187SOL    HW125460   1.541   1.830   5.495
 8187SOL    HW225461   1.698   1.822   5.539
 8188SOL     OW25462   5.464   2.378   2.162
 8188SOL    HW125463   5.502   2.286   2.153
 8188SOL    HW225464   5.368   2.378   2.135
 8189SOL     OW25465   4.706   4.973   2.789
 8189SOL    HW125466   4.694   4.892   2.732
 8189SOL    HW225467   4.750   5.045   2.735
 8190SOL     OW25468   4.552   5.348   4.494
 8190SOL    HW125469   4.499   5.310   4.570
 8190SOL    HW225470   4.490   5.376   4.421
 8191SOL     OW25471   3.293   5.662   3.045
 8191SOL    HW125472   3.356   5.706   3.109
 8191SOL    HW225473   3.329   5.573   3.020
 8192SOL     OW25474   3.644   5.511   0.435
 8192SOL    HW125475   3.563   5.556   0.473
 8192SOL    HW225476   3.725   5.540   0.487
 8193SOL     OW25477   6.790   6.898   4.326
 8193SOL    HW125478   6.820   6.992   4.343
 8193SOL    HW225479   6.793   6.879   4.228
 8194SOL     OW25480   6.251   2.527   0.462
 8194SOL    HW125481   6.330   2.470   0.439
 8194SOL    HW225482   6.174   2.503   0.403
 8195SOL     OW25483   0.778   0.304   0.794
 8195SOL    HW125484   0.716   0.371   0.833
 8195SOL    HW225485   0.834   0.348   0.723
 8196SOL     OW25486   3.752   0.470   5.454
 8196SOL    HW125487   3.661   0.480   5.413
 8196SOL    HW225488   3.805   0.403   5.401
 8197SOL     OW25489   4.111   1.135   5.824
 8197SOL    HW125490   4.060   1.185   5.894
 8197SOL    HW225491   4.047   1.104   5.753
 8198SOL     OW25492   3.010   5.994   3.154
 8198SOL    HW125493   3.007   5.984   3.055
 8198SOL    HW225494   3.105   6.009   3.183
 8199SOL     OW25495   6.792   3.149   6.277
 8199SOL    HW125496   6.833   3.108   6.359
 8199SOL    HW225497   6.818   3.095   6.197
 8200SOL     OW25498   4.293   3.319   1.643
 8200SOL    HW125499   4.329   3.310   1.550
 8200SOL    HW225500   4.340   3.394   1.689
 8201SOL     OW25501   5.806   0.772   4.400
 8201SOL    HW125502   5.799   0.721   4.486
 8201SOL    HW225503   5.761   0.861   4.410
 8202SOL     OW25504   0.361   5.698   4.066
 8202SOL    HW125505   0.278   5.647   4.086
 8202SOL    HW225506   0.380   5.694   3.968
 8203SOL     OW25507   4.843   2.386   0.406
 8203SOL    HW125508   4.809   2.348   0.319
 8203SOL    HW225509   4.905   2.320   0.449
 8204SOL     OW25510   3.171   5.656   0.730
 8204SOL    HW125511   3.124   5.569   0.747
 8204SOL    HW225512   3.269   5.638   0.718
 8205SOL     OW25513   6.771   4.785   1.192
 8205SOL    HW125514   6.819   4.701   1.166
 8205SOL    HW225515   6.771   4.849   1.115
 8206SOL     OW25516   4.004   2.801   5.896
 8206SOL    HW125517   3.908   2.772   5.891
 8206SOL    HW225518   4.041   2.810   5.804
 8207SOL     OW25519   3.751   4.439   5.273
 8207SOL    HW125520   3.711   4.404   5.188
 8207SOL    HW225521   3.694   4.412   5.351
 8208SOL     OW25522   2.409   6.182   1.657
 8208SOL    HW125523   2.419   6.096   1.606
 8208SOL    HW225524   2.407   6.162   1.755
 8209SOL     OW25525   0.611   1.988   5.406
 8209SOL    HW125526   0.614   1.904   5.460
 8209SOL    HW225527   0.690   2.045   5.428
 8210SOL     OW25528   2.574   0.965   1.847
 8210SOL    HW125529   2.594   0.869   1.829
 8210SOL    HW225530   2.537   1.007   1.764
 8211SOL     OW25531   3.352   3.859   3.469
 8211SOL    HW125532   3.309   3.918   3.538
 8211SOL    HW225533   3.449   3.846   3.491
 8212SOL     OW25534   3.639   1.301   1.508
 8212SOL    HW125535   3.556   1.263   1.467
 8212SOL    HW225536   3.629   1.400   1.518
 8213SOL     OW25537   5.016   4.820   2.796
 8213SOL    HW125538   4.986   4.783   2.709
 8213SOL    HW225539   4.982   4.914   2.806
 8214SOL     OW25540   1.772   5.542   4.007
 8214SOL    HW125541   1.687   5.594   3.994
 8214SOL    HW225542   1.808   5.561   4.099
 8215SOL     OW25543   4.080   5.093   6.852
 8215SOL    HW125544   4.087   5.090   6.752
 8215SOL    HW225545   4.072   5.000   6.888
 8216SOL     OW25546   4.604   0.157   3.287
 8216SOL    HW125547   4.525   0.132   3.342
 8216SOL    HW225548   4.688   0.124   3.331
 8217SOL     OW25549   2.115   3.909   2.124
 8217SOL    HW125550   2.121   3.826   2.069
 8217SOL    HW225551   2.147   3.987   2.070
 8218SOL     OW25552   1.633   6.906   3.864
 8218SOL    HW125553   1.641   6.919   3.766
 8218SOL    HW225554   1.716   6.939   3.909
 8219SOL     OW25555   3.839   3.762   1.478
 8219SOL    HW125556   3.766   3.812   1.524
 8219SOL    HW225557   3.867   3.812   1.396
 8220SOL     OW25558   3.406   4.169   5.348
 8220SOL    HW125559   3.396   4.073   5.375
 8220SOL    HW225560   3.316   4.208   5.332
 8221SOL     OW25561   6.391   4.633   3.552
 8221SOL    HW125562   6.365   4.557   3.612
 8221SOL    HW225563   6.459   4.690   3.597
 8222SOL     OW25564   4.945   2.510   1.048
 8222SOL    HW125565   5.028   2.490   1.101
 8222SOL    HW225566   4.965   2.500   0.951
 8223SOL     OW25567   0.206   4.915   6.072
 8223SOL    HW125568   0.158   4.917   5.985
 8223SOL    HW225569   0.274   4.841   6.071
 8224SOL     OW25570   4.933   1.836   1.608
 8224SOL    HW125571   5.004   1.770   1.632
 8224SOL    HW225572   4.872   1.849   1.686
 8225SOL     OW25573   3.509   1.105   1.045
 8225SOL    HW125574   3.580   1.046   1.008
 8225SOL    HW225575   3.546   1.196   1.062
 8226SOL     OW25576   3.024   0.527   0.791
 8226SOL    HW125577   2.927   0.517   0.812
 8226SOL    HW225578   3.079   0.479   0.859
 8227SOL     OW25579   0.413   1.688   2.443
 8227SOL    HW125580   0.494   1.722   2.396
 8227SOL    HW225581   0.337   1.679   2.378
 8228SOL     OW25582   0.927   1.893   6.078
 8228SOL    HW125583   0.881   1.832   6.013
 8228SOL    HW225584   0.997   1.946   6.030
 8229SOL     OW25585   3.920   4.139   1.103
 8229SOL    HW125586   3.977   4.150   1.022
 8229SOL    HW225587   3.854   4.213   1.109
 8230SOL     OW25588   3.662   6.575   5.450
 8230SOL    HW125589   3.731   6.616   5.510
 8230SOL    HW225590   3.580   6.632   5.449
 8231SOL     OW25591   3.545   1.965   1.825
 8231SOL    HW125592   3.571   1.962   1.728
 8231SOL    HW225593   3.569   2.054   1.863
 8232SOL     OW25594   5.596   2.202   2.477
 8232SOL    HW125595   5.683   2.249   2.465
 8232SOL    HW225596   5.610   2.103   2.476
 8233SOL     OW25597   1.409   6.846   6.207
 8233SOL    HW125598   1.462   6.925   6.238
 8233SOL    HW225599   1.355   6.810   6.283
 8234SOL     OW25600   2.884   3.522   0.213
 8234SOL    HW125601   2.943   3.456   0.259
 8234SOL    HW225602   2.894   3.512   0.114
 8235SOL     OW25603   0.637   3.818   0.064
 8235SOL    HW125604   0.630   3.824   0.163
 8235SOL    HW225605   0.567   3.876   0.022
 8236SOL     OW25606   0.686   5.221   6.227
 8236SOL    HW125607   0.689   5.300   6.288
 8236SOL    HW225608   0.648   5.249   6.139
 8237SOL     OW25609   4.532   6.226   6.399
 8237SOL    HW125610   4.454   6.177   6.361
 8237SOL    HW225611   4.553   6.305   6.342
 8238SOL     OW25612   0.200   6.208   6.843
 8238SOL    HW125613   0.190   6.110   6.824
 8238SOL    HW225614   0.269   6.246   6.782
 8239SOL     OW25615   0.558   0.567   4.903
 8239SOL    HW125616   0.524   0.476   4.925
 8239SOL    HW225617   0.545   0.627   4.983
 8240SOL     OW25618   2.954   3.728   3.354
 8240SOL    HW125619   2.948   3.763   3.261
 8240SOL    HW225620   2.958   3.804   3.418
 8241SOL     OW25621   2.333   5.056   6.175
 8241SOL    HW125622   2.261   5.125   6.162
 8241SOL    HW225623   2.291   4.965   6.178
 8242SOL     OW25624   0.705   3.854   4.758
 8242SOL    HW125625   0.789   3.900   4.731
 8242SOL    HW225626   0.675   3.794   4.683
 8243SOL     OW25627   0.253   4.406   0.375
 8243SOL    HW125628   0.242   4.319   0.423
 8243SOL    HW225629   0.334   4.453   0.409
 8244SOL     OW25630   0.268   7.008   4.018
 8244SOL    HW125631   0.354   7.000   4.069
 8244SOL    HW225632   0.260   0.078   3.983
 8245SOL     OW25633   3.801   1.147   3.203
 8245SOL    HW125634   3.772   1.106   3.290
 8245SOL    HW225635   3.785   1.246   3.207
 8246SOL     OW25636   0.232   4.483   6.667
 8246SOL    HW125637   0.136   4.485   6.640
 8246SOL    HW225638   0.284   4.546   6.609
 8247SOL     OW25639   2.349   6.335   4.054
 8247SOL    HW125640   2.401   6.250   4.046
 8247SOL    HW225641   2.308   6.340   4.145
 8248SOL     OW25642   0.732   5.104   5.253
 8248SOL    HW125643   0.686   5.085   5.166
 8248SOL    HW225644   0.686   5.054   5.327
 8249SOL     OW25645   2.407   0.929   5.423
 8249SOL    HW125646   2.407   1.020   5.380
 8249SOL    HW225647   2.343   0.929   5.500
 8250SOL     OW25648   3.545   2.257   1.219
 8250SOL    HW125649   3.629   2.220   1.179
 8250SOL    HW225650   3.518   2.339   1.169
 8251SOL     OW25651   6.339   0.837   4.033
 8251SOL    HW125652   6.352   0.870   4.126
 8251SOL    HW225653   6.426   0.837   3.984
 8252SOL     OW25654   3.501   1.390   0.468
 8252SOL    HW125655   3.432   1.321   0.489
 8252SOL    HW225656   3.565   1.354   0.401
 8253SOL     OW25657   3.991   5.692   0.294
 8253SOL    HW125658   3.977   5.626   0.220
 8253SOL    HW225659   3.980   5.784   0.258
 8254SOL     OW25660   5.568   4.603   6.221
 8254SOL    HW125661   5.602   4.631   6.132
 8254SOL    HW225662   5.579   4.504   6.231
 8255SOL     OW25663   1.177   0.088   6.172
 8255SOL    HW125664   1.109   0.082   6.245
 8255SOL    HW225665   1.138   0.052   6.087
 8256SOL     OW25666   6.457   0.067   3.001
 8256SOL    HW125667   6.521   0.139   3.026
 8256SOL    HW225668   6.469   0.043   2.904
 8257SOL     OW25669   5.810   4.812   4.099
 8257SOL    HW125670   5.723   4.791   4.145
 8257SOL    HW225671   5.857   4.727   4.078
 8258SOL     OW25672   5.098   3.288   1.441
 8258SOL    HW125673   5.177   3.251   1.491
 8258SOL    HW225674   5.114   3.277   1.343
 8259SOL     OW25675   3.767   1.931   5.505
 8259SOL    HW125676   3.707   1.998   5.549
 8259SOL    HW225677   3.752   1.931   5.407
 8260SOL     OW25678   2.117   6.070   1.646
 8260SOL    HW125679   2.110   5.997   1.713
 8260SOL    HW225680   2.129   6.157   1.692
 8261SOL     OW25681   4.975   6.873   3.631
 8261SOL    HW125682   5.045   6.807   3.660
 8261SOL    HW225683   4.951   6.932   3.709
 8262SOL     OW25684   0.649   4.468   0.708
 8262SOL    HW125685   0.702   4.519   0.641
 8262SOL    HW225686   0.678   4.372   0.708
 8263SOL     OW25687   6.966   3.003   6.918
 8263SOL    HW125688   6.994   3.082   6.864
 8263SOL    HW225689   6.987   3.020   7.015
 8264SOL     OW25690   1.416   0.036   1.650
 8264SOL    HW125691   1.359   6.989   1.692
 8264SOL    HW225692   1.462   0.089   1.721
 8265SOL     OW25693   4.967   0.548   1.813
 8265SOL    HW125694   4.869   0.529   1.809
 8265SOL    HW225695   4.995   0.594   1.729
 8266SOL     OW25696   3.146   0.088   5.035
 8266SOL    HW125697   3.174   0.180   5.009
 8266SOL    HW225698   3.134   0.032   4.953
 8267SOL     OW25699   1.890   4.750   1.678
 8267SOL    HW125700   1.842   4.662   1.669
 8267SOL    HW225701   1.978   4.735   1.721
 8268SOL     OW25702   3.197   4.531   5.675
 8268SOL    HW125703   3.124   4.557   5.738
 8268SOL    HW225704   3.286   4.547   5.718
 8269SOL     OW25705   4.491   2.197   2.961
 8269SOL    HW125706   4.434   2.120   2.990
 8269SOL    HW225707   4.454   2.239   2.879
 8270SOL     OW25708   3.434   5.408   5.646
 8270SOL    HW125709   3.399   5.316   5.663
 8270SOL    HW225710   3.446   5.456   5.733
 8271SOL     OW25711   6.775   6.341   4.081
 8271SOL    HW125712   6.794   6.432   4.119
 8271SOL    HW225713   6.715   6.350   4.002
 8272SOL     OW25714   0.287   1.531   2.230
 8272SOL    HW125715   0.359   1.468   2.257
 8272SOL    HW225716   0.266   1.518   2.133
 8273SOL     OW25717   2.796   1.358   0.053
 8273SOL    HW125718   2.819   1.388   0.145
 8273SOL    HW225719   2.751   1.433   0.004
 8274SOL     OW25720   4.218   4.546   6.137
 8274SOL    HW125721   4.290   4.596   6.089
 8274SOL    HW225722   4.183   4.473   6.079
 8275SOL     OW25723   5.655   0.224   4.767
 8275SOL    HW125724   5.686   0.275   4.848
 8275SOL    HW225725   5.658   0.284   4.687
 8276SOL     OW25726   6.630   2.024   5.829
 8276SOL    HW125727   6.718   2.006   5.873
 8276SOL    HW225728   6.605   2.120   5.842
 8277SOL     OW25729   2.551   6.029   5.460
 8277SOL    HW125730   2.467   6.083   5.471
 8277SOL    HW225731   2.526   5.933   5.444
 8278SOL     OW25732   2.783   1.586   6.382
 8278SOL    HW125733   2.838   1.521   6.331
 8278SOL    HW225734   2.816   1.679   6.365
 8279SOL     OW25735   5.856   5.676   6.145
 8279SOL    HW125736   5.857   5.617   6.065
 8279SOL    HW225737   5.910   5.758   6.127
 8280SOL     OW25738   4.635   2.297   0.576
 8280SOL    HW125739   4.698   2.282   0.652
 8280SOL    HW225740   4.685   2.335   0.498
 8281SOL     OW25741   2.351   4.590   1.425
 8281SOL    HW125742   2.426   4.656   1.413
 8281SOL    HW225743   2.390   4.500   1.442
 8282SOL     OW25744   2.655   3.281   0.538
 8282SOL    HW125745   2.569   3.232   0.551
 8282SOL    HW225746   2.639   3.363   0.484
 8283SOL     OW25747   0.977   4.481   4.006
 8283SOL    HW125748   0.881   4.507   4.011
 8283SOL    HW225749   1.009   4.453   4.097
 8284SOL     OW25750   1.247   3.888   2.412
 8284SOL    HW125751   1.252   3.878   2.313
 8284SOL    HW225752   1.272   3.801   2.456
 8285SOL     OW25753   3.483   3.476   5.414
 8285SOL    HW125754   3.392   3.454   5.449
 8285SOL    HW225755   3.499   3.427   5.329
 8286SOL     OW25756   5.307   1.764   4.901
 8286SOL    HW125757   5.229   1.818   4.871
 8286SOL    HW225758   5.367   1.745   4.824
 8287SOL     OW25759   1.391   6.300   3.708
 8287SOL    HW125760   1.371   6.398   3.714
 8287SOL    HW225761   1.367   6.256   3.794
 8288SOL     OW25762   1.131   2.514   2.456
 8288SOL    HW125763   1.138   2.493   2.359
 8288SOL    HW225764   1.068   2.450   2.499
 8289SOL     OW25765   6.092   0.794   6.256
 8289SOL    HW125766   6.013   0.806   6.316
 8289SOL    HW225767   6.119   0.698   6.255
 8290SOL     OW25768   4.363   2.100   1.755
 8290SOL    HW125769   4.265   2.085   1.764
 8290SOL    HW225770   4.388   2.099   1.658
 8291SOL     OW25771   5.883   5.763   6.629
 8291SOL    HW125772   5.949   5.766   6.553
 8291SOL    HW225773   5.823   5.843   6.623
 8292SOL     OW25774   2.139   5.806   6.181
 8292SOL    HW125775   2.216   5.860   6.146
 8292SOL    HW225776   2.084   5.774   6.104
 8293SOL     OW25777   1.546   4.237   1.655
 8293SOL    HW125778   1.507   4.159   1.704
 8293SOL    HW225779   1.562   4.312   1.719
 8294SOL     OW25780   6.113   3.311   4.492
 8294SOL    HW125781   6.062   3.396   4.508
 8294SOL    HW225782   6.117   3.257   4.576
 8295SOL     OW25783   5.233   3.566   2.422
 8295SOL    HW125784   5.229   3.665   2.404
 8295SOL    HW225785   5.295   3.523   2.357
 8296SOL     OW25786   3.818   4.810   0.092
 8296SOL    HW125787   3.823   4.904   0.124
 8296SOL    HW225788   3.759   4.757   0.153
 8297SOL     OW25789   6.886   3.531   2.111
 8297SOL    HW125790   6.837   3.548   2.197
 8297SOL    HW225791   6.887   3.433   2.092
 8298SOL     OW25792   0.197   0.433   6.839
 8298SOL    HW125793   0.222   0.515   6.786
 8298SOL    HW225794   0.098   0.429   6.851
 8299SOL     OW25795   0.586   2.912   1.043
 8299SOL    HW125796   0.623   2.959   1.122
 8299SOL    HW225797   0.598   2.969   0.961
 8300SOL     OW25798   6.093   6.820   5.095
 8300SOL    HW125799   6.177   6.875   5.088
 8300SOL    HW225800   6.107   6.748   5.164
 8301SOL     OW25801   4.388   0.260   6.738
 8301SOL    HW125802   4.395   0.359   6.743
 8301SOL    HW225803   4.291   0.233   6.741
 8302SOL     OW25804   3.903   6.891   5.096
 8302SOL    HW125805   3.877   6.965   5.033
 8302SOL    HW225806   3.999   6.901   5.121
 8303SOL     OW25807   6.997   0.052   3.662
 8303SOL    HW125808   6.943   7.009   3.714
 8303SOL    HW225809   6.955   0.067   3.573
 8304SOL     OW25810   5.691   5.161   1.933
 8304SOL    HW125811   5.642   5.190   2.015
 8304SOL    HW225812   5.649   5.077   1.898
 8305SOL     OW25813   3.999   5.221   4.542
 8305SOL    HW125814   3.936   5.258   4.474
 8305SOL    HW225815   3.949   5.199   4.626
 8306SOL     OW25816   6.506   1.321   2.770
 8306SOL    HW125817   6.494   1.388   2.697
 8306SOL    HW225818   6.419   1.274   2.786
 8307SOL     OW25819   3.210   4.966   1.558
 8307SOL    HW125820   3.136   5.032   1.560
 8307SOL    HW225821   3.297   5.014   1.547
 8308SOL     OW25822   1.740   4.241   0.581
 8308SOL    HW125823   1.834   4.213   0.603
 8308SOL    HW225824   1.709   4.191   0.500
 8309SOL     OW25825   6.168   4.899   3.556
 8309SOL    HW125826   6.074   4.872   3.574
 8309SOL    HW225827   6.175   4.941   3.466
 8310SOL     OW25828   0.932   5.714   0.613
 8310SOL    HW125829   0.835   5.734   0.606
 8310SOL    HW225830   0.973   5.714   0.522
 8311SOL     OW25831   5.306   0.462   4.475
 8311SOL    HW125832   5.297   0.363   4.486
 8311SOL    HW225833   5.399   0.490   4.498
 8312SOL     OW25834   5.477   1.216   0.499
 8312SOL    HW125835   5.575   1.204   0.514
 8312SOL    HW225836   5.438   1.269   0.574
 8313SOL     OW25837   4.158   6.755   5.558
 8313SOL    HW125838   4.146   6.763   5.657
 8313SOL    HW225839   4.235   6.813   5.529
 8314SOL     OW25840   5.957   6.664   6.500
 8314SOL    HW125841   5.939   6.568   6.520
 8314SOL    HW225842   5.998   6.708   6.580
 8315SOL     OW25843   3.639   4.113   2.729
 8315SOL    HW125844   3.677   4.163   2.651
 8315SOL    HW225845   3.691   4.029   2.744
 8316SOL     OW25846   1.724   3.482   0.092
 8316SOL    HW125847   1.775   3.414   0.146
 8316SOL    HW225848   1.632   3.448   0.074
 8317SOL     OW25849   2.998   2.222   3.956
 8317SOL    HW125850   3.027   2.158   3.886
 8317SOL    HW225851   3.062   2.218   4.034
 8318SOL     OW25852   4.483   0.738   5.438
 8318SOL    HW125853   4.400   0.775   5.478
 8318SOL    HW225854   4.560   0.798   5.458
 8319SOL     OW25855   1.992   0.174   0.149
 8319SOL    HW125856   2.029   0.175   0.242
 8319SOL    HW225857   1.925   0.248   0.140
 8320SOL     OW25858   3.613   3.851   3.526
 8320SOL    HW125859   3.620   3.850   3.626
 8320SOL    HW225860   3.624   3.944   3.493
 8321SOL     OW25861   0.311   0.005   6.156
 8321SOL    HW125862   0.376   6.960   6.188
 8321SOL    HW225863   0.241   6.985   6.099
 8322SOL     OW25864   0.274   1.320   0.360
 8322SOL    HW125865   0.370   1.293   0.350
 8322SOL    HW225866   0.269   1.419   0.376
 8323SOL     OW25867   3.672   4.707   1.338
 8323SOL    HW125868   3.744   4.693   1.271
 8323SOL    HW225869   3.617   4.786   1.312
 8324SOL     OW25870   5.519   0.588   0.489
 8324SOL    HW125871   5.581   0.560   0.562
 8324SOL    HW225872   5.474   0.506   0.452
 8325SOL     OW25873   1.191   4.112   5.258
 8325SOL    HW125874   1.258   4.042   5.284
 8325SOL    HW225875   1.102   4.070   5.244
 8326SOL     OW25876   4.350   3.422   6.955
 8326SOL    HW125877   4.348   3.497   7.021
 8326SOL    HW225878   4.387   3.455   6.868
 8327SOL     OW25879   0.974   7.015   5.445
 8327SOL    HW125880   0.933   0.078   5.415
 8327SOL    HW225881   1.073   0.001   5.451
 8328SOL     OW25882   1.947   6.425   6.051
 8328SOL    HW125883   1.856   6.395   6.079
 8328SOL    HW225884   2.015   6.394   6.117
 8329SOL     OW25885   7.023   2.518   4.922
 8329SOL    HW125886   6.982   2.526   4.831
 8329SOL    HW225887   0.044   2.604   4.945
 8330SOL     OW25888   3.334   0.973   6.550
 8330SOL    HW125889   3.288   1.062   6.551
 8330SOL    HW225890   3.387   0.964   6.466
 8331SOL     OW25891   2.672   0.958   1.042
 8331SOL    HW125892   2.751   0.968   0.981
 8331SOL    HW225893   2.703   0.965   1.137
 8332SOL     OW25894   5.489   5.262   2.117
 8332SOL    HW125895   5.503   5.357   2.092
 8332SOL    HW225896   5.450   5.257   2.209
 8333SOL     OW25897   2.208   4.586   0.242
 8333SOL    HW125898   2.199   4.500   0.191
 8333SOL    HW225899   2.294   4.586   0.292
 8334SOL     OW25900   2.663   2.410   6.333
 8334SOL    HW125901   2.733   2.462   6.284
 8334SOL    HW225902   2.651   2.449   6.425
 8335SOL     OW25903   4.053   2.673   6.860
 8335SOL    HW125904   3.977   2.735   6.838
 8335SOL    HW225905   4.057   2.600   6.793
 8336SOL     OW25906   1.039   3.890   3.387
 8336SOL    HW125907   1.113   3.889   3.321
 8336SOL    HW225908   1.070   3.932   3.472
 8337SOL     OW25909   0.643   6.778   4.139
 8337SOL    HW125910   0.606   6.694   4.179
 8337SOL    HW225911   0.743   6.780   4.152
 8338SOL     OW25912   3.610   5.754   1.935
 8338SOL    HW125913   3.624   5.802   2.021
 8338SOL    HW225914   3.615   5.819   1.859
 8339SOL     OW25915   6.996   1.234   1.512
 8339SOL    HW125916   6.979   1.161   1.578
 8339SOL    HW225917   6.931   1.309   1.528
 8340SOL     OW25918   5.136   4.051   0.288
 8340SOL    HW125919   5.063   4.077   0.224
 8340SOL    HW225920   5.191   3.979   0.247
 8341SOL     OW25921   3.563   0.352   0.070
 8341SOL    HW125922   3.505   0.407   0.010
 8341SOL    HW225923   3.624   0.412   0.122
 8342SOL     OW25924   3.819   0.080   0.223
 8342SOL    HW125925   3.749   0.021   0.264
 8342SOL    HW225926   3.820   0.168   0.270
 8343SOL     OW25927   6.043   5.727   3.733
 8343SOL    HW125928   5.972   5.691   3.793
 8343SOL    HW225929   6.092   5.800   3.780
 8344SOL     OW25930   6.527   4.696   4.737
 8344SOL    HW125931   6.430   4.678   4.721
 8344SOL    HW225932   6.549   4.790   4.712
 8345SOL     OW25933   4.845   2.097   3.744
 8345SOL    HW125934   4.825   2.083   3.841
 8345SOL    HW225935   4.770   2.148   3.702
 8346SOL     OW25936   3.710   3.057   5.934
 8346SOL    HW125937   3.730   3.047   5.837
 8346SOL    HW225938   3.755   3.138   5.970
 8347SOL     OW25939   3.756   6.547   6.614
 8347SOL    HW125940   3.823   6.615   6.644
 8347SOL    HW225941   3.665   6.589   6.611
 8348SOL     OW25942   2.561   0.123   1.617
 8348SOL    HW125943   2.474   0.168   1.594
 8348SOL    HW225944   2.549   0.071   1.702
 8349SOL     OW25945   1.363   6.374   1.629
 8349SOL    HW125946   1.402   6.352   1.540
 8349SOL    HW225947   1.334   6.290   1.674
 8350SOL     OW25948   3.019   6.321   6.023
 8350SOL    HW125949   3.078   6.402   6.027
 8350SOL    HW225950   2.923   6.350   6.019
 8351SOL     OW25951   5.765   5.572   4.127
 8351SOL    HW125952   5.709   5.636   4.180
 8351SOL    HW225953   5.719   5.553   4.040
 8352SOL     OW25954   1.624   0.195   2.952
 8352SOL    HW125955   1.716   0.211   2.989
 8352SOL    HW225956   1.628   0.123   2.884
 8353SOL     OW25957   0.803   4.359   1.177
 8353SOL    HW125958   0.886   4.331   1.224
 8353SOL    HW225959   0.777   4.451   1.207
 8354SOL     OW25960   3.410   6.762   3.856
 8354SOL    HW125961   3.385   6.791   3.948
 8354SOL    HW225962   3.501   6.796   3.834
 8355SOL     OW25963   2.049   0.903   5.365
 8355SOL    HW125964   2.023   0.811   5.394
 8355SOL    HW225965   2.125   0.936   5.422
 8356SOL     OW25966   0.521   5.293   1.639
 8356SOL    HW125967   0.442   5.338   1.681
 8356SOL    HW225968   0.543   5.339   1.553
 8357SOL     OW25969   3.566   5.919   5.704
 8357SOL    HW125970   3.491   5.981   5.729
 8357SOL    HW225971   3.528   5.838   5.660
 8358SOL     OW25972   0.710   3.104   4.935
 8358SOL    HW125973   0.760   3.115   4.849
 8358SOL    HW225974   0.775   3.105   5.012
 8359SOL     OW25975   2.135   1.409   4.319
 8359SOL    HW125976   2.079   1.471   4.374
 8359SOL    HW225977   2.217   1.457   4.289
 8360SOL     OW25978   4.489   0.016   1.303
 8360SOL    HW125979   4.430   6.960   1.314
 8360SOL    HW225980   4.584   7.010   1.291
 8361SOL     OW25981   3.223   0.693   7.014
 8361SOL    HW125982   3.227   0.768   6.948
 8361SOL    HW225983   3.131   0.652   7.011
 8362SOL     OW25984   5.593   2.195   1.017
 8362SOL    HW125985   5.502   2.233   1.032
 8362SOL    HW225986   5.593   2.141   0.933
 8363SOL     OW25987   4.921   1.307   0.743
 8363SOL    HW125988   4.825   1.295   0.770
 8363SOL    HW225989   4.942   1.243   0.670
 8364SOL     OW25990   0.396   3.319   4.232
 8364SOL    HW125991   0.391   3.379   4.311
 8364SOL    HW225992   0.304   3.284   4.211
 8365SOL     OW25993   1.692   2.633   2.880
 8365SOL    HW125994   1.692   2.555   2.818
 8365SOL    HW225995   1.600   2.650   2.913
 8366SOL     OW25996   3.910   4.959   0.790
 8366SOL    HW125997   3.850   4.885   0.758
 8366SOL    HW225998   3.854   5.040   0.810
 8367SOL     OW25999   3.310   5.129   5.131
 8367SOL    HW126000   3.239   5.073   5.173
 8367SOL    HW226001   3.399   5.086   5.145
 8368SOL     OW26002   1.379   6.077   0.476
 8368SOL    HW126003   1.410   5.995   0.524
 8368SOL    HW226004   1.325   6.050   0.396
 8369SOL     OW26005   0.628   1.028   6.681
 8369SOL    HW126006   0.662   1.045   6.589
 8369SOL    HW226007   0.665   0.942   6.715
 8370SOL     OW26008   2.380   0.856   5.926
 8370SOL    HW126009   2.352   0.792   5.854
 8370SOL    HW226010   2.383   0.949   5.890
 8371SOL     OW26011   1.983   3.307   6.422
 8371SOL    HW126012   2.018   3.334   6.512
 8371SOL    HW226013   1.914   3.235   6.434
 8372SOL     OW26014   1.565   6.044   1.471
 8372SOL    HW126015   1.646   5.997   1.507
 8372SOL    HW226016   1.569   6.044   1.371
 8373SOL     OW26017   1.832   1.145   4.817
 8373SOL    HW126018   1.903   1.162   4.885
 8373SOL    HW226019   1.764   1.218   4.820
 8374SOL     OW26020   0.214   0.448   4.935
 8374SOL    HW126021   0.204   0.528   4.875
 8374SOL    HW226022   0.208   0.477   5.030
 8375SOL     OW26023   4.106   6.915   6.225
 8375SOL    HW126024   4.074   6.932   6.132
 8375SOL    HW226025   4.151   6.826   6.229
 8376SOL     OW26026   1.253   1.378   3.653
 8376SOL    HW126027   1.275   1.308   3.721
 8376SOL    HW226028   1.335   1.401   3.601
 8377SOL     OW26029   5.819   5.965   0.525
 8377SOL    HW126030   5.762   6.035   0.568
 8377SOL    HW226031   5.909   6.004   0.503
 8378SOL     OW26032   3.833   5.318   4.071
 8378SOL    HW126033   3.746   5.338   4.026
 8378SOL    HW226034   3.904   5.378   4.036
 8379SOL     OW26035   4.788   2.706   2.276
 8379SOL    HW126036   4.844   2.624   2.286
 8379SOL    HW226037   4.822   2.777   2.337
 8380SOL     OW26038   0.058   6.990   6.672
 8380SOL    HW126039   0.131   7.016   6.609
 8380SOL    HW226040   7.000   0.020   6.655
 8381SOL     OW26041   0.092   2.647   3.326
 8381SOL    HW126042   0.069   2.598   3.409
 8381SOL    HW226043   0.114   2.742   3.348
 8382SOL     OW26044   2.389   6.705   1.104
 8382SOL    HW126045   2.342   6.618   1.120
 8382SOL    HW226046   2.323   6.773   1.073
 8383SOL     OW26047   3.044   6.991   5.452
 8383SOL    HW126048   2.956   0.006   5.424
 8383SOL    HW226049   3.113   7.012   5.383
 8384SOL     OW26050   6.806   1.588   0.542
 8384SOL    HW126051   6.905   1.579   0.537
 8384SOL    HW226052   6.776   1.571   0.636
 8385SOL     OW26053   4.341   1.938   0.590
 8385SOL    HW126054   4.252   1.978   0.569
 8385SOL    HW226055   4.330   1.862   0.654
 8386SOL     OW26056   2.290   5.404   0.999
 8386SOL    HW126057   2.302   5.314   0.957
 8386SOL    HW226058   2.322   5.475   0.937
 8387SOL     OW26059   1.742   2.029   1.460
 8387SOL    HW126060   1.830   2.074   1.451
 8387SOL    HW226061   1.738   1.951   1.397
 8388SOL     OW26062   1.506   6.987   0.679
 8388SOL    HW126063   1.424   6.940   0.710
 8388SOL    HW226064   1.561   6.925   0.624
 8389SOL     OW26065   0.309   3.565   4.338
 8389SOL    HW126066   0.226   3.575   4.392
 8389SOL    HW226067   0.362   3.650   4.341
 8390SOL     OW26068   4.203   6.676   0.089
 8390SOL    HW126069   4.275   6.695   0.023
 8390SOL    HW226070   4.114   6.703   0.050
 8391SOL     OW26071   4.896   5.038   1.478
 8391SOL    HW126072   4.947   4.953   1.493
 8391SOL    HW226073   4.890   5.089   1.564
 8392SOL     OW26074   6.642   5.367   5.972
 8392SOL    HW126075   6.659   5.455   6.016
 8392SOL    HW226076   6.652   5.378   5.873
 8393SOL     OW26077   6.983   6.459   3.805
 8393SOL    HW126078   6.935   6.501   3.881
 8393SOL    HW226079   0.034   6.519   3.776
 8394SOL     OW26080   6.772   2.756   1.616
 8394SOL    HW126081   6.728   2.832   1.664
 8394SOL    HW226082   6.824   2.701   1.681
 8395SOL     OW26083   1.503   6.030   4.335
 8395SOL    HW126084   1.526   6.073   4.248
 8395SOL    HW226085   1.409   5.996   4.332
 8396SOL     OW26086   4.383   4.539   2.274
 8396SOL    HW126087   4.469   4.494   2.297
 8396SOL    HW226088   4.342   4.493   2.194
 8397SOL     OW26089   2.417   0.730   3.788
 8397SOL    HW126090   2.506   0.767   3.761
 8397SOL    HW226091   2.409   0.734   3.888
 8398SOL     OW26092   4.324   1.684   6.403
 8398SOL    HW126093   4.384   1.764   6.400
 8398SOL    HW226094   4.378   1.601   6.391
 8399SOL     OW26095   6.476   0.635   6.797
 8399SOL    HW126096   6.555   0.677   6.752
 8399SOL    HW226097   6.483   0.647   6.896
 8400SOL     OW26098   1.066   0.053   3.934
 8400SOL    HW126099   1.122   0.134   3.952
 8400SOL    HW226100   1.080   7.010   4.007
 8401SOL     OW26101   3.261   2.131   6.459
 8401SOL    HW126102   3.323   2.083   6.397
 8401SOL    HW226103   3.192   2.181   6.406
 8402SOL     OW26104   4.252   1.786   5.838
 8402SOL    HW126105   4.189   1.853   5.875
 8402SOL    HW226106   4.205   1.730   5.769
 8403SOL     OW26107   0.507   1.838   3.092
 8403SOL    HW126108   0.577   1.785   3.139
 8403SOL    HW226109   0.438   1.869   3.158
 8404SOL     OW26110   5.409   5.884   7.014
 8404SOL    HW126111   5.412   5.813   6.944
 8404SOL    HW226112   5.378   5.970   6.974
 8405SOL     OW26113   1.832   1.034   6.637
 8405SOL    HW126114   1.927   1.013   6.661
 8405SOL    HW226115   1.786   0.950   6.609
 8406SOL     OW26116   4.293   0.367   0.897
 8406SOL    HW126117   4.259   0.315   0.974
 8406SOL    HW226118   4.238   0.347   0.816
 8407SOL     OW26119   4.768   6.672   3.766
 8407SOL    HW126120   4.849   6.614   3.753
 8407SOL    HW226121   4.720   6.682   3.680
 8408SOL     OW26122   5.010   2.554   2.685
 8408SOL    HW126123   4.990   2.597   2.773
 8408SOL    HW226124   5.031   2.625   2.617
 8409SOL     OW26125   6.149   3.262   2.917
 8409SOL    HW126126   6.176   3.166   2.906
 8409SOL    HW226127   6.105   3.274   3.006
 8410SOL     OW26128   4.635   0.725   1.439
 8410SOL    HW126129   4.606   0.664   1.512
 8410SOL    HW226130   4.724   0.765   1.463
 8411SOL     OW26131   1.256   5.676   5.367
 8411SOL    HW126132   1.321   5.615   5.322
 8411SOL    HW226133   1.280   5.771   5.348
 8412SOL     OW26134   4.167   1.911   2.202
 8412SOL    HW126135   4.266   1.906   2.211
 8412SOL    HW226136   4.143   1.983   2.137
 8413SOL     OW26137   4.934   4.636   0.682
 8413SOL    HW126138   4.931   4.604   0.777
 8413SOL    HW226139   4.841   4.658   0.651
 8414SOL     OW26140   4.367   5.916   2.636
 8414SOL    HW126141   4.308   5.850   2.683
 8414SOL    HW226142   4.405   5.874   2.553
 8415SOL     OW26143   6.645   5.698   4.194
 8415SOL    HW126144   6.647   5.616   4.137
 8415SOL    HW226145   6.551   5.732   4.201
 8416SOL     OW26146   5.772   4.253   3.557
 8416SOL    HW126147   5.812   4.303   3.634
 8416SOL    HW226148   5.753   4.159   3.585
 8417SOL     OW26149   0.968   5.239   6.048
 8417SOL    HW126150   1.057   5.195   6.048
 8417SOL    HW226151   0.914   5.207   6.126
 8418SOL     OW26152   6.338   5.455   1.813
 8418SOL    HW126153   6.379   5.365   1.827
 8418SOL    HW226154   6.391   5.505   1.744
 8419SOL     OW26155   5.116   1.521   2.733
 8419SOL    HW126156   5.133   1.423   2.727
 8419SOL    HW226157   5.169   1.560   2.808
 8420SOL     OW26158   4.089   0.252   0.742
 8420SOL    HW126159   4.150   0.174   0.726
 8420SOL    HW226160   4.058   0.290   0.655
 8421SOL     OW26161   2.825   5.972   1.066
 8421SOL    HW126162   2.787   5.895   1.013
 8421SOL    HW226163   2.922   5.981   1.044
 8422SOL     OW26164   4.346   0.423   1.472
 8422SOL    HW126165   4.382   0.441   1.380
 8422SOL    HW226166   4.400   0.474   1.539
 8423SOL     OW26167   4.060   4.016   6.234
 8423SOL    HW126168   4.003   4.059   6.164
 8423SOL    HW226169   4.148   3.989   6.194
 8424SOL     OW26170   2.558   2.487   3.103
 8424SOL    HW126171   2.637   2.430   3.125
 8424SOL    HW226172   2.570   2.527   3.012
 8425SOL     OW26173   5.719   5.825   1.211
 8425SOL    HW126174   5.775   5.777   1.144
 8425SOL    HW226175   5.778   5.871   1.278
 8426SOL     OW26176   3.360   2.888   4.112
 8426SOL    HW126177   3.370   2.889   4.212
 8426SOL    HW226178   3.291   2.955   4.085
 8427SOL     OW26179   2.885   3.726   5.742
 8427SOL    HW126180   2.924   3.654   5.684
 8427SOL    HW226181   2.789   3.707   5.759
 8428SOL     OW26182   6.818   4.311   1.354
 8428SOL    HW126183   6.774   4.294   1.442
 8428SOL    HW226184   6.896   4.372   1.367
 8429SOL     OW26185   2.093   4.214   3.721
 8429SOL    HW126186   2.102   4.118   3.695
 8429SOL    HW226187   2.150   4.271   3.660
 8430SOL     OW26188   3.708   5.981   3.478
 8430SOL    HW126189   3.781   6.018   3.535
 8430SOL    HW226190   3.703   5.882   3.489
 8431SOL     OW26191   3.023   5.381   0.781
 8431SOL    HW126192   3.034   5.283   0.797
 8431SOL    HW226193   2.984   5.424   0.863
 8432SOL     OW26194   5.638   6.852   6.006
 8432SOL    HW126195   5.585   6.895   5.933
 8432SOL    HW226196   5.661   6.920   6.075
 8433SOL     OW26197   6.481   2.357   0.373
 8433SOL    HW126198   6.463   2.309   0.458
 8433SOL    HW226199   6.573   2.334   0.341
 8434SOL     OW26200   3.015   6.178   5.621
 8434SOL    HW126201   3.026   6.159   5.719
 8434SOL    HW226202   2.931   6.135   5.588
 8435SOL     OW26203   4.973   0.621   0.910
 8435SOL    HW126204   4.926   0.574   0.985
 8435SOL    HW226205   5.052   0.671   0.946
 8436SOL     OW26206   3.321   6.706   4.597
 8436SOL    HW126207   3.330   6.719   4.498
 8436SOL    HW226208   3.236   6.656   4.616
 8437SOL     OW26209   1.488   0.181   3.187
 8437SOL    HW126210   1.552   0.178   3.110
 8437SOL    HW226211   1.534   0.157   3.271
 8438SOL     OW26212   2.830   5.036   2.162
 8438SOL    HW126213   2.765   5.052   2.088
 8438SOL    HW226214   2.836   4.939   2.182
 8439SOL     OW26215   6.337   5.287   1.495
 8439SOL    HW126216   6.342   5.364   1.432
 8439SOL    HW226217   6.365   5.203   1.447
 8440SOL     OW26218   0.461   1.902   3.959
 8440SOL    HW126219   0.457   1.876   4.055
 8440SOL    HW226220   0.516   1.835   3.908
 8441SOL     OW26221   5.791   6.860   7.022
 8441SOL    HW126222   5.748   6.891   0.083
 8441SOL    HW226223   5.728   6.801   6.972
 8442SOL     OW26224   3.442   2.544   5.905
 8442SOL    HW126225   3.480   2.539   5.997
 8442SOL    HW226226   3.500   2.493   5.842
 8443SOL     OW26227   1.106   6.474   3.524
 8443SOL    HW126228   1.081   6.385   3.563
 8443SOL    HW226229   1.040   6.543   3.554
 8444SOL     OW26230   3.224   5.712   3.377
 8444SOL    HW126231   3.130   5.679   3.373
 8444SOL    HW226232   3.281   5.645   3.424
 8445SOL     OW26233   3.609   5.264   1.643
 8445SOL    HW126234   3.635   5.180   1.690
 8445SOL    HW226235   3.558   5.323   1.706
 8446SOL     OW26236   4.449   4.832   0.959
 8446SOL    HW126237   4.408   4.769   1.026
 8446SOL    HW226238   4.505   4.780   0.895
 8447SOL     OW26239   5.749   2.439   2.338
 8447SOL    HW126240   5.651   2.453   2.358
 8447SOL    HW226241   5.767   2.462   2.243
 8448SOL     OW26242   5.676   4.832   4.479
 8448SOL    HW126243   5.689   4.921   4.436
 8448SOL    HW226244   5.637   4.844   4.570
 8449SOL     OW26245   6.498   3.276   3.986
 8449SOL    HW126246   6.538   3.295   3.896
 8449SOL    HW226247   6.471   3.180   3.991
 8450SOL     OW26248   1.892   5.678   2.143
 8450SOL    HW126249   1.929   5.625   2.067
 8450SOL    HW226250   1.968   5.721   2.193
 8451SOL     OW26251   4.911   3.017   0.433
 8451SOL    HW126252   4.822   3.018   0.387
 8451SOL    HW226253   4.933   3.110   0.464
 8452SOL     OW26254   0.269   0.957   1.990
 8452SOL    HW126255   0.358   0.985   1.955
 8452SOL    HW226256   0.229   1.031   2.043
 8453SOL     OW26257   6.680   4.179   6.969
 8453SOL    HW126258   6.705   4.273   6.946
 8453SOL    HW226259   6.619   4.179   0.025
 8454SOL     OW26260   0.443   6.558   0.549
 8454SOL    HW126261   0.398   6.505   0.620
 8454SOL    HW226262   0.535   6.583   0.580
 8455SOL     OW26263   5.313   2.032   1.322
 8455SOL    HW126264   5.382   2.103   1.306
 8455SOL    HW226265   5.222   2.073   1.320
 8456SOL     OW26266   4.714   4.193   3.092
 8456SOL    HW126267   4.692   4.289   3.074
 8456SOL    HW226268   4.722   4.143   3.005
 8457SOL     OW26269   0.292   6.361   4.885
 8457SOL    HW126270   0.326   6.268   4.902
 8457SOL    HW226271   0.291   6.379   4.786
 8458SOL     OW26272   2.048   1.403   6.831
 8458SOL    HW126273   2.130   1.350   6.850
 8458SOL    HW226274   2.067   1.468   6.757
 8459SOL     OW26275   3.245   6.469   1.806
 8459SOL    HW126276   3.216   6.381   1.843
 8459SOL    HW226277   3.208   6.481   1.714
 8460SOL     OW26278   4.508   2.729   5.535
 8460SOL    HW126279   4.441   2.670   5.491
 8460SOL    HW226280   4.494   2.728   5.634
 8461SOL     OW26281   0.832   3.803   2.618
 8461SOL    HW126282   0.745   3.782   2.662
 8461SOL    HW226283   0.817   3.864   2.541
 8462SOL     OW26284   3.481   2.533   0.483
 8462SOL    HW126285   3.561   2.563   0.535
 8462SOL    HW226286   3.415   2.490   0.544
 8463SOL     OW26287   6.302   0.307   0.090
 8463SOL    HW126288   6.267   0.400   0.083
 8463SOL    HW226289   6.231   0.242   0.062
 8464SOL     OW26290   5.872   3.792   5.832
 8464SOL    HW126291   5.885   3.696   5.810
 8464SOL    HW226292   5.923   3.815   5.915
 8465SOL     OW26293   2.525   2.532   0.653
 8465SOL    HW126294   2.460   2.527   0.577
 8465SOL    HW226295   2.530   2.444   0.699
 8466SOL     OW26296   6.728   0.089   5.494
 8466SOL    HW126297   6.816   0.137   5.490
 8466SOL    HW226298   6.680   0.114   5.579
 8467SOL     OW26299   3.560   0.689   1.579
 8467SOL    HW126300   3.463   0.690   1.602
 8467SOL    HW226301   3.573   0.649   1.489
 8468SOL     OW26302   4.664   2.660   0.410
 8468SOL    HW126303   4.706   2.688   0.496
 8468SOL    HW226304   4.698   2.570   0.384
 8469SOL     OW26305   2.772   1.776   5.198
 8469SOL    HW126306   2.773   1.773   5.098
 8469SOL    HW226307   2.786   1.870   5.229
 8470SOL     OW26308   0.705   4.762   0.281
 8470SOL    HW126309   0.783   4.720   0.234
 8470SOL    HW226310   0.715   4.861   0.279
 8471SOL     OW26311   4.155   0.225   4.911
 8471SOL    HW126312   4.150   0.302   4.848
 8471SOL    HW226313   4.222   0.244   4.983
 8472SOL     OW26314   6.236   0.518   5.687
 8472SOL    HW126315   6.296   0.597   5.676
 8472SOL    HW226316   6.290   0.434   5.677
 8473SOL     OW26317   6.772   5.388   0.889
 8473SOL    HW126318   6.691   5.430   0.929
 8473SOL    HW226319   6.745   5.312   0.830
 8474SOL     OW26320   3.355   3.610   2.129
 8474SOL    HW126321   3.293   3.647   2.199
 8474SOL    HW226322   3.441   3.661   2.131
 8475SOL     OW26323   0.277   2.828   3.023
 8475SOL    HW126324   0.212   2.896   3.056
 8475SOL    HW226325   0.248   2.737   3.056
 8476SOL     OW26326   5.949   1.193   1.038
 8476SOL    HW126327   5.906   1.282   1.020
 8476SOL    HW226328   6.048   1.205   1.042
 8477SOL     OW26329   4.519   6.626   2.821
 8477SOL    HW126330   4.451   6.664   2.759
 8477SOL    HW226331   4.606   6.617   2.773
 8478SOL     OW26332   1.691   6.614   5.642
 8478SOL    HW126333   1.647   6.689   5.592
 8478SOL    HW226334   1.718   6.646   5.733
 8479SOL     OW26335   1.255   2.839   1.154
 8479SOL    HW126336   1.232   2.844   1.251
 8479SOL    HW226337   1.172   2.840   1.099
 8480SOL     OW26338   5.128   2.883   0.308
 8480SOL    HW126339   5.110   2.785   0.306
 8480SOL    HW226340   5.049   2.930   0.349
 8481SOL     OW26341   4.518   2.564   4.995
 8481SOL    HW126342   4.557   2.517   4.916
 8481SOL    HW226343   4.421   2.542   5.002
 8482SOL     OW26344   4.662   6.917   2.778
 8482SOL    HW126345   4.632   6.991   2.838
 8482SOL    HW226346   4.606   6.917   2.695
 8483SOL     OW26347   3.687   5.905   2.161
 8483SOL    HW126348   3.646   5.996   2.165
 8483SOL    HW226349   3.708   5.874   2.254
 8484SOL     OW26350   6.719   6.040   3.767
 8484SOL    HW126351   6.704   5.994   3.854
 8484SOL    HW226352   6.768   5.979   3.704
 8485SOL     OW26353   3.552   2.674   0.238
 8485SOL    HW126354   3.500   2.630   0.311
 8485SOL    HW226355   3.637   2.624   0.222
 8486SOL     OW26356   2.219   1.453   2.426
 8486SOL    HW126357   2.316   1.467   2.406
 8486SOL    HW226358   2.190   1.520   2.495
 8487SOL     OW26359   6.012   1.668   5.479
 8487SOL    HW126360   5.958   1.642   5.559
 8487SOL    HW226361   6.065   1.589   5.448
 8488SOL     OW26362   5.383   6.455   1.629
 8488SOL    HW126363   5.398   6.421   1.722
 8488SOL    HW226364   5.312   6.401   1.585
 8489SOL     OW26365   6.438   1.765   1.607
 8489SOL    HW126366   6.369   1.763   1.534
 8489SOL    HW226367   6.498   1.844   1.593
 8490SOL     OW26368   3.703   6.261   5.235
 8490SOL    HW126369   3.645   6.267   5.154
 8490SOL    HW226370   3.790   6.218   5.211
 8491SOL     OW26371   2.442   6.058   1.915
 8491SOL    HW126372   2.426   5.959   1.906
 8491SOL    HW226373   2.361   6.100   1.956
 8492SOL     OW26374   5.323   4.296   5.542
 8492SOL    HW126375   5.388   4.242   5.597
 8492SOL    HW226376   5.372   4.371   5.497
 8493SOL     OW26377   2.173   2.035   5.338
 8493SOL    HW126378   2.159   2.095   5.416
 8493SOL    HW226379   2.266   1.998   5.339
 8494SOL     OW26380   4.212   5.023   1.216
 8494SOL    HW126381   4.116   5.004   1.237
 8494SOL    HW226382   4.221   5.042   1.118
 8495SOL     OW26383   6.753   5.177   1.906
 8495SOL    HW126384   6.825   5.143   1.966
 8495SOL    HW226385   6.713   5.101   1.855
 8496SOL     OW26386   1.575   1.626   2.950
 8496SOL    HW126387   1.548   1.663   2.861
 8496SOL    HW226388   1.514   1.551   2.975
 8497SOL     OW26389   6.881   0.848   3.928
 8497SOL    HW126390   6.957   0.831   3.991
 8497SOL    HW226391   6.804   0.789   3.951
 8498SOL     OW26392   6.093   6.299   3.277
 8498SOL    HW126393   6.033   6.284   3.199
 8498SOL    HW226394   6.041   6.338   3.352
 8499SOL     OW26395   2.212   4.010   6.367
 8499SOL    HW126396   2.230   4.032   6.463
 8499SOL    HW226397   2.271   3.934   6.339
 8500SOL     OW26398   1.484   5.872   5.567
 8500SOL    HW126399   1.523   5.782   5.553
 8500SOL    HW226400   1.558   5.939   5.581
 8501SOL     OW26401   0.066   3.008   5.989
 8501SOL    HW126402   0.107   2.917   5.989
 8501SOL    HW226403   6.998   3.003   6.026
 8502SOL     OW26404   0.330   3.335   1.619
 8502SOL    HW126405   0.261   3.279   1.664
 8502SOL    HW226406   0.293   3.427   1.602
 8503SOL     OW26407   0.631   5.204   4.798
 8503SOL    HW126408   0.553   5.265   4.808
 8503SOL    HW226409   0.619   5.147   4.716
 8504SOL     OW26410   2.241   5.188   2.219
 8504SOL    HW126411   2.336   5.165   2.237
 8504SOL    HW226412   2.206   5.246   2.292
 8505SOL     OW26413   6.523   3.455   3.055
 8505SOL    HW126414   6.606   3.497   3.016
 8505SOL    HW226415   6.443   3.491   3.008
 8506SOL     OW26416   1.006   1.269   0.033
 8506SOL    HW126417   1.047   1.273   0.124
 8506SOL    HW226418   1.036   1.185   7.011
 8507SOL     OW26419   3.539   6.974   4.842
 8507SOL    HW126420   3.638   6.979   4.830
 8507SOL    HW226421   3.515   6.886   4.883
 8508SOL     OW26422   4.967   1.842   4.299
 8508SOL    HW126423   4.873   1.843   4.267
 8508SOL    HW226424   5.001   1.935   4.308
 8509SOL     OW26425   4.607   1.476   3.288
 8509SOL    HW126426   4.508   1.465   3.295
 8509SOL    HW226427   4.652   1.425   3.360
 8510SOL     OW26428   5.905   4.704   2.685
 8510SOL    HW126429   5.833   4.701   2.754
 8510SOL    HW226430   5.963   4.623   2.693
 8511SOL     OW26431   6.295   4.242   2.646
 8511SOL    HW126432   6.358   4.215   2.573
 8511SOL    HW226433   6.317   4.335   2.675
 8512SOL     OW26434   2.624   0.901   2.715
 8512SOL    HW126435   2.599   0.866   2.625
 8512SOL    HW226436   2.723   0.910   2.722
 8513SOL     OW26437   6.737   5.488   0.586
 8513SOL    HW126438   6.730   5.399   0.631
 8513SOL    HW226439   6.739   5.560   0.655
 8514SOL     OW26440   1.853   1.731   3.524
 8514SOL    HW126441   1.925   1.674   3.485
 8514SOL    HW226442   1.881   1.826   3.523
 8515SOL     OW26443   4.777   2.687   1.167
 8515SOL    HW126444   4.736   2.699   1.077
 8515SOL    HW226445   4.850   2.618   1.162
 8516SOL     OW26446   0.564   1.620   1.852
 8516SOL    HW126447   0.469   1.624   1.822
 8516SOL    HW226448   0.610   1.706   1.830
 8517SOL     OW26449   0.637   3.060   5.391
 8517SOL    HW126450   0.716   3.024   5.342
 8517SOL    HW226451   0.661   3.147   5.434
 8518SOL     OW26452   4.749   3.595   0.271
 8518SOL    HW126453   4.806   3.576   0.351
 8518SOL    HW226454   4.663   3.636   0.301
 8519SOL     OW26455   1.894   5.081   2.054
 8519SOL    HW126456   1.876   5.143   2.131
 8519SOL    HW226457   1.881   5.131   1.968
 8520SOL     OW26458   3.386   1.428   1.162
 8520SOL    HW126459   3.484   1.414   1.145
 8520SOL    HW226460   3.363   1.395   1.253
 8521SOL     OW26461   2.018   4.993   5.943
 8521SOL    HW126462   1.961   4.972   5.864
 8521SOL    HW226463   2.089   4.923   5.952
 8522SOL     OW26464   1.436   5.995   1.717
 8522SOL    HW126465   1.396   6.082   1.748
 8522SOL    HW226466   1.501   6.013   1.643
 8523SOL     OW26467   3.522   6.609   6.490
 8523SOL    HW126468   3.532   6.705   6.464
 8523SOL    HW226469   3.457   6.564   6.428
 8524SOL     OW26470   1.075   1.965   4.832
 8524SOL    HW126471   1.046   1.921   4.917
 8524SOL    HW226472   1.172   1.989   4.838
 8525SOL     OW26473   6.321   4.153   2.906
 8525SOL    HW126474   6.317   4.214   2.827
 8525SOL    HW226475   6.417   4.132   2.927
 8526SOL     OW26476   3.262   4.381   0.905
 8526SOL    HW126477   3.257   4.300   0.847
 8526SOL    HW226478   3.288   4.354   0.998
 8527SOL     OW26479   3.010   6.890   4.935
 8527SOL    HW126480   2.953   6.927   5.009
 8527SOL    HW226481   2.984   6.931   4.848
 8528SOL     OW26482   5.145   2.690   5.922
 8528SOL    HW126483   5.129   2.678   6.020
 8528SOL    HW226484   5.197   2.612   5.887
 8529SOL     OW26485   1.061   0.178   0.041
 8529SOL    HW126486   1.005   0.104   0.078
 8529SOL    HW226487   1.010   0.263   0.040
 8530SOL     OW26488   1.992   3.934   5.630
 8530SOL    HW126489   1.915   3.964   5.575
 8530SOL    HW226490   2.070   3.994   5.613
 8531SOL     OW26491   5.736   4.448   2.380
 8531SOL    HW126492   5.692   4.509   2.314
 8531SOL    HW226493   5.683   4.364   2.387
 8532SOL     OW26494   3.871   4.965   4.660
 8532SOL    HW126495   3.835   5.052   4.695
 8532SOL    HW226496   3.859   4.962   4.561
 8533SOL     OW26497   2.035   6.891   6.004
 8533SOL    HW126498   2.097   6.936   5.940
 8533SOL    HW226499   2.085   6.865   6.087
 8534SOL     OW26500   6.896   3.591   3.649
 8534SOL    HW126501   6.906   3.681   3.692
 8534SOL    HW226502   6.887   3.521   3.720
 8535SOL     OW26503   0.337   1.781   5.267
 8535SOL    HW126504   0.413   1.720   5.247
 8535SOL    HW226505   0.336   1.856   5.201
 8536SOL     OW26506   5.713   1.662   4.717
 8536SOL    HW126507   5.692   1.636   4.623
 8536SOL    HW226508   5.811   1.656   4.733
 8537SOL     OW26509   5.738   1.256   1.963
 8537SOL    HW126510   5.701   1.164   1.975
 8537SOL    HW226511   5.800   1.257   1.884
 8538SOL     OW26512   0.738   1.415   5.215
 8538SOL    HW126513   0.811   1.482   5.202
 8538SOL    HW226514   0.717   1.371   5.127
 8539SOL     OW26515   6.732   1.989   2.226
 8539SOL    HW126516   6.775   1.899   2.236
 8539SOL    HW226517   6.635   1.982   2.248
 8540SOL     OW26518   3.305   1.409   0.104
 8540SOL    HW126519   3.263   1.386   0.191
 8540SOL    HW226520   3.253   1.481   0.059
 8541SOL     OW26521   3.147   1.916   4.309
 8541SOL    HW126522   3.048   1.934   4.315
 8541SOL    HW226523   3.163   1.818   4.323
 8542SOL     OW26524   2.890   4.628   6.150
 8542SOL    HW126525   2.910   4.559   6.219
 8542SOL    HW226526   2.795   4.657   6.158
 8543SOL     OW26527   2.867   1.428   6.172
 8543SOL    HW126528   2.782   1.416   6.121
 8543SOL    HW226529   2.894   1.341   6.213
 8544SOL     OW26530   5.403   2.730   4.707
 8544SOL    HW126531   5.502   2.744   4.707
 8544SOL    HW226532   5.383   2.638   4.673
 8545SOL     OW26533   4.200   6.938   4.611
 8545SOL    HW126534   4.235   6.855   4.653
 8545SOL    HW226535   4.111   6.961   4.651
 8546SOL     OW26536   0.077   0.128   2.096
 8546SOL    HW126537   0.154   0.192   2.088
 8546SOL    HW226538   0.022   0.131   2.012
 8547SOL     OW26539   0.969   6.936   6.058
 8547SOL    HW126540   0.937   7.006   6.122
 8547SOL    HW226541   0.928   6.952   5.968
 8548SOL     OW26542   6.852   3.645   5.693
 8548SOL    HW126543   6.800   3.568   5.658
 8548SOL    HW226544   6.882   3.703   5.617
 8549SOL     OW26545   0.817   2.443   4.625
 8549SOL    HW126546   0.784   2.532   4.658
 8549SOL    HW226547   0.915   2.435   4.643
 8550SOL     OW26548   1.420   4.821   0.225
 8550SOL    HW126549   1.423   4.920   0.216
 8550SOL    HW226550   1.487   4.780   0.164
 8551SOL     OW26551   2.726   2.875   0.153
 8551SOL    HW126552   2.641   2.840   0.115
 8551SOL    HW226553   2.802   2.814   0.130
 8552SOL     OW26554   1.957   0.610   3.194
 8552SOL    HW126555   1.933   0.617   3.097
 8552SOL    HW226556   1.873   0.609   3.249
 8553SOL     OW26557   4.486   4.030   6.592
 8553SOL    HW126558   4.488   4.015   6.691
 8553SOL    HW226559   4.434   4.113   6.573
 8554SOL     OW26560   6.852   5.650   0.789
 8554SOL    HW126561   6.940   5.685   0.823
 8554SOL    HW226562   6.844   5.553   0.810
 8555SOL     OW26563   3.762   1.525   3.541
 8555SOL    HW126564   3.681   1.466   3.541
 8555SOL    HW226565   3.832   1.484   3.600
 8556SOL     OW26566   2.170   6.156   5.078
 8556SOL    HW126567   2.119   6.115   5.153
 8556SOL    HW226568   2.128   6.130   4.991
 8557SOL     OW26569   6.680   0.289   2.164
 8557SOL    HW126570   6.644   0.372   2.206
 8557SOL    HW226571   6.725   0.312   2.078
 8558SOL     OW26572   2.101   5.610   3.029
 8558SOL    HW126573   2.051   5.685   3.071
 8558SOL    HW226574   2.147   5.556   3.099
 8559SOL     OW26575   2.012   6.850   2.415
 8559SOL    HW126576   1.983   6.755   2.416
 8559SOL    HW226577   2.097   6.860   2.466
 8560SOL     OW26578   1.193   5.489   2.026
 8560SOL    HW126579   1.206   5.544   1.944
 8560SOL    HW226580   1.192   5.548   2.106
 8561SOL     OW26581   3.243   6.894   3.278
 8561SOL    HW126582   3.311   6.911   3.349
 8561SOL    HW226583   3.209   6.980   3.242
 8562SOL     OW26584   3.413   6.247   6.851
 8562SOL    HW126585   3.502   6.292   6.851
 8562SOL    HW226586   3.348   6.302   6.798
 8563SOL     OW26587   0.909   5.062   2.054
 8563SOL    HW126588   0.967   5.134   2.091
 8563SOL    HW226589   0.927   5.050   1.957
 8564SOL     OW26590   3.215   6.634   5.585
 8564SOL    HW126591   3.238   6.680   5.671
 8564SOL    HW226592   3.124   6.664   5.555
 8565SOL     OW26593   3.468   4.869   1.134
 8565SOL    HW126594   3.431   4.905   1.049
 8565SOL    HW226595   3.403   4.803   1.173
 8566SOL     OW26596   0.951   0.351   1.484
 8566SOL    HW126597   0.860   0.353   1.525
 8566SOL    HW226598   0.944   0.369   1.386
 8567SOL     OW26599   1.022   2.276   1.941
 8567SOL    HW126600   0.946   2.210   1.942
 8567SOL    HW226601   1.014   2.334   1.860
 8568SOL     OW26602   5.425   2.161   0.337
 8568SOL    HW126603   5.512   2.116   0.358
 8568SOL    HW226604   5.420   2.248   0.385
 8569SOL     OW26605   5.384   1.749   5.315
 8569SOL    HW126606   5.471   1.754   5.363
 8569SOL    HW226607   5.395   1.695   5.231
 8570SOL     OW26608   1.252   1.628   4.284
 8570SOL    HW126609   1.212   1.546   4.245
 8570SOL    HW226610   1.181   1.697   4.299
 8571SOL     OW26611   0.888   6.386   5.268
 8571SOL    HW126612   0.808   6.364   5.213
 8571SOL    HW226613   0.867   6.371   5.365
 8572SOL     OW26614   1.943   4.236   5.488
 8572SOL    HW126615   1.882   4.168   5.448
 8572SOL    HW226616   1.908   4.265   5.577
 8573SOL     OW26617   3.256   5.817   6.277
 8573SOL    HW126618   3.188   5.865   6.332
 8573SOL    HW226619   3.328   5.882   6.249
 8574SOL     OW26620   5.876   0.372   6.118
 8574SOL    HW126621   5.817   0.408   6.046
 8574SOL    HW226622   5.824   0.311   6.178
 8575SOL     OW26623   2.840   2.295   3.630
 8575SOL    HW126624   2.777   2.314   3.705
 8575SOL    HW226625   2.865   2.380   3.584
 8576SOL     OW26626   1.750   4.785   4.231
 8576SOL    HW126627   1.651   4.788   4.242
 8576SOL    HW226628   1.781   4.690   4.240
 8577SOL     OW26629   1.558   0.191   6.020
 8577SOL    HW126630   1.636   0.133   5.996
 8577SOL    HW226631   1.491   0.189   5.945
 8578SOL     OW26632   6.570   5.141   5.306
 8578SOL    HW126633   6.651   5.140   5.364
 8578SOL    HW226634   6.494   5.183   5.355
 8579SOL     OW26635   1.758   6.323   2.236
 8579SOL    HW126636   1.824   6.324   2.311
 8579SOL    HW226637   1.676   6.275   2.265
 8580SOL     OW26638   1.704   5.792   0.941
 8580SOL    HW126639   1.709   5.728   0.865
 8580SOL    HW226640   1.705   5.885   0.907
 8581SOL     OW26641   3.293   4.497   1.365
 8581SOL    HW126642   3.330   4.499   1.458
 8581SOL    HW226643   3.195   4.481   1.368
 8582SOL     OW26644   4.810   4.651   5.126
 8582SOL    HW126645   4.884   4.594   5.162
 8582SOL    HW226646   4.757   4.598   5.059
 8583SOL     OW26647   3.969   6.852   3.621
 8583SOL    HW126648   3.933   6.784   3.557
 8583SOL    HW226649   3.921   6.939   3.608
 8584SOL     OW26650   1.202   6.235   5.589
 8584SOL    HW126651   1.177   6.332   5.590
 8584SOL    HW226652   1.164   6.192   5.508
 8585SOL     OW26653   5.963   1.187   0.760
 8585SOL    HW126654   5.961   1.166   0.857
 8585SOL    HW226655   5.972   1.102   0.707
 8586SOL     OW26656   3.362   6.765   1.505
 8586SOL    HW126657   3.407   6.726   1.585
 8586SOL    HW226658   3.417   6.841   1.470
 8587SOL     OW26659   0.909   1.058   4.712
 8587SOL    HW126660   0.870   1.026   4.798
 8587SOL    HW226661   0.862   1.013   4.636
 8588SOL     OW26662   4.756   1.208   6.875
 8588SOL    HW126663   4.843   1.256   6.879
 8588SOL    HW226664   4.681   1.270   6.899
 8589SOL     OW26665   6.298   2.882   4.795
 8589SOL    HW126666   6.380   2.826   4.803
 8589SOL    HW226667   6.278   2.898   4.698
 8590SOL     OW26668   0.676   0.713   2.109
 8590SOL    HW126669   0.748   0.783   2.117
 8590SOL    HW226670   0.596   0.753   2.065
 8591SOL     OW26671   0.262   3.912   0.308
 8591SOL    HW126672   0.207   3.995   0.316
 8591SOL    HW226673   0.210   3.843   0.258
 8592SOL     OW26674   5.798   1.878   0.142
 8592SOL    HW126675   5.753   1.883   0.052
 8592SOL    HW226676   5.756   1.805   0.196
 8593SOL     OW26677   3.037   0.839   6.772
 8593SOL    HW126678   3.134   0.820   6.754
 8593SOL    HW226679   2.982   0.761   6.741
 8594SOL     OW26680   5.686   2.173   5.609
 8594SOL    HW126681   5.628   2.209   5.536
 8594SOL    HW226682   5.758   2.116   5.570
 8595SOL     OW26683   6.438   1.168   3.962
 8595SOL    HW126684   6.339   1.157   3.956
 8595SOL    HW226685   6.459   1.248   4.018
 8596SOL     OW26686   1.296   4.821   2.833
 8596SOL    HW126687   1.269   4.869   2.916
 8596SOL    HW226688   1.315   4.725   2.854
 8597SOL     OW26689   5.377   2.273   1.802
 8597SOL    HW126690   5.336   2.364   1.807
 8597SOL    HW226691   5.307   2.206   1.774
 8598SOL     OW26692   5.700   0.342   6.424
 8598SOL    HW126693   5.741   0.407   6.489
 8598SOL    HW226694   5.694   0.252   6.467
 8599SOL     OW26695   1.834   2.662   4.881
 8599SOL    HW126696   1.835   2.592   4.809
 8599SOL    HW226697   1.857   2.619   4.969
 8600SOL     OW26698   5.335   4.069   7.017
 8600SOL    HW126699   5.347   4.086   6.919
 8600SOL    HW226700   5.382   4.139   0.045
 8601SOL     OW26701   0.756   1.950   4.024
 8601SOL    HW126702   0.803   1.924   4.108
 8601SOL    HW226703   0.774   2.047   4.005
 8602SOL     OW26704   2.621   6.950   2.369
 8602SOL    HW126705   2.550   7.001   2.417
 8602SOL    HW226706   2.585   6.861   2.340
 8603SOL     OW26707   5.052   6.987   1.343
 8603SOL    HW126708   5.130   6.971   1.283
 8603SOL    HW226709   5.048   6.914   1.412
 8604SOL     OW26710   1.521   2.299   6.106
 8604SOL    HW126711   1.485   2.376   6.159
 8604SOL    HW226712   1.449   2.231   6.093
 8605SOL     OW26713   2.392   5.173   3.815
 8605SOL    HW126714   2.314   5.112   3.833
 8605SOL    HW226715   2.400   5.240   3.888
 8606SOL     OW26716   1.957   2.893   0.058
 8606SOL    HW126717   2.022   2.875   0.132
 8606SOL    HW226718   1.878   2.943   0.094
 8607SOL     OW26719   2.612   4.696   6.184
 8607SOL    HW126720   2.557   4.753   6.122
 8607SOL    HW226721   2.568   4.607   6.195
 8608SOL     OW26722   2.396   4.628   2.619
 8608SOL    HW126723   2.484   4.616   2.663
 8608SOL    HW226724   2.331   4.561   2.654
 8609SOL     OW26725   4.897   0.732   3.333
 8609SOL    HW126726   4.908   0.816   3.279
 8609SOL    HW226727   4.952   0.659   3.292
 8610SOL     OW26728   0.429   1.138   2.672
 8610SOL    HW126729   0.398   1.065   2.732
 8610SOL    HW226730   0.436   1.223   2.724
 8611SOL     OW26731   2.980   1.439   4.039
 8611SOL    HW126732   3.001   1.426   3.942
 8611SOL    HW226733   3.013   1.529   4.068
 8612SOL     OW26734   3.128   3.187   1.334
 8612SOL    HW126735   3.080   3.120   1.278
 8612SOL    HW226736   3.064   3.256   1.368
 8613SOL     OW26737   3.084   1.881   1.802
 8613SOL    HW126738   3.051   1.940   1.729
 8613SOL    HW226739   3.015   1.877   1.875
 8614SOL     OW26740   0.808   3.264   3.743
 8614SOL    HW126741   0.783   3.238   3.650
 8614SOL    HW226742   0.907   3.265   3.752
 8615SOL     OW26743   4.134   1.928   5.065
 8615SOL    HW126744   4.207   1.968   5.010
 8615SOL    HW226745   4.051   1.922   5.009
 8616SOL     OW26746   3.074   4.759   1.994
 8616SOL    HW126747   3.023   4.699   1.933
 8616SOL    HW226748   3.040   4.747   2.088
 8617SOL     OW26749   5.998   1.274   4.221
 8617SOL    HW126750   5.981   1.214   4.143
 8617SOL    HW226751   5.986   1.223   4.306
 8618SOL     OW26752   6.433   5.068   1.315
 8618SOL    HW126753   6.497   5.013   1.369
 8618SOL    HW226754   6.468   5.079   1.222
 8619SOL     OW26755   4.437   5.301   2.336
 8619SOL    HW126756   4.366   5.364   2.368
 8619SOL    HW226757   4.398   5.238   2.270
 8620SOL     OW26758   1.827   6.104   3.358
 8620SOL    HW126759   1.914   6.073   3.321
 8620SOL    HW226760   1.835   6.199   3.387
 8621SOL     OW26761   5.155   2.686   2.154
 8621SOL    HW126762   5.177   2.783   2.156
 8621SOL    HW226763   5.085   2.666   2.223
 8622SOL     OW26764   4.868   4.109   1.443
 8622SOL    HW126765   4.800   4.102   1.515
 8622SOL    HW226766   4.847   4.188   1.385
 8623SOL     OW26767   1.183   4.111   5.567
 8623SOL    HW126768   1.163   4.205   5.538
 8623SOL    HW226769   1.218   4.059   5.490
 8624SOL     OW26770   2.003   3.793   5.258
 8624SOL    HW126771   2.003   3.698   5.289
 8624SOL    HW226772   2.094   3.833   5.275
 8625SOL     OW26773   4.912   1.043   5.495
 8625SOL    HW126774   4.917   1.140   5.517
 8625SOL    HW226775   5.003   1.008   5.471
 8626SOL     OW26776   4.019   2.300   6.877
 8626SOL    HW126777   3.934   2.351   6.863
 8626SOL    HW226778   4.000   2.216   6.927
 8627SOL     OW26779   2.058   1.696   2.171
 8627SOL    HW126780   2.067   1.597   2.160
 8627SOL    HW226781   2.096   1.722   2.260
 8628SOL     OW26782   6.075   6.458   0.570
 8628SOL    HW126783   6.172   6.438   0.557
 8628SOL    HW226784   6.061   6.557   0.575
 8629SOL     OW26785   1.689   6.413   5.185
 8629SOL    HW126786   1.671   6.315   5.189
 8629SOL    HW226787   1.608   6.461   5.151
 8630SOL     OW26788   5.063   2.935   3.567
 8630SOL    HW126789   5.082   2.871   3.642
 8630SOL    HW226790   5.103   3.024   3.589
 8631SOL     OW26791   1.072   5.483   6.092
 8631SOL    HW126792   1.020   5.406   6.055
 8631SOL    HW226793   1.125   5.526   6.020
 8632SOL     OW26794   4.002   4.986   5.504
 8632SOL    HW126795   4.019   4.892   5.533
 8632SOL    HW226796   4.042   5.000   5.413
 8633SOL     OW26797   5.726   2.706   6.148
 8633SOL    HW126798   5.712   2.723   6.245
 8633SOL    HW226799   5.653   2.748   6.095
 8634SOL     OW26800   4.898   4.059   6.861
 8634SOL    HW126801   4.840   4.019   6.932
 8634SOL    HW226802   4.984   4.007   6.855
 8635SOL     OW26803   5.473   2.973   6.687
 8635SOL    HW126804   5.414   3.001   6.611
 8635SOL    HW226805   5.417   2.953   6.767
 8636SOL     OW26806   5.627   6.374   0.673
 8636SOL    HW126807   5.666   6.386   0.582
 8636SOL    HW226808   5.536   6.332   0.664
 8637SOL     OW26809   1.676   1.483   6.738
 8637SOL    HW126810   1.709   1.403   6.688
 8637SOL    HW226811   1.580   1.499   6.715
 8638SOL     OW26812   3.839   2.171   4.984
 8638SOL    HW126813   3.893   2.122   4.915
 8638SOL    HW226814   3.744   2.176   4.955
 8639SOL     OW26815   5.294   2.841   0.095
 8639SOL    HW126816   5.225   2.834   0.167
 8639SOL    HW226817   5.378   2.795   0.125
 8640SOL     OW26818   3.928   3.357   6.776
 8640SOL    HW126819   3.854   3.379   6.713
 8640SOL    HW226820   4.015   3.387   6.738
 8641SOL     OW26821   3.975   4.973   4.175
 8641SOL    HW126822   3.921   4.989   4.257
 8641SOL    HW226823   4.063   4.932   4.200
 8642SOL     OW26824   1.196   6.599   4.325
 8642SOL    HW126825   1.166   6.518   4.274
 8642SOL    HW226826   1.221   6.573   4.418
 8643SOL     OW26827   2.080   0.940   0.058
 8643SOL    HW126828   2.032   0.886   0.127
 8643SOL    HW226829   2.052   1.036   0.064
 8644SOL     OW26830   5.791   2.265   5.983
 8644SOL    HW126831   5.834   2.312   6.061
 8644SOL    HW226832   5.862   2.226   5.925
 8645SOL     OW26833   4.289   4.662   1.569
 8645SOL    HW126834   4.270   4.753   1.608
 8645SOL    HW226835   4.374   4.666   1.517
 8646SOL     OW26836   0.285   2.173   6.752
 8646SOL    HW126837   0.356   2.233   6.716
 8646SOL    HW226838   0.252   2.208   6.840
 8647SOL     OW26839   2.683   4.624   6.994
 8647SOL    HW126840   2.768   4.676   6.996
 8647SOL    HW226841   2.669   4.586   6.903
 8648SOL     OW26842   6.937   0.196   2.603
 8648SOL    HW126843   6.996   0.173   2.526
 8648SOL    HW226844   6.988   0.251   2.669
 8649SOL     OW26845   5.763   5.652   6.902
 8649SOL    HW126846   5.780   5.741   6.944
 8649SOL    HW226847   5.795   5.654   6.807
 8650SOL     OW26848   1.630   6.175   5.273
 8650SOL    HW126849   1.586   6.121   5.201
 8650SOL    HW226850   1.708   6.125   5.310
 8651SOL     OW26851   3.926   0.562   0.616
 8651SOL    HW126852   3.934   0.646   0.670
 8651SOL    HW226853   3.848   0.509   0.650
 8652SOL     OW26854   1.143   5.099   2.989
 8652SOL    HW126855   1.177   5.070   3.079
 8652SOL    HW226856   1.076   5.033   2.956
 8653SOL     OW26857   0.153   0.974   6.587
 8653SOL    HW126858   0.060   0.986   6.621
 8653SOL    HW226859   0.218   1.002   6.657
 8654SOL     OW26860   0.769   4.973   1.316
 8654SOL    HW126861   0.699   4.914   1.275
 8654SOL    HW226862   0.815   4.923   1.389
 8655SOL     OW26863   5.970   0.564   4.627
 8655SOL    HW126864   5.988   0.655   4.663
 8655SOL    HW226865   6.048   0.504   4.647
 8656SOL     OW26866   6.705   0.834   1.979
 8656SOL    HW126867   6.727   0.813   1.884
 8656SOL    HW226868   6.774   0.896   2.016
 8657SOL     OW26869   5.369   6.078   0.249
 8657SOL    HW126870   5.397   6.007   0.313
 8657SOL    HW226871   5.273   6.064   0.223
 8658SOL     OW26872   6.429   6.390   0.219
 8658SOL    HW126873   6.456   6.484   0.201
 8658SOL    HW226874   6.405   6.380   0.316
 8659SOL     OW26875   4.946   2.475   2.354
 8659SOL    HW126876   5.041   2.450   2.370
 8659SOL    HW226877   4.891   2.391   2.344
 8660SOL     OW26878   6.635   3.984   1.796
 8660SOL    HW126879   6.537   4.000   1.809
 8660SOL    HW226880   6.652   3.962   1.699
 8661SOL     OW26881   6.556   3.791   1.300
 8661SOL    HW126882   6.477   3.783   1.360
 8661SOL    HW226883   6.527   3.820   1.209
 8662SOL     OW26884   4.460   5.498   1.656
 8662SOL    HW126885   4.498   5.509   1.748
 8662SOL    HW226886   4.362   5.518   1.657
 8663SOL     OW26887   2.276   5.571   2.316
 8663SOL    HW126888   2.195   5.564   2.375
 8663SOL    HW226889   2.250   5.549   2.222
 8664SOL     OW26890   2.227   4.970   1.398
 8664SOL    HW126891   2.309   5.015   1.363
 8664SOL    HW226892   2.242   4.940   1.493
 8665SOL     OW26893   5.828   5.511   5.110
 8665SOL    HW126894   5.819   5.445   5.035
 8665SOL    HW226895   5.738   5.527   5.151
 8666SOL     OW26896   5.777   0.837   3.890
 8666SOL    HW126897   5.872   0.810   3.902
 8666SOL    HW226898   5.768   0.893   3.808
 8667SOL     OW26899   4.577   2.073   4.280
 8667SOL    HW126900   4.587   1.982   4.240
 8667SOL    HW226901   4.504   2.073   4.347
 8668SOL     OW26902   5.363   3.703   3.766
 8668SOL    HW126903   5.391   3.780   3.710
 8668SOL    HW226904   5.382   3.618   3.717
 8669SOL     OW26905   0.357   6.349   6.667
 8669SOL    HW126906   0.450   6.381   6.648
 8669SOL    HW226907   0.294   6.426   6.658
 8670SOL     OW26908   3.997   5.512   6.348
 8670SOL    HW126909   4.036   5.600   6.320
 8670SOL    HW226910   4.063   5.463   6.405
 8671SOL     OW26911   0.066   1.348   3.405
 8671SOL    HW126912   0.093   1.401   3.486
 8671SOL    HW226913   0.060   1.409   3.326
 8672SOL     OW26914   0.628   5.830   3.889
 8672SOL    HW126915   0.545   5.822   3.835
 8672SOL    HW226916   0.657   5.925   3.893
 8673SOL     OW26917   5.898   1.508   0.441
 8673SOL    HW126918   5.867   1.451   0.517
 8673SOL    HW226919   5.819   1.557   0.402
 8674SOL     OW26920   5.732   5.326   3.242
 8674SOL    HW126921   5.685   5.285   3.164
 8674SOL    HW226922   5.829   5.301   3.240
 8675SOL     OW26923   3.926   1.535   5.107
 8675SOL    HW126924   3.989   1.563   5.035
 8675SOL    HW226925   3.891   1.616   5.155
 8676SOL     OW26926   4.963   6.854   3.348
 8676SOL    HW126927   4.980   6.944   3.309
 8676SOL    HW226928   4.952   6.861   3.447
 8677SOL     OW26929   2.018   5.634   5.999
 8677SOL    HW126930   2.093   5.592   5.950
 8677SOL    HW226931   1.949   5.564   6.022
 8678SOL     OW26932   1.045   0.011   0.712
 8678SOL    HW126933   0.980   0.054   0.776
 8678SOL    HW226934   1.000   7.023   0.623
 8679SOL     OW26935   1.021   1.282   3.463
 8679SOL    HW126936   0.974   1.231   3.535
 8679SOL    HW226937   1.117   1.296   3.488
 8680SOL     OW26938   6.512   3.850   0.320
 8680SOL    HW126939   6.533   3.853   0.418
 8680SOL    HW226940   6.467   3.763   0.299
 8681SOL     OW26941   4.795   5.501   1.634
 8681SOL    HW126942   4.785   5.577   1.570
 8681SOL    HW226943   4.706   5.458   1.648
 8682SOL     OW26944   6.015   6.895   2.753
 8682SOL    HW126945   6.030   6.857   2.844
 8682SOL    HW226946   5.940   6.846   2.708
 8683SOL     OW26947   1.596   2.080   5.377
 8683SOL    HW126948   1.592   1.991   5.424
 8683SOL    HW226949   1.665   2.138   5.420
 8684SOL     OW26950   5.807   3.242   4.285
 8684SOL    HW126951   5.753   3.218   4.204
 8684SOL    HW226952   5.863   3.323   4.265
 8685SOL     OW26953   6.146   2.922   6.365
 8685SOL    HW126954   6.066   2.882   6.410
 8685SOL    HW226955   6.220   2.856   6.362
 8686SOL     OW26956   7.017   1.030   1.903
 8686SOL    HW126957   0.087   1.034   1.870
 8686SOL    HW226958   7.016   1.012   2.001
 8687SOL     OW26959   5.162   5.459   3.066
 8687SOL    HW126960   5.171   5.479   2.968
 8687SOL    HW226961   5.253   5.456   3.108
 8688SOL     OW26962   1.395   5.391   6.952
 8688SOL    HW126963   1.345   5.383   6.866
 8688SOL    HW226964   1.332   5.380   0.005
 8689SOL     OW26965   4.192   2.437   0.487
 8689SOL    HW126966   4.192   2.454   0.586
 8689SOL    HW226967   4.276   2.474   0.447
 8690SOL     OW26968   1.368   3.601   4.538
 8690SOL    HW126969   1.374   3.528   4.469
 8690SOL    HW226970   1.277   3.642   4.535
 8691SOL     OW26971   4.238   2.094   6.058
 8691SOL    HW126972   4.263   2.190   6.064
 8691SOL    HW226973   4.318   2.037   6.076
 8692SOL     OW26974   3.261   0.823   4.418
 8692SOL    HW126975   3.254   0.726   4.395
 8692SOL    HW226976   3.315   0.834   4.502
 8693SOL     OW26977   5.620   0.267   0.304
 8693SOL    HW126978   5.679   0.250   0.384
 8693SOL    HW226979   5.528   0.288   0.335
 8694SOL     OW26980   5.433   1.373   4.492
 8694SOL    HW126981   5.369   1.408   4.423
 8694SOL    HW226982   5.405   1.281   4.520
 8695SOL     OW26983   4.388   3.276   6.293
 8695SOL    HW126984   4.340   3.344   6.349
 8695SOL    HW226985   4.356   3.282   6.198
 8696SOL     OW26986   2.722   5.511   5.211
 8696SOL    HW126987   2.807   5.553   5.243
 8696SOL    HW226988   2.742   5.420   5.175
 8697SOL     OW26989   0.529   4.374   6.525
 8697SOL    HW126990   0.512   4.346   6.619
 8697SOL    HW226991   0.507   4.471   6.515
 8698SOL     OW26992   4.739   5.966   4.974
 8698SOL    HW126993   4.801   5.933   5.045
 8698SOL    HW226994   4.792   5.987   4.891
 8699SOL     OW26995   1.581   3.026   4.953
 8699SOL    HW126996   1.664   3.081   4.944
 8699SOL    HW226997   1.580   2.956   4.881
 8700SOL     OW26998   0.878   0.629   4.772
 8700SOL    HW126999   0.836   0.663   4.857
 8700SOL    HW227000   0.945   0.558   4.794
 8701SOL     OW27001   1.740   1.144   0.553
 8701SOL    HW127002   1.829   1.188   0.555
 8701SOL    HW227003   1.668   1.214   0.556
 8702SOL     OW27004   5.500   5.039   1.647
 8702SOL    HW127005   5.450   5.049   1.733
 8702SOL    HW227006   5.484   5.119   1.589
 8703SOL     OW27007   2.964   4.465   6.964
 8703SOL    HW127008   2.996   4.473   0.034
 8703SOL    HW227009   2.919   4.551   6.936
 8704SOL     OW27010   0.345   4.500   3.469
 8704SOL    HW127011   0.268   4.450   3.430
 8704SOL    HW227012   0.423   4.495   3.407
 8705SOL     OW27013   5.040   1.876   6.260
 8705SOL    HW127014   5.097   1.935   6.204
 8705SOL    HW227015   4.946   1.911   6.260
 8706SOL     OW27016   4.619   2.081   0.095
 8706SOL    HW127017   4.641   2.075   0.193
 8706SOL    HW227018   4.645   1.995   0.051
 8707SOL     OW27019   0.733   1.995   4.757
 8707SOL    HW127020   0.681   2.062   4.704
 8707SOL    HW227021   0.701   1.903   4.734
 8708SOL     OW27022   3.969   1.853   3.521
 8708SOL    HW127023   4.037   1.872   3.451
 8708SOL    HW227024   3.997   1.774   3.575
 8709SOL     OW27025   6.428   6.598   6.732
 8709SOL    HW127026   6.493   6.632   6.799
 8709SOL    HW227027   6.400   6.672   6.671
 8710SOL     OW27028   2.124   2.583   3.620
 8710SOL    HW127029   2.029   2.587   3.649
 8710SOL    HW227030   2.174   2.517   3.676
 8711SOL     OW27031   2.292   6.447   2.951
 8711SOL    HW127032   2.345   6.378   3.000
 8711SOL    HW227033   2.345   6.532   2.945
 8712SOL     OW27034   3.387   1.626   4.425
 8712SOL    HW127035   3.471   1.613   4.372
 8712SOL    HW227036   3.398   1.707   4.484
 8713SOL     OW27037   6.948   3.277   1.800
 8713SOL    HW127038   6.910   3.192   1.838
 8713SOL    HW227039   6.882   3.351   1.811
 8714SOL     OW27040   1.447   0.477   5.624
 8714SOL    HW127041   1.412   0.384   5.620
 8714SOL    HW227042   1.543   0.476   5.653
 8715SOL     OW27043   3.772   0.882   0.647
 8715SOL    HW127044   3.770   0.979   0.625
 8715SOL    HW227045   3.866   0.853   0.663
 8716SOL     OW27046   0.182   6.394   0.018
 8716SOL    HW127047   0.114   6.456   7.003
 8716SOL    HW227048   0.197   6.318   6.980
 8717SOL     OW27049   2.777   3.640   5.461
 8717SOL    HW127050   2.710   3.681   5.398
 8717SOL    HW227051   2.869   3.653   5.423
 8718SOL     OW27052   1.443   2.542   6.219
 8718SOL    HW127053   1.504   2.589   6.283
 8718SOL    HW227054   1.432   2.599   6.137
 8719SOL     OW27055   3.513   6.989   0.133
 8719SOL    HW127056   3.529   6.964   0.228
 8719SOL    HW227057   3.588   0.023   0.101
 8720SOL     OW27058   1.227   6.495   5.834
 8720SOL    HW127059   1.234   6.523   5.930
 8720SOL    HW227060   1.316   6.461   5.803
 8721SOL     OW27061   6.530   1.621   0.900
 8721SOL    HW127062   6.546   1.713   0.937
 8721SOL    HW227063   6.464   1.573   0.957
 8722SOL     OW27064   3.360   1.129   1.662
 8722SOL    HW127065   3.269   1.110   1.700
 8722SOL    HW227066   3.428   1.129   1.736
 8723SOL     OW27067   5.151   0.111   1.679
 8723SOL    HW127068   5.087   0.169   1.729
 8723SOL    HW227069   5.121   0.103   1.584
 8724SOL     OW27070   5.929   0.048   4.230
 8724SOL    HW127071   5.915   0.102   4.147
 8724SOL    HW227072   5.858   0.070   4.297
 8725SOL     OW27073   1.426   5.380   5.643
 8725SOL    HW127074   1.337   5.399   5.602
 8725SOL    HW227075   1.480   5.464   5.649
 8726SOL     OW27076   0.148   0.559   2.063
 8726SOL    HW127077   0.163   0.627   1.991
 8726SOL    HW227078   0.067   0.504   2.041
 8727SOL     OW27079   6.150   0.263   1.267
 8727SOL    HW127080   6.226   0.211   1.230
 8727SOL    HW227081   6.166   0.361   1.251
 8728SOL     OW27082   5.828   0.881   2.435
 8728SOL    HW127083   5.860   0.841   2.349
 8728SOL    HW227084   5.730   0.901   2.428
 8729SOL     OW27085   3.431   4.634   5.394
 8729SOL    HW127086   3.483   4.551   5.418
 8729SOL    HW227087   3.333   4.615   5.400
 8730SOL     OW27088   5.306   4.152   2.876
 8730SOL    HW127089   5.238   4.108   2.935
 8730SOL    HW227090   5.266   4.168   2.786
 8731SOL     OW27091   0.567   3.851   3.392
 8731SOL    HW127092   0.595   3.946   3.380
 8731SOL    HW227093   0.642   3.801   3.436
 8732SOL     OW27094   5.952   4.854   2.398
 8732SOL    HW127095   6.043   4.871   2.360
 8732SOL    HW227096   5.960   4.811   2.487
 8733SOL     OW27097   1.210   5.714   0.676
 8733SOL    HW127098   1.112   5.729   0.674
 8733SOL    HW227099   1.236   5.675   0.765
 8734SOL     OW27100   0.598   2.981   3.447
 8734SOL    HW127101   0.644   3.069   3.454
 8734SOL    HW227102   0.654   2.918   3.393
 8735SOL     OW27103   0.872   3.033   5.681
 8735SOL    HW127104   0.900   3.036   5.777
 8735SOL    HW227105   0.837   2.942   5.659
 8736SOL     OW27106   6.752   5.576   2.123
 8736SOL    HW127107   6.698   5.651   2.162
 8736SOL    HW227108   6.827   5.614   2.070
 8737SOL     OW27109   2.217   6.658   7.000
 8737SOL    HW127110   2.212   6.726   0.049
 8737SOL    HW227111   2.286   6.686   6.933
 8738SOL     OW27112   2.685   5.726   3.447
 8738SOL    HW127113   2.699   5.627   3.456
 8738SOL    HW227114   2.594   5.744   3.410
 8739SOL     OW27115   5.490   5.554   6.321
 8739SOL    HW127116   5.524   5.644   6.351
 8739SOL    HW227117   5.556   5.514   6.257
 8740SOL     OW27118   4.033   1.651   3.712
 8740SOL    HW127119   3.988   1.562   3.720
 8740SOL    HW227120   4.132   1.638   3.714
 8741SOL     OW27121   2.193   0.749   2.992
 8741SOL    HW127122   2.202   0.715   2.898
 8741SOL    HW227123   2.147   0.681   3.048
 8742SOL     OW27124   4.704   0.444   1.842
 8742SOL    HW127125   4.737   0.354   1.871
 8742SOL    HW227126   4.629   0.473   1.900
 8743SOL     OW27127   1.381   0.331   1.267
 8743SOL    HW127128   1.308   0.394   1.243
 8743SOL    HW227129   1.344   0.255   1.320
 8744SOL     OW27130   4.355   2.734   0.525
 8744SOL    HW127131   4.378   2.666   0.455
 8744SOL    HW227132   4.286   2.797   0.489
 8745SOL     OW27133   5.806   2.065   6.304
 8745SOL    HW127134   5.826   2.016   6.388
 8745SOL    HW227135   5.774   2.157   6.325
 8746SOL     OW27136   5.288   5.726   4.031
 8746SOL    HW127137   5.296   5.799   4.099
 8746SOL    HW227138   5.203   5.676   4.046
 8747SOL     OW27139   0.653   1.512   2.616
 8747SOL    HW127140   0.599   1.552   2.542
 8747SOL    HW227141   0.717   1.580   2.650
 8748SOL     OW27142   0.356   2.190   4.653
 8748SOL    HW127143   0.265   2.167   4.686
 8748SOL    HW227144   0.418   2.204   4.730
 8749SOL     OW27145   1.820   0.092   5.719
 8749SOL    HW127146   1.800   0.043   5.804
 8749SOL    HW227147   1.874   0.174   5.740
 8750SOL     OW27148   3.617   3.613   5.785
 8750SOL    HW127149   3.642   3.600   5.881
 8750SOL    HW227150   3.524   3.581   5.770
 8751SOL     OW27151   6.902   1.372   2.150
 8751SOL    HW127152   6.948   1.360   2.238
 8751SOL    HW227153   6.937   1.454   2.105
 8752SOL     OW27154   3.467   2.719   6.972
 8752SOL    HW127155   3.498   2.641   6.918
 8752SOL    HW227156   3.523   2.727   0.031
 8753SOL     OW27157   2.454   2.371   6.136
 8753SOL    HW127158   2.371   2.419   6.165
 8753SOL    HW227159   2.531   2.400   6.193
 8754SOL     OW27160   2.425   4.619   5.659
 8754SOL    HW127161   2.523   4.604   5.670
 8754SOL    HW227162   2.399   4.703   5.707
 8755SOL     OW27163   2.133   0.449   0.983
 8755SOL    HW127164   2.088   0.360   0.985
 8755SOL    HW227165   2.068   0.520   1.010
 8756SOL     OW27166   1.903   3.229   3.242
 8756SOL    HW127167   1.974   3.161   3.225
 8756SOL    HW227168   1.945   3.318   3.258
 8757SOL     OW27169   4.706   5.751   0.131
 8757SOL    HW127170   4.752   5.790   0.050
 8757SOL    HW227171   4.616   5.717   0.105
 8758SOL     OW27172   4.736   6.252   2.865
 8758SOL    HW127173   4.808   6.268   2.933
 8758SOL    HW227174   4.649   6.237   2.911
 8759SOL     OW27175   5.528   3.263   6.966
 8759SOL    HW127176   5.445   3.269   7.022
 8759SOL    HW227177   5.574   3.176   6.983
 8760SOL     OW27178   2.695   0.268   4.650
 8760SOL    HW127179   2.701   0.334   4.724
 8760SOL    HW227180   2.599   0.250   4.628
 8761SOL     OW27181   5.984   2.066   1.205
 8761SOL    HW127182   6.032   2.082   1.291
 8761SOL    HW227183   6.051   2.062   1.130
 8762SOL     OW27184   0.315   5.365   4.453
 8762SOL    HW127185   0.403   5.412   4.455
 8762SOL    HW227186   0.324   5.278   4.404
 8763SOL     OW27187   5.876   0.104   5.780
 8763SOL    HW127188   5.917   0.060   5.860
 8763SOL    HW227189   5.905   0.200   5.777
 8764SOL     OW27190   4.434   6.748   5.778
 8764SOL    HW127191   4.424   6.819   5.847
 8764SOL    HW227192   4.503   6.776   5.711
 8765SOL     OW27193   5.317   0.848   4.478
 8765SOL    HW127194   5.227   0.831   4.438
 8765SOL    HW227195   5.387   0.805   4.422
 8766SOL     OW27196   4.346   4.286   5.336
 8766SOL    HW127197   4.300   4.359   5.286
 8766SOL    HW227198   4.290   4.204   5.335
 8767SOL     OW27199   4.763   6.491   3.204
 8767SOL    HW127200   4.779   6.536   3.292
 8767SOL    HW227201   4.738   6.560   3.135
 8768SOL     OW27202   1.007   2.978   0.726
 8768SOL    HW127203   1.078   2.926   0.678
 8768SOL    HW227204   1.038   3.071   0.741
 8769SOL     OW27205   0.110   1.138   2.837
 8769SOL    HW127206   0.017   1.106   2.859
 8769SOL    HW227207   0.169   1.060   2.821
 8770SOL     OW27208   4.598   4.405   2.377
 8770SOL    HW127209   4.598   4.366   2.469
 8770SOL    HW227210   4.635   4.338   2.313
 8771SOL     OW27211   1.266   2.191   6.118
 8771SOL    HW127212   1.217   2.121   6.066
 8771SOL    HW227213   1.263   2.168   6.216
 8772SOL     OW27214   4.549   0.430   6.528
 8772SOL    HW127215   4.479   0.492   6.564
 8772SOL    HW227216   4.512   0.338   6.523
 8773SOL     OW27217   5.872   2.423   3.417
 8773SOL    HW127218   5.844   2.507   3.464
 8773SOL    HW227219   5.850   2.344   3.474
 8774SOL     OW27220   1.310   0.205   0.097
 8774SOL    HW127221   1.211   0.215   0.086
 8774SOL    HW227222   1.355   0.219   0.009
 8775SOL     OW27223   5.393   1.010   5.525
 8775SOL    HW127224   5.417   1.020   5.621
 8775SOL    HW227225   5.378   1.101   5.485
 8776SOL     OW27226   4.607   3.652   0.962
 8776SOL    HW127227   4.553   3.601   1.029
 8776SOL    HW227228   4.547   3.713   0.910
 8777SOL     OW27229   6.640   4.223   3.257
 8777SOL    HW127230   6.573   4.190   3.190
 8777SOL    HW227231   6.726   4.173   3.245
 8778SOL     OW27232   5.257   2.498   5.731
 8778SOL    HW127233   5.343   2.510   5.681
 8778SOL    HW227234   5.267   2.422   5.796
 8779SOL     OW27235   2.338   5.749   2.582
 8779SOL    HW127236   2.275   5.752   2.659
 8779SOL    HW227237   2.298   5.693   2.509
 8780SOL     OW27238   0.342   0.122   2.976
 8780SOL    HW127239   0.350   0.176   3.059
 8780SOL    HW227240   0.423   0.134   2.919
 8781SOL     OW27241   4.983   0.592   3.845
 8781SOL    HW127242   4.936   0.680   3.855
 8781SOL    HW227243   5.038   0.592   3.761
 8782SOL     OW27244   6.644   0.517   1.515
 8782SOL    HW127245   6.624   0.486   1.608
 8782SOL    HW227246   6.582   0.592   1.491
 8783SOL     OW27247   6.869   4.068   3.231
 8783SOL    HW127248   6.882   4.011   3.150
 8783SOL    HW227249   6.839   4.012   3.307
 8784SOL     OW27250   6.598   6.582   6.038
 8784SOL    HW127251   6.525   6.635   5.994
 8784SOL    HW227252   6.591   6.592   6.137
 8785SOL     OW27253   6.632   5.304   6.622
 8785SOL    HW127254   6.662   5.352   6.704
 8785SOL    HW227255   6.559   5.355   6.577
 8786SOL     OW27256   3.054   1.462   1.411
 8786SOL    HW127257   3.049   1.530   1.338
 8786SOL    HW227258   2.999   1.383   1.386
 8787SOL     OW27259   3.227   0.654   2.395
 8787SOL    HW127260   3.216   0.595   2.316
 8787SOL    HW227261   3.184   0.612   2.475
 8788SOL     OW27262   0.276   1.289   5.250
 8788SOL    HW127263   0.250   1.234   5.329
 8788SOL    HW227264   0.274   1.232   5.168
 8789SOL     OW27265   6.448   4.874   5.570
 8789SOL    HW127266   6.435   4.959   5.620
 8789SOL    HW227267   6.386   4.872   5.491
 8790SOL     OW27268   6.156   1.052   6.076
 8790SOL    HW127269   6.165   1.150   6.059
 8790SOL    HW227270   6.246   1.013   6.096
 8791SOL     OW27271   4.752   6.776   4.583
 8791SOL    HW127272   4.729   6.800   4.489
 8791SOL    HW227273   4.709   6.842   4.645
 8792SOL     OW27274   3.519   5.304   2.860
 8792SOL    HW127275   3.616   5.312   2.880
 8792SOL    HW227276   3.506   5.260   2.771
 8793SOL     OW27277   0.634   5.185   2.713
 8793SOL    HW127278   0.620   5.281   2.740
 8793SOL    HW227279   0.545   5.143   2.694
 8794SOL     OW27280   5.828   0.908   3.038
 8794SOL    HW127281   5.734   0.928   3.067
 8794SOL    HW227282   5.839   0.808   3.030
 8795SOL     OW27283   1.170   4.539   5.305
 8795SOL    HW127284   1.188   4.607   5.375
 8795SOL    HW227285   1.257   4.499   5.274
 8796SOL     OW27286   5.576   2.595   3.006
 8796SOL    HW127287   5.479   2.604   3.030
 8796SOL    HW227288   5.628   2.669   3.049
 8797SOL     OW27289   0.326   7.009   5.739
 8797SOL    HW127290   0.322   0.041   5.656
 8797SOL    HW227291   0.312   6.913   5.715
 8798SOL     OW27292   4.396   6.342   6.780
 8798SOL    HW127293   4.440   6.405   6.844
 8798SOL    HW227294   4.444   6.254   6.782
 8799SOL     OW27295   2.558   5.110   3.435
 8799SOL    HW127296   2.551   5.191   3.494
 8799SOL    HW227297   2.654   5.088   3.421
 8800SOL     OW27298   5.359   5.281   6.609
 8800SOL    HW127299   5.367   5.273   6.510
 8800SOL    HW227300   5.263   5.270   6.635
 8801SOL     OW27301   6.030   1.699   4.453
 8801SOL    HW127302   6.102   1.759   4.418
 8801SOL    HW227303   5.995   1.643   4.378
 8802SOL     OW27304   1.525   5.711   6.104
 8802SOL    HW127305   1.429   5.712   6.075
 8802SOL    HW227306   1.552   5.617   6.125
 8803SOL     OW27307   0.277   0.129   0.118
 8803SOL    HW127308   0.188   0.107   0.159
 8803SOL    HW227309   0.287   0.228   0.112
 8804SOL     OW27310   2.584   5.934   1.193
 8804SOL    HW127311   2.622   5.844   1.171
 8804SOL    HW227312   2.630   6.004   1.138
 8805SOL     OW27313   4.072   5.353   2.990
 8805SOL    HW127314   4.090   5.306   2.903
 8805SOL    HW227315   3.993   5.311   3.034
 8806SOL     OW27316   2.710   5.127   0.715
 8806SOL    HW127317   2.626   5.143   0.662
 8806SOL    HW227318   2.724   5.029   0.725
 8807SOL     OW27319   4.370   1.479   0.373
 8807SOL    HW127320   4.446   1.437   0.423
 8807SOL    HW227321   4.370   1.578   0.391
 8808SOL     OW27322   6.985   2.259   6.003
 8808SOL    HW127323   0.026   2.250   5.928
 8808SOL    HW227324   6.914   2.188   5.996
 8809SOL     OW27325   2.639   4.695   3.510
 8809SOL    HW127326   2.621   4.607   3.468
 8809SOL    HW227327   2.700   4.748   3.451
 8810SOL     OW27328   5.475   0.539   4.925
 8810SOL    HW127329   5.481   0.621   4.981
 8810SOL    HW227330   5.463   0.564   4.829
 8811SOL     OW27331   2.784   0.414   3.405
 8811SOL    HW127332   2.738   0.363   3.477
 8811SOL    HW227333   2.882   0.419   3.425
 8812SOL     OW27334   2.256   0.565   0.756
 8812SOL    HW127335   2.225   0.607   0.671
 8812SOL    HW227336   2.187   0.502   0.790
 8813SOL     OW27337   1.831   5.002   2.977
 8813SOL    HW127338   1.879   5.031   3.060
 8813SOL    HW227339   1.737   4.977   3.000
 8814SOL     OW27340   6.001   0.137   0.657
 8814SOL    HW127341   6.081   0.194   0.674
 8814SOL    HW227342   5.964   0.105   0.744
 8815SOL     OW27343   5.496   0.002   1.502
 8815SOL    HW127344   5.463   7.015   1.596
 8815SOL    HW227345   5.458   6.953   1.444
 8816SOL     OW27346   0.971   6.406   6.421
 8816SOL    HW127347   0.999   6.433   6.328
 8816SOL    HW227348   0.882   6.360   6.417
 8817SOL     OW27349   0.006   4.227   3.616
 8817SOL    HW127350   0.060   4.143   3.606
 8817SOL    HW227351   0.068   4.305   3.623
 8818SOL     OW27352   1.006   6.103   3.893
 8818SOL    HW127353   0.972   6.084   3.986
 8818SOL    HW227354   0.951   6.051   3.827
 8819SOL     OW27355   6.298   4.676   5.753
 8819SOL    HW127356   6.314   4.589   5.705
 8819SOL    HW227357   6.352   4.748   5.710
 8820SOL     OW27358   3.032   1.074   4.948
 8820SOL    HW127359   2.989   1.096   4.860
 8820SOL    HW227360   2.961   1.057   5.016
 8821SOL     OW27361   1.416   5.910   0.881
 8821SOL    HW127362   1.448   5.851   0.956
 8821SOL    HW227363   1.320   5.933   0.896
 8822SOL     OW27364   0.740   0.718   3.621
 8822SOL    HW127365   0.781   0.659   3.690
 8822SOL    HW227366   0.669   0.667   3.572
 8823SOL     OW27367   1.820   1.330   1.933
 8823SOL    HW127368   1.741   1.269   1.940
 8823SOL    HW227369   1.893   1.297   1.992
 8824SOL     OW27370   1.576   0.940   0.515
 8824SOL    HW127371   1.621   0.867   0.464
 8824SOL    HW227372   1.641   1.013   0.535
 8825SOL     OW27373   1.353   1.591   1.634
 8825SOL    HW127374   1.434   1.535   1.655
 8825SOL    HW227375   1.373   1.651   1.557
 8826SOL     OW27376   0.777   3.775   1.220
 8826SOL    HW127377   0.801   3.806   1.128
 8826SOL    HW227378   0.809   3.681   1.233
 8827SOL     OW27379   4.091   0.604   3.375
 8827SOL    HW127380   4.057   0.695   3.399
 8827SOL    HW227381   4.127   0.558   3.456
 8828SOL     OW27382   4.009   4.839   6.905
 8828SOL    HW127383   3.937   4.780   6.941
 8828SOL    HW227384   3.992   4.856   6.808
 8829SOL     OW27385   5.718   1.784   1.129
 8829SOL    HW127386   5.799   1.757   1.077
 8829SOL    HW227387   5.649   1.711   1.124
 8830SOL     OW27388   2.208   1.364   2.785
 8830SOL    HW127389   2.184   1.409   2.699
 8830SOL    HW227390   2.245   1.273   2.765
 8831SOL     OW27391   5.938   2.582   2.787
 8831SOL    HW127392   5.845   2.607   2.759
 8831SOL    HW227393   5.951   2.484   2.774
 8832SOL     OW27394   6.228   5.948   3.786
 8832SOL    HW127395   6.205   6.030   3.735
 8832SOL    HW227396   6.300   5.898   3.739
 8833SOL     OW27397   3.803   4.426   6.225
 8833SOL    HW127398   3.723   4.486   6.230
 8833SOL    HW227399   3.790   4.348   6.287
 8834SOL     OW27400   5.636   3.856   4.392
 8834SOL    HW127401   5.580   3.781   4.356
 8834SOL    HW227402   5.588   3.943   4.380
 8835SOL     OW27403   5.170   0.916   6.141
 8835SOL    HW127404   5.086   0.866   6.121
 8835SOL    HW227405   5.194   0.906   6.237
 8836SOL     OW27406   4.885   1.886   1.310
 8836SOL    HW127407   4.866   1.932   1.397
 8836SOL    HW227408   4.921   1.794   1.329
 8837SOL     OW27409   0.195   0.080   2.709
 8837SOL    HW127410   0.159   0.014   2.644
 8837SOL    HW227411   0.206   0.036   2.799
 8838SOL     OW27412   1.823   4.124   3.746
 8838SOL    HW127413   1.816   4.026   3.764
 8838SOL    HW227414   1.919   4.151   3.745
 8839SOL     OW27415   4.079   6.706   2.289
 8839SOL    HW127416   4.171   6.737   2.267
 8839SOL    HW227417   4.029   6.687   2.204
 8840SOL     OW27418   0.295   0.746   2.200
 8840SOL    HW127419   0.313   0.806   2.122
 8840SOL    HW227420   0.263   0.658   2.168
 8841SOL     OW27421   6.229   1.634   3.654
 8841SOL    HW127422   6.247   1.555   3.714
 8841SOL    HW227423   6.253   1.718   3.702
 8842SOL     OW27424   3.172   3.650   3.512
 8842SOL    HW127425   3.219   3.734   3.485
 8842SOL    HW227426   3.078   3.671   3.539
 8843SOL     OW27427   1.633   3.583   3.901
 8843SOL    HW127428   1.670   3.631   3.980
 8843SOL    HW227429   1.545   3.623   3.876
 8844SOL     OW27430   6.268   1.284   5.009
 8844SOL    HW127431   6.286   1.185   5.013
 8844SOL    HW227432   6.170   1.300   5.022
 8845SOL     OW27433   2.564   4.103   0.707
 8845SOL    HW127434   2.588   4.119   0.802
 8845SOL    HW227435   2.512   4.018   0.699
 8846SOL     OW27436   3.549   4.981   4.450
 8846SOL    HW127437   3.463   4.954   4.406
 8846SOL    HW227438   3.543   4.962   4.548
 8847SOL     OW27439   2.597   1.136   3.389
 8847SOL    HW127440   2.691   1.159   3.414
 8847SOL    HW227441   2.586   1.037   3.386
 8848SOL     OW27442   2.975   2.013   2.640
 8848SOL    HW127443   2.956   1.920   2.609
 8848SOL    HW227444   2.958   2.077   2.565
 8849SOL     OW27445   3.631   5.063   3.125
 8849SOL    HW127446   3.552   5.065   3.186
 8849SOL    HW227447   3.708   5.019   3.170
 8850SOL     OW27448   2.697   0.852   0.217
 8850SOL    HW127449   2.684   0.755   0.233
 8850SOL    HW227450   2.693   0.872   0.119
 8851SOL     OW27451   1.079   5.019   1.812
 8851SOL    HW127452   1.106   4.929   1.775
 8851SOL    HW227453   1.128   5.091   1.763
 8852SOL     OW27454   4.294   3.662   5.904
 8852SOL    HW127455   4.231   3.735   5.877
 8852SOL    HW227456   4.383   3.702   5.926
 8853SOL     OW27457   3.369   0.284   5.970
 8853SOL    HW127458   3.270   0.282   5.958
 8853SOL    HW227459   3.411   0.334   5.894
 8854SOL     OW27460   3.251   1.225   6.569
 8854SOL    HW127461   3.313   1.282   6.515
 8854SOL    HW227462   3.193   1.284   6.625
 8855SOL     OW27463   6.641   6.167   0.354
 8855SOL    HW127464   6.680   6.256   0.379
 8855SOL    HW227465   6.625   6.164   0.255
 8856SOL     OW27466   6.643   0.644   5.770
 8856SOL    HW127467   6.637   0.725   5.712
 8856SOL    HW227468   6.564   0.641   5.831
 8857SOL     OW27469   6.649   1.977   4.116
 8857SOL    HW127470   6.648   2.077   4.123
 8857SOL    HW227471   6.558   1.941   4.136
 8858SOL     OW27472   1.080   2.247   5.731
 8858SOL    HW127473   1.061   2.178   5.662
 8858SOL    HW227474   1.174   2.281   5.721
 8859SOL     OW27475   0.018   0.794   4.446
 8859SOL    HW127476   0.087   0.855   4.405
 8859SOL    HW227477   6.968   0.780   4.380
 8860SOL     OW27478   1.085   3.819   3.074
 8860SOL    HW127479   0.987   3.805   3.086
 8860SOL    HW227480   1.130   3.730   3.064
 8861SOL     OW27481   3.539   1.730   6.176
 8861SOL    HW127482   3.621   1.760   6.127
 8861SOL    HW227483   3.563   1.711   6.272
 8862SOL     OW27484   6.068   0.468   3.205
 8862SOL    HW127485   6.091   0.550   3.257
 8862SOL    HW227486   6.133   0.395   3.228
 8863SOL     OW27487   1.586   5.660   4.275
 8863SOL    HW127488   1.580   5.692   4.369
 8863SOL    HW227489   1.525   5.582   4.262
 8864SOL     OW27490   2.073   2.821   6.467
 8864SOL    HW127491   2.142   2.827   6.395
 8864SOL    HW227492   2.106   2.871   6.548
 8865SOL     OW27493   3.263   1.541   5.873
 8865SOL    HW127494   3.294   1.595   5.795
 8865SOL    HW227495   3.205   1.466   5.841
 8866SOL     OW27496   4.945   0.018   3.846
 8866SOL    HW127497   5.019   7.010   3.905
 8866SOL    HW227498   4.919   0.111   3.871
 8867SOL     OW27499   5.181   3.857   2.421
 8867SOL    HW127500   5.159   3.953   2.400
 8867SOL    HW227501   5.240   3.853   2.501
 8868SOL     OW27502   6.819   3.632   0.587
 8868SOL    HW127503   6.752   3.564   0.618
 8868SOL    HW227504   6.870   3.666   0.667
 8869SOL     OW27505   4.447   5.885   4.312
 8869SOL    HW127506   4.472   5.814   4.246
 8869SOL    HW227507   4.392   5.844   4.385
 8870SOL     OW27508   4.365   0.224   0.568
 8870SOL    HW127509   4.350   0.323   0.565
 8870SOL    HW227510   4.461   0.204   0.545
 8871SOL     OW27511   1.062   0.830   3.624
 8871SOL    HW127512   1.087   0.755   3.686
 8871SOL    HW227513   1.007   0.793   3.549
 8872SOL     OW27514   1.403   4.628   5.108
 8872SOL    HW127515   1.355   4.548   5.143
 8872SOL    HW227516   1.424   4.615   5.011
 8873SOL     OW27517   0.333   5.613   2.092
 8873SOL    HW127518   0.326   5.520   2.127
 8873SOL    HW227519   0.406   5.617   2.024
 8874SOL     OW27520   2.898   6.424   1.767
 8874SOL    HW127521   2.879   6.327   1.774
 8874SOL    HW227522   2.909   6.449   1.671
 8875SOL     OW27523   5.944   3.558   4.536
 8875SOL    HW127524   6.019   3.618   4.510
 8875SOL    HW227525   5.901   3.521   4.453
 8876SOL     OW27526   1.741   0.362   4.230
 8876SOL    HW127527   1.758   0.264   4.223
 8876SOL    HW227528   1.760   0.407   4.143
 8877SOL     OW27529   2.311   1.560   4.204
 8877SOL    HW127530   2.406   1.576   4.232
 8877SOL    HW227531   2.307   1.545   4.105
 8878SOL     OW27532   6.831   5.828   0.505
 8878SOL    HW127533   6.860   5.774   0.584
 8878SOL    HW227534   6.879   5.795   0.424
 8879SOL     OW27535   5.174   4.889   1.889
 8879SOL    HW127536   5.220   4.803   1.867
 8879SOL    HW227537   5.075   4.874   1.888
 8880SOL     OW27538   5.956   5.271   4.586
 8880SOL    HW127539   5.964   5.231   4.494
 8880SOL    HW227540   5.874   5.327   4.590
 8881SOL     OW27541   6.432   6.664   4.947
 8881SOL    HW127542   6.408   6.741   5.006
 8881SOL    HW227543   6.443   6.696   4.853
 8882SOL     OW27544   5.488   1.636   1.094
 8882SOL    HW127545   5.428   1.692   1.151
 8882SOL    HW227546   5.433   1.570   1.043
 8883SOL     OW27547   2.012   6.732   5.385
 8883SOL    HW127548   2.054   6.762   5.300
 8883SOL    HW227549   1.948   6.802   5.417
 8884SOL     OW27550   5.932   4.758   6.555
 8884SOL    HW127551   5.863   4.831   6.562
 8884SOL    HW227552   6.019   4.798   6.527
 8885SOL     OW27553   0.382   3.163   0.865
 8885SOL    HW127554   0.480   3.164   0.848
 8885SOL    HW227555   0.348   3.257   0.874
 8886SOL     OW27556   3.801   5.893   5.406
 8886SOL    HW127557   3.745   5.840   5.343
 8886SOL    HW227558   3.898   5.871   5.391
 8887SOL     OW27559   3.070   1.693   1.534
 8887SOL    HW127560   3.017   1.613   1.507
 8887SOL    HW227561   3.030   1.734   1.616
 8888SOL     OW27562   1.415   1.631   0.639
 8888SOL    HW127563   1.504   1.669   0.612
 8888SOL    HW227564   1.371   1.695   0.703
 8889SOL     OW27565   5.828   0.339   5.201
 8889SOL    HW127566   5.750   0.300   5.250
 8889SOL    HW227567   5.902   0.357   5.266
 8890SOL     OW27568   6.173   5.389   3.861
 8890SOL    HW127569   6.112   5.448   3.914
 8890SOL    HW227570   6.205   5.314   3.918
 8891SOL     OW27571   5.201   3.663   5.484
 8891SOL    HW127572   5.243   3.693   5.398
 8891SOL    HW227573   5.133   3.731   5.514
 8892SOL     OW27574   3.853   5.634   3.077
 8892SOL    HW127575   3.782   5.702   3.092
 8892SOL    HW227576   3.838   5.557   3.140
 8893SOL     OW27577   0.779   0.004   2.355
 8893SOL    HW127578   0.782   6.987   2.447
 8893SOL    HW227579   0.708   6.983   2.301
 8894SOL     OW27580   4.221   2.402   5.660
 8894SOL    HW127581   4.277   2.469   5.708
 8894SOL    HW227582   4.151   2.367   5.721
 8895SOL     OW27583   6.626   1.638   1.377
 8895SOL    HW127584   6.554   1.675   1.436
 8895SOL    HW227585   6.651   1.706   1.308
 8896SOL     OW27586   1.438   3.291   5.606
 8896SOL    HW127587   1.533   3.277   5.580
 8896SOL    HW227588   1.427   3.385   5.640
 8897SOL     OW27589   1.725   2.977   3.371
 8897SOL    HW127590   1.792   3.017   3.434
 8897SOL    HW227591   1.697   3.046   3.305
 8898SOL     OW27592   5.563   3.840   3.935
 8898SOL    HW127593   5.548   3.909   4.005
 8898SOL    HW227594   5.475   3.802   3.906
 8899SOL     OW27595   2.137   4.838   0.026
 8899SOL    HW127596   2.086   4.753   0.037
 8899SOL    HW227597   2.201   4.828   6.974
 8900SOL     OW27598   5.751   2.745   2.210
 8900SOL    HW127599   5.784   2.837   2.189
 8900SOL    HW227600   5.700   2.748   2.296
 8901SOL     OW27601   1.894   1.478   4.439
 8901SOL    HW127602   1.873   1.388   4.401
 8901SOL    HW227603   1.905   1.470   4.538
 8902SOL     OW27604   2.839   6.685   0.754
 8902SOL    HW127605   2.904   6.728   0.691
 8902SOL    HW227606   2.747   6.719   0.735
 8903SOL     OW27607   0.722   1.619   4.530
 8903SOL    HW127608   0.676   1.563   4.461
 8903SOL    HW227609   0.820   1.618   4.514
 8904SOL     OW27610   5.735   5.828   3.649
 8904SOL    HW127611   5.698   5.740   3.677
 8904SOL    HW227612   5.832   5.833   3.673
 8905SOL     OW27613   2.064   4.229   4.234
 8905SOL    HW127614   2.098   4.322   4.247
 8905SOL    HW227615   2.131   4.164   4.271
 8906SOL     OW27616   6.548   6.803   6.893
 8906SOL    HW127617   6.475   6.867   6.916
 8906SOL    HW227618   6.608   6.790   6.972
 8907SOL     OW27619   3.278   2.078   4.548
 8907SOL    HW127620   3.361   2.072   4.493
 8907SOL    HW227621   3.201   2.106   4.491
 8908SOL     OW27622   1.100   3.584   6.923
 8908SOL    HW127623   1.125   3.508   6.861
 8908SOL    HW227624   1.005   3.573   6.951
 8909SOL     OW27625   1.961   0.340   5.722
 8909SOL    HW127626   1.911   0.346   5.636
 8909SOL    HW227627   1.983   0.432   5.754
 8910SOL     OW27628   0.952   2.614   5.715
 8910SOL    HW127629   0.907   2.608   5.804
 8910SOL    HW227630   0.907   2.683   5.659
 8911SOL     OW27631   4.234   2.325   4.785
 8911SOL    HW127632   4.180   2.374   4.716
 8911SOL    HW227633   4.239   2.378   4.869
 8912SOL     OW27634   4.187   2.452   0.764
 8912SOL    HW127635   4.278   2.423   0.795
 8912SOL    HW227636   4.132   2.371   0.744
 8913SOL     OW27637   4.867   4.974   6.992
 8913SOL    HW127638   4.962   4.986   6.966
 8913SOL    HW227639   4.814   4.947   6.911
 8914SOL     OW27640   3.806   0.905   4.952
 8914SOL    HW127641   3.722   0.880   5.001
 8914SOL    HW227642   3.787   0.984   4.894
 8915SOL     OW27643   0.893   2.809   3.701
 8915SOL    HW127644   0.874   2.907   3.710
 8915SOL    HW227645   0.984   2.790   3.740
 8916SOL     OW27646   6.998   4.246   0.584
 8916SOL    HW127647   6.955   4.157   0.601
 8916SOL    HW227648   0.060   4.252   0.635
 8917SOL     OW27649   6.428   4.467   6.559
 8917SOL    HW127650   6.454   4.388   6.503
 8917SOL    HW227651   6.421   4.439   6.655
 8918SOL     OW27652   6.900   3.820   0.874
 8918SOL    HW127653   6.808   3.783   0.884
 8918SOL    HW227654   6.964   3.746   0.855
 8919SOL     OW27655   4.001   3.434   0.867
 8919SOL    HW127656   3.996   3.446   0.768
 8919SOL    HW227657   3.924   3.481   0.910
 8920SOL     OW27658   1.096   6.630   6.854
 8920SOL    HW127659   1.066   6.547   6.808
 8920SOL    HW227660   1.038   6.648   6.933
 8921SOL     OW27661   2.388   1.989   3.006
 8921SOL    HW127662   2.433   1.914   3.055
 8921SOL    HW227663   2.450   2.024   2.936
 8922SOL     OW27664   3.673   5.099   1.043
 8922SOL    HW127665   3.606   5.091   0.969
 8922SOL    HW227666   3.668   5.017   1.100
 8923SOL     OW27667   1.335   2.992   6.218
 8923SOL    HW127668   1.384   2.913   6.180
 8923SOL    HW227669   1.399   3.068   6.228
 8924SOL     OW27670   3.246   5.750   5.792
 8924SOL    HW127671   3.178   5.707   5.732
 8924SOL    HW227672   3.201   5.819   5.849
 8925SOL     OW27673   0.669   1.235   2.509
 8925SOL    HW127674   0.608   1.207   2.584
 8925SOL    HW227675   0.757   1.262   2.548
 8926SOL     OW27676   5.784   4.090   6.281
 8926SOL    HW127677   5.883   4.093   6.270
 8926SOL    HW227678   5.758   4.002   6.321
 8927SOL     OW27679   1.008   1.611   4.542
 8927SOL    HW127680   1.001   1.586   4.639
 8927SOL    HW227681   1.076   1.552   4.498
 8928SOL     OW27682   6.949   0.890   5.731
 8928SOL    HW127683   7.011   0.819   5.696
 8928SOL    HW227684   6.855   0.857   5.725
 8929SOL     OW27685   6.863   3.567   4.102
 8929SOL    HW127686   6.819   3.653   4.078
 8929SOL    HW227687   6.929   3.582   4.176
 8930SOL     OW27688   1.848   3.989   4.497
 8930SOL    HW127689   1.942   3.970   4.523
 8930SOL    HW227690   1.790   3.994   4.578
 8931SOL     OW27691   2.946   2.837   1.414
 8931SOL    HW127692   2.947   2.875   1.321
 8931SOL    HW227693   2.855   2.800   1.434
 8932SOL     OW27694   5.308   0.164   0.588
 8932SOL    HW127695   5.258   0.169   0.674
 8932SOL    HW227696   5.351   0.074   0.579
 8933SOL     OW27697   1.513   2.808   6.046
 8933SOL    HW127698   1.610   2.832   6.057
 8933SOL    HW227699   1.503   2.747   5.967
 8934SOL     OW27700   2.978   5.181   4.283
 8934SOL    HW127701   2.980   5.111   4.211
 8934SOL    HW227702   2.928   5.147   4.362
 8935SOL     OW27703   5.856   3.633   1.506
 8935SOL    HW127704   5.786   3.598   1.568
 8935SOL    HW227705   5.815   3.650   1.417
 8936SOL     OW27706   1.105   3.841   1.241
 8936SOL    HW127707   1.176   3.822   1.308
 8936SOL    HW227708   1.018   3.856   1.287
 8937SOL     OW27709   0.299   0.339   4.563
 8937SOL    HW127710   0.399   0.335   4.562
 8937SOL    HW227711   0.268   0.429   4.535
 8938SOL     OW27712   6.853   0.826   0.290
 8938SOL    HW127713   6.830   0.901   0.353
 8938SOL    HW227714   6.932   0.776   0.325
 8939SOL     OW27715   5.925   3.463   4.157
 8939SOL    HW127716   5.998   3.492   4.220
 8939SOL    HW227717   5.883   3.544   4.116
 8940SOL     OW27718   6.012   1.590   1.429
 8940SOL    HW127719   5.946   1.600   1.355
 8940SOL    HW227720   5.964   1.561   1.512
 8941SOL     OW27721   6.387   2.508   2.752
 8941SOL    HW127722   6.349   2.422   2.786
 8941SOL    HW227723   6.411   2.499   2.656
 8942SOL     OW27724   0.906   5.740   5.005
 8942SOL    HW127725   0.905   5.738   5.104
 8942SOL    HW227726   0.983   5.686   4.971
 8943SOL     OW27727   4.182   5.229   0.222
 8943SOL    HW127728   4.211   5.157   0.284
 8943SOL    HW227729   4.103   5.277   0.260
 8944SOL     OW27730   4.987   5.819   4.878
 8944SOL    HW127731   4.933   5.734   4.882
 8944SOL    HW227732   5.044   5.826   4.960
 8945SOL     OW27733   6.999   2.458   4.426
 8945SOL    HW127734   0.063   2.438   4.383
 8945SOL    HW227735   6.932   2.481   4.356
 8946SOL     OW27736   3.424   1.037   4.322
 8946SOL    HW127737   3.358   0.963   4.335
 8946SOL    HW227738   3.382   1.124   4.351
 8947SOL     OW27739   2.026   3.308   5.763
 8947SOL    HW127740   1.989   3.350   5.680
 8947SOL    HW227741   2.114   3.265   5.742
 8948SOL     OW27742   5.815   6.022   3.250
 8948SOL    HW127743   5.813   6.086   3.326
 8948SOL    HW227744   5.776   5.934   3.280
 8949SOL     OW27745   4.015   5.875   0.644
 8949SOL    HW127746   4.078   5.924   0.583
 8949SOL    HW227747   4.063   5.798   0.685
 8950SOL     OW27748   4.247   2.900   1.060
 8950SOL    HW127749   4.272   2.922   1.154
 8950SOL    HW227750   4.278   2.808   1.037
 8951SOL     OW27751   2.084   0.814   4.930
 8951SOL    HW127752   2.122   0.732   4.976
 8951SOL    HW227753   2.058   0.790   4.837
 8952SOL     OW27754   0.726   5.124   3.541
 8952SOL    HW127755   0.643   5.082   3.504
 8952SOL    HW227756   0.795   5.131   3.469
 8953SOL     OW27757   0.501   4.904   0.993
 8953SOL    HW127758   0.550   4.838   0.936
 8953SOL    HW227759   0.530   4.896   1.088
 8954SOL     OW27760   0.060   0.125   4.147
 8954SOL    HW127761   7.005   0.104   4.089
 8954SOL    HW227762   0.129   0.053   4.137
 8955SOL     OW27763   6.790   4.803   3.336
 8955SOL    HW127764   6.788   4.860   3.418
 8955SOL    HW227765   6.707   4.818   3.283
 8956SOL     OW27766   1.382   1.220   5.737
 8956SOL    HW127767   1.383   1.141   5.676
 8956SOL    HW227768   1.303   1.277   5.716
 8957SOL     OW27769   2.302   4.459   1.164
 8957SOL    HW127770   2.239   4.519   1.114
 8957SOL    HW227771   2.299   4.482   1.261
 8958SOL     OW27772   0.774   2.212   5.476
 8958SOL    HW127773   0.759   2.279   5.403
 8958SOL    HW227774   0.842   2.247   5.540
 8959SOL     OW27775   1.938   4.251   2.936
 8959SOL    HW127776   1.931   4.178   3.004
 8959SOL    HW227777   2.011   4.313   2.962
 8960SOL     OW27778   5.423   5.382   4.072
 8960SOL    HW127779   5.364   5.303   4.052
 8960SOL    HW227780   5.505   5.378   4.015
 8961SOL     OW27781   3.591   1.214   4.184
 8961SOL    HW127782   3.543   1.134   4.221
 8961SOL    HW227783   3.643   1.187   4.103
 8962SOL     OW27784   6.465   5.195   1.726
 8962SOL    HW127785   6.464   5.095   1.725
 8962SOL    HW227786   6.417   5.229   1.645
 8963SOL     OW27787   3.694   6.161   4.788
 8963SOL    HW127788   3.740   6.233   4.736
 8963SOL    HW227789   3.613   6.130   4.738
 8964SOL     OW27790   6.231   3.012   2.868
 8964SOL    HW127791   6.186   2.925   2.845
 8964SOL    HW227792   6.330   3.001   2.862
 8965SOL     OW27793   2.896   5.191   6.965
 8965SOL    HW127794   2.962   5.261   6.994
 8965SOL    HW227795   2.880   5.199   6.867
 8966SOL     OW27796   6.873   4.492   0.690
 8966SOL    HW127797   6.779   4.493   0.655
 8966SOL    HW227798   6.936   4.475   0.614
 8967SOL     OW27799   3.958   1.200   2.378
 8967SOL    HW127800   3.915   1.135   2.316
 8967SOL    HW227801   3.991   1.152   2.459
 8968SOL     OW27802   4.087   6.306   2.391
 8968SOL    HW127803   4.169   6.272   2.346
 8968SOL    HW227804   4.035   6.229   2.429
 8969SOL     OW27805   0.221   0.208   3.246
 8969SOL    HW127806   0.181   0.118   3.266
 8969SOL    HW227807   0.195   0.272   3.318
 8970SOL     OW27808   1.742   2.254   6.278
 8970SOL    HW127809   1.663   2.292   6.231
 8970SOL    HW227810   1.822   2.258   6.218
 8971SOL     OW27811   5.292   6.318   1.406
 8971SOL    HW127812   5.286   6.352   1.312
 8971SOL    HW227813   5.381   6.274   1.420
 8972SOL     OW27814   4.813   3.906   0.684
 8972SOL    HW127815   4.714   3.912   0.673
 8972SOL    HW227816   4.834   3.861   0.771
 8973SOL     OW27817   6.766   2.563   2.727
 8973SOL    HW127818   6.731   2.567   2.634
 8973SOL    HW227819   6.695   2.595   2.791
 8974SOL     OW27820   1.788   3.422   3.731
 8974SOL    HW127821   1.729   3.491   3.774
 8974SOL    HW227822   1.880   3.430   3.768
 8975SOL     OW27823   0.602   6.002   6.623
 8975SOL    HW127824   0.628   5.971   6.532
 8975SOL    HW227825   0.648   6.088   6.644
 8976SOL     OW27826   6.988   5.660   0.340
 8976SOL    HW127827   6.998   5.571   0.384
 8976SOL    HW227828   6.983   5.648   0.240
 8977SOL     OW27829   6.767   3.744   6.721
 8977SOL    HW127830   6.711   3.791   6.789
 8977SOL    HW227831   6.783   3.805   6.643
 8978SOL     OW27832   5.970   0.224   4.945
 8978SOL    HW127833   5.884   0.273   4.929
 8978SOL    HW227834   6.029   0.278   5.005
 8979SOL     OW27835   1.550   4.798   6.208
 8979SOL    HW127836   1.626   4.775   6.147
 8979SOL    HW227837   1.529   4.720   6.267
 8980SOL     OW27838   5.365   2.823   5.676
 8980SOL    HW127839   5.463   2.804   5.666
 8980SOL    HW227840   5.314   2.737   5.673
 8981SOL     OW27841   4.870   1.796   5.672
 8981SOL    HW127842   4.794   1.861   5.683
 8981SOL    HW227843   4.956   1.844   5.689
 8982SOL     OW27844   0.115   1.966   0.829
 8982SOL    HW127845   0.067   1.962   0.741
 8982SOL    HW227846   0.050   1.988   0.902
 8983SOL     OW27847   0.686   5.734   0.800
 8983SOL    HW127848   0.591   5.732   0.772
 8983SOL    HW227849   0.701   5.668   0.874
 8984SOL     OW27850   6.513   6.066   4.204
 8984SOL    HW127851   6.605   6.075   4.240
 8984SOL    HW227852   6.446   6.075   4.278
 8985SOL     OW27853   2.591   1.888   1.070
 8985SOL    HW127854   2.603   1.925   1.162
 8985SOL    HW227855   2.678   1.849   1.039
 8986SOL     OW27856   4.276   5.343   3.172
 8986SOL    HW127857   4.299   5.437   3.198
 8986SOL    HW227858   4.191   5.343   3.121
 8987SOL     OW27859   2.673   0.399   1.691
 8987SOL    HW127860   2.764   0.435   1.671
 8987SOL    HW227861   2.606   0.444   1.632
 8988SOL     OW27862   2.118   4.435   0.503
 8988SOL    HW127863   2.133   4.367   0.575
 8988SOL    HW227864   2.067   4.513   0.540
 8989SOL     OW27865   5.275   3.857   2.143
 8989SOL    HW127866   5.288   3.948   2.105
 8989SOL    HW227867   5.197   3.857   2.205
 8990SOL     OW27868   2.556   5.242   1.698
 8990SOL    HW127869   2.484   5.220   1.763
 8990SOL    HW227870   2.585   5.337   1.712
 8991SOL     OW27871   2.605   1.371   0.979
 8991SOL    HW127872   2.683   1.416   0.935
 8991SOL    HW227873   2.635   1.330   1.066
 8992SOL     OW27874   6.721   2.671   6.718
 8992SOL    HW127875   6.821   2.664   6.711
 8992SOL    HW227876   6.681   2.678   6.627
 8993SOL     OW27877   4.693   2.483   2.618
 8993SOL    HW127878   4.788   2.484   2.648
 8993SOL    HW227879   4.686   2.526   2.528
 8994SOL     OW27880   1.052   6.097   4.593
 8994SOL    HW127881   1.084   6.066   4.683
 8994SOL    HW227882   0.974   6.041   4.566
 8995SOL     OW27883   1.157   2.584   5.544
 8995SOL    HW127884   1.082   2.578   5.610
 8995SOL    HW227885   1.242   2.557   5.588
 8996SOL     OW27886   0.264   4.718   1.757
 8996SOL    HW127887   0.257   4.628   1.798
 8996SOL    HW227888   0.237   4.788   1.824
 8997SOL     OW27889   4.405   1.405   6.551
 8997SOL    HW127890   4.424   1.351   6.634
 8997SOL    HW227891   4.313   1.384   6.519
 8998SOL     OW27892   0.721   2.527   3.813
 8998SOL    HW127893   0.769   2.556   3.730
 8998SOL    HW227894   0.647   2.591   3.832
 8999SOL     OW27895   3.994   0.272   6.984
 8999SOL    HW127896   4.031   0.308   0.047
 8999SOL    HW227897   3.919   0.209   7.003
 9000SOL     OW27898   2.799   4.177   6.481
 9000SOL    HW127899   2.758   4.114   6.548
 9000SOL    HW227900   2.876   4.225   6.523
 9001SOL     OW27901   1.917   5.485   2.867
 9001SOL    HW127902   2.005   5.519   2.900
 9001SOL    HW227903   1.844   5.513   2.930
 9002SOL     OW27904   0.386   4.928   4.979
 9002SOL    HW127905   0.297   4.927   5.024
 9002SOL    HW227906   0.452   4.977   5.036
 9003SOL     OW27907   5.553   2.841   1.172
 9003SOL    HW127908   5.646   2.862   1.140
 9003SOL    HW227909   5.512   2.924   1.209
 9004SOL     OW27910   4.192   6.623   1.920
 9004SOL    HW127911   4.103   6.638   1.963
 9004SOL    HW227912   4.180   6.569   1.837
 9005SOL     OW27913   6.170   1.869   4.290
 9005SOL    HW127914   6.256   1.909   4.321
 9005SOL    HW227915   6.129   1.927   4.219
 9006SOL     OW27916   1.491   6.163   0.892
 9006SOL    HW127917   1.458   6.074   0.861
 9006SOL    HW227918   1.587   6.173   0.867
 9007SOL     OW27919   3.497   5.645   3.594
 9007SOL    HW127920   3.429   5.692   3.651
 9007SOL    HW227921   3.589   5.676   3.619
 9008SOL     OW27922   6.759   5.443   2.715
 9008SOL    HW127923   6.826   5.506   2.757
 9008SOL    HW227924   6.692   5.416   2.784
 9009SOL     OW27925   2.544   6.222   0.569
 9009SOL    HW127926   2.631   6.205   0.616
 9009SOL    HW227927   2.494   6.294   0.617
 9010SOL     OW27928   1.090   6.834   4.654
 9010SOL    HW127929   1.167   6.876   4.607
 9010SOL    HW227930   1.013   6.899   4.655
 9011SOL     OW27931   3.871   1.884   1.507
 9011SOL    HW127932   3.881   1.900   1.606
 9011SOL    HW227933   3.920   1.954   1.456
 9012SOL     OW27934   2.863   4.927   1.245
 9012SOL    HW127935   2.769   4.961   1.243
 9012SOL    HW227936   2.926   5.005   1.237
 9013SOL     OW27937   5.852   6.009   4.874
 9013SOL    HW127938   5.863   5.986   4.971
 9013SOL    HW227939   5.847   5.925   4.820
 9014SOL     OW27940   0.841   1.407   0.459
 9014SOL    HW127941   0.894   1.326   0.483
 9014SOL    HW227942   0.837   1.469   0.537
 9015SOL     OW27943   6.033   0.812   0.832
 9015SOL    HW127944   6.013   0.759   0.749
 9015SOL    HW227945   5.993   0.768   0.911
 9016SOL     OW27946   6.835   6.404   6.227
 9016SOL    HW127947   6.799   6.497   6.219
 9016SOL    HW227948   6.922   6.405   6.277
 9017SOL     OW27949   5.653   2.643   2.741
 9017SOL    HW127950   5.614   2.573   2.682
 9017SOL    HW227951   5.630   2.623   2.837
 9018SOL     OW27952   4.321   1.649   5.533
 9018SOL    HW127953   4.366   1.602   5.609
 9018SOL    HW227954   4.359   1.740   5.523
 9019SOL     OW27955   0.853   0.048   0.914
 9019SOL    HW127956   0.825   0.129   0.862
 9019SOL    HW227957   0.939   0.067   0.962
 9020SOL     OW27958   1.476   3.689   1.980
 9020SOL    HW127959   1.469   3.659   1.885
 9020SOL    HW227960   1.439   3.618   2.040
 9021SOL     OW27961   6.400   0.172   3.919
 9021SOL    HW127962   6.345   0.120   3.985
 9021SOL    HW227963   6.363   0.264   3.910
 9022SOL     OW27964   2.545   0.405   1.423
 9022SOL    HW127965   2.592   0.332   1.473
 9022SOL    HW227966   2.575   0.405   1.328
 9023SOL     OW27967   4.089   3.314   2.723
 9023SOL    HW127968   4.049   3.253   2.654
 9023SOL    HW227969   4.134   3.390   2.678
 9024SOL     OW27970   1.523   5.648   6.456
 9024SOL    HW127971   1.601   5.623   6.398
 9024SOL    HW227972   1.517   5.585   6.533
 9025SOL     OW27973   6.685   5.923   0.887
 9025SOL    HW127974   6.756   5.867   0.846
 9025SOL    HW227975   6.619   5.951   0.818
 9026SOL     OW27976   3.786   3.408   2.821
 9026SOL    HW127977   3.865   3.350   2.805
 9026SOL    HW227978   3.705   3.367   2.779
 9027SOL     OW27979   2.521   1.716   3.734
 9027SOL    HW127980   2.439   1.661   3.721
 9027SOL    HW227981   2.570   1.684   3.815
 9028SOL     OW27982   2.450   3.808   5.673
 9028SOL    HW127983   2.471   3.901   5.643
 9028SOL    HW227984   2.420   3.810   5.768
 9029SOL     OW27985   3.187   5.309   5.338
 9029SOL    HW127986   3.243   5.242   5.289
 9029SOL    HW227987   3.096   5.272   5.353
 9030SOL     OW27988   2.349   0.868   3.191
 9030SOL    HW127989   2.382   0.955   3.153
 9030SOL    HW227990   2.288   0.824   3.125
 9031SOL     OW27991   5.030   5.219   5.870
 9031SOL    HW127992   5.032   5.295   5.805
 9031SOL    HW227993   5.123   5.189   5.890
 9032SOL     OW27994   4.020   2.670   0.772
 9032SOL    HW127995   4.053   2.575   0.772
 9032SOL    HW227996   3.980   2.691   0.861
 9033SOL     OW27997   1.800   4.183   3.426
 9033SOL    HW127998   1.749   4.148   3.505
 9033SOL    HW227999   1.846   4.108   3.380
 9034SOL     OW28000   3.249   6.756   4.953
 9034SOL    HW128001   3.269   6.743   4.856
 9034SOL    HW228002   3.160   6.800   4.963
 9035SOL     OW28003   1.149   6.263   5.077
 9035SOL    HW128004   1.229   6.322   5.086
 9035SOL    HW228005   1.075   6.314   5.033
 9036SOL     OW28006   1.178   1.412   4.520
 9036SOL    HW128007   1.102   1.365   4.564
 9036SOL    HW228008   1.161   1.417   4.421
 9037SOL     OW28009   1.412   4.842   6.749
 9037SOL    HW128010   1.392   4.940   6.745
 9037SOL    HW228011   1.328   4.791   6.767
 9038SOL     OW28012   4.538   0.406   5.039
 9038SOL    HW128013   4.499   0.440   4.953
 9038SOL    HW228014   4.627   0.448   5.054
 9039SOL     OW28015   1.589   4.568   4.669
 9039SOL    HW128016   1.515   4.515   4.711
 9039SOL    HW228017   1.664   4.578   4.734
 9040SOL     OW28018   2.677   1.310   3.179
 9040SOL    HW128019   2.656   1.396   3.132
 9040SOL    HW228020   2.676   1.325   3.278
 9041SOL     OW28021   0.708   2.152   1.730
 9041SOL    HW128022   0.792   2.100   1.716
 9041SOL    HW228023   0.709   2.195   1.820
 9042SOL     OW28024   3.132   6.084   3.890
 9042SOL    HW128025   3.139   5.988   3.866
 9042SOL    HW228026   3.042   6.101   3.931
 9043SOL     OW28027   1.984   0.941   6.058
 9043SOL    HW128028   2.061   0.885   6.086
 9043SOL    HW228029   2.004   0.984   5.969
 9044SOL     OW28030   6.457   1.144   1.237
 9044SOL    HW128031   6.523   1.072   1.259
 9044SOL    HW228032   6.505   1.229   1.219
 9045SOL     OW28033   3.777   1.959   2.366
 9045SOL    HW128034   3.737   1.940   2.276
 9045SOL    HW228035   3.800   1.872   2.411
 9046SOL     OW28036   3.328   3.365   4.260
 9046SOL    HW128037   3.349   3.287   4.319
 9046SOL    HW228038   3.410   3.422   4.250
 9047SOL     OW28039   1.765   3.050   5.644
 9047SOL    HW128040   1.791   3.082   5.735
 9047SOL    HW228041   1.693   2.981   5.652
 9048SOL     OW28042   6.057   3.144   6.231
 9048SOL    HW128043   6.105   3.074   6.284
 9048SOL    HW228044   5.958   3.131   6.240
 9049SOL     OW28045   4.690   6.784   6.340
 9049SOL    HW128046   4.683   6.715   6.268
 9049SOL    HW228047   4.608   6.840   6.340
 9050SOL     OW28048   0.389   5.404   5.789
 9050SOL    HW128049   0.314   5.381   5.851
 9050SOL    HW228050   0.392   5.337   5.714
 9051SOL     OW28051   4.508   6.307   1.205
 9051SOL    HW128052   4.494   6.340   1.112
 9051SOL    HW228053   4.602   6.273   1.214
 9052SOL     OW28054   2.117   3.240   3.843
 9052SOL    HW128055   2.051   3.173   3.877
 9052SOL    HW228056   2.105   3.327   3.890
 9053SOL     OW28057   2.292   1.488   3.307
 9053SOL    HW128058   2.382   1.474   3.348
 9053SOL    HW228059   2.236   1.545   3.368
 9054SOL     OW28060   1.175   0.287   2.250
 9054SOL    HW128061   1.171   0.384   2.274
 9054SOL    HW228062   1.135   0.233   2.324
 9055SOL     OW28063   0.226   4.074   3.519
 9055SOL    HW128064   0.251   4.104   3.426
 9055SOL    HW228065   0.309   4.059   3.572
 9056SOL     OW28066   5.731   0.353   2.092
 9056SOL    HW128067   5.633   0.332   2.099
 9056SOL    HW228068   5.776   0.329   2.178
 9057SOL     OW28069   5.754   5.451   6.260
 9057SOL    HW128070   5.824   5.381   6.246
 9057SOL    HW228071   5.793   5.541   6.243
 9058SOL     OW28072   1.823   1.502   3.658
 9058SOL    HW128073   1.849   1.583   3.606
 9058SOL    HW228074   1.757   1.528   3.729
 9059SOL     OW28075   0.369   1.133   4.231
 9059SOL    HW128076   0.366   1.121   4.132
 9059SOL    HW228077   0.464   1.134   4.262
 9060SOL     OW28078   0.195   3.683   1.832
 9060SOL    HW128079   0.100   3.674   1.802
 9060SOL    HW228080   0.199   3.737   1.916
 9061SOL     OW28081   3.957   6.103   2.492
 9061SOL    HW128082   3.954   6.026   2.428
 9061SOL    HW228083   4.003   6.074   2.576
 9062SOL     OW28084   1.528   5.075   2.352
 9062SOL    HW128085   1.609   5.016   2.353
 9062SOL    HW228086   1.556   5.169   2.372
 9063SOL     OW28087   2.600   0.711   2.907
 9063SOL    HW128088   2.601   0.790   2.846
 9063SOL    HW228089   2.664   0.726   2.983
 9064SOL     OW28090   5.896   4.136   4.192
 9064SOL    HW128091   5.980   4.187   4.173
 9064SOL    HW228092   5.835   4.140   4.113
 9065SOL     OW28093   3.651   5.403   6.896
 9065SOL    HW128094   3.612   5.491   6.923
 9065SOL    HW228095   3.697   5.362   6.975
 9066SOL     OW28096   5.976   0.830   6.836
 9066SOL    HW128097   5.928   0.917   6.826
 9066SOL    HW228098   5.909   0.755   6.838
 9067SOL     OW28099   5.601   6.749   5.558
 9067SOL    HW128100   5.597   6.813   5.635
 9067SOL    HW228101   5.545   6.783   5.483
 9068SOL     OW28102   3.014   0.251   5.228
 9068SOL    HW128103   3.069   0.176   5.189
 9068SOL    HW228104   3.012   0.327   5.163
 9069SOL     OW28105   3.354   2.331   1.626
 9069SOL    HW128106   3.297   2.292   1.700
 9069SOL    HW228107   3.446   2.291   1.631
 9070SOL     OW28108   0.698   3.555   5.995
 9070SOL    HW128109   0.685   3.564   5.896
 9070SOL    HW228110   0.705   3.459   6.019
 9071SOL     OW28111   4.611   6.399   0.737
 9071SOL    HW128112   4.644   6.457   0.662
 9071SOL    HW228113   4.667   6.316   0.742
 9072SOL     OW28114   5.503   0.715   1.986
 9072SOL    HW128115   5.539   0.632   1.944
 9072SOL    HW228116   5.422   0.745   1.936
 9073SOL     OW28117   3.714   6.462   1.299
 9073SOL    HW128118   3.720   6.365   1.324
 9073SOL    HW228119   3.633   6.476   1.241
 9074SOL     OW28120   1.760   0.684   1.350
 9074SOL    HW128121   1.717   0.651   1.434
 9074SOL    HW228122   1.721   0.773   1.325
 9075SOL     OW28123   0.739   0.158   1.304
 9075SOL    HW128124   0.722   0.075   1.250
 9075SOL    HW228125   0.806   0.137   1.376
 9076SOL     OW28126   5.430   1.595   5.113
 9076SOL    HW128127   5.525   1.623   5.127
 9076SOL    HW228128   5.396   1.633   5.027
 9077SOL     OW28129   5.640   1.244   6.627
 9077SOL    HW128130   5.577   1.175   6.591
 9077SOL    HW228131   5.706   1.269   6.557
 9078SOL     OW28132   5.142   3.481   0.373
 9078SOL    HW128133   5.196   3.555   0.413
 9078SOL    HW228134   5.141   3.492   0.273
 9079SOL     OW28135   1.604   6.165   4.097
 9079SOL    HW128136   1.583   6.160   4.000
 9079SOL    HW228137   1.691   6.212   4.110
 9080SOL     OW28138   5.564   2.724   6.732
 9080SOL    HW128139   5.538   2.716   6.828
 9080SOL    HW228140   5.558   2.820   6.704
 9081SOL     OW28141   3.291   6.907   2.385
 9081SOL    HW128142   3.225   6.859   2.442
 9081SOL    HW228143   3.384   6.883   2.414
 9082SOL     OW28144   2.702   6.408   5.613
 9082SOL    HW128145   2.721   6.310   5.626
 9082SOL    HW228146   2.745   6.460   5.687
 9083SOL     OW28147   3.855   4.227   5.619
 9083SOL    HW128148   3.773   4.244   5.674
 9083SOL    HW228149   3.863   4.129   5.600
 9084SOL     OW28150   2.582   2.845   5.881
 9084SOL    HW128151   2.642   2.919   5.911
 9084SOL    HW228152   2.566   2.781   5.957
 9085SOL     OW28153   1.154   5.235   0.630
 9085SOL    HW128154   1.246   5.206   0.602
 9085SOL    HW228155   1.086   5.184   0.578
 9086SOL     OW28156   6.653   4.421   0.974
 9086SOL    HW128157   6.592   4.483   1.023
 9086SOL    HW228158   6.679   4.345   1.033
 9087SOL     OW28159   4.696   2.809   1.740
 9087SOL    HW128160   4.681   2.899   1.780
 9087SOL    HW228161   4.792   2.784   1.750
 9088SOL     OW28162   6.748   6.320   0.927
 9088SOL    HW128163   6.718   6.251   0.993
 9088SOL    HW228164   6.846   6.311   0.911
 9089SOL     OW28165   4.666   5.943   5.674
 9089SOL    HW128166   4.710   5.882   5.740
 9089SOL    HW228167   4.586   5.986   5.716
 9090SOL     OW28168   6.365   6.622   3.555
 9090SOL    HW128169   6.322   6.622   3.465
 9090SOL    HW228170   6.430   6.546   3.561
 9091SOL     OW28171   2.630   3.727   0.559
 9091SOL    HW128172   2.712   3.783   0.549
 9091SOL    HW228173   2.636   3.649   0.497
 9092SOL     OW28174   0.013   1.120   0.550
 9092SOL    HW128175   0.009   1.201   0.608
 9092SOL    HW228176   0.050   1.043   0.603
 9093SOL     OW28177   2.051   5.896   6.611
 9093SOL    HW128178   2.004   5.848   6.685
 9093SOL    HW228179   2.047   5.840   6.528
 9094SOL     OW28180   6.767   5.136   2.955
 9094SOL    HW128181   6.764   5.082   2.870
 9094SOL    HW228182   6.675   5.139   2.995
 9095SOL     OW28183   4.756   3.576   6.673
 9095SOL    HW128184   4.762   3.644   6.745
 9095SOL    HW228185   4.846   3.538   6.654
 9096SOL     OW28186   5.659   4.195   1.703
 9096SOL    HW128187   5.690   4.101   1.694
 9096SOL    HW228188   5.622   4.227   1.615
 9097SOL     OW28189   0.869   2.662   6.845
 9097SOL    HW128190   0.907   2.729   6.909
 9097SOL    HW228191   0.902   2.682   6.753
 9098SOL     OW28192   3.785   2.420   6.878
 9098SOL    HW128193   3.702   2.371   6.905
 9098SOL    HW228194   3.766   2.474   6.796
 9099SOL     OW28195   3.345   3.321   0.117
 9099SOL    HW128196   3.293   3.406   0.110
 9099SOL    HW228197   3.282   3.243   0.111
 9100SOL     OW28198   0.953   3.326   4.094
 9100SOL    HW128199   0.913   3.417   4.105
 9100SOL    HW228200   0.883   3.263   4.062
 9101SOL     OW28201   2.743   2.330   3.190
 9101SOL    HW128202   2.823   2.287   3.232
 9101SOL    HW228203   2.660   2.290   3.229
 9102SOL     OW28204   2.819   0.093   2.308
 9102SOL    HW128205   2.743   0.029   2.319
 9102SOL    HW228206   2.828   0.118   2.212
 9103SOL     OW28207   6.472   3.400   6.808
 9103SOL    HW128208   6.534   3.346   6.865
 9103SOL    HW228209   6.447   3.348   6.727
 9104SOL     OW28210   5.667   6.414   2.779
 9104SOL    HW128211   5.683   6.321   2.812
 9104SOL    HW228212   5.570   6.425   2.756
 9105SOL     OW28213   1.640   1.527   0.268
 9105SOL    HW128214   1.714   1.466   0.297
 9105SOL    HW228215   1.615   1.507   0.173
 9106SOL     OW28216   6.706   3.741   0.120
 9106SOL    HW128217   6.703   3.764   0.023
 9106SOL    HW228218   6.628   3.783   0.167
 9107SOL     OW28219   3.208   0.663   6.082
 9107SOL    HW128220   3.284   0.711   6.038
 9107SOL    HW228221   3.212   0.678   6.181
 9108SOL     OW28222   4.673   3.808   5.703
 9108SOL    HW128223   4.632   3.882   5.756
 9108SOL    HW228224   4.684   3.837   5.608
 9109SOL     OW28225   0.652   2.766   2.687
 9109SOL    HW128226   0.727   2.826   2.663
 9109SOL    HW228227   0.565   2.812   2.670
 9110SOL     OW28228   1.594   3.790   3.617
 9110SOL    HW128229   1.684   3.827   3.639
 9110SOL    HW228230   1.554   3.749   3.699
 9111SOL     OW28231   4.383   1.489   0.864
 9111SOL    HW128232   4.411   1.568   0.919
 9111SOL    HW228233   4.314   1.437   0.914
 9112SOL     OW28234   0.560   4.855   4.298
 9112SOL    HW128235   0.637   4.900   4.343
 9112SOL    HW228236   0.592   4.809   4.215
 9113SOL     OW28237   5.426   1.250   2.444
 9113SOL    HW128238   5.451   1.248   2.347
 9113SOL    HW228239   5.337   1.207   2.456
 9114SOL     OW28240   0.826   4.640   1.604
 9114SOL    HW128241   0.821   4.739   1.616
 9114SOL    HW228242   0.816   4.595   1.692
 9115SOL     OW28243   6.860   4.618   5.311
 9115SOL    HW128244   6.830   4.644   5.219
 9115SOL    HW228245   6.925   4.542   5.306
 9116SOL     OW28246   6.595   1.376   1.269
 9116SOL    HW128247   6.573   1.462   1.313
 9116SOL    HW228248   6.676   1.387   1.211
 9117SOL     OW28249   6.034   2.829   0.081
 9117SOL    HW128250   6.022   2.901   0.149
 9117SOL    HW228251   6.131   2.815   0.063
 9118SOL     OW28252   6.453   3.974   0.606
 9118SOL    HW128253   6.452   3.891   0.661
 9118SOL    HW228254   6.521   4.037   0.642
 9119SOL     OW28255   4.849   0.935   1.858
 9119SOL    HW128256   4.829   0.880   1.777
 9119SOL    HW228257   4.780   1.007   1.868
 9120SOL     OW28258   6.062   1.729   5.963
 9120SOL    HW128259   6.027   1.792   6.032
 9120SOL    HW228260   6.095   1.780   5.884
 9121SOL     OW28261   2.979   1.291   5.163
 9121SOL    HW128262   2.884   1.262   5.161
 9121SOL    HW228263   3.038   1.216   5.134
 9122SOL     OW28264   1.583   4.143   2.287
 9122SOL    HW128265   1.533   4.209   2.344
 9122SOL    HW228266   1.539   4.138   2.197
 9123SOL     OW28267   1.890   0.738   4.236
 9123SOL    HW128268   1.940   0.745   4.150
 9123SOL    HW228269   1.805   0.686   4.220
 9124SOL     OW28270   5.502   6.557   0.193
 9124SOL    HW128271   5.459   6.647   0.190
 9124SOL    HW228272   5.471   6.503   0.115
 9125SOL     OW28273   4.789   3.890   0.977
 9125SOL    HW128274   4.724   3.815   0.983
 9125SOL    HW228275   4.847   3.892   1.058
 9126SOL     OW28276   5.867   3.312   1.737
 9126SOL    HW128277   5.795   3.377   1.715
 9126SOL    HW228278   5.916   3.287   1.653
 9127SOL     OW28279   6.982   1.493   6.272
 9127SOL    HW128280   6.958   1.541   6.188
 9127SOL    HW228281   7.017   1.558   6.339
 9128SOL     OW28282   5.363   1.325   5.258
 9128SOL    HW128283   5.381   1.410   5.209
 9128SOL    HW228284   5.284   1.279   5.217
 9129SOL     OW28285   0.757   2.079   0.223
 9129SOL    HW128286   0.808   2.121   0.298
 9129SOL    HW228287   0.666   2.121   0.217
 9130SOL     OW28288   6.903   3.613   6.382
 9130SOL    HW128289   6.985   3.611   6.325
 9130SOL    HW228290   6.917   3.678   6.457
 9131SOL     OW28291   5.947   2.581   4.818
 9131SOL    HW128292   5.994   2.600   4.732
 9131SOL    HW228293   5.982   2.642   4.889
 9132SOL     OW28294   0.863   5.438   4.801
 9132SOL    HW128295   0.877   5.466   4.706
 9132SOL    HW228296   0.789   5.370   4.804
 9133SOL     OW28297   3.448   6.396   1.570
 9133SOL    HW128298   3.407   6.336   1.502
 9133SOL    HW228299   3.422   6.366   1.662
 9134SOL     OW28300   4.631   5.577   1.063
 9134SOL    HW128301   4.588   5.542   1.146
 9134SOL    HW228302   4.684   5.504   1.019
 9135SOL     OW28303   6.537   6.937   1.723
 9135SOL    HW128304   6.520   0.007   1.692
 9135SOL    HW228305   6.477   6.917   1.801
 9136SOL     OW28306   4.914   6.167   6.571
 9136SOL    HW128307   4.856   6.107   6.515
 9136SOL    HW228308   4.913   6.259   6.533
 9137SOL     OW28309   5.470   1.444   0.662
 9137SOL    HW128310   5.551   1.476   0.711
 9137SOL    HW228311   5.398   1.421   0.727
 9138SOL     OW28312   0.343   5.739   6.544
 9138SOL    HW128313   0.349   5.831   6.506
 9138SOL    HW228314   0.434   5.710   6.575
 9139SOL     OW28315   2.757   2.001   3.507
 9139SOL    HW128316   2.719   1.924   3.557
 9139SOL    HW228317   2.773   2.078   3.569
 9140SOL     OW28318   6.938   3.397   2.874
 9140SOL    HW128319   0.012   3.378   2.871
 9140SOL    HW228320   6.887   3.312   2.863
 9141SOL     OW28321   5.548   0.731   0.741
 9141SOL    HW128322   5.628   0.672   0.746
 9141SOL    HW228323   5.465   0.675   0.736
 9142SOL     OW28324   0.401   2.539   0.611
 9142SOL    HW128325   0.366   2.609   0.674
 9142SOL    HW228326   0.497   2.558   0.590
 9143SOL     OW28327   6.080   3.664   6.613
 9143SOL    HW128328   5.992   3.636   6.650
 9143SOL    HW228329   6.142   3.585   6.608
 9144SOL     OW28330   2.348   5.136   4.450
 9144SOL    HW128331   2.313   5.186   4.529
 9144SOL    HW228332   2.444   5.159   4.436
 9145SOL     OW28333   0.109   5.837   0.502
 9145SOL    HW128334   0.143   5.907   0.439
 9145SOL    HW228335   0.063   5.765   0.450
 9146SOL     OW28336   5.495   3.038   3.425
 9146SOL    HW128337   5.424   3.027   3.355
 9146SOL    HW228338   5.468   2.990   3.508
 9147SOL     OW28339   6.381   0.524   5.264
 9147SOL    HW128340   6.411   0.598   5.203
 9147SOL    HW228341   6.281   0.523   5.268
 9148SOL     OW28342   5.199   5.875   1.404
 9148SOL    HW128343   5.145   5.909   1.327
 9148SOL    HW228344   5.246   5.951   1.449
 9149SOL     OW28345   5.754   4.070   2.594
 9149SOL    HW128346   5.718   4.019   2.671
 9149SOL    HW228347   5.826   4.132   2.626
 9150SOL     OW28348   3.662   5.443   1.296
 9150SOL    HW128349   3.728   5.498   1.245
 9150SOL    HW228350   3.638   5.490   1.381
 9151SOL     OW28351   2.307   4.287   3.361
 9151SOL    HW128352   2.244   4.276   3.283
 9151SOL    HW228353   2.264   4.345   3.430
 9152SOL     OW28354   2.197   4.128   4.730
 9152SOL    HW128355   2.212   4.147   4.827
 9152SOL    HW228356   2.235   4.201   4.674
 9153SOL     OW28357   0.472   2.763   6.641
 9153SOL    HW128358   0.409   2.690   6.669
 9153SOL    HW228359   0.442   2.849   6.681
 9154SOL     OW28360   4.549   4.424   6.940
 9154SOL    HW128361   4.605   4.403   6.860
 9154SOL    HW228362   4.568   4.517   6.971
 9155SOL     OW28363   1.885   3.576   2.304
 9155SOL    HW128364   1.849   3.497   2.353
 9155SOL    HW228365   1.967   3.610   2.350
 9156SOL     OW28366   0.972   2.259   6.764
 9156SOL    HW128367   0.913   2.223   6.837
 9156SOL    HW228368   0.935   2.231   6.675
 9157SOL     OW28369   1.473   4.168   6.219
 9157SOL    HW128370   1.425   4.101   6.276
 9157SOL    HW228371   1.545   4.212   6.273
 9158SOL     OW28372   5.175   3.341   4.856
 9158SOL    HW128373   5.220   3.426   4.884
 9158SOL    HW228374   5.076   3.355   4.856
 9159SOL     OW28375   1.667   1.113   1.791
 9159SOL    HW128376   1.760   1.090   1.761
 9159SOL    HW228377   1.646   1.062   1.875
 9160SOL     OW28378   6.852   6.153   5.495
 9160SOL    HW128379   6.766   6.131   5.450
 9160SOL    HW228380   6.892   6.234   5.453
 9161SOL     OW28381   5.413   4.479   3.763
 9161SOL    HW128382   5.344   4.552   3.770
 9161SOL    HW228383   5.440   4.467   3.668
 9162SOL     OW28384   4.313   1.233   3.451
 9162SOL    HW128385   4.397   1.194   3.415
 9162SOL    HW228386   4.297   1.198   3.543
 9163SOL     OW28387   1.125   2.596   4.845
 9163SOL    HW128388   1.181   2.646   4.911
 9163SOL    HW228389   1.080   2.661   4.784
 9164SOL     OW28390   2.399   6.807   6.831
 9164SOL    HW128391   2.330   6.879   6.841
 9164SOL    HW228392   2.490   6.848   6.822
 9165SOL     OW28393   6.501   1.107   5.498
 9165SOL    HW128394   6.476   1.115   5.594
 9165SOL    HW228395   6.580   1.165   5.479
 9166SOL     OW28396   4.156   6.057   1.541
 9166SOL    HW128397   4.078   6.086   1.597
 9166SOL    HW228398   4.131   6.060   1.445
 9167SOL     OW28399   2.248   2.197   6.054
 9167SOL    HW128400   2.268   2.108   6.096
 9167SOL    HW228401   2.321   2.262   6.078
 9168SOL     OW28402   0.090   6.404   5.897
 9168SOL    HW128403   0.008   6.384   5.952
 9168SOL    HW228404   0.165   6.430   5.958
 9169SOL     OW28405   6.420   0.428   6.128
 9169SOL    HW128406   6.504   0.472   6.159
 9169SOL    HW228407   6.410   0.339   6.173
 9170SOL     OW28408   1.139   0.105   6.810
 9170SOL    HW128409   1.104   0.118   6.903
 9170SOL    HW228410   1.126   0.010   6.782
 9171SOL     OW28411   4.125   4.908   0.605
 9171SOL    HW128412   4.155   4.813   0.612
 9171SOL    HW228413   4.060   4.928   0.678
 9172SOL     OW28414   5.186   0.867   2.850
 9172SOL    HW128415   5.180   0.798   2.778
 9172SOL    HW228416   5.265   0.847   2.908
 9173SOL     OW28417   5.923   4.308   6.034
 9173SOL    HW128418   5.841   4.251   6.034
 9173SOL    HW228419   5.931   4.356   6.121
 9174SOL     OW28420   6.433   4.361   1.270
 9174SOL    HW128421   6.445   4.430   1.198
 9174SOL    HW228422   6.497   4.286   1.255
 9175SOL     OW28423   1.383   6.497   6.351
 9175SOL    HW128424   1.316   6.566   6.378
 9175SOL    HW228425   1.401   6.435   6.427
 9176SOL     OW28426   2.316   0.976   3.458
 9176SOL    HW128427   2.240   1.038   3.436
 9176SOL    HW228428   2.336   0.919   3.379
 9177SOL     OW28429   0.856   4.920   4.364
 9177SOL    HW128430   0.866   4.928   4.265
 9177SOL    HW228431   0.929   4.970   4.409
 9178SOL     OW28432   1.595   5.317   0.842
 9178SOL    HW128433   1.496   5.310   0.833
 9178SOL    HW228434   1.623   5.412   0.833
 9179SOL     OW28435   1.815   5.032   3.829
 9179SOL    HW128436   1.769   5.112   3.789
 9179SOL    HW228437   1.891   5.064   3.886
 9180SOL     OW28438   6.515   2.994   3.389
 9180SOL    HW128439   6.535   2.907   3.434
 9180SOL    HW228440   6.481   2.977   3.297
 9181SOL     OW28441   6.055   2.683   4.553
 9181SOL    HW128442   6.128   2.748   4.531
 9181SOL    HW228443   5.967   2.722   4.527
 9182SOL     OW28444   2.540   6.889   3.043
 9182SOL    HW128445   2.596   6.966   3.014
 9182SOL    HW228446   2.596   6.824   3.093
 9183SOL     OW28447   4.630   4.192   0.029
 9183SOL    HW128448   4.544   4.153   0.062
 9183SOL    HW228449   4.611   4.276   7.003
 9184SOL     OW28450   4.582   2.173   1.106
 9184SOL    HW128451   4.550   2.264   1.132
 9184SOL    HW228452   4.505   2.117   1.077
 9185SOL     OW28453   4.892   6.725   5.031
 9185SOL    HW128454   4.834   6.793   4.986
 9185SOL    HW228455   4.973   6.707   4.975
 9186SOL     OW28456   6.059   6.668   4.833
 9186SOL    HW128457   6.075   6.569   4.830
 9186SOL    HW228458   6.026   6.693   4.924
 9187SOL     OW28459   3.510   1.622   0.619
 9187SOL    HW128460   3.467   1.687   0.556
 9187SOL    HW228461   3.511   1.531   0.577
 9188SOL     OW28462   1.801   0.363   1.771
 9188SOL    HW128463   1.813   0.431   1.697
 9188SOL    HW228464   1.837   0.275   1.741
 9189SOL     OW28465   3.197   5.543   1.961
 9189SOL    HW128466   3.135   5.562   2.036
 9189SOL    HW228467   3.226   5.629   1.919
 9190SOL     OW28468   1.810   4.057   5.138
 9190SOL    HW128469   1.901   4.029   5.107
 9190SOL    HW228470   1.750   4.068   5.059
 9191SOL     OW28471   5.342   1.177   0.229
 9191SOL    HW128472   5.436   1.209   0.233
 9191SOL    HW228473   5.293   1.208   0.310
 9192SOL     OW28474   0.121   2.538   6.245
 9192SOL    HW128475   0.046   2.549   6.180
 9192SOL    HW228476   0.128   2.442   6.272
 9193SOL     OW28477   4.065   3.560   5.235
 9193SOL    HW128478   3.974   3.520   5.248
 9193SOL    HW228479   4.124   3.493   5.191
 9194SOL     OW28480   3.181   1.259   2.682
 9194SOL    HW128481   3.127   1.327   2.633
 9194SOL    HW228482   3.147   1.167   2.658
 9195SOL     OW28483   0.800   3.788   3.050
 9195SOL    HW128484   0.813   3.765   3.147
 9195SOL    HW228485   0.703   3.779   3.027
 9196SOL     OW28486   5.897   0.075   3.556
 9196SOL    HW128487   5.945   7.015   3.581
 9196SOL    HW228488   5.810   0.053   3.512
 9197SOL     OW28489   2.937   5.038   1.547
 9197SOL    HW128490   2.981   5.077   1.466
 9197SOL    HW228491   2.880   4.961   1.520
 9198SOL     OW28492   6.211   4.463   6.841
 9198SOL    HW128493   6.297   4.415   6.859
 9198SOL    HW228494   6.151   4.404   6.787
 9199SOL     OW28495   6.748   3.181   5.501
 9199SOL    HW128496   6.676   3.148   5.441
 9199SOL    HW228497   6.713   3.189   5.594
 9200SOL     OW28498   3.295   6.274   6.381
 9200SOL    HW128499   3.201   6.251   6.405
 9200SOL    HW228500   3.358   6.214   6.431
 9201SOL     OW28501   0.079   3.723   0.192
 9201SOL    HW128502   0.082   3.737   0.093
 9201SOL    HW228503   7.022   3.671   0.217
 9202SOL     OW28504   0.830   5.990   3.739
 9202SOL    HW128505   0.829   5.905   3.686
 9202SOL    HW228506   0.739   6.032   3.734
 9203SOL     OW28507   6.325   2.546   6.206
 9203SOL    HW128508   6.277   2.591   6.131
 9203SOL    HW228509   6.322   2.603   6.287
 9204SOL     OW28510   4.867   3.198   4.601
 9204SOL    HW128511   4.853   3.110   4.646
 9204SOL    HW228512   4.879   3.269   4.670
 9205SOL     OW28513   5.231   5.640   3.634
 9205SOL    HW128514   5.273   5.706   3.696
 9205SOL    HW228515   5.175   5.576   3.686
 9206SOL     OW28516   3.239   5.304   3.011
 9206SOL    HW128517   3.192   5.354   3.083
 9206SOL    HW228518   3.276   5.218   3.048
 9207SOL     OW28519   4.814   4.086   0.217
 9207SOL    HW128520   4.784   4.127   0.130
 9207SOL    HW228521   4.840   3.991   0.201
 9208SOL     OW28522   5.396   4.735   3.081
 9208SOL    HW128523   5.323   4.734   3.013
 9208SOL    HW228524   5.428   4.642   3.097
 9209SOL     OW28525   4.792   1.016   0.277
 9209SOL    HW128526   4.876   1.055   0.314
 9209SOL    HW228527   4.812   0.967   0.191
 9210SOL     OW28528   1.457   1.785   1.420
 9210SOL    HW128529   1.489   1.812   1.329
 9210SOL    HW228530   1.366   1.821   1.436
 9211SOL     OW28531   6.218   2.766   5.952
 9211SOL    HW128532   6.135   2.810   5.988
 9211SOL    HW228533   6.284   2.836   5.927
 9212SOL     OW28534   4.827   5.475   4.338
 9212SOL    HW128535   4.835   5.550   4.404
 9212SOL    HW228536   4.818   5.388   4.386
 9213SOL     OW28537   5.405   4.627   4.979
 9213SOL    HW128538   5.384   4.724   4.972
 9213SOL    HW228539   5.491   4.615   5.030
 9214SOL     OW28540   6.971   3.337   5.602
 9214SOL    HW128541   7.018   3.314   5.688
 9214SOL    HW228542   6.900   3.270   5.584
 9215SOL     OW28543   2.089   3.326   2.173
 9215SOL    HW128544   2.119   3.360   2.084
 9215SOL    HW228545   2.016   3.384   2.209
 9216SOL     OW28546   2.578   6.832   3.419
 9216SOL    HW128547   2.601   6.739   3.447
 9216SOL    HW228548   2.571   6.837   3.319
 9217SOL     OW28549   6.177   3.364   6.076
 9217SOL    HW128550   6.201   3.428   6.148
 9217SOL    HW228551   6.121   3.290   6.114
 9218SOL     OW28552   3.459   0.680   0.135
 9218SOL    HW128553   3.384   0.690   0.070
 9218SOL    HW228554   3.433   0.615   0.207
 9219SOL     OW28555   5.392   3.900   6.118
 9219SOL    HW128556   5.409   3.923   6.022
 9219SOL    HW228557   5.302   3.936   6.145
 9220SOL     OW28558   0.907   6.198   1.664
 9220SOL    HW128559   0.946   6.134   1.730
 9220SOL    HW228560   0.946   6.289   1.679
 9221SOL     OW28561   1.844   0.830   2.727
 9221SOL    HW128562   1.751   0.796   2.711
 9221SOL    HW228563   1.841   0.908   2.790
 9222SOL     OW28564   2.478   5.748   5.821
 9222SOL    HW128565   2.405   5.816   5.826
 9222SOL    HW228566   2.554   5.776   5.880
 9223SOL     OW28567   1.569   2.040   4.263
 9223SOL    HW128568   1.477   2.003   4.249
 9223SOL    HW228569   1.598   2.090   4.182
 9224SOL     OW28570   0.676   5.276   4.400
 9224SOL    HW128571   0.663   5.214   4.322
 9224SOL    HW228572   0.774   5.297   4.409
 9225SOL     OW28573   3.119   6.101   6.512
 9225SOL    HW128574   3.165   6.036   6.574
 9225SOL    HW228575   3.053   6.051   6.456
 9226SOL     OW28576   0.183   6.614   1.194
 9226SOL    HW128577   0.210   6.532   1.144
 9226SOL    HW228578   0.133   6.675   1.134
 9227SOL     OW28579   2.114   5.642   1.229
 9227SOL    HW128580   2.065   5.711   1.177
 9227SOL    HW228581   2.213   5.657   1.221
 9228SOL     OW28582   2.948   1.139   6.618
 9228SOL    HW128583   2.921   1.230   6.651
 9228SOL    HW228584   2.995   1.089   6.691
 9229SOL     OW28585   1.257   5.241   5.105
 9229SOL    HW128586   1.229   5.162   5.050
 9229SOL    HW228587   1.177   5.293   5.133
 9230SOL     OW28588   5.321   2.964   3.225
 9230SOL    HW128589   5.238   2.927   3.266
 9230SOL    HW228590   5.390   2.892   3.217
 9231SOL     OW28591   1.085   3.513   4.445
 9231SOL    HW128592   0.996   3.470   4.429
 9231SOL    HW228593   1.154   3.470   4.388
 9232SOL     OW28594   3.623   5.058   6.824
 9232SOL    HW128595   3.529   5.090   6.808
 9232SOL    HW228596   3.656   5.096   6.910
 9233SOL     OW28597   5.563   6.108   1.912
 9233SOL    HW128598   5.594   6.026   1.864
 9233SOL    HW228599   5.631   6.133   1.981
 9234SOL     OW28600   3.706   5.171   0.049
 9234SOL    HW128601   3.790   5.129   0.085
 9234SOL    HW228602   3.670   5.236   0.115
 9235SOL     OW28603   1.832   2.628   3.759
 9235SOL    HW128604   1.772   2.611   3.837
 9235SOL    HW228605   1.851   2.726   3.753
 9236SOL     OW28606   1.996   4.387   6.381
 9236SOL    HW128607   1.960   4.306   6.428
 9236SOL    HW228608   1.936   4.465   6.399
 9237SOL     OW28609   0.272   6.318   3.216
 9237SOL    HW128610   0.179   6.350   3.199
 9237SOL    HW228611   0.299   6.253   3.144
 9238SOL     OW28612   1.771   2.432   6.467
 9238SOL    HW128613   1.862   2.467   6.444
 9238SOL    HW228614   1.750   2.354   6.408
 9239SOL     OW28615   0.147   3.749   6.953
 9239SOL    HW128616   0.192   3.838   6.954
 9239SOL    HW228617   0.137   3.716   6.859
 9240SOL     OW28618   5.355   2.572   2.368
 9240SOL    HW128619   5.390   2.655   2.324
 9240SOL    HW228620   5.374   2.493   2.310
 9241SOL     OW28621   0.809   5.302   5.816
 9241SOL    HW128622   0.854   5.257   5.738
 9241SOL    HW228623   0.856   5.278   5.900
 9242SOL     OW28624   1.403   5.184   0.467
 9242SOL    HW128625   1.361   5.213   0.381
 9242SOL    HW228626   1.473   5.115   0.447
 9243SOL     OW28627   0.782   6.970   1.537
 9243SOL    HW128628   0.778   6.871   1.546
 9243SOL    HW228629   0.690   7.009   1.544
 9244SOL     OW28630   3.771   4.864   6.247
 9244SOL    HW128631   3.803   4.805   6.322
 9244SOL    HW228632   3.819   4.951   6.252
 9245SOL     OW28633   0.902   5.513   4.240
 9245SOL    HW128634   0.847   5.528   4.159
 9245SOL    HW228635   0.923   5.415   4.249
 9246SOL     OW28636   6.243   6.532   2.188
 9246SOL    HW128637   6.310   6.598   2.223
 9246SOL    HW228638   6.287   6.444   2.175
 9247SOL     OW28639   2.100   6.325   3.386
 9247SOL    HW128640   2.029   6.334   3.456
 9247SOL    HW228641   2.060   6.337   3.296
 9248SOL     OW28642   2.594   2.198   4.401
 9248SOL    HW128643   2.664   2.231   4.465
 9248SOL    HW228644   2.596   2.098   4.399
 9249SOL     OW28645   3.568   4.248   1.041
 9249SOL    HW128646   3.597   4.155   1.063
 9249SOL    HW228647   3.487   4.271   1.096
 9250SOL     OW28648   6.049   2.919   3.834
 9250SOL    HW128649   5.987   2.998   3.836
 9250SOL    HW228650   6.125   2.938   3.773
 9251SOL     OW28651   3.817   1.535   2.874
 9251SOL    HW128652   3.911   1.546   2.907
 9251SOL    HW228653   3.782   1.624   2.843
 9252SOL     OW28654   5.357   0.923   3.884
 9252SOL    HW128655   5.341   0.955   3.977
 9252SOL    HW228656   5.298   0.844   3.865
 9253SOL     OW28657   5.390   5.685   6.085
 9253SOL    HW128658   5.419   5.776   6.059
 9253SOL    HW228659   5.403   5.672   6.183
 9254SOL     OW28660   5.833   5.102   3.704
 9254SOL    HW128661   5.844   5.078   3.608
 9254SOL    HW228662   5.904   5.055   3.758
 9255SOL     OW28663   4.504   4.142   0.524
 9255SOL    HW128664   4.501   4.056   0.575
 9255SOL    HW228665   4.598   4.163   0.499
 9256SOL     OW28666   2.887   0.476   2.897
 9256SOL    HW128667   2.969   0.423   2.878
 9256SOL    HW228668   2.812   0.414   2.920
 9257SOL     OW28669   0.530   4.524   3.079
 9257SOL    HW128670   0.447   4.468   3.084
 9257SOL    HW228671   0.571   4.529   3.170
 9258SOL     OW28672   2.976   3.392   2.663
 9258SOL    HW128673   2.987   3.466   2.729
 9258SOL    HW228674   3.063   3.377   2.615
 9259SOL     OW28675   0.727   2.512   0.025
 9259SOL    HW128676   0.788   2.532   6.973
 9259SOL    HW228677   0.676   2.429   0.005
 9260SOL     OW28678   5.930   1.618   4.975
 9260SOL    HW128679   5.989   1.699   4.977
 9260SOL    HW228680   5.939   1.573   4.886
 9261SOL     OW28681   2.530   1.473   0.287
 9261SOL    HW128682   2.626   1.490   0.310
 9261SOL    HW228683   2.471   1.511   0.357
 9262SOL     OW28684   6.596   4.796   5.151
 9262SOL    HW128685   6.508   4.777   5.107
 9262SOL    HW228686   6.580   4.836   5.242
 9263SOL     OW28687   4.767   6.936   1.606
 9263SOL    HW128688   4.709   6.870   1.559
 9263SOL    HW228689   4.716   7.021   1.620
 9264SOL     OW28690   4.892   4.656   0.328
 9264SOL    HW128691   4.797   4.662   0.359
 9264SOL    HW228692   4.910   4.565   0.291
 9265SOL     OW28693   3.793   2.191   0.320
 9265SOL    HW128694   3.711   2.248   0.328
 9265SOL    HW228695   3.819   2.157   0.410
 9266SOL     OW28696   1.544   6.424   1.087
 9266SOL    HW128697   1.558   6.331   1.052
 9266SOL    HW228698   1.632   6.464   1.111
 9267SOL     OW28699   6.814   2.754   4.572
 9267SOL    HW128700   6.842   2.746   4.476
 9267SOL    HW228701   6.754   2.833   4.583
 9268SOL     OW28702   1.246   5.439   2.407
 9268SOL    HW128703   1.269   5.365   2.470
 9268SOL    HW228704   1.324   5.456   2.346
 9269SOL     OW28705   3.693   1.285   6.758
 9269SOL    HW128706   3.740   1.285   6.669
 9269SOL    HW228707   3.625   1.212   6.760
 9270SOL     OW28708   4.326   6.927   5.957
 9270SOL    HW128709   4.391   6.977   6.014
 9270SOL    HW228710   4.275   6.991   5.900
 9271SOL     OW28711   5.477   0.137   1.066
 9271SOL    HW128712   5.483   0.211   1.000
 9271SOL    HW228713   5.467   0.176   1.158
 9272SOL     OW28714   1.158   5.930   4.789
 9272SOL    HW128715   1.143   5.922   4.887
 9272SOL    HW228716   1.131   5.845   4.743
 9273SOL     OW28717   5.428   6.762   2.891
 9273SOL    HW128718   5.483   6.708   2.955
 9273SOL    HW228719   5.462   6.746   2.798
 9274SOL     OW28720   6.268   1.493   6.815
 9274SOL    HW128721   6.315   1.537   6.891
 9274SOL    HW228722   6.170   1.509   6.823
 9275SOL     OW28723   6.208   0.973   0.635
 9275SOL    HW128724   6.175   0.926   0.717
 9275SOL    HW228725   6.137   0.970   0.564
 9276SOL     OW28726   1.729   3.347   1.493
 9276SOL    HW128727   1.727   3.369   1.590
 9276SOL    HW228728   1.639   3.315   1.464
 9277SOL     OW28729   4.572   3.400   0.733
 9277SOL    HW128730   4.522   3.469   0.785
 9277SOL    HW228731   4.564   3.418   0.635
 9278SOL     OW28732   2.007   0.187   6.072
 9278SOL    HW128733   1.965   0.121   6.134
 9278SOL    HW228734   1.998   0.155   5.978
 9279SOL     OW28735   3.825   1.023   2.218
 9279SOL    HW128736   3.833   1.088   2.143
 9279SOL    HW228737   3.729   1.001   2.234
 9280SOL     OW28738   2.234   1.719   3.068
 9280SOL    HW128739   2.180   1.796   3.101
 9280SOL    HW228740   2.218   1.639   3.125
 9281SOL     OW28741   2.388   3.357   6.608
 9281SOL    HW128742   2.362   3.313   6.522
 9281SOL    HW228743   2.430   3.289   6.668
 9282SOL     OW28744   5.275   0.434   3.761
 9282SOL    HW128745   5.300   0.342   3.790
 9282SOL    HW228746   5.242   0.432   3.667
 9283SOL     OW28747   5.348   0.713   3.622
 9283SOL    HW128748   5.321   0.694   3.716
 9283SOL    HW228749   5.336   0.630   3.566
 9284SOL     OW28750   2.683   3.352   5.308
 9284SOL    HW128751   2.688   3.414   5.386
 9284SOL    HW228752   2.602   3.295   5.316
 9285SOL     OW28753   4.643   2.443   0.997
 9285SOL    HW128754   4.562   2.439   1.057
 9285SOL    HW228755   4.668   2.539   0.982
 9286SOL     OW28756   5.216   5.667   1.100
 9286SOL    HW128757   5.213   5.654   1.200
 9286SOL    HW228758   5.303   5.708   1.075
 9287SOL     OW28759   3.240   4.870   0.358
 9287SOL    HW128760   3.226   4.896   0.262
 9287SOL    HW228761   3.159   4.823   0.392
 9288SOL     OW28762   4.716   2.068   2.853
 9288SOL    HW128763   4.733   2.054   2.755
 9288SOL    HW228764   4.617   2.076   2.869
 9289SOL     OW28765   3.596   0.670   2.349
 9289SOL    HW128766   3.545   0.611   2.286
 9289SOL    HW228767   3.665   0.722   2.299
 9290SOL     OW28768   6.002   1.056   2.822
 9290SOL    HW128769   5.923   1.093   2.773
 9290SOL    HW228770   5.996   1.081   2.919
 9291SOL     OW28771   1.129   5.998   5.056
 9291SOL    HW128772   1.147   5.945   5.139
 9291SOL    HW228773   1.132   6.096   5.078
 9292SOL     OW28774   1.814   2.899   6.527
 9292SOL    HW128775   1.894   2.844   6.501
 9292SOL    HW228776   1.735   2.839   6.539
 9293SOL     OW28777   5.201   2.944   6.484
 9293SOL    HW128778   5.214   2.846   6.492
 9293SOL    HW228779   5.122   2.973   6.538
 9294SOL     OW28780   4.230   0.627   5.686
 9294SOL    HW128781   4.320   0.602   5.650
 9294SOL    HW228782   4.201   0.714   5.646
 9295SOL     OW28783   5.339   1.374   4.930
 9295SOL    HW128784   5.299   1.451   4.978
 9295SOL    HW228785   5.405   1.407   4.863
 9296SOL     OW28786   1.694   5.705   0.046
 9296SOL    HW128787   1.719   5.780   7.008
 9296SOL    HW228788   1.655   5.742   0.130
 9297SOL     OW28789   0.345   0.061   2.277
 9297SOL    HW128790   0.328   0.061   2.178
 9297SOL    HW228791   0.404   0.138   2.300
 9298SOL     OW28792   1.065   6.465   6.166
 9298SOL    HW128793   1.157   6.492   6.136
 9298SOL    HW228794   0.999   6.532   6.133
 9299SOL     OW28795   0.583   2.469   4.900
 9299SOL    HW128796   0.517   2.540   4.874
 9299SOL    HW228797   0.658   2.468   4.834
 9300SOL     OW28798   7.012   4.502   5.771
 9300SOL    HW128799   0.069   4.559   5.778
 9300SOL    HW228800   6.983   4.474   5.863
 9301SOL     OW28801   5.459   5.219   4.470
 9301SOL    HW128802   5.451   5.304   4.418
 9301SOL    HW228803   5.377   5.164   4.456
 9302SOL     OW28804   2.152   2.631   4.054
 9302SOL    HW128805   2.088   2.554   4.060
 9302SOL    HW228806   2.202   2.626   3.967
 9303SOL     OW28807   2.405   3.852   0.666
 9303SOL    HW128808   2.469   3.790   0.620
 9303SOL    HW228809   2.371   3.809   0.750
 9304SOL     OW28810   3.987   4.646   1.759
 9304SOL    HW128811   3.944   4.631   1.671
 9304SOL    HW228812   4.077   4.602   1.761
 9305SOL     OW28813   3.358   1.193   0.836
 9305SOL    HW128814   3.419   1.138   0.893
 9305SOL    HW228815   3.365   1.161   0.741
 9306SOL     OW28816   0.372   5.399   5.200
 9306SOL    HW128817   0.387   5.300   5.192
 9306SOL    HW228818   0.460   5.446   5.190
 9307SOL     OW28819   1.374   3.537   1.510
 9307SOL    HW128820   1.357   3.530   1.411
 9307SOL    HW228821   1.329   3.461   1.557
 9308SOL     OW28822   2.416   3.553   0.248
 9308SOL    HW128823   2.351   3.523   0.178
 9308SOL    HW228824   2.375   3.542   0.339
 9309SOL     OW28825   3.896   4.504   5.949
 9309SOL    HW128826   3.863   4.474   6.039
 9309SOL    HW228827   3.892   4.604   5.944
 9310SOL     OW28828   5.065   5.251   6.702
 9310SOL    HW128829   5.042   5.288   6.792
 9310SOL    HW228830   4.997   5.281   6.635
 9311SOL     OW28831   4.705   4.703   1.477
 9311SOL    HW128832   4.745   4.717   1.567
 9311SOL    HW228833   4.635   4.631   1.483
 9312SOL     OW28834   1.044   3.904   0.967
 9312SOL    HW128835   1.015   3.997   0.989
 9312SOL    HW228836   1.057   3.853   1.052
 9313SOL     OW28837   0.386   0.868   0.617
 9313SOL    HW128838   0.366   0.906   0.707
 9313SOL    HW228839   0.480   0.890   0.591
 9314SOL     OW28840   5.888   4.321   6.892
 9314SOL    HW128841   5.944   4.249   6.851
 9314SOL    HW228842   5.843   4.373   6.819
 9315SOL     OW28843   6.147   0.347   5.129
 9315SOL    HW128844   6.148   0.330   5.228
 9315SOL    HW228845   6.240   0.339   5.093
 9316SOL     OW28846   5.819   6.660   5.969
 9316SOL    HW128847   5.875   6.656   6.052
 9316SOL    HW228848   5.739   6.716   5.985
 9317SOL     OW28849   5.456   5.057   3.885
 9317SOL    HW128850   5.359   5.064   3.865
 9317SOL    HW228851   5.508   5.106   3.815
 9318SOL     OW28852   5.730   1.272   5.865
 9318SOL    HW128853   5.785   1.343   5.909
 9318SOL    HW228854   5.786   1.191   5.848
 9319SOL     OW28855   2.634   2.447   6.621
 9319SOL    HW128856   2.587   2.370   6.579
 9319SOL    HW228857   2.586   2.473   6.705
 9320SOL     OW28858   3.199   0.341   4.916
 9320SOL    HW128859   3.176   0.436   4.893
 9320SOL    HW228860   3.207   0.288   4.831
 9321SOL     OW28861   0.504   0.329   4.354
 9321SOL    HW128862   0.459   0.345   4.266
 9321SOL    HW228863   0.579   0.395   4.366
 9322SOL     OW28864   6.923   3.817   5.894
 9322SOL    HW128865   6.894   3.743   5.834
 9322SOL    HW228866   6.844   3.873   5.919
 9323SOL     OW28867   1.373   0.559   5.386
 9323SOL    HW128868   1.390   0.524   5.478
 9323SOL    HW228869   1.353   0.482   5.325
 9324SOL     OW28870   1.220   4.434   1.706
 9324SOL    HW128871   1.265   4.349   1.681
 9324SOL    HW228872   1.218   4.443   1.806
 9325SOL     OW28873   5.603   1.281   0.224
 9325SOL    HW128874   5.649   1.265   0.137
 9325SOL    HW228875   5.659   1.245   0.299
 9326SOL     OW28876   2.629   4.854   0.659
 9326SOL    HW128877   2.533   4.879   0.669
 9326SOL    HW228878   2.637   4.754   0.654
 9327SOL     OW28879   4.875   0.363   2.668
 9327SOL    HW128880   4.907   0.362   2.763
 9327SOL    HW228881   4.954   0.353   2.606
 9328SOL     OW28882   2.725   0.924   4.939
 9328SOL    HW128883   2.641   0.934   4.993
 9328SOL    HW228884   2.741   1.008   4.886
 9329SOL     OW28885   5.865   3.634   0.581
 9329SOL    HW128886   5.873   3.541   0.616
 9329SOL    HW228887   5.860   3.698   0.658
 9330SOL     OW28888   6.458   0.326   5.657
 9330SOL    HW128889   6.539   0.326   5.715
 9330SOL    HW228890   6.473   0.385   5.578
 9331SOL     OW28891   2.270   1.088   6.822
 9331SOL    HW128892   2.237   1.182   6.832
 9331SOL    HW228893   2.207   1.037   6.763
 9332SOL     OW28894   4.184   4.489   0.773
 9332SOL    HW128895   4.146   4.546   0.700
 9332SOL    HW228896   4.110   4.444   0.823
 9333SOL     OW28897   3.674   4.005   6.984
 9333SOL    HW128898   3.668   4.094   6.938
 9333SOL    HW228899   3.759   3.960   6.957
 9334SOL     OW28900   5.240   6.405   3.590
 9334SOL    HW128901   5.313   6.441   3.648
 9334SOL    HW228902   5.269   6.316   3.553
 9335SOL     OW28903   1.064   0.782   6.827
 9335SOL    HW128904   0.999   0.706   6.817
 9335SOL    HW228905   1.091   0.814   6.736
 9336SOL     OW28906   3.467   6.385   5.569
 9336SOL    HW128907   3.371   6.359   5.578
 9336SOL    HW228908   3.489   6.457   5.635
 9337SOL     OW28909   4.081   1.449   4.640
 9337SOL    HW128910   4.060   1.540   4.675
 9337SOL    HW228911   4.102   1.387   4.716
 9338SOL     OW28912   6.221   0.258   1.543
 9338SOL    HW128913   6.170   0.185   1.589
 9338SOL    HW228914   6.204   0.254   1.445
 9339SOL     OW28915   6.035   6.329   0.944
 9339SOL    HW128916   6.028   6.296   0.850
 9339SOL    HW228917   6.111   6.393   0.951
 9340SOL     OW28918   4.799   4.772   3.429
 9340SOL    HW128919   4.776   4.830   3.507
 9340SOL    HW228920   4.891   4.735   3.441
 9341SOL     OW28921   0.074   4.993   1.371
 9341SOL    HW128922   0.116   5.047   1.443
 9341SOL    HW228923   6.998   4.992   1.383
 9342SOL     OW28924   3.206   6.661   3.740
 9342SOL    HW128925   3.178   6.690   3.648
 9342SOL    HW228926   3.294   6.704   3.763
 9343SOL     OW28927   5.188   4.102   1.526
 9343SOL    HW128928   5.088   4.106   1.530
 9343SOL    HW228929   5.227   4.146   1.607
 9344SOL     OW28930   5.363   6.707   1.931
 9344SOL    HW128931   5.341   6.654   2.013
 9344SOL    HW228932   5.293   6.776   1.916
 9345SOL     OW28933   6.783   5.852   1.858
 9345SOL    HW128934   6.735   5.769   1.829
 9345SOL    HW228935   6.747   5.930   1.806
 9346SOL     OW28936   5.412   0.870   1.412
 9346SOL    HW128937   5.357   0.848   1.494
 9346SOL    HW228938   5.483   0.935   1.437
 9347SOL     OW28939   3.727   4.013   0.709
 9347SOL    HW128940   3.746   3.989   0.804
 9347SOL    HW228941   3.630   3.997   0.689
 9348SOL     OW28942   2.127   6.229   2.996
 9348SOL    HW128943   2.159   6.305   2.939
 9348SOL    HW228944   2.034   6.204   2.969
 9349SOL     OW28945   6.675   4.921   2.190
 9349SOL    HW128946   6.599   4.893   2.131
 9349SOL    HW228947   6.648   5.001   2.243
 9350SOL     OW28948   6.889   2.702   5.291
 9350SOL    HW128949   6.956   2.767   5.254
 9350SOL    HW228950   6.875   2.629   5.225
 9351SOL     OW28951   3.499   6.872   6.365
 9351SOL    HW128952   3.592   6.909   6.355
 9351SOL    HW228953   3.459   6.856   6.274
 9352SOL     OW28954   3.810   1.212   6.492
 9352SOL    HW128955   3.718   1.203   6.453
 9352SOL    HW228956   3.841   1.123   6.525
 9353SOL     OW28957   0.839   4.136   1.021
 9353SOL    HW128958   0.850   4.223   1.067
 9353SOL    HW228959   0.796   4.150   0.932
 9354SOL     OW28960   0.171   2.027   6.068
 9354SOL    HW128961   0.080   1.995   6.095
 9354SOL    HW228962   0.193   2.110   6.120
 9355SOL     OW28963   0.009   2.151   4.683
 9355SOL    HW128964   0.047   2.097   4.608
 9355SOL    HW228965   6.967   2.217   4.647
 9356SOL     OW28966   4.566   6.491   2.050
 9356SOL    HW128967   4.542   6.435   1.970
 9356SOL    HW228968   4.524   6.582   2.040
 9357SOL     OW28969   1.483   3.406   6.484
 9357SOL    HW128970   1.436   3.376   6.401
 9357SOL    HW228971   1.524   3.327   6.530
 9358SOL     OW28972   0.195   3.242   2.224
 9358SOL    HW128973   0.279   3.208   2.182
 9358SOL    HW228974   0.217   3.302   2.300
 9359SOL     OW28975   1.729   3.662   5.880
 9359SOL    HW128976   1.656   3.631   5.820
 9359SOL    HW228977   1.807   3.693   5.826
 9360SOL     OW28978   1.467   5.709   6.890
 9360SOL    HW128979   1.551   5.667   6.925
 9360SOL    HW228980   1.455   5.684   6.794
 9361SOL     OW28981   1.619   5.340   2.460
 9361SOL    HW128982   1.599   5.423   2.408
 9361SOL    HW228983   1.670   5.364   2.543
 9362SOL     OW28984   1.957   2.802   2.569
 9362SOL    HW128985   2.028   2.763   2.628
 9362SOL    HW228986   1.991   2.888   2.529
 9363SOL     OW28987   3.740   6.529   1.878
 9363SOL    HW128988   3.723   6.542   1.975
 9363SOL    HW228989   3.678   6.459   1.842
 9364SOL     OW28990   3.589   2.928   6.182
 9364SOL    HW128991   3.649   2.966   6.112
 9364SOL    HW228992   3.578   2.994   6.256
 9365SOL     OW28993   2.384   2.034   4.078
 9365SOL    HW128994   2.305   2.093   4.095
 9365SOL    HW228995   2.416   2.048   3.984
 9366SOL     OW28996   3.482   5.536   6.235
 9366SOL    HW128997   3.466   5.445   6.198
 9366SOL    HW228998   3.539   5.589   6.171
 9367SOL     OW28999   0.407   6.798   3.342
 9367SOL    HW129000   0.367   6.840   3.261
 9367SOL    HW229001   0.340   6.798   3.417
 9368SOL     OW29002   2.859   0.848   2.523
 9368SOL    HW129003   2.831   0.847   2.427
 9368SOL    HW229004   2.854   0.756   2.560
 9369SOL     OW29005   6.513   5.837   4.466
 9369SOL    HW129006   6.477   5.930   4.459
 9369SOL    HW229007   6.611   5.840   4.484
 9370SOL     OW29008   5.580   0.261   3.633
 9370SOL    HW129009   5.515   0.188   3.653
 9370SOL    HW229010   5.557   0.342   3.686
 9371SOL     OW29011   3.058   5.059   0.791
 9371SOL    HW129012   3.010   4.985   0.838
 9371SOL    HW229013   3.129   5.096   0.850
 9372SOL     OW29014   4.900   0.738   2.026
 9372SOL    HW129015   4.927   0.659   1.972
 9372SOL    HW229016   4.892   0.819   1.966
 9373SOL     OW29017   5.123   1.817   2.154
 9373SOL    HW129018   5.168   1.753   2.217
 9373SOL    HW229019   5.103   1.902   2.202
 9374SOL     OW29020   0.218   3.485   0.198
 9374SOL    HW129021   0.147   3.426   0.235
 9374SOL    HW229022   0.191   3.581   0.211
 9375SOL     OW29023   0.947   1.419   1.279
 9375SOL    HW129024   0.942   1.493   1.212
 9375SOL    HW229025   0.855   1.381   1.294
 9376SOL     OW29026   2.386   3.948   1.151
 9376SOL    HW129027   2.480   3.947   1.117
 9376SOL    HW229028   2.378   4.013   1.226
 9377SOL     OW29029   1.797   5.521   3.340
 9377SOL    HW129030   1.755   5.461   3.409
 9377SOL    HW229031   1.893   5.535   3.363
 9378SOL     OW29032   1.768   1.055   3.832
 9378SOL    HW129033   1.765   1.087   3.927
 9378SOL    HW229034   1.676   1.056   3.793
 9379SOL     OW29035   4.915   0.192   5.473
 9379SOL    HW129036   4.908   0.128   5.397
 9379SOL    HW229037   4.829   0.191   5.526
 9380SOL     OW29038   4.510   5.652   5.843
 9380SOL    HW129039   4.480   5.559   5.822
 9380SOL    HW229040   4.609   5.658   5.828
 9381SOL     OW29041   4.522   3.062   5.668
 9381SOL    HW129042   4.604   3.047   5.724
 9381SOL    HW229043   4.544   3.125   5.593
 9382SOL     OW29044   3.110   0.863   4.085
 9382SOL    HW129045   3.098   0.789   4.151
 9382SOL    HW229046   3.063   0.839   4.000
 9383SOL     OW29047   5.866   5.808   4.700
 9383SOL    HW129048   5.932   5.798   4.626
 9383SOL    HW229049   5.773   5.806   4.663
 9384SOL     OW29050   4.436   0.484   1.951
 9384SOL    HW129051   4.393   0.427   1.881
 9384SOL    HW229052   4.465   0.428   2.028
 9385SOL     OW29053   3.943   1.404   3.738
 9385SOL    HW129054   4.014   1.361   3.794
 9385SOL    HW229055   3.867   1.340   3.726
 9386SOL     OW29056   3.233   5.535   5.174
 9386SOL    HW129057   3.186   5.502   5.092
 9386SOL    HW229058   3.210   5.475   5.251
 9387SOL     OW29059   2.717   2.044   0.178
 9387SOL    HW129060   2.761   2.103   0.111
 9387SOL    HW229061   2.647   1.989   0.134
 9388SOL     OW29062   2.843   5.761   3.211
 9388SOL    HW129063   2.879   5.849   3.182
 9388SOL    HW229064   2.788   5.773   3.294
 9389SOL     OW29065   1.890   0.290   3.369
 9389SOL    HW129066   1.985   0.260   3.367
 9389SOL    HW229067   1.864   0.326   3.280
 9390SOL     OW29068   5.653   4.708   6.791
 9390SOL    HW129069   5.578   4.668   6.844
 9390SOL    HW229070   5.628   4.801   6.763
 9391SOL     OW29071   1.410   0.824   5.305
 9391SOL    HW129072   1.497   0.815   5.257
 9391SOL    HW229073   1.390   0.740   5.354
 9392SOL     OW29074   5.628   5.388   5.703
 9392SOL    HW129075   5.684   5.470   5.699
 9392SOL    HW229076   5.550   5.403   5.763
 9393SOL     OW29077   3.340   6.894   6.593
 9393SOL    HW129078   3.402   6.885   6.671
 9393SOL    HW229079   3.393   6.888   6.508
 9394SOL     OW29080   6.739   0.718   1.718
 9394SOL    HW129081   6.654   0.671   1.694
 9394SOL    HW229082   6.817   0.663   1.690
 9395SOL     OW29083   3.308   1.343   1.406
 9395SOL    HW129084   3.216   1.374   1.431
 9395SOL    HW229085   3.344   1.286   1.480
 9396SOL     OW29086   2.331   4.223   4.014
 9396SOL    HW129087   2.284   4.165   4.080
 9396SOL    HW229088   2.416   4.179   3.984
 9397SOL     OW29089   3.684   6.324   6.434
 9397SOL    HW129090   3.704   6.412   6.477
 9397SOL    HW229091   3.624   6.271   6.493
 9398SOL     OW29092   6.281   0.993   5.016
 9398SOL    HW129093   6.364   1.007   5.070
 9398SOL    HW229094   6.220   0.930   5.063
 9399SOL     OW29095   1.438   2.753   5.040
 9399SOL    HW129096   1.486   2.757   5.128
 9399SOL    HW229097   1.495   2.705   4.973
 9400SOL     OW29098   4.949   1.271   1.034
 9400SOL    HW129099   4.993   1.296   0.948
 9400SOL    HW229100   5.001   1.199   1.079
 9401SOL     OW29101   6.627   0.926   3.089
 9401SOL    HW129102   6.650   0.859   3.019
 9401SOL    HW229103   6.624   1.018   3.048
 9402SOL     OW29104   1.468   5.501   2.691
 9402SOL    HW129105   1.533   5.429   2.663
 9402SOL    HW229106   1.385   5.494   2.637
 9403SOL     OW29107   6.496   1.359   1.835
 9403SOL    HW129108   6.548   1.332   1.755
 9403SOL    HW229109   6.517   1.297   1.911
 9404SOL     OW29110   1.085   2.023   0.316
 9404SOL    HW129111   1.083   2.061   0.408
 9404SOL    HW229112   1.054   1.928   0.318
 9405SOL     OW29113   2.142   3.945   3.690
 9405SOL    HW129114   2.147   3.909   3.784
 9405SOL    HW229115   2.225   3.918   3.640
 9406SOL     OW29116   0.573   2.523   6.542
 9406SOL    HW129117   0.525   2.604   6.578
 9406SOL    HW229118   0.668   2.547   6.524
 9407SOL     OW29119   2.563   4.859   3.222
 9407SOL    HW129120   2.525   4.775   3.260
 9407SOL    HW229121   2.564   4.930   3.293
 9408SOL     OW29122   6.613   2.623   5.936
 9408SOL    HW129123   6.691   2.600   5.877
 9408SOL    HW229124   6.528   2.603   5.887
 9409SOL     OW29125   6.312   5.649   0.940
 9409SOL    HW129126   6.261   5.616   0.861
 9409SOL    HW229127   6.276   5.738   0.968
 9410SOL     OW29128   2.094   0.754   2.573
 9410SOL    HW129129   2.124   0.840   2.532
 9410SOL    HW229130   1.996   0.759   2.591
 9411SOL     OW29131   3.912   3.941   2.995
 9411SOL    HW129132   3.841   3.953   3.064
 9411SOL    HW229133   4.000   3.974   3.030
 9412SOL     OW29134   1.578   1.584   2.209
 9412SOL    HW129135   1.648   1.591   2.280
 9412SOL    HW229136   1.612   1.625   2.124
 9413SOL     OW29137   3.972   5.255   3.769
 9413SOL    HW129138   3.953   5.346   3.806
 9413SOL    HW229139   4.069   5.249   3.744
 9414SOL     OW29140   2.810   1.086   3.050
 9414SOL    HW129141   2.773   1.156   3.110
 9414SOL    HW229142   2.817   1.122   2.957
 9415SOL     OW29143   1.981   6.982   2.925
 9415SOL    HW129144   2.077   6.953   2.932
 9415SOL    HW229145   1.975   0.037   2.863
 9416SOL     OW29146   0.425   1.539   6.126
 9416SOL    HW129147   0.334   1.499   6.110
 9416SOL    HW229148   0.488   1.466   6.153
 9417SOL     OW29149   3.426   0.621   0.934
 9417SOL    HW129150   3.345   0.666   0.898
 9417SOL    HW229151   3.478   0.685   0.990
 9418SOL     OW29152   2.863   0.743   1.631
 9418SOL    HW129153   2.891   0.649   1.608
 9418SOL    HW229154   2.772   0.742   1.672
 9419SOL     OW29155   2.547   4.307   6.388
 9419SOL    HW129156   2.495   4.373   6.443
 9419SOL    HW229157   2.627   4.277   6.440
 9420SOL     OW29158   5.551   4.897   1.042
 9420SOL    HW129159   5.608   4.898   0.960
 9420SOL    HW229160   5.556   4.807   1.085
 9421SOL     OW29161   3.134   6.068   4.827
 9421SOL    HW129162   3.109   6.112   4.913
 9421SOL    HW229163   3.196   6.128   4.776
 9422SOL     OW29164   2.924   5.563   2.823
 9422SOL    HW129165   2.932   5.645   2.767
 9422SOL    HW229166   2.848   5.573   2.887
 9423SOL     OW29167   3.613   6.303   3.505
 9423SOL    HW129168   3.541   6.234   3.517
 9423SOL    HW229169   3.702   6.257   3.506
 9424SOL     OW29170   4.613   2.311   4.140
 9424SOL    HW129171   4.544   2.373   4.178
 9424SOL    HW229172   4.604   2.221   4.183
 9425SOL     OW29173   5.339   4.275   1.342
 9425SOL    HW129174   5.386   4.245   1.259
 9425SOL    HW229175   5.264   4.212   1.362
 9426SOL     OW29176   3.413   1.923   6.350
 9426SOL    HW129177   3.425   1.829   6.382
 9426SOL    HW229178   3.341   1.926   6.281
 9427SOL     OW29179   2.938   5.248   3.186
 9427SOL    HW129180   2.938   5.193   3.102
 9427SOL    HW229181   2.966   5.342   3.164
 9428SOL     OW29182   0.419   0.233   1.059
 9428SOL    HW129183   0.418   0.133   1.054
 9428SOL    HW229184   0.403   0.271   0.968
 9429SOL     OW29185   1.731   3.663   3.392
 9429SOL    HW129186   1.740   3.570   3.428
 9429SOL    HW229187   1.651   3.707   3.434
 9430SOL     OW29188   0.175   2.709   5.018
 9430SOL    HW129189   0.162   2.808   5.019
 9430SOL    HW229190   0.218   2.680   5.103
 9431SOL     OW29191   6.227   4.565   0.901
 9431SOL    HW129192   6.244   4.508   0.821
 9431SOL    HW229193   6.129   4.569   0.920
 9432SOL     OW29194   6.238   0.579   3.985
 9432SOL    HW129195   6.199   0.544   4.070
 9432SOL    HW229196   6.276   0.670   4.001
 9433SOL     OW29197   2.807   6.223   2.897
 9433SOL    HW129198   2.889   6.177   2.863
 9433SOL    HW229199   2.727   6.186   2.850
 9434SOL     OW29200   5.636   5.813   2.118
 9434SOL    HW129201   5.545   5.844   2.089
 9434SOL    HW229202   5.706   5.862   2.066
 9435SOL     OW29203   0.192   2.443   3.503
 9435SOL    HW129204   0.092   2.447   3.509
 9435SOL    HW229205   0.222   2.349   3.491
 9436SOL     OW29206   1.439   2.631   1.977
 9436SOL    HW129207   1.354   2.679   1.999
 9436SOL    HW229208   1.423   2.570   1.899
 9437SOL     OW29209   0.367   6.195   2.697
 9437SOL    HW129210   0.343   6.250   2.776
 9437SOL    HW229211   0.436   6.127   2.723
 9438SOL     OW29212   0.813   0.232   1.790
 9438SOL    HW129213   0.827   0.258   1.885
 9438SOL    HW229214   0.871   0.154   1.768
 9439SOL     OW29215   0.601   3.122   0.562
 9439SOL    HW129216   0.665   3.093   0.490
 9439SOL    HW229217   0.507   3.110   0.530
 9440SOL     OW29218   3.793   4.884   3.250
 9440SOL    HW129219   3.730   4.902   3.326
 9440SOL    HW229220   3.874   4.836   3.283
 9441SOL     OW29221   6.005   4.680   5.931
 9441SOL    HW129222   5.994   4.719   5.839
 9441SOL    HW229223   6.010   4.580   5.924
 9442SOL     OW29224   5.736   3.942   1.674
 9442SOL    HW129225   5.830   3.924   1.646
 9442SOL    HW229226   5.717   3.896   1.761
 9443SOL     OW29227   2.754   5.543   0.360
 9443SOL    HW129228   2.717   5.459   0.319
 9443SOL    HW229229   2.737   5.620   0.299
 9444SOL     OW29230   1.931   3.815   0.646
 9444SOL    HW129231   1.917   3.890   0.711
 9444SOL    HW229232   1.864   3.822   0.572
 9445SOL     OW29233   5.933   3.458   3.112
 9445SOL    HW129234   5.953   3.523   3.039
 9445SOL    HW229235   5.834   3.449   3.122
 9446SOL     OW29236   6.195   5.278   5.273
 9446SOL    HW129237   6.117   5.340   5.269
 9446SOL    HW229238   6.234   5.268   5.182
 9447SOL     OW29239   5.514   4.402   3.543
 9447SOL    HW129240   5.538   4.486   3.493
 9447SOL    HW229241   5.586   4.334   3.530
 9448SOL     OW29242   6.870   0.097   5.887
 9448SOL    HW129243   6.812   0.067   5.811
 9448SOL    HW229244   6.818   0.095   5.972
 9449SOL     OW29245   5.578   6.869   0.413
 9449SOL    HW129246   5.484   6.892   0.390
 9449SOL    HW229247   5.591   6.770   0.407
 9450SOL     OW29248   2.501   6.156   3.294
 9450SOL    HW129249   2.452   6.159   3.381
 9450SOL    HW229250   2.599   6.163   3.311
 9451SOL     OW29251   4.941   6.132   5.763
 9451SOL    HW129252   4.847   6.155   5.738
 9451SOL    HW229253   4.940   6.051   5.822
 9452SOL     OW29254   1.659   4.420   6.979
 9452SOL    HW129255   1.613   4.348   6.926
 9452SOL    HW229256   1.677   4.386   0.048
 9453SOL     OW29257   2.808   5.344   2.736
 9453SOL    HW129258   2.840   5.281   2.807
 9453SOL    HW229259   2.848   5.434   2.750
 9454SOL     OW29260   3.276   3.391   6.559
 9454SOL    HW129261   3.290   3.330   6.637
 9454SOL    HW229262   3.352   3.382   6.495
 9455SOL     OW29263   3.102   2.062   3.746
 9455SOL    HW129264   3.103   2.129   3.671
 9455SOL    HW229265   3.055   1.979   3.716
 9456SOL     OW29266   0.026   3.255   0.563
 9456SOL    HW129267   0.004   3.279   0.469
 9456SOL    HW229268   6.974   3.202   0.602
 9457SOL     OW29269   1.054   4.378   4.257
 9457SOL    HW129270   1.120   4.402   4.328
 9457SOL    HW229271   0.979   4.325   4.297
 9458SOL     OW29272   0.358   3.575   6.136
 9458SOL    HW129273   0.302   3.558   6.056
 9458SOL    HW229274   0.333   3.663   6.176
 9459SOL     OW29275   5.265   4.680   3.775
 9459SOL    HW129276   5.281   4.741   3.853
 9459SOL    HW229277   5.173   4.641   3.780
 9460SOL     OW29278   2.092   3.648   4.624
 9460SOL    HW129279   2.147   3.576   4.582
 9460SOL    HW229280   2.020   3.676   4.561
 9461SOL     OW29281   0.694   1.868   1.399
 9461SOL    HW129282   0.649   1.866   1.488
 9461SOL    HW229283   0.658   1.795   1.341
 9462SOL     OW29284   1.430   3.094   3.561
 9462SOL    HW129285   1.478   3.007   3.564
 9462SOL    HW229286   1.484   3.164   3.609
 9463SOL     OW29287   5.921   0.416   1.454
 9463SOL    HW129288   5.994   0.485   1.454
 9463SOL    HW229289   5.837   0.456   1.492
 9464SOL     OW29290   5.537   0.430   0.907
 9464SOL    HW129291   5.570   0.494   0.976
 9464SOL    HW229292   5.460   0.470   0.857
 9465SOL     OW29293   7.022   3.923   1.602
 9465SOL    HW129294   6.953   3.921   1.529
 9465SOL    HW229295   0.009   3.831   1.639
 9466SOL     OW29296   3.176   4.585   5.409
 9466SOL    HW129297   3.181   4.592   5.508
 9466SOL    HW229298   3.091   4.538   5.383
 9467SOL     OW29299   1.113   3.189   1.354
 9467SOL    HW129300   1.162   3.168   1.269
 9467SOL    HW229301   1.022   3.147   1.351
 9468SOL     OW29302   5.383   4.265   6.585
 9468SOL    HW129303   5.383   4.350   6.638
 9468SOL    HW229304   5.475   4.249   6.548
 9469SOL     OW29305   0.264   5.647   1.786
 9469SOL    HW129306   0.329   5.698   1.730
 9469SOL    HW229307   0.301   5.557   1.808
 9470SOL     OW29308   5.350   3.294   0.161
 9470SOL    HW129309   5.409   3.343   0.225
 9470SOL    HW229310   5.289   3.359   0.115
 9471SOL     OW29311   6.558   2.699   4.342
 9471SOL    HW129312   6.518   2.613   4.374
 9471SOL    HW229313   6.568   2.762   4.419
 9472SOL     OW29314   6.678   2.897   5.184
 9472SOL    HW129315   6.716   2.964   5.120
 9472SOL    HW229316   6.750   2.832   5.211
 9473SOL     OW29317   2.981   4.733   0.222
 9473SOL    HW129318   2.910   4.703   0.286
 9473SOL    HW229319   3.042   4.656   0.202
 9474SOL     OW29320   6.849   3.647   1.230
 9474SOL    HW129321   6.878   3.559   1.193
 9474SOL    HW229322   6.749   3.652   1.230
 9475SOL     OW29323   3.659   3.115   0.335
 9475SOL    HW129324   3.598   3.050   0.290
 9475SOL    HW229325   3.723   3.066   0.395
 9476SOL     OW29326   4.003   3.962   4.315
 9476SOL    HW129327   4.018   3.877   4.266
 9476SOL    HW229328   4.007   4.039   4.251
 9477SOL     OW29329   0.657   3.068   0.814
 9477SOL    HW129330   0.630   3.091   0.721
 9477SOL    HW229331   0.753   3.037   0.814
 9478SOL     OW29332   5.356   3.597   1.437
 9478SOL    HW129333   5.310   3.656   1.504
 9478SOL    HW229334   5.291   3.568   1.368
 9479SOL     OW29335   4.219   6.438   0.369
 9479SOL    HW129336   4.309   6.394   0.372
 9479SOL    HW229337   4.223   6.525   0.419
 9480SOL     OW29338   5.460   5.114   0.365
 9480SOL    HW129339   5.369   5.149   0.386
 9480SOL    HW229340   5.465   5.089   0.268
 9481SOL     OW29341   4.885   3.131   2.718
 9481SOL    HW129342   4.885   3.150   2.620
 9481SOL    HW229343   4.902   3.216   2.768
 9482SOL     OW29344   0.807   0.957   2.634
 9482SOL    HW129345   0.783   0.874   2.684
 9482SOL    HW229346   0.731   0.984   2.575
 9483SOL     OW29347   1.130   0.362   0.523
 9483SOL    HW129348   1.153   0.268   0.548
 9483SOL    HW229349   1.172   0.384   0.435
 9484SOL     OW29350   3.825   0.085   4.434
 9484SOL    HW129351   3.801   0.049   4.525
 9484SOL    HW229352   3.846   0.009   4.373
 9485SOL     OW29353   0.288   0.990   0.927
 9485SOL    HW129354   0.253   1.011   1.018
 9485SOL    HW229355   0.241   0.910   0.890
 9486SOL     OW29356   4.148   6.320   0.916
 9486SOL    HW129357   4.232   6.293   0.964
 9486SOL    HW229358   4.086   6.366   0.979
 9487SOL     OW29359   3.249   3.770   4.007
 9487SOL    HW129360   3.255   3.677   4.041
 9487SOL    HW229361   3.165   3.780   3.952
 9488SOL     OW29362   2.891   6.866   1.380
 9488SOL    HW129363   2.913   6.959   1.410
 9488SOL    HW229364   2.846   6.869   1.291
 9489SOL     OW29365   4.925   4.574   1.642
 9489SOL    HW129366   5.014   4.554   1.683
 9489SOL    HW229367   4.937   4.639   1.567
 9490SOL     OW29368   6.139   5.507   3.032
 9490SOL    HW129369   6.089   5.569   3.093
 9490SOL    HW229370   6.074   5.467   2.967
 9491SOL     OW29371   4.896   4.455   4.127
 9491SOL    HW129372   4.837   4.520   4.175
 9491SOL    HW229373   4.980   4.442   4.179
 9492SOL     OW29374   3.788   3.344   4.583
 9492SOL    HW129375   3.772   3.440   4.560
 9492SOL    HW229376   3.707   3.290   4.560
 9493SOL     OW29377   2.791   5.661   4.176
 9493SOL    HW129378   2.820   5.667   4.272
 9493SOL    HW229379   2.717   5.594   4.168
 9494SOL     OW29380   5.576   2.967   2.972
 9494SOL    HW129381   5.561   2.941   2.877
 9494SOL    HW229382   5.545   3.061   2.986
 9495SOL     OW29383   0.025   1.965   3.365
 9495SOL    HW129384   0.078   1.909   3.428
 9495SOL    HW229385   6.995   1.905   3.306
 9496SOL     OW29386   6.503   3.413   1.676
 9496SOL    HW129387   6.409   3.438   1.696
 9496SOL    HW229388   6.561   3.438   1.753
 9497SOL     OW29389   5.253   6.637   5.489
 9497SOL    HW129390   5.262   6.674   5.581
 9497SOL    HW229391   5.323   6.677   5.430
 9498SOL     OW29392   5.648   5.684   4.850
 9498SOL    HW129393   5.653   5.671   4.949
 9498SOL    HW229394   5.740   5.690   4.813
 9499SOL     OW29395   1.969   5.247   6.054
 9499SOL    HW129396   2.015   5.172   6.007
 9499SOL    HW229397   1.928   5.214   6.139
 9500SOL     OW29398   4.766   0.026   0.510
 9500SOL    HW129399   4.783   0.122   0.535
 9500SOL    HW229400   4.675   7.023   0.541
 9501SOL     OW29401   2.758   1.424   4.834
 9501SOL    HW129402   2.813   1.486   4.889
 9501SOL    HW229403   2.668   1.465   4.818
 9502SOL     OW29404   6.075   2.798   4.928
 9502SOL    HW129405   6.158   2.837   4.887
 9502SOL    HW229406   6.010   2.871   4.946
 9503SOL     OW29407   0.395   1.580   0.417
 9503SOL    HW129408   0.491   1.567   0.396
 9503SOL    HW229409   0.385   1.653   0.485
 9504SOL     OW29410   0.060   3.360   0.787
 9504SOL    HW129411   0.047   3.276   0.840
 9504SOL    HW229412   0.053   3.340   0.689
 9505SOL     OW29413   5.376   4.893   4.971
 9505SOL    HW129414   5.294   4.939   5.003
 9505SOL    HW229415   5.449   4.960   4.958
 9506SOL     OW29416   2.115   2.871   0.263
 9506SOL    HW129417   2.213   2.854   0.277
 9506SOL    HW229418   2.063   2.809   0.322
 9507SOL     OW29419   0.848   1.371   2.088
 9507SOL    HW129420   0.781   1.338   2.022
 9507SOL    HW229421   0.919   1.424   2.040
 9508SOL     OW29422   6.223   2.212   2.116
 9508SOL    HW129423   6.164   2.163   2.051
 9508SOL    HW229424   6.196   2.308   2.119
 9509SOL     OW29425   0.420   0.733   4.243
 9509SOL    HW129426   0.356   0.789   4.190
 9509SOL    HW229427   0.514   0.754   4.214
 9510SOL     OW29428   1.468   3.901   3.399
 9510SOL    HW129429   1.474   3.815   3.349
 9510SOL    HW229430   1.493   3.886   3.495
 9511SOL     OW29431   2.068   0.312   1.441
 9511SOL    HW129432   2.166   0.323   1.424
 9511SOL    HW229433   2.017   0.359   1.369
 9512SOL     OW29434   6.360   1.914   1.254
 9512SOL    HW129435   6.325   1.862   1.331
 9512SOL    HW229436   6.319   2.006   1.254
 9513SOL     OW29437   2.353   3.860   5.937
 9513SOL    HW129438   2.260   3.824   5.936
 9513SOL    HW229439   2.352   3.955   5.970
 9514SOL     OW29440   2.467   5.480   5.787
 9514SOL    HW129441   2.463   5.580   5.791
 9514SOL    HW229442   2.556   5.449   5.820
 9515SOL     OW29443   1.869   5.527   1.281
 9515SOL    HW129444   1.828   5.616   1.258
 9515SOL    HW229445   1.969   5.534   1.270
 9516SOL     OW29446   6.083   5.271   6.876
 9516SOL    HW129447   6.088   5.203   6.803
 9516SOL    HW229448   6.015   5.241   6.943
 9517SOL     OW29449   1.263   3.792   1.456
 9517SOL    HW129450   1.325   3.719   1.485
 9517SOL    HW229451   1.313   3.879   1.455
 9518SOL     OW29452   1.419   2.001   0.533
 9518SOL    HW129453   1.455   2.079   0.482
 9518SOL    HW229454   1.320   2.013   0.547
 9519SOL     OW29455   3.569   3.067   4.898
 9519SOL    HW129456   3.595   2.984   4.947
 9519SOL    HW229457   3.649   3.127   4.891
 9520SOL     OW29458   2.516   1.757   3.099
 9520SOL    HW129459   2.554   1.748   3.191
 9520SOL    HW229460   2.421   1.726   3.099
 9521SOL     OW29461   5.188   6.022   2.588
 9521SOL    HW129462   5.102   6.005   2.637
 9521SOL    HW229463   5.169   6.062   2.499
 9522SOL     OW29464   2.683   5.440   1.032
 9522SOL    HW129465   2.639   5.390   0.958
 9522SOL    HW229466   2.690   5.380   1.113
 9523SOL     OW29467   3.293   5.157   4.860
 9523SOL    HW129468   3.327   5.248   4.837
 9523SOL    HW229469   3.322   5.132   4.953
 9524SOL     OW29470   3.779   2.195   1.146
 9524SOL    HW129471   3.841   2.252   1.092
 9524SOL    HW229472   3.812   2.101   1.146
 9525SOL     OW29473   2.790   2.734   5.684
 9525SOL    HW129474   2.745   2.774   5.763
 9525SOL    HW229475   2.764   2.784   5.602
 9526SOL     OW29476   5.074   5.642   1.937
 9526SOL    HW129477   4.999   5.576   1.934
 9526SOL    HW229478   5.043   5.726   1.981
 9527SOL     OW29479   1.007   0.487   2.689
 9527SOL    HW129480   1.091   0.460   2.735
 9527SOL    HW229481   0.992   0.429   2.609
 9528SOL     OW29482   6.565   0.548   0.481
 9528SOL    HW129483   6.578   0.561   0.579
 9528SOL    HW229484   6.492   0.609   0.449
 9529SOL     OW29485   6.440   3.040   5.571
 9529SOL    HW129486   6.498   2.969   5.610
 9529SOL    HW229487   6.415   3.105   5.643
 9530SOL     OW29488   1.843   3.205   2.848
 9530SOL    HW129489   1.772   3.198   2.779
 9530SOL    HW229490   1.850   3.119   2.899
 9531SOL     OW29491   4.233   6.136   2.798
 9531SOL    HW129492   4.278   6.089   2.722
 9531SOL    HW229493   4.299   6.152   2.871
 9532SOL     OW29494   0.015   6.494   2.303
 9532SOL    HW129495   7.000   6.585   2.318
 9532SOL    HW229496   7.007   6.459   2.215
 9533SOL     OW29497   6.716   0.563   5.147
 9533SOL    HW129498   6.697   0.527   5.055
 9533SOL    HW229499   6.711   0.489   5.214
 9534SOL     OW29500   5.922   3.228   5.317
 9534SOL    HW129501   5.984   3.228   5.239
 9534SOL    HW229502   5.919   3.136   5.357
 9535SOL     OW29503   2.474   1.248   5.573
 9535SOL    HW129504   2.543   1.316   5.547
 9535SOL    HW229505   2.426   1.216   5.491
 9536SOL     OW29506   3.135   4.746   5.177
 9536SOL    HW129507   3.179   4.676   5.234
 9536SOL    HW229508   3.057   4.706   5.128
 9537SOL     OW29509   2.475   6.655   2.899
 9537SOL    HW129510   2.534   6.579   2.870
 9537SOL    HW229511   2.509   6.692   2.985
 9538SOL     OW29512   6.710   2.296   3.831
 9538SOL    HW129513   6.630   2.356   3.833
 9538SOL    HW229514   6.734   2.270   3.925
 9539SOL     OW29515   1.551   3.065   5.291
 9539SOL    HW129516   1.471   3.085   5.235
 9539SOL    HW229517   1.623   3.132   5.273
 9540SOL     OW29518   5.231   3.650   4.328
 9540SOL    HW129519   5.215   3.552   4.315
 9540SOL    HW229520   5.246   3.668   4.425
 9541SOL     OW29521   2.762   1.803   5.750
 9541SOL    HW129522   2.698   1.796   5.827
 9541SOL    HW229523   2.814   1.718   5.742
 9542SOL     OW29524   4.909   3.714   4.516
 9542SOL    HW129525   5.003   3.747   4.530
 9542SOL    HW229526   4.875   3.674   4.601
 9543SOL     OW29527   3.086   1.027   4.624
 9543SOL    HW129528   3.182   1.001   4.614
 9543SOL    HW229529   3.037   1.006   4.540
 9544SOL     OW29530   0.281   1.240   3.047
 9544SOL    HW129531   0.241   1.229   2.956
 9544SOL    HW229532   0.326   1.330   3.052
 9545SOL     OW29533   6.561   4.796   3.679
 9545SOL    HW129534   6.660   4.810   3.681
 9545SOL    HW229535   6.515   4.884   3.691
 9546SOL     OW29536   2.741   2.474   5.737
 9546SOL    HW129537   2.816   2.412   5.713
 9546SOL    HW229538   2.757   2.563   5.695
 9547SOL     OW29539   2.229   5.898   3.825
 9547SOL    HW129540   2.197   5.845   3.904
 9547SOL    HW229541   2.154   5.955   3.791
 9548SOL     OW29542   5.997   6.395   4.951
 9548SOL    HW129543   5.914   6.407   5.006
 9548SOL    HW229544   6.064   6.342   5.002
 9549SOL     OW29545   2.661   3.679   1.344
 9549SOL    HW129546   2.730   3.619   1.303
 9549SOL    HW229547   2.574   3.630   1.350
 9550SOL     OW29548   0.018   1.095   0.030
 9550SOL    HW129549   6.960   1.151   0.026
 9550SOL    HW229550   0.059   1.101   0.121
 9551SOL     OW29551   6.650   0.998   4.289
 9551SOL    HW129552   6.750   0.996   4.278
 9551SOL    HW229553   6.613   0.906   4.272
 9552SOL     OW29554   0.955   6.000   2.408
 9552SOL    HW129555   1.044   6.026   2.446
 9552SOL    HW229556   0.927   5.912   2.447
 9553SOL     OW29557   6.189   3.858   6.798
 9553SOL    HW129558   6.173   3.810   6.884
 9553SOL    HW229559   6.139   3.813   6.724
 9554SOL     OW29560   2.752   0.179   1.437
 9554SOL    HW129561   2.842   0.200   1.477
 9554SOL    HW229562   2.688   0.156   1.510
 9555SOL     OW29563   0.614   0.894   1.216
 9555SOL    HW129564   0.555   0.814   1.208
 9555SOL    HW229565   0.656   0.914   1.128
 9556SOL     OW29566   2.739   2.606   1.003
 9556SOL    HW129567   2.641   2.622   1.007
 9556SOL    HW229568   2.767   2.591   0.908
 9557SOL     OW29569   6.714   0.727   2.913
 9557SOL    HW129570   6.771   0.651   2.944
 9557SOL    HW229571   6.654   0.696   2.838
 9558SOL     OW29572   5.714   5.607   4.505
 9558SOL    HW129573   5.656   5.688   4.512
 9558SOL    HW229574   5.808   5.635   4.486
 9559SOL     OW29575   0.349   3.701   1.232
 9559SOL    HW129576   0.306   3.791   1.222
 9559SOL    HW229577   0.382   3.670   1.142
 9560SOL     OW29578   1.400   1.949   2.546
 9560SOL    HW129579   1.473   1.895   2.589
 9560SOL    HW229580   1.400   1.933   2.447
 9561SOL     OW29581   1.891   6.826   0.581
 9561SOL    HW129582   1.813   6.764   0.567
 9561SOL    HW229583   1.863   6.919   0.558
 9562SOL     OW29584   3.290   6.476   5.014
 9562SOL    HW129585   3.264   6.569   4.989
 9562SOL    HW229586   3.262   6.457   5.108
 9563SOL     OW29587   6.041   6.752   0.485
 9563SOL    HW129588   6.046   6.703   0.399
 9563SOL    HW229589   6.078   6.844   0.474
 9564SOL     OW29590   2.913   6.930   6.645
 9564SOL    HW129591   2.850   6.930   6.568
 9564SOL    HW229592   2.994   6.875   6.622
 9565SOL     OW29593   4.102   6.119   5.361
 9565SOL    HW129594   4.089   6.111   5.460
 9565SOL    HW229595   4.099   6.216   5.335
 9566SOL     OW29596   3.539   4.318   0.402
 9566SOL    HW129597   3.514   4.393   0.340
 9566SOL    HW229598   3.500   4.232   0.367
 9567SOL     OW29599   6.741   5.144   6.398
 9567SOL    HW129600   6.725   5.195   6.483
 9567SOL    HW229601   6.697   5.054   6.404
 9568SOL     OW29602   4.881   2.654   6.673
 9568SOL    HW129603   4.891   2.569   6.620
 9568SOL    HW229604   4.790   2.658   6.712
 9569SOL     OW29605   6.946   0.435   1.943
 9569SOL    HW129606   6.874   0.481   1.996
 9569SOL    HW229607   6.916   0.342   1.920
 9570SOL     OW29608   0.832   2.325   1.544
 9570SOL    HW129609   0.776   2.281   1.615
 9570SOL    HW229610   0.839   2.423   1.563
 9571SOL     OW29611   2.844   3.489   6.957
 9571SOL    HW129612   2.911   3.434   6.907
 9571SOL    HW229613   2.752   3.463   6.928
 9572SOL     OW29614   1.771   5.340   1.031
 9572SOL    HW129615   1.711   5.320   0.954
 9572SOL    HW229616   1.723   5.400   1.095
 9573SOL     OW29617   0.592   1.674   6.631
 9573SOL    HW129618   0.577   1.606   6.702
 9573SOL    HW229619   0.631   1.757   6.671
 9574SOL     OW29620   3.967   3.048   4.483
 9574SOL    HW129621   4.054   3.032   4.436
 9574SOL    HW229622   3.983   3.104   4.564
 9575SOL     OW29623   5.336   0.554   0.778
 9575SOL    HW129624   5.268   0.493   0.738
 9575SOL    HW229625   5.290   0.619   0.839
 9576SOL     OW29626   2.963   0.872   2.853
 9576SOL    HW129627   2.970   0.972   2.852
 9576SOL    HW229628   3.051   0.833   2.825
 9577SOL     OW29629   1.387   0.723   3.140
 9577SOL    HW129630   1.464   0.734   3.203
 9577SOL    HW229631   1.325   0.801   3.149
 9578SOL     OW29632   0.271   3.889   3.118
 9578SOL    HW129633   0.278   3.970   3.176
 9578SOL    HW229634   0.191   3.835   3.145
 9579SOL     OW29635   1.301   5.989   3.057
 9579SOL    HW129636   1.319   6.043   3.139
 9579SOL    HW229637   1.212   5.944   3.064
 9580SOL     OW29638   5.231   3.140   0.699
 9580SOL    HW129639   5.166   3.202   0.656
 9580SOL    HW229640   5.296   3.108   0.630
 9581SOL     OW29641   1.518   5.329   6.491
 9581SOL    HW129642   1.453   5.340   6.416
 9581SOL    HW229643   1.542   5.232   6.500
 9582SOL     OW29644   4.317   4.717   4.804
 9582SOL    HW129645   4.306   4.638   4.865
 9582SOL    HW229646   4.332   4.799   4.858
 9583SOL     OW29647   2.970   3.333   1.481
 9583SOL    HW129648   3.031   3.381   1.545
 9583SOL    HW229649   2.908   3.274   1.533
 9584SOL     OW29650   6.054   5.888   6.847
 9584SOL    HW129651   6.029   5.837   6.764
 9584SOL    HW229652   6.036   5.832   6.927
 9585SOL     OW29653   6.886   1.030   2.892
 9585SOL    HW129654   6.873   0.960   2.822
 9585SOL    HW229655   6.814   1.099   2.884
 9586SOL     OW29656   6.071   4.092   1.768
 9586SOL    HW129657   6.048   4.187   1.746
 9586SOL    HW229658   5.986   4.040   1.780
 9587SOL     OW29659   6.232   0.212   2.470
 9587SOL    HW129660   6.213   0.265   2.553
 9587SOL    HW229661   6.331   0.206   2.455
 9588SOL     OW29662   0.644   1.363   1.892
 9588SOL    HW129663   0.560   1.320   1.926
 9588SOL    HW229664   0.623   1.457   1.862
 9589SOL     OW29665   3.023   5.841   6.423
 9589SOL    HW129666   3.037   5.774   6.497
 9589SOL    HW229667   2.938   5.820   6.376
 9590SOL     OW29668   0.255   4.905   2.525
 9590SOL    HW129669   0.226   4.841   2.455
 9590SOL    HW229670   0.355   4.903   2.532
 9591SOL     OW29671   3.226   5.878   0.143
 9591SOL    HW129672   3.258   5.812   0.076
 9591SOL    HW229673   3.211   5.966   0.098
 9592SOL     OW29674   3.475   5.177   1.968
 9592SOL    HW129675   3.546   5.147   2.033
 9592SOL    HW229676   3.439   5.266   1.998
 9593SOL     OW29677   5.022   1.238   4.537
 9593SOL    HW129678   5.083   1.184   4.479
 9593SOL    HW229679   5.051   1.229   4.633
 9594SOL     OW29680   6.979   5.604   3.546
 9594SOL    HW129681   6.909   5.596   3.617
 9594SOL    HW229682   6.938   5.586   3.457
 9595SOL     OW29683   1.795   4.375   4.113
 9595SOL    HW129684   1.725   4.304   4.106
 9595SOL    HW229685   1.854   4.372   4.033
 9596SOL     OW29686   0.380   5.233   0.032
 9596SOL    HW129687   0.296   5.190   0.000
 9596SOL    HW229688   0.446   5.237   6.981
 9597SOL     OW29689   0.142   4.200   1.170
 9597SOL    HW129690   0.055   4.185   1.123
 9597SOL    HW229691   0.124   4.215   1.268
 9598SOL     OW29692   0.532   4.160   5.071
 9598SOL    HW129693   0.631   4.153   5.061
 9598SOL    HW229694   0.494   4.068   5.083
 9599SOL     OW29695   2.954   0.574   4.590
 9599SOL    HW129696   2.919   0.589   4.683
 9599SOL    HW229697   3.053   0.565   4.592
 9600SOL     OW29698   2.558   6.784   5.917
 9600SOL    HW129699   2.526   6.715   5.982
 9600SOL    HW229700   2.528   6.760   5.825
 9601SOL     OW29701   6.254   4.342   6.149
 9601SOL    HW129702   6.294   4.419   6.098
 9601SOL    HW229703   6.160   4.365   6.176
 9602SOL     OW29704   0.027   5.152   6.381
 9602SOL    HW129705   6.995   5.096   6.320
 9602SOL    HW229706   7.013   5.147   6.474
 9603SOL     OW29707   2.352   0.037   4.374
 9603SOL    HW129708   2.304   6.992   4.427
 9603SOL    HW229709   2.404   7.016   4.300
 9604SOL     OW29710   5.019   0.670   0.617
 9604SOL    HW129711   5.002   0.675   0.715
 9604SOL    HW229712   5.071   0.587   0.596
 9605SOL     OW29713   0.024   4.916   5.864
 9605SOL    HW129714   0.011   4.842   5.799
 9605SOL    HW229715   0.073   4.991   5.821
 9606SOL     OW29716   1.000   6.804   4.305
 9606SOL    HW129717   1.049   6.718   4.301
 9606SOL    HW229718   0.907   6.788   4.338
 9607SOL     OW29719   1.310   2.080   1.507
 9607SOL    HW129720   1.263   1.992   1.512
 9607SOL    HW229721   1.245   2.153   1.528
 9608SOL     OW29722   0.532   6.731   2.498
 9608SOL    HW129723   0.461   6.696   2.559
 9608SOL    HW229724   0.602   6.660   2.486
 9609SOL     OW29725   1.240   3.405   5.192
 9609SOL    HW129726   1.199   3.406   5.283
 9609SOL    HW229727   1.339   3.417   5.199
 9610SOL     OW29728   1.172   3.395   5.442
 9610SOL    HW129729   1.106   3.464   5.472
 9610SOL    HW229730   1.239   3.379   5.515
 9611SOL     OW29731   0.246   6.998   1.100
 9611SOL    HW129732   0.207   0.059   1.136
 9611SOL    HW229733   0.173   6.937   1.070
 9612SOL     OW29734   6.159   2.807   0.374
 9612SOL    HW129735   6.206   2.719   0.362
 9612SOL    HW229736   6.093   2.800   0.449
 9613SOL     OW29737   5.387   6.230   4.297
 9613SOL    HW129738   5.434   6.213   4.384
 9613SOL    HW229739   5.454   6.231   4.223
 9614SOL     OW29740   4.055   3.663   1.649
 9614SOL    HW129741   4.099   3.679   1.560
 9614SOL    HW229742   3.960   3.696   1.645
 9615SOL     OW29743   1.565   6.158   2.635
 9615SOL    HW129744   1.571   6.160   2.535
 9615SOL    HW229745   1.656   6.154   2.674
 9616SOL     OW29746   4.430   3.542   1.166
 9616SOL    HW129747   4.352   3.603   1.174
 9616SOL    HW229748   4.397   3.448   1.156
 9617SOL     OW29749   1.331   3.976   4.204
 9617SOL    HW129750   1.319   3.975   4.304
 9617SOL    HW229751   1.307   3.886   4.167
 9618SOL     OW29752   3.272   0.341   6.740
 9618SOL    HW129753   3.292   0.253   6.697
 9618SOL    HW229754   3.236   0.405   6.672
 9619SOL     OW29755   1.056   0.314   0.995
 9619SOL    HW129756   1.008   0.378   1.054
 9619SOL    HW229757   1.091   0.362   0.914
 9620SOL     OW29758   4.384   1.942   6.997
 9620SOL    HW129759   4.400   2.035   0.006
 9620SOL    HW229760   4.470   1.902   6.968
 9621SOL     OW29761   1.371   1.123   1.958
 9621SOL    HW129762   1.320   1.073   2.028
 9621SOL    HW229763   1.348   1.220   1.962
 9622SOL     OW29764   6.012   1.285   6.587
 9622SOL    HW129765   6.065   1.201   6.598
 9622SOL    HW229766   5.950   1.277   6.509
 9623SOL     OW29767   4.687   5.013   6.578
 9623SOL    HW129768   4.592   5.035   6.603
 9623SOL    HW229769   4.730   5.094   6.536
 9624SOL     OW29770   5.339   4.638   5.386
 9624SOL    HW129771   5.303   4.606   5.299
 9624SOL    HW229772   5.410   4.576   5.419
 9625SOL     OW29773   4.733   4.167   6.635
 9625SOL    HW129774   4.788   4.135   6.712
 9625SOL    HW229775   4.647   4.116   6.632
 9626SOL     OW29776   2.369   5.570   4.464
 9626SOL    HW129777   2.377   5.539   4.559
 9626SOL    HW229778   2.395   5.666   4.457
 9627SOL     OW29779   0.688   4.407   4.658
 9627SOL    HW129780   0.786   4.428   4.652
 9627SOL    HW229781   0.646   4.468   4.725
 9628SOL     OW29782   5.763   3.848   0.743
 9628SOL    HW129783   5.754   3.826   0.840
 9628SOL    HW229784   5.797   3.942   0.733
 9629SOL     OW29785   6.431   6.114   3.158
 9629SOL    HW129786   6.348   6.135   3.107
 9629SOL    HW229787   6.511   6.150   3.108
 9630SOL     OW29788   6.144   5.812   5.225
 9630SOL    HW129789   6.052   5.834   5.192
 9630SOL    HW229790   6.212   5.851   5.163
 9631SOL     OW29791   4.720   1.898   1.095
 9631SOL    HW129792   4.677   1.984   1.122
 9631SOL    HW229793   4.785   1.870   1.166
 9632SOL     OW29794   2.229   5.304   1.240
 9632SOL    HW129795   2.266   5.341   1.155
 9632SOL    HW229796   2.131   5.285   1.228
 9633SOL     OW29797   3.798   3.279   0.700
 9633SOL    HW129798   3.891   3.246   0.712
 9633SOL    HW229799   3.773   3.337   0.777
 9634SOL     OW29800   5.970   5.172   3.234
 9634SOL    HW129801   6.041   5.231   3.272
 9634SOL    HW229802   6.011   5.112   3.165
 9635SOL     OW29803   0.699   4.683   5.236
 9635SOL    HW129804   0.603   4.708   5.225
 9635SOL    HW229805   0.705   4.596   5.285
 9636SOL     OW29806   3.422   1.401   6.364
 9636SOL    HW129807   3.494   1.334   6.347
 9636SOL    HW229808   3.360   1.404   6.285
 9637SOL     OW29809   3.388   3.340   1.147
 9637SOL    HW129810   3.362   3.255   1.103
 9637SOL    HW229811   3.307   3.400   1.154
 9638SOL     OW29812   0.035   3.696   6.137
 9638SOL    HW129813   0.083   3.771   6.183
 9638SOL    HW229814   7.023   3.728   6.049
 9639SOL     OW29815   4.220   2.515   1.755
 9639SOL    HW129816   4.182   2.592   1.704
 9639SOL    HW229817   4.268   2.453   1.692
 9640SOL     OW29818   3.565   0.948   2.401
 9640SOL    HW129819   3.570   0.849   2.418
 9640SOL    HW229820   3.470   0.978   2.408
 9641SOL     OW29821   5.392   6.348   2.139
 9641SOL    HW129822   5.462   6.302   2.194
 9641SOL    HW229823   5.393   6.446   2.159
 9642SOL     OW29824   1.203   6.884   4.102
 9642SOL    HW129825   1.288   6.936   4.099
 9642SOL    HW229826   1.170   6.880   4.196
 9643SOL     OW29827   5.093   3.469   3.753
 9643SOL    HW129828   5.041   3.512   3.827
 9643SOL    HW229829   5.159   3.405   3.792
 9644SOL     OW29830   1.893   5.585   5.487
 9644SOL    HW129831   1.975   5.631   5.454
 9644SOL    HW229832   1.861   5.520   5.417
 9645SOL     OW29833   2.441   4.623   5.363
 9645SOL    HW129834   2.414   4.604   5.457
 9645SOL    HW229835   2.515   4.562   5.336
 9646SOL     OW29836   2.886   5.759   2.627
 9646SOL    HW129837   2.925   5.847   2.598
 9646SOL    HW229838   2.916   5.687   2.565
 9647SOL     OW29839   0.178   6.866   3.473
 9647SOL    HW129840   0.128   6.944   3.436
 9647SOL    HW229841   0.198   6.881   3.569
 9648SOL     OW29842   4.940   3.068   1.183
 9648SOL    HW129843   4.850   3.028   1.199
 9648SOL    HW229844   5.005   2.997   1.156
 9649SOL     OW29845   2.673   4.061   6.707
 9649SOL    HW129846   2.605   4.087   6.775
 9649SOL    HW229847   2.746   4.009   6.751
 9650SOL     OW29848   5.306   4.147   3.212
 9650SOL    HW129849   5.357   4.189   3.137
 9650SOL    HW229850   5.227   4.204   3.234
 9651SOL     OW29851   3.948   0.930   1.066
 9651SOL    HW129852   3.885   0.882   1.126
 9651SOL    HW229853   3.949   1.027   1.088
 9652SOL     OW29854   0.565   5.178   0.932
 9652SOL    HW129855   0.521   5.088   0.938
 9652SOL    HW229856   0.608   5.200   1.020
 9653SOL     OW29857   4.722   4.527   5.760
 9653SOL    HW129858   4.777   4.580   5.825
 9653SOL    HW229859   4.719   4.432   5.789
 9654SOL     OW29860   3.201   3.248   3.195
 9654SOL    HW129861   3.140   3.297   3.257
 9654SOL    HW229862   3.215   3.155   3.228
 9655SOL     OW29863   6.999   1.595   0.238
 9655SOL    HW129864   0.068   1.612   0.204
 9655SOL    HW229865   7.002   1.578   0.337
 9656SOL     OW29866   4.758   2.242   0.813
 9656SOL    HW129867   4.727   2.285   0.898
 9656SOL    HW229868   4.854   2.264   0.798
 9657SOL     OW29869   6.073   4.454   2.785
 9657SOL    HW129870   6.170   4.450   2.760
 9657SOL    HW229871   6.063   4.435   2.883
 9658SOL     OW29872   5.832   2.093   2.959
 9658SOL    HW129873   5.929   2.080   2.979
 9658SOL    HW229874   5.802   2.183   2.992
 9659SOL     OW29875   1.091   2.440   0.355
 9659SOL    HW129876   1.011   2.397   0.314
 9659SOL    HW229877   1.162   2.449   0.285
 9660SOL     OW29878   0.929   0.014   2.109
 9660SOL    HW129879   0.871   0.027   2.190
 9660SOL    HW229880   0.927   0.097   2.053
 9661SOL     OW29881   4.165   5.999   1.264
 9661SOL    HW129882   4.257   5.962   1.267
 9661SOL    HW229883   4.128   5.991   1.172
 9662SOL     OW29884   4.889   3.551   0.473
 9662SOL    HW129885   4.903   3.585   0.566
 9662SOL    HW229886   4.975   3.515   0.437
 9663SOL     OW29887   6.959   6.030   2.745
 9663SOL    HW129888   6.900   6.109   2.731
 9663SOL    HW229889   7.000   6.035   2.837
 9664SOL     OW29890   5.303   4.631   4.251
 9664SOL    HW129891   5.259   4.679   4.326
 9664SOL    HW229892   5.261   4.540   4.240
 9665SOL     OW29893   5.924   6.168   5.560
 9665SOL    HW129894   5.973   6.145   5.644
 9665SOL    HW229895   5.829   6.137   5.568
 9666SOL     OW29896   6.400   3.519   2.184
 9666SOL    HW129897   6.475   3.582   2.165
 9666SOL    HW229898   6.434   3.425   2.180
 9667SOL     OW29899   3.723   3.487   0.520
 9667SOL    HW129900   3.677   3.431   0.451
 9667SOL    HW229901   3.750   3.431   0.598
 9668SOL     OW29902   1.212   0.807   6.558
 9668SOL    HW129903   1.148   0.839   6.489
 9668SOL    HW229904   1.222   0.707   6.550
 9669SOL     OW29905   2.237   6.918   1.735
 9669SOL    HW129906   2.253   6.819   1.742
 9669SOL    HW229907   2.153   6.934   1.682
 9670SOL     OW29908   0.122   5.516   5.217
 9670SOL    HW129909   0.137   5.615   5.230
 9670SOL    HW229910   0.210   5.471   5.202
 9671SOL     OW29911   6.570   4.470   0.722
 9671SOL    HW129912   6.615   4.450   0.809
 9671SOL    HW229913   6.578   4.568   0.702
 9672SOL     OW29914   1.357   5.061   3.204
 9672SOL    HW129915   1.350   5.045   3.302
 9672SOL    HW229916   1.416   5.140   3.188
 9673SOL     OW29917   3.587   3.627   1.406
 9673SOL    HW129918   3.551   3.619   1.313
 9673SOL    HW229919   3.666   3.688   1.406
 9674SOL     OW29920   3.900   6.680   3.424
 9674SOL    HW129921   3.975   6.706   3.363
 9674SOL    HW229922   3.894   6.580   3.427
 9675SOL     OW29923   4.921   2.330   6.760
 9675SOL    HW129924   4.841   2.269   6.762
 9675SOL    HW229925   4.931   2.374   6.849
 9676SOL     OW29926   1.531   3.431   6.008
 9676SOL    HW129927   1.564   3.337   6.013
 9676SOL    HW229928   1.594   3.492   6.057
 9677SOL     OW29929   6.696   4.853   5.668
 9677SOL    HW129930   6.710   4.918   5.742
 9677SOL    HW229931   6.599   4.852   5.641
 9678SOL     OW29932   2.886   3.518   4.099
 9678SOL    HW129933   2.911   3.457   4.175
 9678SOL    HW229934   2.902   3.613   4.125
 9679SOL     OW29935   2.316   0.011   3.710
 9679SOL    HW129936   2.334   0.099   3.666
 9679SOL    HW229937   2.279   0.027   3.802
 9680SOL     OW29938   4.315   0.269   5.127
 9680SOL    HW129939   4.401   0.320   5.121
 9680SOL    HW229940   4.318   0.208   5.206
 9681SOL     OW29941   2.970   2.322   0.734
 9681SOL    HW129942   2.956   2.317   0.635
 9681SOL    HW229943   2.995   2.232   0.769
 9682SOL     OW29944   4.779   4.162   3.635
 9682SOL    HW129945   4.723   4.162   3.551
 9682SOL    HW229946   4.849   4.092   3.628
 9683SOL     OW29947   3.296   6.359   1.274
 9683SOL    HW129948   3.225   6.289   1.282
 9683SOL    HW229949   3.331   6.360   1.180
 9684SOL     OW29950   0.798   4.184   4.984
 9684SOL    HW129951   0.853   4.268   4.989
 9684SOL    HW229952   0.834   4.126   4.911
 9685SOL     OW29953   4.702   4.194   1.170
 9685SOL    HW129954   4.639   4.161   1.240
 9685SOL    HW229955   4.725   4.119   1.108
 9686SOL     OW29956   0.520   2.946   6.416
 9686SOL    HW129957   0.609   2.902   6.416
 9686SOL    HW229958   0.486   2.954   6.510
 9687SOL     OW29959   0.073   1.031   3.724
 9687SOL    HW129960   0.031   0.941   3.711
 9687SOL    HW229961   0.002   1.099   3.742
 9688SOL     OW29962   1.130   3.237   0.775
 9688SOL    HW129963   1.222   3.203   0.756
 9688SOL    HW229964   1.135   3.314   0.838
 9689SOL     OW29965   0.680   4.643   6.616
 9689SOL    HW129966   0.746   4.568   6.611
 9689SOL    HW229967   0.686   4.686   6.707
 9690SOL     OW29968   5.931   6.935   6.005
 9690SOL    HW129969   5.902   6.843   5.978
 9690SOL    HW229970   5.887   6.960   6.091
 9691SOL     OW29971   2.859   3.736   1.513
 9691SOL    HW129972   2.785   3.723   1.447
 9691SOL    HW229973   2.831   3.701   1.603
 9692SOL     OW29974   4.628   5.742   0.834
 9692SOL    HW129975   4.689   5.819   0.854
 9692SOL    HW229976   4.622   5.683   0.915
 9693SOL     OW29977   6.266   3.869   2.882
 9693SOL    HW129978   6.242   3.962   2.908
 9693SOL    HW229979   6.230   3.805   2.950
 9694SOL     OW29980   3.097   1.008   1.994
 9694SOL    HW129981   3.123   0.988   2.089
 9694SOL    HW229982   3.002   0.983   1.980
 9695SOL     OW29983   6.776   2.356   3.219
 9695SOL    HW129984   6.825   2.443   3.212
 9695SOL    HW229985   6.744   2.344   3.313
 9696SOL     OW29986   5.620   2.985   1.631
 9696SOL    HW129987   5.697   2.923   1.617
 9696SOL    HW229988   5.579   3.008   1.542
 9697SOL     OW29989   0.544   6.258   0.412
 9697SOL    HW129990   0.569   6.220   0.323
 9697SOL    HW229991   0.444   6.260   0.420
 9698SOL     OW29992   5.684   2.493   5.832
 9698SOL    HW129993   5.763   2.549   5.859
 9698SOL    HW229994   5.683   2.408   5.884
 9699SOL     OW29995   7.016   5.619   6.831
 9699SOL    HW129996   7.015   5.612   6.931
 9699SOL    HW229997   0.083   5.595   6.797
 9700SOL     OW29998   5.778   4.883   4.762
 9700SOL    HW129999   5.842   4.865   4.687
 9700SOL    HW230000   5.819   4.853   4.848
 9701SOL     OW30001   5.067   4.220   6.066
 9701SOL    HW130002   4.969   4.231   6.080
 9701SOL    HW230003   5.085   4.210   5.968
 9702SOL     OW30004   3.821   2.571   0.104
 9702SOL    HW130005   3.809   2.530   0.014
 9702SOL    HW230006   3.903   2.534   0.148
 9703SOL     OW30007   5.135   3.203   3.642
 9703SOL    HW130008   5.204   3.247   3.701
 9703SOL    HW230009   5.113   3.264   3.566
 9704SOL     OW30010   3.444   6.096   1.629
 9704SOL    HW130011   3.371   6.028   1.619
 9704SOL    HW230012   3.498   6.100   1.545
 9705SOL     OW30013   5.163   4.485   6.496
 9705SOL    HW130014   5.229   4.531   6.437
 9705SOL    HW230015   5.189   4.500   6.592
 9706SOL     OW30016   2.732   2.351   0.872
 9706SOL    HW130017   2.797   2.347   0.796
 9706SOL    HW230018   2.780   2.339   0.958
 9707SOL     OW30019   6.590   4.848   2.466
 9707SOL    HW130020   6.638   4.838   2.378
 9707SOL    HW230021   6.645   4.905   2.527
 9708SOL     OW30022   0.783   1.497   3.681
 9708SOL    HW130023   0.768   1.583   3.729
 9708SOL    HW230024   0.740   1.501   3.591
 9709SOL     OW30025   5.204   5.236   2.737
 9709SOL    HW130026   5.301   5.256   2.725
 9709SOL    HW230027   5.156   5.319   2.765
 9710SOL     OW30028   0.127   1.589   1.439
 9710SOL    HW130029   0.163   1.674   1.477
 9710SOL    HW230030   0.027   1.591   1.441
 9711SOL     OW30031   4.290   5.172   6.321
 9711SOL    HW130032   4.250   5.261   6.340
 9711SOL    HW230033   4.343   5.176   6.237
 9712SOL     OW30034   5.793   3.405   0.038
 9712SOL    HW130035   5.786   3.502   0.012
 9712SOL    HW230036   5.707   3.374   0.076
 9713SOL     OW30037   2.211   4.443   3.542
 9713SOL    HW130038   2.268   4.474   3.619
 9713SOL    HW230039   2.158   4.519   3.507
 9714SOL     OW30040   4.501   6.426   6.224
 9714SOL    HW130041   4.423   6.418   6.162
 9714SOL    HW230042   4.566   6.492   6.186
 9715SOL     OW30043   5.841   3.986   6.922
 9715SOL    HW130044   5.799   3.897   6.937
 9715SOL    HW230045   5.775   4.048   6.878
 9716SOL     OW30046   3.285   4.268   6.646
 9716SOL    HW130047   3.248   4.186   6.691
 9716SOL    HW230048   3.280   4.345   6.710
 9717SOL     OW30049   5.101   0.008   6.296
 9717SOL    HW130050   5.006   7.012   6.321
 9717SOL    HW230051   5.110   0.105   6.274
 9718SOL     OW30052   5.193   3.323   1.192
 9718SOL    HW130053   5.231   3.291   1.105
 9718SOL    HW230054   5.216   3.420   1.205
 9719SOL     OW30055   6.012   0.755   5.988
 9719SOL    HW130056   6.023   0.805   6.074
 9719SOL    HW230057   5.915   0.751   5.964
 9720SOL     OW30058   1.128   4.303   2.243
 9720SOL    HW130059   1.146   4.359   2.324
 9720SOL    HW230060   1.096   4.361   2.169
 9721SOL     OW30061   0.551   1.283   7.022
 9721SOL    HW130062   0.491   1.204   7.014
 9721SOL    HW230063   0.509   1.351   0.058
 9722SOL     OW30064   3.467   1.397   4.976
 9722SOL    HW130065   3.370   1.383   4.956
 9722SOL    HW230066   3.477   1.433   5.069
 9723SOL     OW30067   3.839   6.240   3.629
 9723SOL    HW130068   3.819   6.312   3.695
 9723SOL    HW230069   3.874   6.159   3.677
 9724SOL     OW30070   1.401   5.137   0.133
 9724SOL    HW130071   1.470   5.134   0.060
 9724SOL    HW230072   1.311   5.154   0.093
 9725SOL     OW30073   4.277   6.437   6.080
 9725SOL    HW130074   4.259   6.432   5.982
 9725SOL    HW230075   4.202   6.394   6.130
 9726SOL     OW30076   4.314   1.624   3.299
 9726SOL    HW130077   4.392   1.676   3.265
 9726SOL    HW230078   4.332   1.594   3.393
 9727SOL     OW30079   0.878   2.529   6.481
 9727SOL    HW130080   0.857   2.454   6.418
 9727SOL    HW230081   0.976   2.548   6.480
 9728SOL     OW30082   0.600   1.031   5.213
 9728SOL    HW130083   0.574   0.935   5.227
 9728SOL    HW230084   0.649   1.064   5.293
 9729SOL     OW30085   1.172   4.591   3.827
 9729SOL    HW130086   1.092   4.573   3.770
 9729SOL    HW230087   1.185   4.515   3.890
 9730SOL     OW30088   1.458   4.672   3.067
 9730SOL    HW130089   1.396   4.698   3.140
 9730SOL    HW230090   1.509   4.753   3.036
 9731SOL     OW30091   4.871   5.448   1.886
 9731SOL    HW130092   4.864   5.470   1.788
 9731SOL    HW230093   4.789   5.399   1.915
 9732SOL     OW30094   1.027   4.067   2.348
 9732SOL    HW130095   1.086   3.987   2.338
 9732SOL    HW230096   1.068   4.145   2.300
 9733SOL     OW30097   4.930   5.855   0.262
 9733SOL    HW130098   4.987   5.773   0.267
 9733SOL    HW230099   4.842   5.832   0.222
 9734SOL     OW30100   6.733   0.583   0.005
 9734SOL    HW130101   6.750   0.567   0.103
 9734SOL    HW230102   6.728   0.681   7.012
 9735SOL     OW30103   1.953   3.095   3.530
 9735SOL    HW130104   2.036   3.039   3.530
 9735SOL    HW230105   1.977   3.190   3.549
 9736SOL     OW30106   5.217   1.238   5.490
 9736SOL    HW130107   5.132   1.201   5.453
 9736SOL    HW230108   5.272   1.275   5.415
 9737SOL     OW30109   5.295   2.667   3.081
 9737SOL    HW130110   5.299   2.747   3.021
 9737SOL    HW230111   5.201   2.656   3.115
 9738SOL     OW30112   2.609   6.497   0.268
 9738SOL    HW130113   2.577   6.403   0.272
 9738SOL    HW230114   2.562   6.551   0.338
 9739SOL     OW30115   5.155   5.802   0.810
 9739SOL    HW130116   5.133   5.758   0.723
 9739SOL    HW230117   5.090   5.772   0.880
 9740SOL     OW30118   0.459   1.324   3.377
 9740SOL    HW130119   0.541   1.267   3.369
 9740SOL    HW230120   0.379   1.272   3.347
 9741SOL     OW30121   2.610   1.148   2.464
 9741SOL    HW130122   2.597   1.053   2.435
 9741SOL    HW230123   2.700   1.180   2.437
 9742SOL     OW30124   3.469   1.066   0.607
 9742SOL    HW130125   3.552   1.077   0.661
 9742SOL    HW230126   3.441   0.970   0.608
 9743SOL     OW30127   6.742   4.032   3.485
 9743SOL    HW130128   6.766   4.126   3.509
 9743SOL    HW230129   6.668   4.032   3.417
 9744SOL     OW30130   1.169   6.590   1.846
 9744SOL    HW130131   1.132   6.661   1.905
 9744SOL    HW230132   1.246   6.545   1.891
 9745SOL     OW30133   4.258   2.652   6.568
 9745SOL    HW130134   4.195   2.574   6.560
 9745SOL    HW230135   4.268   2.696   6.479
 9746SOL     OW30136   5.504   0.559   5.799
 9746SOL    HW130137   5.562   0.623   5.748
 9746SOL    HW230138   5.423   0.536   5.744
 9747SOL     OW30139   2.777   2.210   1.790
 9747SOL    HW130140   2.713   2.157   1.846
 9747SOL    HW230141   2.827   2.274   1.848
 9748SOL     OW30142   6.079   6.875   3.610
 9748SOL    HW130143   6.139   6.813   3.558
 9748SOL    HW230144   6.118   6.888   3.701
 9749SOL     OW30145   1.309   0.815   4.042
 9749SOL    HW130146   1.341   0.829   3.948
 9749SOL    HW230147   1.366   0.869   4.104
 9750SOL     OW30148   6.293   5.205   3.579
 9750SOL    HW130149   6.321   5.111   3.601
 9750SOL    HW230150   6.278   5.256   3.664
 9751SOL     OW30151   2.664   0.119   1.181
 9751SOL    HW130152   2.702   0.198   1.228
 9751SOL    HW230153   2.598   0.072   1.240
 9752SOL     OW30154   4.044   1.660   5.536
 9752SOL    HW130155   4.143   1.648   5.537
 9752SOL    HW230156   4.013   1.675   5.442
 9753SOL     OW30157   0.164   5.695   6.108
 9753SOL    HW130158   0.108   5.758   6.162
 9753SOL    HW230159   0.216   5.635   6.170
 9754SOL     OW30160   1.977   0.212   1.026
 9754SOL    HW130161   1.892   0.265   1.025
 9754SOL    HW230162   1.972   0.142   1.097
 9755SOL     OW30163   3.774   3.631   4.299
 9755SOL    HW130164   3.840   3.701   4.272
 9755SOL    HW230165   3.747   3.645   4.395
 9756SOL     OW30166   5.538   2.025   5.808
 9756SOL    HW130167   5.598   2.078   5.748
 9756SOL    HW230168   5.453   2.075   5.825
 9757SOL     OW30169   5.758   4.484   4.451
 9757SOL    HW130170   5.760   4.386   4.433
 9757SOL    HW230171   5.664   4.513   4.470
 9758SOL     OW30172   2.151   0.659   6.941
 9758SOL    HW130173   2.197   0.741   6.977
 9758SOL    HW230174   2.165   0.583   7.003
 9759SOL     OW30175   1.259   0.731   7.015
 9759SOL    HW130176   1.330   0.800   7.003
 9759SOL    HW230177   1.194   0.735   6.939
 9760SOL     OW30178   4.882   3.426   5.504
 9760SOL    HW130179   4.910   3.366   5.579
 9760SOL    HW230180   4.946   3.416   5.428
 9761SOL     OW30181   0.512   2.121   1.344
 9761SOL    HW130182   0.516   2.022   1.330
 9761SOL    HW230183   0.599   2.162   1.317
 9762SOL     OW30184   3.575   2.114   4.910
 9762SOL    HW130185   3.482   2.136   4.880
 9762SOL    HW230186   3.571   2.059   4.993
 9763SOL     OW30187   4.810   1.876   3.061
 9763SOL    HW130188   4.771   1.923   2.982
 9763SOL    HW230189   4.856   1.943   3.120
 9764SOL     OW30190   6.583   2.589   2.912
 9764SOL    HW130191   6.522   2.561   2.838
 9764SOL    HW230192   6.543   2.564   3.000
 9765SOL     OW30193   6.539   6.423   3.589
 9765SOL    HW130194   6.541   6.349   3.656
 9765SOL    HW230195   6.632   6.452   3.569
 9766SOL     OW30196   2.379   6.473   1.987
 9766SOL    HW130197   2.477   6.460   2.001
 9766SOL    HW230198   2.364   6.534   1.909
 9767SOL     OW30199   2.867   1.547   5.722
 9767SOL    HW130200   2.887   1.454   5.755
 9767SOL    HW230201   2.938   1.577   5.659
 9768SOL     OW30202   5.407   1.177   1.758
 9768SOL    HW130203   5.361   1.172   1.847
 9768SOL    HW230204   5.344   1.148   1.686
 9769SOL     OW30205   4.599   0.459   4.527
 9769SOL    HW130206   4.519   0.430   4.580
 9769SOL    HW230207   4.675   0.478   4.589
 9770SOL     OW30208   3.958   1.082   6.142
 9770SOL    HW130209   3.918   1.076   6.233
 9770SOL    HW230210   4.013   1.000   6.124
 9771SOL     OW30211   2.821   5.165   0.967
 9771SOL    HW130212   2.817   5.153   0.868
 9771SOL    HW230213   2.915   5.188   0.994
 9772SOL     OW30214   1.267   5.851   1.531
 9772SOL    HW130215   1.194   5.907   1.491
 9772SOL    HW230216   1.312   5.902   1.603
 9773SOL     OW30217   5.555   5.738   4.238
 9773SOL    HW130218   5.497   5.730   4.157
 9773SOL    HW230219   5.543   5.657   4.295
 9774SOL     OW30220   6.603   5.398   1.971
 9774SOL    HW130221   6.634   5.306   1.950
 9774SOL    HW230222   6.665   5.440   2.037
 9775SOL     OW30223   2.631   0.519   3.742
 9775SOL    HW130224   2.679   0.433   3.722
 9775SOL    HW230225   2.567   0.505   3.817
 9776SOL     OW30226   0.127   4.817   5.367
 9776SOL    HW130227   0.049   4.761   5.394
 9776SOL    HW230228   0.095   4.897   5.317
 9777SOL     OW30229   5.852   4.983   0.634
 9777SOL    HW130230   5.762   5.013   0.602
 9777SOL    HW230231   5.904   5.061   0.666
 9778SOL     OW30232   0.453   1.878   4.289
 9778SOL    HW130233   0.386   1.941   4.249
 9778SOL    HW230234   0.519   1.930   4.344
 9779SOL     OW30235   0.354   2.146   4.369
 9779SOL    HW130236   0.448   2.171   4.345
 9779SOL    HW230237   0.342   2.150   4.468
 9780SOL     OW30238   2.797   2.513   0.157
 9780SOL    HW130239   2.852   2.589   0.124
 9780SOL    HW230240   2.825   2.429   0.112
 9781SOL     OW30241   2.325   2.291   5.055
 9781SOL    HW130242   2.387   2.250   4.988
 9781SOL    HW230243   2.370   2.370   5.098
 9782SOL     OW30244   0.365   1.732   0.689
 9782SOL    HW130245   0.293   1.789   0.649
 9782SOL    HW230246   0.325   1.667   0.753
 9783SOL     OW30247   4.776   2.981   3.215
 9783SOL    HW130248   4.858   3.037   3.212
 9783SOL    HW230249   4.742   2.977   3.309
 9784SOL     OW30250   2.959   1.183   6.331
 9784SOL    HW130251   2.966   1.178   6.431
 9784SOL    HW230252   3.035   1.134   6.290
 9785SOL     OW30253   0.437   2.093   5.874
 9785SOL    HW130254   0.413   2.002   5.839
 9785SOL    HW230255   0.442   2.089   5.974
 9786SOL     OW30256   2.854   3.896   0.502
 9786SOL    HW130257   2.787   3.965   0.474
 9786SOL    HW230258   2.915   3.876   0.425
 9787SOL     OW30259   3.328   2.874   2.462
 9787SOL    HW130260   3.262   2.851   2.390
 9787SOL    HW230261   3.279   2.890   2.548
 9788SOL     OW30262   1.035   0.348   3.182
 9788SOL    HW130263   0.960   0.379   3.123
 9788SOL    HW230264   1.115   0.328   3.126
 9789SOL     OW30265   1.619   5.391   0.364
 9789SOL    HW130266   1.601   5.313   0.424
 9789SOL    HW230267   1.592   5.368   0.270
 9790SOL     OW30268   6.615   5.063   6.754
 9790SOL    HW130269   6.550   4.996   6.719
 9790SOL    HW230270   6.631   5.133   6.685
 9791SOL     OW30271   0.851   7.012   6.784
 9791SOL    HW130272   0.792   6.931   6.787
 9791SOL    HW230273   0.937   6.989   6.739
 9792SOL     OW30274   3.305   3.886   0.948
 9792SOL    HW130275   3.318   3.802   0.895
 9792SOL    HW230276   3.221   3.880   1.002
 9793SOL     OW30277   4.261   0.112   2.612
 9793SOL    HW130278   4.337   0.160   2.569
 9793SOL    HW230279   4.226   0.042   2.550
 9794SOL     OW30280   0.167   4.082   6.599
 9794SOL    HW130281   0.216   4.109   6.516
 9794SOL    HW230282   0.077   4.127   6.600
 9795SOL     OW30283   1.017   1.915   4.555
 9795SOL    HW130284   0.999   1.817   4.555
 9795SOL    HW230285   1.045   1.944   4.646
 9796SOL     OW30286   4.002   3.259   2.347
 9796SOL    HW130287   3.961   3.244   2.257
 9796SOL    HW230288   3.966   3.191   2.412
 9797SOL     OW30289   2.376   5.574   0.449
 9797SOL    HW130290   2.286   5.535   0.469
 9797SOL    HW230291   2.443   5.540   0.516
 9798SOL     OW30292   3.516   0.490   2.151
 9798SOL    HW130293   3.538   0.439   2.067
 9798SOL    HW230294   3.417   0.504   2.157
 9799SOL     OW30295   2.506   4.060   5.584
 9799SOL    HW130296   2.495   4.142   5.528
 9799SOL    HW230297   2.602   4.036   5.589
 9800SOL     OW30298   4.916   5.280   5.502
 9800SOL    HW130299   4.951   5.344   5.570
 9800SOL    HW230300   4.845   5.223   5.543
 9801SOL     OW30301   4.899   3.823   0.176
 9801SOL    HW130302   4.839   3.747   0.200
 9801SOL    HW230303   4.994   3.793   0.181
 9802SOL     OW30304   6.282   4.419   2.053
 9802SOL    HW130305   6.194   4.451   2.019
 9802SOL    HW230306   6.347   4.414   1.977
 9803SOL     OW30307   1.999   2.333   6.129
 9803SOL    HW130308   2.093   2.304   6.150
 9803SOL    HW230309   1.998   2.383   6.042
 9804SOL     OW30310   0.788   6.217   3.030
 9804SOL    HW130311   0.848   6.152   2.983
 9804SOL    HW230312   0.742   6.274   2.962
 9805SOL     OW30313   1.049   0.091   2.994
 9805SOL    HW130314   0.958   0.081   3.035
 9805SOL    HW230315   1.046   0.060   2.899
 9806SOL     OW30316   1.437   0.940   6.936
 9806SOL    HW130317   1.398   0.995   6.861
 9806SOL    HW230318   1.468   1.001   7.009
 9807SOL     OW30319   3.200   3.781   1.510
 9807SOL    HW130320   3.133   3.765   1.437
 9807SOL    HW230321   3.198   3.877   1.536
 9808SOL     OW30322   3.565   6.576   5.081
 9808SOL    HW130323   3.524   6.487   5.064
 9808SOL    HW230324   3.651   6.564   5.131
 9809SOL     OW30325   0.921   3.603   6.493
 9809SOL    HW130326   0.846   3.609   6.427
 9809SOL    HW230327   0.956   3.694   6.512
 9810SOL     OW30328   2.228   2.417   3.798
 9810SOL    HW130329   2.157   2.362   3.843
 9810SOL    HW230330   2.303   2.357   3.770
 9811SOL     OW30331   5.613   4.861   3.161
 9811SOL    HW130332   5.592   4.900   3.250
 9811SOL    HW230333   5.531   4.818   3.123
 9812SOL     OW30334   3.745   1.753   5.978
 9812SOL    HW130335   3.844   1.768   5.979
 9812SOL    HW230336   3.727   1.657   5.958
 9813SOL     OW30337   4.600   1.384   0.750
 9813SOL    HW130338   4.590   1.346   0.658
 9813SOL    HW230339   4.511   1.414   0.784
 9814SOL     OW30340   6.980   0.210   6.437
 9814SOL    HW130341   6.975   0.302   6.399
 9814SOL    HW230342   6.898   0.192   6.492
 9815SOL     OW30343   5.169   3.785   4.560
 9815SOL    HW130344   5.190   3.878   4.590
 9815SOL    HW230345   5.202   3.719   4.629
 9816SOL     OW30346   0.974   0.866   6.345
 9816SOL    HW130347   0.995   0.887   6.250
 9816SOL    HW230348   0.895   0.805   6.350
 9817SOL     OW30349   2.901   6.373   3.111
 9817SOL    HW130350   2.951   6.447   3.064
 9817SOL    HW230351   2.882   6.300   3.046
 9818SOL     OW30352   0.840   0.558   3.807
 9818SOL    HW130353   0.863   0.461   3.812
 9818SOL    HW230354   0.924   0.613   3.811
 9819SOL     OW30355   4.911   3.613   3.327
 9819SOL    HW130356   4.885   3.698   3.281
 9819SOL    HW230357   4.931   3.632   3.423
 9820SOL     OW30358   3.924   2.761   6.453
 9820SOL    HW130359   3.947   2.849   6.412
 9820SOL    HW230360   3.967   2.688   6.400
 9821SOL     OW30361   5.010   1.603   6.677
 9821SOL    HW130362   5.068   1.642   6.606
 9821SOL    HW230363   5.066   1.548   6.739
 9822SOL     OW30364   2.022   6.914   3.368
 9822SOL    HW130365   2.103   6.960   3.330
 9822SOL    HW230366   1.961   6.887   3.293
 9823SOL     OW30367   2.514   0.462   6.985
 9823SOL    HW130368   2.489   0.533   6.919
 9823SOL    HW230369   2.588   0.495   0.019
 9824SOL     OW30370   2.021   4.929   4.333
 9824SOL    HW130371   1.955   4.995   4.298
 9824SOL    HW230372   1.976   4.868   4.398
 9825SOL     OW30373   4.779   5.604   5.584
 9825SOL    HW130374   4.749   5.509   5.595
 9825SOL    HW230375   4.782   5.627   5.487
 9826SOL     OW30376   5.109   4.941   6.560
 9826SOL    HW130377   5.187   4.922   6.500
 9826SOL    HW230378   5.027   4.957   6.504
 9827SOL     OW30379   2.126   3.760   3.408
 9827SOL    HW130380   2.149   3.694   3.336
 9827SOL    HW230381   2.183   3.841   3.398
 9828SOL     OW30382   2.412   2.490   5.620
 9828SOL    HW130383   2.437   2.404   5.577
 9828SOL    HW230384   2.494   2.545   5.635
 9829SOL     OW30385   4.177   4.814   0.191
 9829SOL    HW130386   4.091   4.850   0.157
 9829SOL    HW230387   4.250   4.882   0.178
 9830SOL     OW30388   6.091   2.858   1.771
 9830SOL    HW130389   6.033   2.925   1.818
 9830SOL    HW230390   6.040   2.817   1.695
 9831SOL     OW30391   2.412   5.105   1.277
 9831SOL    HW130392   2.486   5.087   1.212
 9831SOL    HW230393   2.363   5.188   1.249
 9832SOL     OW30394   4.876   5.488   3.221
 9832SOL    HW130395   4.937   5.563   3.194
 9832SOL    HW230396   4.812   5.470   3.147
 9833SOL     OW30397   3.611   3.783   5.023
 9833SOL    HW130398   3.603   3.882   5.034
 9833SOL    HW230399   3.583   3.738   5.107
 9834SOL     OW30400   2.670   4.511   5.280
 9834SOL    HW130401   2.763   4.504   5.245
 9834SOL    HW230402   2.634   4.419   5.297
 9835SOL     OW30403   3.907   3.345   5.426
 9835SOL    HW130404   3.820   3.391   5.444
 9835SOL    HW230405   3.901   3.250   5.458
 9836SOL     OW30406   6.862   4.626   3.742
 9836SOL    HW130407   6.818   4.565   3.808
 9836SOL    HW230408   6.857   4.720   3.775
 9837SOL     OW30409   3.175   0.219   3.452
 9837SOL    HW130410   3.264   0.209   3.497
 9837SOL    HW230411   3.158   0.141   3.392
 9838SOL     OW30412   2.039   6.967   6.738
 9838SOL    HW130413   2.037   6.868   6.722
 9838SOL    HW230414   2.037   6.985   6.836
 9839SOL     OW30415   5.777   0.638   3.328
 9839SOL    HW130416   5.869   0.669   3.303
 9839SOL    HW230417   5.782   0.545   3.365
 9840SOL     OW30418   5.804   1.464   1.070
 9840SOL    HW130419   5.798   1.442   1.167
 9840SOL    HW230420   5.865   1.542   1.057
 9841SOL     OW30421   2.199   4.681   5.149
 9841SOL    HW130422   2.100   4.674   5.157
 9841SOL    HW230423   2.240   4.679   5.240
 9842SOL     OW30424   3.706   3.236   2.084
 9842SOL    HW130425   3.728   3.147   2.125
 9842SOL    HW230426   3.753   3.244   1.996
 9843SOL     OW30427   5.978   0.887   1.465
 9843SOL    HW130428   5.936   0.938   1.540
 9843SOL    HW230429   5.944   0.923   1.378
 9844SOL     OW30430   6.370   0.503   2.013
 9844SOL    HW130431   6.387   0.421   2.068
 9844SOL    HW230432   6.272   0.521   2.009
 9845SOL     OW30433   2.109   2.581   3.023
 9845SOL    HW130434   2.014   2.553   3.039
 9845SOL    HW230435   2.170   2.521   3.075
 9846SOL     OW30436   3.722   3.484   1.607
 9846SOL    HW130437   3.682   3.524   1.524
 9846SOL    HW230438   3.813   3.524   1.622
 9847SOL     OW30439   3.488   3.013   3.657
 9847SOL    HW130440   3.545   2.960   3.594
 9847SOL    HW230441   3.478   2.963   3.743
 9848SOL     OW30442   3.745   3.414   5.058
 9848SOL    HW130443   3.740   3.481   4.984
 9848SOL    HW230444   3.784   3.457   5.139
 9849SOL     OW30445   0.057   6.375   6.378
 9849SOL    HW130446   0.114   6.305   6.336
 9849SOL    HW230447   0.077   6.381   6.476
 9850SOL     OW30448   5.753   0.126   4.447
 9850SOL    HW130449   5.773   0.058   4.518
 9850SOL    HW230450   5.704   0.203   4.488
 9851SOL     OW30451   5.697   0.750   4.674
 9851SOL    HW130452   5.786   0.745   4.720
 9851SOL    HW230453   5.645   0.827   4.711
 9852SOL     OW30454   4.096   2.268   3.594
 9852SOL    HW130455   4.065   2.248   3.501
 9852SOL    HW230456   4.195   2.280   3.595
 9853SOL     OW30457   5.105   3.841   4.967
 9853SOL    HW130458   5.018   3.830   5.014
 9853SOL    HW230459   5.110   3.933   4.927
 9854SOL     OW30460   6.889   5.776   5.028
 9854SOL    HW130461   6.950   5.705   4.995
 9854SOL    HW230462   6.905   5.860   4.977
 9855SOL     OW30463   1.858   3.532   0.858
 9855SOL    HW130464   1.924   3.606   0.875
 9855SOL    HW230465   1.871   3.460   0.927
 9856SOL     OW30466   5.258   4.507   5.175
 9856SOL    HW130467   5.159   4.504   5.161
 9856SOL    HW230468   5.303   4.528   5.089
 9857SOL     OW30469   4.814   2.870   2.830
 9857SOL    HW130470   4.898   2.824   2.860
 9857SOL    HW230471   4.837   2.960   2.793
 9858SOL     OW30472   0.492   0.606   1.261
 9858SOL    HW130473   0.539   0.520   1.278
 9858SOL    HW230474   0.407   0.589   1.212
 9859SOL     OW30475   6.055   7.014   2.449
 9859SOL    HW130476   6.110   6.954   2.391
 9859SOL    HW230477   6.105   0.074   2.467
 9860SOL     OW30478   1.115   1.595   3.630
 9860SOL    HW130479   1.063   1.581   3.546
 9860SOL    HW230480   1.153   1.508   3.662
 9861SOL     OW30481   2.741   0.268   3.718
 9861SOL    HW130482   2.832   0.226   3.710
 9861SOL    HW230483   2.671   0.203   3.689
 9862SOL     OW30484   3.833   2.978   0.019
 9862SOL    HW130485   3.740   3.003   7.015
 9862SOL    HW230486   3.829   2.905   0.087
 9863SOL     OW30487   3.095   0.073   2.868
 9863SOL    HW130488   3.190   0.053   2.843
 9863SOL    HW230489   3.040   7.014   2.858
 9864SOL     OW30490   3.952   6.911   3.969
 9864SOL    HW130491   4.032   6.855   3.989
 9864SOL    HW230492   3.873   6.852   3.953
 9865SOL     OW30493   1.311   0.805   4.564
 9865SOL    HW130494   1.399   0.853   4.556
 9865SOL    HW230495   1.262   0.838   4.644
 9866SOL     OW30496   5.736   4.950   6.527
 9866SOL    HW130497   5.685   4.924   6.445
 9866SOL    HW230498   5.699   5.036   6.563
 9867SOL     OW30499   6.457   0.598   1.228
 9867SOL    HW130500   6.516   0.589   1.148
 9867SOL    HW230501   6.505   0.563   1.309
 9868SOL     OW30502   0.314   3.670   5.760
 9868SOL    HW130503   0.231   3.647   5.811
 9868SOL    HW230504   0.350   3.757   5.791
 9869SOL     OW30505   1.502   3.202   1.947
 9869SOL    HW130506   1.416   3.151   1.948
 9869SOL    HW230507   1.576   3.143   1.917
 9870SOL     OW30508   3.800   5.981   2.890
 9870SOL    HW130509   3.788   5.923   2.971
 9870SOL    HW230510   3.808   6.077   2.919
 9871SOL     OW30511   0.458   6.095   5.774
 9871SOL    HW130512   0.450   6.146   5.860
 9871SOL    HW230513   0.547   6.049   5.771
 9872SOL     OW30514   2.452   5.356   4.045
 9872SOL    HW130515   2.393   5.397   4.115
 9872SOL    HW230516   2.529   5.310   4.089
 9873SOL     OW30517   2.614   2.325   6.963
 9873SOL    HW130518   2.706   2.285   6.959
 9873SOL    HW230519   2.614   2.400   0.005
 9874SOL     OW30520   5.815   2.975   4.723
 9874SOL    HW130521   5.806   2.894   4.665
 9874SOL    HW230522   5.764   3.051   4.682
 9875SOL     OW30523   5.842   6.404   1.874
 9875SOL    HW130524   5.746   6.431   1.869
 9875SOL    HW230525   5.891   6.468   1.933
 9876SOL     OW30526   6.522   0.081   3.442
 9876SOL    HW130527   6.554   0.123   3.527
 9876SOL    HW230528   6.471   7.022   3.462
 9877SOL     OW30529   6.954   5.920   4.249
 9877SOL    HW130530   6.974   5.997   4.188
 9877SOL    HW230531   6.869   5.877   4.222
 9878SOL     OW30532   2.784   4.878   5.131
 9878SOL    HW130533   2.753   4.906   5.040
 9878SOL    HW230534   2.838   4.794   5.123
 9879SOL     OW30535   5.488   5.271   5.142
 9879SOL    HW130536   5.530   5.354   5.180
 9879SOL    HW230537   5.408   5.297   5.088
 9880SOL     OW30538   3.649   0.654   6.971
 9880SOL    HW130539   3.651   0.751   6.947
 9880SOL    HW230540   3.570   0.635   0.006
 9881SOL     OW30541   1.047   1.347   4.958
 9881SOL    HW130542   1.146   1.342   4.972
 9881SOL    HW230543   1.013   1.258   4.928
 9882SOL     OW30544   1.176   3.369   4.706
 9882SOL    HW130545   1.276   3.362   4.708
 9882SOL    HW230546   1.149   3.424   4.627
 9883SOL     OW30547   1.294   6.354   0.912
 9883SOL    HW130548   1.381   6.307   0.895
 9883SOL    HW230549   1.291   6.386   1.007
 9884SOL     OW30550   5.302   2.535   1.792
 9884SOL    HW130551   5.369   2.568   1.725
 9884SOL    HW230552   5.325   2.571   1.882
 9885SOL     OW30553   6.788   1.979   4.801
 9885SOL    HW130554   6.862   2.039   4.768
 9885SOL    HW230555   6.827   1.893   4.835
 9886SOL     OW30556   1.395   4.812   1.671
 9886SOL    HW130557   1.436   4.857   1.751
 9886SOL    HW230558   1.303   4.782   1.694
 9887SOL     OW30559   4.230   0.249   6.378
 9887SOL    HW130560   4.284   0.199   6.446
 9887SOL    HW230561   4.155   0.192   6.346
 9888SOL     OW30562   5.734   5.101   2.457
 9888SOL    HW130563   5.716   5.032   2.387
 9888SOL    HW230564   5.716   5.192   2.419
 9889SOL     OW30565   6.296   4.939   0.972
 9889SOL    HW130566   6.356   4.994   1.030
 9889SOL    HW230567   6.333   4.934   0.880
 9890SOL     OW30568   1.131   2.861   1.417
 9890SOL    HW130569   1.167   2.767   1.418
 9890SOL    HW230570   1.035   2.858   1.389
 9891SOL     OW30571   5.689   3.454   2.119
 9891SOL    HW130572   5.638   3.491   2.041
 9891SOL    HW230573   5.666   3.358   2.132
 9892SOL     OW30574   0.827   4.945   1.638
 9892SOL    HW130575   0.757   5.017   1.645
 9892SOL    HW230576   0.912   4.977   1.679
 9893SOL     OW30577   0.295   1.022   1.529
 9893SOL    HW130578   0.389   1.011   1.499
 9893SOL    HW230579   0.286   1.106   1.582
 9894SOL     OW30580   3.188   2.160   0.437
 9894SOL    HW130581   3.167   2.248   0.396
 9894SOL    HW230582   3.106   2.103   0.438
 9895SOL     OW30583   5.810   4.039   5.314
 9895SOL    HW130584   5.737   3.976   5.341
 9895SOL    HW230585   5.869   3.994   5.247
 9896SOL     OW30586   6.377   1.124   0.839
 9896SOL    HW130587   6.368   1.064   0.760
 9896SOL    HW230588   6.461   1.101   0.889
 9897SOL     OW30589   5.530   6.691   2.615
 9897SOL    HW130590   5.508   6.765   2.552
 9897SOL    HW230591   5.459   6.621   2.612
 9898SOL     OW30592   0.958   5.157   5.636
 9898SOL    HW130593   1.038   5.217   5.645
 9898SOL    HW230594   0.968   5.100   5.554
 9899SOL     OW30595   1.577   5.492   1.194
 9899SOL    HW130596   1.541   5.555   1.261
 9899SOL    HW230597   1.521   5.408   1.193
 9900SOL     OW30598   1.188   2.949   2.967
 9900SOL    HW130599   1.095   2.968   3.000
 9900SOL    HW230600   1.238   3.036   2.957
 9901SOL     OW30601   2.681   0.900   6.972
 9901SOL    HW130602   2.745   0.830   6.941
 9901SOL    HW230603   2.633   0.938   6.893
 9902SOL     OW30604   2.886   4.752   1.441
 9902SOL    HW130605   2.874   4.818   1.368
 9902SOL    HW230606   2.802   4.699   1.452
 9903SOL     OW30607   5.445   1.872   1.712
 9903SOL    HW130608   5.436   1.785   1.664
 9903SOL    HW230609   5.374   1.935   1.680
 9904SOL     OW30610   0.658   4.107   6.753
 9904SOL    HW130611   0.589   4.110   6.681
 9904SOL    HW230612   0.718   4.028   6.738
 9905SOL     OW30613   2.443   0.105   5.922
 9905SOL    HW130614   2.410   0.195   5.950
 9905SOL    HW230615   2.493   0.063   5.998
 9906SOL     OW30616   1.705   3.297   0.346
 9906SOL    HW130617   1.752   3.215   0.377
 9906SOL    HW230618   1.738   3.377   0.397
 9907SOL     OW30619   1.003   0.628   0.999
 9907SOL    HW130620   1.021   0.570   0.920
 9907SOL    HW230621   1.075   0.616   1.067
 9908SOL     OW30622   6.464   1.809   4.836
 9908SOL    HW130623   6.407   1.735   4.801
 9908SOL    HW230624   6.555   1.805   4.794
 9909SOL     OW30625   3.969   1.128   2.653
 9909SOL    HW130626   3.880   1.086   2.633
 9909SOL    HW230627   3.959   1.228   2.654
 9910SOL     OW30628   1.320   5.011   1.525
 9910SOL    HW130629   1.371   5.097   1.526
 9910SOL    HW230630   1.380   4.937   1.555
 9911SOL     OW30631   2.791   6.114   2.506
 9911SOL    HW130632   2.827   6.206   2.491
 9911SOL    HW230633   2.764   6.074   2.418
 9912SOL     OW30634   3.638   1.400   1.073
 9912SOL    HW130635   3.648   1.453   0.989
 9912SOL    HW230636   3.676   1.450   1.150
 9913SOL     OW30637   6.490   3.535   0.610
 9913SOL    HW130638   6.559   3.498   0.548
 9913SOL    HW230639   6.432   3.460   0.643
 9914SOL     OW30640   6.240   0.897   4.746
 9914SOL    HW130641   6.264   0.899   4.843
 9914SOL    HW230642   6.260   0.807   4.708
 9915SOL     OW30643   6.157   0.970   3.459
 9915SOL    HW130644   6.173   1.063   3.491
 9915SOL    HW230645   6.234   0.939   3.404
 9916SOL     OW30646   2.224   2.230   2.970
 9916SOL    HW130647   2.136   2.188   2.949
 9916SOL    HW230648   2.287   2.160   3.003
 9917SOL     OW30649   4.357   3.953   6.112
 9917SOL    HW130650   4.415   4.020   6.158
 9917SOL    HW230651   4.412   3.875   6.084
 9918SOL     OW30652   1.440   2.345   2.788
 9918SOL    HW130653   1.510   2.386   2.730
 9918SOL    HW230654   1.482   2.311   2.872
 9919SOL     OW30655   1.441   5.718   1.063
 9919SOL    HW130656   1.508   5.648   1.041
 9919SOL    HW230657   1.452   5.746   1.159
 9920SOL     OW30658   5.621   0.414   2.455
 9920SOL    HW130659   5.548   0.380   2.396
 9920SOL    HW230660   5.676   0.481   2.404
 9921SOL     OW30661   4.338   6.285   4.200
 9921SOL    HW130662   4.301   6.288   4.107
 9921SOL    HW230663   4.380   6.373   4.222
 9922SOL     OW30664   3.706   3.998   0.999
 9922SOL    HW130665   3.793   3.954   0.977
 9922SOL    HW230666   3.651   3.937   1.055
 9923SOL     OW30667   6.011   4.491   6.625
 9923SOL    HW130668   6.030   4.589   6.611
 9923SOL    HW230669   5.912   4.477   6.629
 9924SOL     OW30670   6.012   1.830   2.994
 9924SOL    HW130671   6.048   1.852   2.903
 9924SOL    HW230672   6.000   1.731   3.002
 9925SOL     OW30673   0.225   5.405   4.163
 9925SOL    HW130674   0.190   5.312   4.156
 9925SOL    HW230675   0.226   5.433   4.259
 9926SOL     OW30676   4.186   2.324   1.117
 9926SOL    HW130677   4.171   2.232   1.153
 9926SOL    HW230678   4.139   2.334   1.030
 9927SOL     OW30679   1.439   0.651   0.816
 9927SOL    HW130680   1.530   0.623   0.787
 9927SOL    HW230681   1.446   0.715   0.892
 9928SOL     OW30682   4.904   4.902   3.698
 9928SOL    HW130683   4.918   4.849   3.782
 9928SOL    HW230684   4.986   4.899   3.642
 9929SOL     OW30685   3.523   4.029   4.533
 9929SOL    HW130686   3.580   3.965   4.585
 9929SOL    HW230687   3.482   3.982   4.455
 9930SOL     OW30688   0.126   6.902   5.451
 9930SOL    HW130689   0.181   6.842   5.393
 9930SOL    HW230690   0.153   6.997   5.437
 9931SOL     OW30691   7.023   5.213   4.747
 9931SOL    HW130692   7.023   5.114   4.732
 9931SOL    HW230693   6.930   5.244   4.768
 9932SOL     OW30694   2.870   3.161   5.571
 9932SOL    HW130695   2.910   3.197   5.655
 9932SOL    HW230696   2.866   3.233   5.501
 9933SOL     OW30697   1.867   6.808   4.086
 9933SOL    HW130698   1.860   6.709   4.094
 9933SOL    HW230699   1.914   6.832   4.001
 9934SOL     OW30700   0.214   2.195   6.275
 9934SOL    HW130701   0.212   2.100   6.306
 9934SOL    HW230702   0.262   2.251   6.343
 9935SOL     OW30703   2.757   0.068   0.916
 9935SOL    HW130704   2.742   0.100   1.010
 9935SOL    HW230705   2.709   7.005   0.903
 9936SOL     OW30706   5.880   4.528   0.631
 9936SOL    HW130707   5.911   4.593   0.562
 9936SOL    HW230708   5.782   4.512   0.622
 9937SOL     OW30709   0.344   2.053   1.581
 9937SOL    HW130710   0.279   2.129   1.585
 9937SOL    HW230711   0.427   2.083   1.534
 9938SOL     OW30712   5.480   4.829   3.622
 9938SOL    HW130713   5.551   4.833   3.692
 9938SOL    HW230714   5.392   4.855   3.663
 9939SOL     OW30715   4.682   2.916   1.258
 9939SOL    HW130716   4.720   2.831   1.223
 9939SOL    HW230717   4.606   2.945   1.199
 9940SOL     OW30718   1.118   0.466   1.899
 9940SOL    HW130719   1.048   0.402   1.932
 9940SOL    HW230720   1.172   0.423   1.827
 9941SOL     OW30721   3.181   3.315   5.148
 9941SOL    HW130722   3.212   3.250   5.217
 9941SOL    HW230723   3.235   3.303   5.065
 9942SOL     OW30724   3.520   5.209   2.532
 9942SOL    HW130725   3.432   5.251   2.510
 9942SOL    HW230726   3.512   5.110   2.525
 9943SOL     OW30727   0.924   4.967   6.447
 9943SOL    HW130728   0.978   4.914   6.513
 9943SOL    HW230729   0.962   4.954   6.355
 9944SOL     OW30730   0.782   4.672   6.339
 9944SOL    HW130731   0.881   4.685   6.339
 9944SOL    HW230732   0.751   4.651   6.432
 9945SOL     OW30733   4.476   6.066   0.083
 9945SOL    HW130734   4.529   6.108   0.157
 9945SOL    HW230735   4.404   6.009   0.122
 9946SOL     OW30736   6.281   0.293   3.618
 9946SOL    HW130737   6.329   0.359   3.675
 9946SOL    HW230738   6.205   0.253   3.670
 9947SOL     OW30739   2.763   2.338   4.566
 9947SOL    HW130740   2.830   2.394   4.614
 9947SOL    HW230741   2.682   2.394   4.545
 9948SOL     OW30742   6.893   4.885   6.316
 9948SOL    HW130743   6.896   4.930   6.227
 9948SOL    HW230744   6.799   4.884   6.350
 9949SOL     OW30745   6.642   4.578   4.278
 9949SOL    HW130746   6.582   4.542   4.206
 9949SOL    HW230747   6.680   4.666   4.250
 9950SOL     OW30748   5.703   5.974   6.334
 9950SOL    HW130749   5.648   5.897   6.366
 9950SOL    HW230750   5.800   5.954   6.350
 9951SOL     OW30751   1.479   2.350   3.283
 9951SOL    HW130752   1.402   2.363   3.221
 9951SOL    HW230753   1.444   2.333   3.375
 9952SOL     OW30754   1.058   4.549   0.525
 9952SOL    HW130755   1.148   4.514   0.501
 9952SOL    HW230756   1.045   4.545   0.624
 9953SOL     OW30757   6.429   2.489   3.911
 9953SOL    HW130758   6.425   2.538   3.824
 9953SOL    HW230759   6.483   2.542   3.977
 9954SOL     OW30760   1.060   0.555   5.597
 9954SOL    HW130761   1.051   0.652   5.623
 9954SOL    HW230762   1.098   0.504   5.674
 9955SOL     OW30763   5.007   4.038   6.449
 9955SOL    HW130764   5.040   4.085   6.531
 9955SOL    HW230765   4.920   3.992   6.469
 9956SOL     OW30766   0.874   5.569   3.762
 9956SOL    HW130767   0.889   5.643   3.697
 9956SOL    HW230768   0.817   5.602   3.837
 9957SOL     OW30769   5.585   0.102   1.847
 9957SOL    HW130770   5.561   0.022   1.791
 9957SOL    HW230771   5.653   0.157   1.798
 9958SOL     OW30772   2.567   5.613   6.759
 9958SOL    HW130773   2.507   5.547   6.714
 9958SOL    HW230774   2.522   5.646   6.842
 9959SOL     OW30775   4.146   3.682   3.958
 9959SOL    HW130776   4.238   3.671   3.994
 9959SOL    HW230777   4.146   3.669   3.859
 9960SOL     OW30778   6.760   0.240   1.884
 9960SOL    HW130779   6.762   0.216   1.787
 9960SOL    HW230780   6.674   0.211   1.925
 9961SOL     OW30781   1.238   4.951   4.404
 9961SOL    HW130782   1.179   5.005   4.463
 9961SOL    HW230783   1.260   4.864   4.449
 9962SOL     OW30784   4.433   0.893   2.526
 9962SOL    HW130785   4.369   0.895   2.450
 9962SOL    HW230786   4.394   0.943   2.604
 9963SOL     OW30787   2.430   2.706   6.079
 9963SOL    HW130788   2.395   2.698   6.172
 9963SOL    HW230789   2.372   2.653   6.017
 9964SOL     OW30790   4.498   4.025   5.736
 9964SOL    HW130791   4.466   3.983   5.651
 9964SOL    HW230792   4.421   4.066   5.784
 9965SOL     OW30793   4.063   5.005   6.126
 9965SOL    HW130794   4.079   4.938   6.198
 9965SOL    HW230795   4.143   5.010   6.066
 9966SOL     OW30796   2.559   5.878   2.213
 9966SOL    HW130797   2.560   5.787   2.257
 9966SOL    HW230798   2.631   5.934   2.252
 9967SOL     OW30799   6.138   6.180   1.660
 9967SOL    HW130800   6.199   6.199   1.583
 9967SOL    HW230801   6.045   6.169   1.627
 9968SOL     OW30802   3.293   4.041   6.449
 9968SOL    HW130803   3.222   4.047   6.379
 9968SOL    HW230804   3.314   4.132   6.484
 9969SOL     OW30805   1.606   3.158   4.018
 9969SOL    HW130806   1.594   3.063   3.991
 9969SOL    HW230807   1.531   3.185   4.079
 9970SOL     OW30808   5.667   4.682   2.537
 9970SOL    HW130809   5.678   4.627   2.454
 9970SOL    HW230810   5.753   4.683   2.588
 9971SOL     OW30811   2.914   3.420   0.570
 9971SOL    HW130812   2.823   3.382   0.590
 9971SOL    HW230813   2.953   3.373   0.492
 9972SOL     OW30814   3.802   4.296   0.531
 9972SOL    HW130815   3.720   4.276   0.476
 9972SOL    HW230816   3.776   4.348   0.612
 9973SOL     OW30817   4.007   1.552   4.028
 9973SOL    HW130818   4.057   1.556   4.115
 9973SOL    HW230819   4.029   1.633   3.973
 9974SOL     OW30820   6.426   3.882   3.201
 9974SOL    HW130821   6.375   3.816   3.256
 9974SOL    HW230822   6.502   3.836   3.155
 9975SOL     OW30823   6.452   4.488   0.406
 9975SOL    HW130824   6.479   4.395   0.379
 9975SOL    HW230825   6.510   4.519   0.482
 9976SOL     OW30826   0.455   5.756   5.471
 9976SOL    HW130827   0.394   5.783   5.546
 9976SOL    HW230828   0.429   5.804   5.388
 9977SOL     OW30829   0.316   5.542   6.315
 9977SOL    HW130830   0.229   5.494   6.304
 9977SOL    HW230831   0.309   5.609   6.388
 9978SOL     OW30832   6.414   2.918   3.132
 9978SOL    HW130833   6.449   2.930   3.039
 9978SOL    HW230834   6.331   2.973   3.143
 9979SOL     OW30835   6.045   4.740   5.671
 9979SOL    HW130836   6.019   4.726   5.575
 9979SOL    HW230837   6.122   4.681   5.693
 9980SOL     OW30838   1.443   1.436   6.414
 9980SOL    HW130839   1.500   1.371   6.463
 9980SOL    HW230840   1.386   1.487   6.479
 9981SOL     OW30841   2.047   1.812   1.156
 9981SOL    HW130842   1.977   1.852   1.097
 9981SOL    HW230843   2.046   1.712   1.145
 9982SOL     OW30844   0.562   1.357   3.786
 9982SOL    HW130845   0.549   1.260   3.768
 9982SOL    HW230846   0.651   1.386   3.751
 9983SOL     OW30847   1.019   2.252   2.605
 9983SOL    HW130848   1.014   2.169   2.548
 9983SOL    HW230849   1.091   2.241   2.673
 9984SOL     OW30850   1.293   0.114   0.579
 9984SOL    HW130851   1.376   0.081   0.623
 9984SOL    HW230852   1.213   0.079   0.628
 9985SOL     OW30853   2.292   0.966   1.915
 9985SOL    HW130854   2.255   0.879   1.882
 9985SOL    HW230855   2.388   0.974   1.888
 9986SOL     OW30856   5.210   4.469   0.016
 9986SOL    HW130857   5.212   4.444   0.112
 9986SOL    HW230858   5.180   4.564   0.007
 9987SOL     OW30859   6.404   1.993   3.078
 9987SOL    HW130860   6.375   2.077   3.124
 9987SOL    HW230861   6.337   1.970   3.007
 9988SOL     OW30862   0.165   5.745   4.928
 9988SOL    HW130863   0.199   5.768   5.019
 9988SOL    HW230864   0.224   5.788   4.859
 9989SOL     OW30865   5.945   4.343   3.287
 9989SOL    HW130866   6.020   4.378   3.344
 9989SOL    HW230867   5.883   4.289   3.344
 9990SOL     OW30868   2.252   0.191   2.614
 9990SOL    HW130869   2.278   0.118   2.551
 9990SOL    HW230870   2.305   0.182   2.698
 9991SOL     OW30871   2.175   3.177   4.139
 9991SOL    HW130872   2.220   3.104   4.088
 9991SOL    HW230873   2.164   3.149   4.235
 9992SOL     OW30874   4.488   3.649   0.515
 9992SOL    HW130875   4.391   3.627   0.516
 9992SOL    HW230876   4.541   3.566   0.494
 9993SOL     OW30877   3.862   0.440   2.144
 9993SOL    HW130878   3.910   0.442   2.056
 9993SOL    HW230879   3.788   0.508   2.144
 9994SOL     OW30880   0.064   4.639   3.972
 9994SOL    HW130881   0.028   4.726   3.940
 9994SOL    HW230882   7.015   4.587   4.017
 9995SOL     OW30883   3.198   0.708   2.795
 9995SOL    HW130884   3.212   0.628   2.736
 9995SOL    HW230885   3.287   0.748   2.818
 9996SOL     OW30886   3.130   3.126   1.789
 9996SOL    HW130887   3.074   3.122   1.872
 9996SOL    HW230888   3.085   3.073   1.717
 9997SOL     OW30889   4.017   1.641   0.850
 9997SOL    HW130890   3.995   1.739   0.855
 9997SOL    HW230891   4.033   1.606   0.942
 9998SOL     OW30892   6.249   4.007   1.542
 9998SOL    HW130893   6.300   3.920   1.539
 9998SOL    HW230894   6.181   4.002   1.615
 9999SOL     OW30895   6.062   3.359   4.898
 9999SOL    HW130896   6.151   3.350   4.854
 9999SOL    HW230897   6.066   3.319   4.990
10000SOL     OW30898   5.832   3.525   6.745
10000SOL    HW130899   5.788   3.443   6.708
10000SOL    HW230900   5.910   3.498   6.802
10001SOL     OW30901   5.421   0.978   2.229
10001SOL    HW130902   5.342   1.030   2.196
10001SOL    HW230903   5.389   0.892   2.269
10002SOL     OW30904   2.060   0.744   1.026
10002SOL    HW130905   2.007   0.813   1.076
10002SOL    HW230906   2.027   0.737   0.932
10003SOL     OW30907   3.646   1.607   3.931
10003SOL    HW130908   3.682   1.622   4.023
10003SOL    HW230909   3.686   1.672   3.867
10004SOL     OW30910   4.841   2.183   4.380
10004SOL    HW130911   4.756   2.162   4.333
10004SOL    HW230912   4.918   2.141   4.332
10005SOL     OW30913   4.562   0.195   3.918
10005SOL    HW130914   4.608   0.265   3.973
10005SOL    HW230915   4.617   0.112   3.919
10006SOL     OW30916   5.235   1.011   3.633
10006SOL    HW130917   5.272   0.997   3.725
10006SOL    HW230918   5.185   0.929   3.604
10007SOL     OW30919   0.667   5.016   4.994
10007SOL    HW130920   0.674   4.920   4.967
10007SOL    HW230921   0.653   5.072   4.912
10008SOL     OW30922   4.672   1.453   4.238
10008SOL    HW130923   4.769   1.438   4.259
10008SOL    HW230924   4.638   1.378   4.181
10009SOL     OW30925   1.918   4.173   1.322
10009SOL    HW130926   1.851   4.208   1.256
10009SOL    HW230927   1.936   4.242   1.391
10010SOL     OW30928   2.165   6.424   6.548
10010SOL    HW130929   2.258   6.426   6.585
10010SOL    HW230930   2.118   6.510   6.571
10011SOL     OW30931   5.561   1.862   4.821
10011SOL    HW130932   5.583   1.936   4.758
10011SOL    HW230933   5.609   1.779   4.792
10012SOL     OW30934   4.951   0.970   3.173
10012SOL    HW130935   5.040   0.963   3.128
10012SOL    HW230936   4.886   1.015   3.112
10013SOL     OW30937   1.258   1.743   3.943
10013SOL    HW130938   1.306   1.657   3.928
10013SOL    HW230939   1.165   1.725   3.973
10014SOL     OW30940   6.473   2.950   6.717
10014SOL    HW130941   6.476   3.004   6.633
10014SOL    HW230942   6.558   2.962   6.768
10015SOL     OW30943   2.642   4.058   0.433
10015SOL    HW130944   2.568   4.049   0.365
10015SOL    HW230945   2.603   4.081   0.522
10016SOL     OW30946   2.031   0.074   5.333
10016SOL    HW130947   2.006   0.012   5.408
10016SOL    HW230948   2.114   0.125   5.358
10017SOL     OW30949   2.706   2.279   2.742
10017SOL    HW130950   2.720   2.264   2.644
10017SOL    HW230951   2.632   2.344   2.756
10018SOL     OW30952   4.719   0.174   5.689
10018SOL    HW130953   4.727   0.095   5.749
10018SOL    HW230954   4.650   0.237   5.726
10019SOL     OW30955   1.043   1.592   2.611
10019SOL    HW130956   1.122   1.593   2.672
10019SOL    HW230957   0.981   1.666   2.636
10020SOL     OW30958   0.570   2.725   1.680
10020SOL    HW130959   0.644   2.785   1.712
10020SOL    HW230960   0.517   2.773   1.611
10021SOL     OW30961   0.133   2.614   0.955
10021SOL    HW130962   0.056   2.664   0.916
10021SOL    HW230963   0.102   2.524   0.987
10022SOL     OW30964   2.996   0.156   6.583
10022SOL    HW130965   2.967   0.071   6.627
10022SOL    HW230966   3.084   0.143   6.538
10023SOL     OW30967   1.328   4.988   6.187
10023SOL    HW130968   1.410   4.932   6.172
10023SOL    HW230969   1.303   5.032   6.101
10024SOL     OW30970   2.075   6.654   2.021
10024SOL    HW130971   2.136   6.654   1.941
10024SOL    HW230972   2.074   6.563   2.062
10025SOL     OW30973   1.336   1.489   1.187
10025SOL    HW130974   1.261   1.518   1.246
10025SOL    HW230975   1.309   1.408   1.135
10026SOL     OW30976   5.445   6.808   3.643
10026SOL    HW130977   5.516   6.802   3.713
10026SOL    HW230978   5.460   6.735   3.576
10027SOL     OW30979   6.615   3.812   5.727
10027SOL    HW130980   6.584   3.812   5.632
10027SOL    HW230981   6.700   3.761   5.733
10028SOL     OW30982   1.635   1.531   0.821
10028SOL    HW130983   1.644   1.596   0.746
10028SOL    HW230984   1.653   1.577   0.908
10029SOL     OW30985   3.801   2.040   4.451
10029SOL    HW130986   3.746   2.023   4.532
10029SOL    HW230987   3.741   2.055   4.372
10030SOL     OW30988   2.249   6.582   3.712
10030SOL    HW130989   2.288   6.526   3.639
10030SOL    HW230990   2.212   6.667   3.673
10031SOL     OW30991   6.123   4.751   4.366
10031SOL    HW130992   6.217   4.729   4.342
10031SOL    HW230993   6.106   4.848   4.349
10032SOL     OW30994   2.611   2.144   4.851
10032SOL    HW130995   2.560   2.201   4.787
10032SOL    HW230996   2.678   2.200   4.900
10033SOL     OW30997   5.842   2.000   3.810
10033SOL    HW130998   5.834   2.021   3.712
10033SOL    HW230999   5.924   1.945   3.826
10034SOL     OW31000   2.543   6.947   4.224
10034SOL    HW131001   2.603   6.901   4.159
10034SOL    HW231002   2.598   6.999   4.289
10035SOL     OW31003   6.550   4.522   1.865
10035SOL    HW131004   6.489   4.452   1.830
10035SOL    HW231005   6.604   4.485   1.941
10036SOL     OW31006   6.050   2.218   1.594
10036SOL    HW131007   6.045   2.118   1.600
10036SOL    HW231008   5.967   2.253   1.550
10037SOL     OW31009   6.617   0.956   0.914
10037SOL    HW131010   6.571   0.920   0.995
10037SOL    HW231011   6.713   0.974   0.935
10038SOL     OW31012   5.104   0.875   0.199
10038SOL    HW131013   5.143   0.882   0.291
10038SOL    HW231014   5.057   0.960   0.176
10039SOL     OW31015   3.787   0.340   3.390
10039SOL    HW131016   3.744   0.272   3.330
10039SOL    HW231017   3.746   0.335   3.481
10040SOL     OW31018   4.858   5.296   6.519
10040SOL    HW131019   4.872   5.223   6.453
10040SOL    HW231020   4.760   5.312   6.530
10041SOL     OW31021   4.004   6.153   0.080
10041SOL    HW131022   3.930   6.174   0.016
10041SOL    HW231023   4.065   6.232   0.088
10042SOL     OW31024   0.973   1.660   4.175
10042SOL    HW131025   0.914   1.738   4.195
10042SOL    HW231026   0.971   1.642   4.076
10043SOL     OW31027   6.019   1.347   5.013
10043SOL    HW131028   5.971   1.433   4.997
10043SOL    HW231029   5.952   1.275   5.032
10044SOL     OW31030   2.182   1.691   4.418
10044SOL    HW131031   2.206   1.654   4.328
10044SOL    HW231032   2.161   1.788   4.409
10045SOL     OW31033   4.213   0.438   2.937
10045SOL    HW131034   4.123   0.476   2.916
10045SOL    HW231035   4.280   0.512   2.941
10046SOL     OW31036   2.262   3.723   0.858
10046SOL    HW131037   2.217   3.807   0.888
10046SOL    HW231038   2.250   3.652   0.928
10047SOL     OW31039   0.493   3.523   4.598
10047SOL    HW131040   0.515   3.543   4.503
10047SOL    HW231041   0.413   3.576   4.626
10048SOL     OW31042   0.071   0.165   2.365
10048SOL    HW131043   0.166   0.151   2.394
10048SOL    HW231044   0.067   0.170   2.265
10049SOL     OW31045   1.510   1.585   5.986
10049SOL    HW131046   1.473   1.550   5.899
10049SOL    HW231047   1.581   1.652   5.967
10050SOL     OW31048   5.273   3.747   5.216
10050SOL    HW131049   5.209   3.773   5.143
10050SOL    HW231050   5.319   3.829   5.250
10051SOL     OW31051   6.446   4.045   5.520
10051SOL    HW131052   6.507   4.079   5.448
10051SOL    HW231053   6.420   4.120   5.581
10052SOL     OW31054   1.986   1.208   3.113
10052SOL    HW131055   2.037   1.186   3.196
10052SOL    HW231056   2.024   1.157   3.036
10053SOL     OW31057   4.262   5.788   3.950
10053SOL    HW131058   4.320   5.852   3.900
10053SOL    HW231059   4.167   5.798   3.920
10054SOL     OW31060   5.454   6.210   5.590
10054SOL    HW131061   5.491   6.303   5.583
10054SOL    HW231062   5.373   6.203   5.531
10055SOL     OW31063   6.345   1.315   5.364
10055SOL    HW131064   6.415   1.266   5.415
10055SOL    HW231065   6.374   1.325   5.269
10056SOL     OW31066   5.434   4.431   3.128
10056SOL    HW131067   5.516   4.444   3.184
10056SOL    HW231068   5.456   4.378   3.047
10057SOL     OW31069   4.810   3.332   5.187
10057SOL    HW131070   4.722   3.329   5.234
10057SOL    HW231071   4.816   3.415   5.132
10058SOL     OW31072   6.339   3.601   4.857
10058SOL    HW131073   6.345   3.518   4.913
10058SOL    HW231074   6.244   3.618   4.831
10059SOL     OW31075   0.477   1.651   6.928
10059SOL    HW131076   0.395   1.697   6.893
10059SOL    HW231077   0.450   1.565   6.972
10060SOL     OW31078   2.407   2.713   2.611
10060SOL    HW131079   2.353   2.765   2.677
10060SOL    HW231080   2.386   2.746   2.519
10061SOL     OW31081   4.621   1.330   3.784
10061SOL    HW131082   4.595   1.271   3.860
10061SOL    HW231083   4.650   1.419   3.819
10062SOL     OW31084   6.741   0.672   4.398
10062SOL    HW131085   6.700   0.708   4.315
10062SOL    HW231086   6.779   0.582   4.380
10063SOL     OW31087   3.185   1.362   4.372
10063SOL    HW131088   3.135   1.448   4.375
10063SOL    HW231089   3.223   1.349   4.280
10064SOL     OW31090   5.019   6.657   6.997
10064SOL    HW131091   4.985   6.663   6.904
10064SOL    HW231092   4.970   6.723   0.031
10065SOL     OW31093   2.452   0.914   2.207
10065SOL    HW131094   2.408   0.955   2.127
10065SOL    HW231095   2.427   0.818   2.213
10066SOL     OW31096   0.265   3.178   4.801
10066SOL    HW131097   0.305   3.133   4.722
10066SOL    HW231098   0.321   3.257   4.827
10067SOL     OW31099   0.125   3.553   5.928
10067SOL    HW131100   0.101   3.591   6.017
10067SOL    HW231101   0.113   3.454   5.929
10068SOL     OW31102   0.912   3.424   3.247
10068SOL    HW131103   0.834   3.379   3.205
10068SOL    HW231104   0.901   3.523   3.241
10069SOL     OW31105   3.156   5.124   1.833
10069SOL    HW131106   3.067   5.170   1.838
10069SOL    HW231107   3.198   5.124   1.923
10070SOL     OW31108   0.135   6.047   5.407
10070SOL    HW131109   0.064   6.001   5.461
10070SOL    HW231110   0.093   6.107   5.339
10071SOL     OW31111   0.745   6.756   4.400
10071SOL    HW131112   0.662   6.810   4.410
10071SOL    HW231113   0.764   6.708   4.486
10072SOL     OW31114   0.438   0.898   3.916
10072SOL    HW131115   0.395   0.812   3.892
10072SOL    HW231116   0.374   0.954   3.968
10073SOL     OW31117   0.265   4.333   3.678
10073SOL    HW131118   0.343   4.271   3.667
10073SOL    HW231119   0.278   4.413   3.620
10074SOL     OW31120   2.566   6.413   6.388
10074SOL    HW131121   2.539   6.348   6.316
10074SOL    HW231122   2.567   6.366   6.476
10075SOL     OW31123   1.327   1.799   1.804
10075SOL    HW131124   1.427   1.807   1.803
10075SOL    HW231125   1.299   1.728   1.739
10076SOL     OW31126   4.945   6.294   3.053
10076SOL    HW131127   4.920   6.226   3.121
10076SOL    HW231128   4.972   6.379   3.098
10077SOL     OW31129   4.203   2.879   0.770
10077SOL    HW131130   4.138   2.803   0.763
10077SOL    HW231131   4.225   2.895   0.866
10078SOL     OW31132   6.399   5.949   4.740
10078SOL    HW131133   6.490   5.909   4.732
10078SOL    HW231134   6.330   5.879   4.719
10079SOL     OW31135   6.405   2.998   2.487
10079SOL    HW131136   6.400   2.902   2.515
10079SOL    HW231137   6.337   3.051   2.539
10080SOL     OW31138   5.043   1.660   6.131
10080SOL    HW131139   5.059   1.733   6.197
10080SOL    HW231140   5.131   1.625   6.097
10081SOL     OW31141   0.933   1.673   0.101
10081SOL    HW131142   0.900   1.587   0.063
10081SOL    HW231143   1.014   1.704   0.051
10082SOL     OW31144   0.890   5.545   2.598
10082SOL    HW131145   0.850   5.562   2.688
10082SOL    HW231146   0.821   5.561   2.527
10083SOL     OW31147   3.294   6.962   3.686
10083SOL    HW131148   3.349   6.889   3.727
10083SOL    HW231149   3.200   6.955   3.719
10084SOL     OW31150   0.608   6.908   5.211
10084SOL    HW131151   0.700   6.939   5.188
10084SOL    HW231152   0.598   6.812   5.185
10085SOL     OW31153   3.898   0.355   0.917
10085SOL    HW131154   3.975   0.312   0.869
10085SOL    HW231155   3.822   0.369   0.853
10086SOL     OW31156   6.024   6.638   3.061
10086SOL    HW131157   5.977   6.627   2.973
10086SOL    HW231158   5.956   6.633   3.134
10087SOL     OW31159   6.238   5.959   4.048
10087SOL    HW131160   6.249   6.056   4.073
10087SOL    HW231161   6.230   5.951   3.949
10088SOL     OW31162   6.981   0.230   1.572
10088SOL    HW131163   0.036   0.268   1.524
10088SOL    HW231164   7.012   0.162   1.639
10089SOL     OW31165   3.263   1.659   3.041
10089SOL    HW131166   3.209   1.719   3.099
10089SOL    HW231167   3.225   1.658   2.949
10090SOL     OW31168   0.616   5.086   2.286
10090SOL    HW131169   0.641   5.016   2.220
10090SOL    HW231170   0.516   5.098   2.285
10091SOL     OW31171   6.927   5.732   6.612
10091SOL    HW131172   6.958   5.697   6.700
10091SOL    HW231173   7.000   5.785   6.570
10092SOL     OW31174   0.678   3.284   5.958
10092SOL    HW131175   0.701   3.187   5.966
10092SOL    HW231176   0.599   3.295   5.897
10093SOL     OW31177   5.069   3.525   5.102
10093SOL    HW131178   5.142   3.551   5.039
10093SOL    HW231179   4.981   3.546   5.061
10094SOL     OW31180   2.534   6.370   0.944
10094SOL    HW131181   2.558   6.274   0.928
10094SOL    HW231182   2.591   6.407   1.017
10095SOL     OW31183   5.521   1.761   4.244
10095SOL    HW131184   5.549   1.777   4.339
10095SOL    HW231185   5.583   1.696   4.201
10096SOL     OW31186   4.723   0.597   3.122
10096SOL    HW131187   4.682   0.601   3.031
10096SOL    HW231188   4.672   0.531   3.178
10097SOL     OW31189   2.179   1.942   6.541
10097SOL    HW131190   2.209   1.894   6.459
10097SOL    HW231191   2.095   1.993   6.520
10098SOL     OW31192   2.800   6.615   4.961
10098SOL    HW131193   2.821   6.702   4.918
10098SOL    HW231194   2.852   6.605   5.045
10099SOL     OW31195   6.763   4.715   1.885
10099SOL    HW131196   6.702   4.643   1.851
10099SOL    HW231197   6.833   4.674   1.945
10100SOL     OW31198   5.451   6.052   5.804
10100SOL    HW131199   5.451   6.119   5.729
10100SOL    HW231200   5.538   6.056   5.852
10101SOL     OW31201   6.414   3.036   1.530
10101SOL    HW131202   6.434   2.967   1.460
10101SOL    HW231203   6.392   2.990   1.616
10102SOL     OW31204   6.980   0.292   1.221
10102SOL    HW131205   0.024   0.273   1.292
10102SOL    HW231206   6.906   0.347   1.260
10103SOL     OW31207   1.616   0.175   4.975
10103SOL    HW131208   1.627   0.109   4.901
10103SOL    HW231209   1.697   0.175   5.033
10104SOL     OW31210   1.502   0.888   5.982
10104SOL    HW131211   1.592   0.909   6.022
10104SOL    HW231212   1.434   0.881   6.054
10105SOL     OW31213   1.695   0.530   5.713
10105SOL    HW131214   1.731   0.623   5.717
10105SOL    HW231215   1.751   0.470   5.770
10106SOL     OW31216   3.991   6.611   0.705
10106SOL    HW131217   4.043   6.624   0.790
10106SOL    HW231218   3.985   6.514   0.684
10107SOL     OW31219   5.448   1.822   6.006
10107SOL    HW131220   5.527   1.817   5.946
10107SOL    HW231221   5.468   1.884   6.082
10108SOL     OW31222   0.782   2.415   0.288
10108SOL    HW131223   0.739   2.465   0.213
10108SOL    HW231224   0.807   2.323   0.257
10109SOL     OW31225   0.755   1.201   0.763
10109SOL    HW131226   0.836   1.240   0.807
10109SOL    HW231227   0.716   1.268   0.700
10110SOL     OW31228   4.466   4.795   3.718
10110SOL    HW131229   4.539   4.737   3.753
10110SOL    HW231230   4.467   4.883   3.766
10111SOL     OW31231   0.355   3.325   3.362
10111SOL    HW131232   0.270   3.370   3.392
10111SOL    HW231233   0.393   3.375   3.284
10112SOL     OW31234   5.537   3.601   2.801
10112SOL    HW131235   5.626   3.637   2.775
10112SOL    HW231236   5.491   3.664   2.864
10113SOL     OW31237   4.212   0.018   0.671
10113SOL    HW131238   4.242   6.948   0.687
10113SOL    HW231239   4.288   0.072   0.636
10114SOL     OW31240   4.029   2.208   3.290
10114SOL    HW131241   3.956   2.229   3.226
10114SOL    HW231242   4.118   2.221   3.244
10115SOL     OW31243   3.728   1.758   5.211
10115SOL    HW131244   3.693   1.695   5.281
10115SOL    HW231245   3.658   1.825   5.188
10116SOL     OW31246   6.793   0.168   6.194
10116SOL    HW131247   6.840   0.101   6.252
10116SOL    HW231248   6.696   0.172   6.219
10117SOL     OW31249   6.900   6.538   5.734
10117SOL    HW131250   6.980   6.534   5.794
10117SOL    HW231251   6.823   6.492   5.778
10118SOL     OW31252   2.840   4.741   4.129
10118SOL    HW131253   2.887   4.780   4.049
10118SOL    HW231254   2.757   4.694   4.099
10119SOL     OW31255   6.353   5.167   4.328
10119SOL    HW131256   6.398   5.254   4.310
10119SOL    HW231257   6.299   5.175   4.412
10120SOL     OW31258   1.629   3.200   3.744
10120SOL    HW131259   1.690   3.279   3.736
10120SOL    HW231260   1.615   3.178   3.840
10121SOL     OW31261   5.914   4.388   1.224
10121SOL    HW131262   5.884   4.307   1.276
10121SOL    HW231263   5.890   4.377   1.128
10122SOL     OW31264   6.251   2.642   3.689
10122SOL    HW131265   6.205   2.618   3.774
10122SOL    HW231266   6.188   2.627   3.612
10123SOL     OW31267   5.936   6.698   0.864
10123SOL    HW131268   5.890   6.673   0.778
10123SOL    HW231269   6.034   6.708   0.847
10124SOL     OW31270   1.067   5.274   1.109
10124SOL    HW131271   1.058   5.286   1.010
10124SOL    HW231272   1.117   5.189   1.128
10125SOL     OW31273   2.810   1.777   0.969
10125SOL    HW131274   2.907   1.800   0.960
10125SOL    HW231275   2.800   1.678   0.976
10126SOL     OW31276   6.529   0.120   6.243
10126SOL    HW131277   6.559   0.024   6.241
10126SOL    HW231278   6.490   0.144   6.155
10127SOL     OW31279   1.955   4.185   6.586
10127SOL    HW131280   1.956   4.245   6.666
10127SOL    HW231281   1.868   4.135   6.584
10128SOL     OW31282   2.961   0.896   6.111
10128SOL    HW131283   3.049   0.942   6.129
10128SOL    HW231284   2.957   0.871   6.014
10129SOL     OW31285   0.317   1.737   1.821
10129SOL    HW131286   0.355   1.825   1.848
10129SOL    HW231287   0.229   1.750   1.776
10130SOL     OW31288   0.748   2.957   1.738
10130SOL    HW131289   0.844   2.957   1.708
10130SOL    HW231290   0.696   3.020   1.681
10131SOL     OW31291   1.376   0.682   4.291
10131SOL    HW131292   1.334   0.712   4.205
10131SOL    HW231293   1.339   0.736   4.367
10132SOL     OW31294   1.288   0.309   2.712
10132SOL    HW131295   1.286   0.381   2.642
10132SOL    HW231296   1.340   0.341   2.791
10133SOL     OW31297   4.477   6.427   0.966
10133SOL    HW131298   4.543   6.401   0.895
10133SOL    HW231299   4.467   6.526   0.967
10134SOL     OW31300   6.818   1.786   3.238
10134SOL    HW131301   6.815   1.713   3.170
10134SOL    HW231302   6.760   1.862   3.209
10135SOL     OW31303   5.183   1.751   3.115
10135SOL    HW131304   5.141   1.764   3.025
10135SOL    HW231305   5.156   1.826   3.175
10136SOL     OW31306   5.340   2.173   2.658
10136SOL    HW131307   5.417   2.202   2.601
10136SOL    HW231308   5.304   2.251   2.708
10137SOL     OW31309   0.319   4.860   6.381
10137SOL    HW131310   0.287   4.905   6.298
10137SOL    HW231311   0.399   4.909   6.417
10138SOL     OW31312   5.180   2.035   0.336
10138SOL    HW131313   5.263   2.088   0.319
10138SOL    HW231314   5.189   1.944   0.295
10139SOL     OW31315   3.589   3.446   4.773
10139SOL    HW131316   3.516   3.427   4.707
10139SOL    HW231317   3.649   3.366   4.781
10140SOL     OW31318   6.908   6.259   6.020
10140SOL    HW131319   7.000   6.219   6.031
10140SOL    HW231320   6.883   6.309   6.103
10141SOL     OW31321   4.567   1.047   3.663
10141SOL    HW131322   4.556   1.112   3.738
10141SOL    HW231323   4.528   1.085   3.580
10142SOL     OW31324   6.507   6.440   5.685
10142SOL    HW131325   6.539   6.464   5.593
10142SOL    HW231326   6.585   6.432   5.746
10143SOL     OW31327   5.467   2.604   0.446
10143SOL    HW131328   5.477   2.621   0.348
10143SOL    HW231329   5.411   2.675   0.487
10144SOL     OW31330   4.325   6.947   5.447
10144SOL    HW131331   4.244   7.006   5.453
10144SOL    HW231332   4.403   7.001   5.415
10145SOL     OW31333   4.051   5.866   3.077
10145SOL    HW131334   4.032   5.935   3.146
10145SOL    HW231335   3.979   5.797   3.078
10146SOL     OW31336   6.951   4.701   4.683
10146SOL    HW131337   6.876   4.689   4.618
10146SOL    HW231338   6.973   4.613   4.724
10147SOL     OW31339   4.974   4.690   6.794
10147SOL    HW131340   4.894   4.750   6.797
10147SOL    HW231341   4.984   4.653   6.701
10148SOL     OW31342   5.768   4.149   1.303
10148SOL    HW131343   5.766   4.105   1.214
10148SOL    HW231344   5.723   4.091   1.371
10149SOL     OW31345   5.188   5.011   1.517
10149SOL    HW131346   5.253   4.976   1.584
10149SOL    HW231347   5.203   4.967   1.429
10150SOL     OW31348   5.271   3.376   1.823
10150SOL    HW131349   5.246   3.283   1.851
10150SOL    HW231350   5.307   3.373   1.729
10151SOL     OW31351   0.767   6.618   5.715
10151SOL    HW131352   0.817   6.671   5.647
10151SOL    HW231353   0.831   6.567   5.772
10152SOL     OW31354   6.140   5.577   3.489
10152SOL    HW131355   6.212   5.631   3.446
10152SOL    HW231356   6.105   5.624   3.570
10153SOL     OW31357   4.392   6.013   3.863
10153SOL    HW131358   4.328   6.057   3.799
10153SOL    HW231359   4.430   6.081   3.925
10154SOL     OW31360   3.559   5.646   6.484
10154SOL    HW131361   3.499   5.614   6.411
10154SOL    HW231362   3.598   5.566   6.531
10155SOL     OW31363   5.218   2.434   5.470
10155SOL    HW131364   5.218   2.519   5.417
10155SOL    HW231365   5.198   2.455   5.566
10156SOL     OW31366   4.605   0.560   1.016
10156SOL    HW131367   4.545   0.504   0.960
10156SOL    HW231368   4.645   0.633   0.961
10157SOL     OW31369   0.223   2.064   0.349
10157SOL    HW131370   0.127   2.067   0.324
10157SOL    HW231371   0.235   2.008   0.431
10158SOL     OW31372   6.000   6.506   2.444
10158SOL    HW131373   5.907   6.496   2.480
10158SOL    HW231374   6.064   6.459   2.505
10159SOL     OW31375   4.110   3.654   2.896
10159SOL    HW131376   4.011   3.659   2.906
10159SOL    HW231377   4.153   3.688   2.980
10160SOL     OW31378   1.571   4.323   3.277
10160SOL    HW131379   1.598   4.346   3.184
10160SOL    HW231380   1.651   4.294   3.329
10161SOL     OW31381   3.680   4.782   6.832
10161SOL    HW131382   3.666   4.880   6.826
10161SOL    HW231383   3.670   4.752   6.928
10162SOL     OW31384   2.583   4.501   1.174
10162SOL    HW131385   2.486   4.483   1.158
10162SOL    HW231386   2.632   4.501   1.087
10163SOL     OW31387   1.009   5.651   6.292
10163SOL    HW131388   1.054   5.741   6.290
10163SOL    HW231389   1.051   5.591   6.224
10164SOL     OW31390   6.194   3.698   3.572
10164SOL    HW131391   6.210   3.664   3.664
10164SOL    HW231392   6.110   3.658   3.536
10165SOL     OW31393   6.328   2.212   3.829
10165SOL    HW131394   6.231   2.198   3.851
10165SOL    HW231395   6.355   2.305   3.856
10166SOL     OW31396   1.199   3.159   1.094
10166SOL    HW131397   1.107   3.141   1.061
10166SOL    HW231398   1.231   3.247   1.058
10167SOL     OW31399   0.246   5.442   0.139
10167SOL    HW131400   0.309   5.492   0.199
10167SOL    HW231401   0.291   5.358   0.106
10168SOL     OW31402   6.402   1.396   5.813
10168SOL    HW131403   6.369   1.468   5.875
10168SOL    HW231404   6.501   1.388   5.821
10169SOL     OW31405   6.661   3.806   3.074
10169SOL    HW131406   6.741   3.861   3.052
10169SOL    HW231407   6.667   3.718   3.027
10170SOL     OW31408   6.315   5.207   6.508
10170SOL    HW131409   6.386   5.148   6.468
10170SOL    HW231410   6.352   5.299   6.519
10171SOL     OW31411   0.800   2.789   5.591
10171SOL    HW131412   0.810   2.775   5.492
10171SOL    HW231413   0.709   2.760   5.619
10172SOL     OW31414   0.272   6.992   4.588
10172SOL    HW131415   0.334   6.974   4.664
10172SOL    HW231416   0.326   7.022   4.509
10173SOL     OW31417   2.547   3.777   6.941
10173SOL    HW131418   2.626   3.812   6.890
10173SOL    HW231419   2.568   3.778   0.015
10174SOL     OW31420   4.442   5.105   3.741
10174SOL    HW131421   4.505   5.165   3.691
10174SOL    HW231422   4.386   5.159   3.803
10175SOL     OW31423   6.831   1.801   3.537
10175SOL    HW131424   6.896   1.873   3.562
10175SOL    HW231425   6.782   1.828   3.454
10176SOL     OW31426   6.030   4.112   5.569
10176SOL    HW131427   6.075   4.041   5.624
10176SOL    HW231428   6.079   4.124   5.483
10177SOL     OW31429   1.845   7.014   1.150
10177SOL    HW131430   1.784   0.005   1.072
10177SOL    HW231431   1.791   7.002   1.233
10178SOL     OW31432   1.434   1.318   0.589
10178SOL    HW131433   1.427   1.253   0.665
10178SOL    HW231434   1.454   1.409   0.625
10179SOL     OW31435   0.229   4.030   6.870
10179SOL    HW131436   0.163   4.092   6.912
10179SOL    HW231437   0.195   4.001   6.780
10180SOL     OW31438   4.121   0.630   0.076
10180SOL    HW131439   4.098   0.556   0.140
10180SOL    HW231440   4.042   0.690   0.066
10181SOL     OW31441   0.041   3.136   1.540
10181SOL    HW131442   0.058   3.051   1.588
10181SOL    HW231443   0.020   3.208   1.605
10182SOL     OW31444   5.020   1.351   0.001
10182SOL    HW131445   4.999   1.351   6.927
10182SOL    HW231446   5.101   1.408   0.017
10183SOL     OW31447   5.959   2.844   6.050
10183SOL    HW131448   5.930   2.770   6.111
10183SOL    HW231449   5.911   2.928   6.075
10184SOL     OW31450   5.734   3.048   6.663
10184SOL    HW131451   5.636   3.037   6.679
10184SOL    HW231452   5.751   3.137   6.621
10185SOL     OW31453   4.825   6.369   2.619
10185SOL    HW131454   4.784   6.336   2.704
10185SOL    HW231455   4.861   6.292   2.567
10186SOL     OW31456   4.941   3.664   4.782
10186SOL    HW131457   5.019   3.713   4.821
10186SOL    HW231458   4.904   3.601   4.850
10187SOL     OW31459   1.765   4.011   5.460
10187SOL    HW131460   1.778   4.013   5.361
10187SOL    HW231461   1.673   3.979   5.482
10188SOL     OW31462   3.246   5.493   6.933
10188SOL    HW131463   3.322   5.486   6.998
10188SOL    HW231464   3.269   5.559   6.862
10189SOL     OW31465   1.701   0.835   6.527
10189SOL    HW131466   1.677   0.793   6.439
10189SOL    HW231467   1.634   0.807   6.596
10190SOL     OW31468   3.611   2.957   1.231
10190SOL    HW131469   3.531   2.991   1.281
10190SOL    HW231470   3.627   3.016   1.151
10191SOL     OW31471   5.890   6.249   1.154
10191SOL    HW131472   5.938   6.281   1.072
10191SOL    HW231473   5.848   6.160   1.135
10192SOL     OW31474   2.732   1.993   4.598
10192SOL    HW131475   2.717   2.047   4.680
10192SOL    HW231476   2.826   1.960   4.595
10193SOL     OW31477   2.926   3.699   2.339
10193SOL    HW131478   2.831   3.728   2.351
10193SOL    HW231479   2.930   3.599   2.338
10194SOL     OW31480   4.008   0.060   4.735
10194SOL    HW131481   3.965   0.148   4.712
10194SOL    HW231482   4.087   0.077   4.795
10195SOL     OW31483   0.126   6.976   1.474
10195SOL    HW131484   0.210   6.949   1.427
10195SOL    HW231485   0.136   6.960   1.573
10196SOL     OW31486   5.626   1.871   3.427
10196SOL    HW131487   5.622   1.816   3.511
10196SOL    HW231488   5.599   1.815   3.349
10197SOL     OW31489   5.396   1.210   4.237
10197SOL    HW131490   5.478   1.194   4.181
10197SOL    HW231491   5.401   1.302   4.277
10198SOL     OW31492   3.412   6.837   0.860
10198SOL    HW131493   3.319   6.803   0.847
10198SOL    HW231494   3.413   6.936   0.846
10199SOL     OW31495   0.657   1.458   6.468
10199SOL    HW131496   0.684   1.414   6.553
10199SOL    HW231497   0.620   1.549   6.489
10200SOL     OW31498   4.873   3.080   5.029
10200SOL    HW131499   4.879   3.152   5.098
10200SOL    HW231500   4.901   2.993   5.069
10201SOL     OW31501   0.635   6.352   1.194
10201SOL    HW131502   0.543   6.381   1.222
10201SOL    HW231503   0.687   6.432   1.162
10202SOL     OW31504   1.464   3.507   0.373
10202SOL    HW131505   1.557   3.500   0.337
10202SOL    HW231506   1.457   3.589   0.430
10203SOL     OW31507   1.335   2.898   1.847
10203SOL    HW131508   1.422   2.859   1.817
10203SOL    HW231509   1.305   2.853   1.931
10204SOL     OW31510   3.709   4.996   6.571
10204SOL    HW131511   3.699   5.020   6.667
10204SOL    HW231512   3.730   5.077   6.517
10205SOL     OW31513   3.677   1.084   2.912
10205SOL    HW131514   3.771   1.053   2.929
10205SOL    HW231515   3.672   1.183   2.923
10206SOL     OW31516   4.954   6.430   6.251
10206SOL    HW131517   4.913   6.342   6.230
10206SOL    HW231518   4.976   6.434   6.348
10207SOL     OW31519   2.005   0.772   0.750
10207SOL    HW131520   2.061   0.791   0.669
10207SOL    HW231521   1.980   0.858   0.794
10208SOL     OW31522   6.336   4.937   4.563
10208SOL    HW131523   6.434   4.953   4.573
10208SOL    HW231524   6.287   5.023   4.574
10209SOL     OW31525   0.720   0.977   5.457
10209SOL    HW131526   0.662   1.031   5.519
10209SOL    HW231527   0.689   0.882   5.458
10210SOL     OW31528   4.964   0.375   1.499
10210SOL    HW131529   4.983   0.358   1.596
10210SOL    HW231530   4.865   0.378   1.485
10211SOL     OW31531   4.553   6.295   5.902
10211SOL    HW131532   4.582   6.390   5.912
10211SOL    HW231533   4.582   6.242   5.982
10212SOL     OW31534   0.295   1.466   4.514
10212SOL    HW131535   0.249   1.379   4.493
10212SOL    HW231536   0.345   1.497   4.434
10213SOL     OW31537   6.639   1.631   2.463
10213SOL    HW131538   6.677   1.558   2.520
10213SOL    HW231539   6.682   1.718   2.488
10214SOL     OW31540   1.176   2.035   2.246
10214SOL    HW131541   1.268   1.997   2.254
10214SOL    HW231542   1.122   1.981   2.181
10215SOL     OW31543   3.334   2.885   4.675
10215SOL    HW131544   3.300   2.885   4.769
10215SOL    HW231545   3.307   2.970   4.630
10216SOL     OW31546   0.093   0.277   0.493
10216SOL    HW131547   0.193   0.271   0.496
10216SOL    HW231548   0.065   0.330   0.412
10217SOL     OW31549   2.618   1.370   3.697
10217SOL    HW131550   2.619   1.282   3.744
10217SOL    HW231551   2.704   1.381   3.647
10218SOL     OW31552   1.190   0.535   1.258
10218SOL    HW131553   1.169   0.536   1.356
10218SOL    HW231554   1.254   0.609   1.237
10219SOL     OW31555   0.493   3.212   2.190
10219SOL    HW131556   0.551   3.176   2.117
10219SOL    HW231557   0.538   3.198   2.279
10220SOL     OW31558   4.187   1.464   2.434
10220SOL    HW131559   4.205   1.560   2.455
10220SOL    HW231560   4.154   1.418   2.517
10221SOL     OW31561   1.464   1.950   3.444
10221SOL    HW131562   1.425   1.990   3.361
10221SOL    HW231563   1.390   1.910   3.499
10222SOL     OW31564   1.595   3.176   6.011
10222SOL    HW131565   1.563   3.122   5.933
10222SOL    HW231566   1.691   3.154   6.030
10223SOL     OW31567   1.715   6.296   6.816
10223SOL    HW131568   1.678   6.388   6.812
10223SOL    HW231569   1.693   6.248   6.731
10224SOL     OW31570   6.833   1.218   4.932
10224SOL    HW131571   6.770   1.236   4.857
10224SOL    HW231572   6.921   1.188   4.895
10225SOL     OW31573   1.653   6.093   5.615
10225SOL    HW131574   1.621   6.180   5.576
10225SOL    HW231575   1.658   6.101   5.715
10226SOL     OW31576   2.681   6.933   6.828
10226SOL    HW131577   2.708   7.013   6.881
10226SOL    HW231578   2.760   6.900   6.775
10227SOL     OW31579   4.655   4.658   0.851
10227SOL    HW131580   4.602   4.575   0.831
10227SOL    HW231581   4.726   4.636   0.918
10228SOL     OW31582   1.335   5.831   2.220
10228SOL    HW131583   1.359   5.859   2.127
10228SOL    HW231584   1.241   5.796   2.221
10229SOL     OW31585   0.643   1.284   4.100
10229SOL    HW131586   0.702   1.350   4.147
10229SOL    HW231587   0.630   1.312   4.005
10230SOL     OW31588   6.770   6.659   3.935
10230SOL    HW131589   6.834   6.717   3.985
10230SOL    HW231590   6.767   6.688   3.839
10231SOL     OW31591   7.020   6.038   5.678
10231SOL    HW131592   0.083   6.085   5.661
10231SOL    HW231593   6.953   6.066   5.610
10232SOL     OW31594   2.719   1.092   4.098
10232SOL    HW131595   2.802   1.149   4.101
10232SOL    HW231596   2.744   0.998   4.076
10233SOL     OW31597   5.454   3.516   5.216
10233SOL    HW131598   5.383   3.578   5.249
10233SOL    HW231599   5.416   3.424   5.204
10234SOL     OW31600   5.093   1.050   1.133
10234SOL    HW131601   5.090   1.082   1.228
10234SOL    HW231602   5.172   0.991   1.120
10235SOL     OW31603   4.506   2.293   0.286
10235SOL    HW131604   4.520   2.201   0.325
10235SOL    HW231605   4.589   2.321   0.237
10236SOL     OW31606   2.024   6.889   2.146
10236SOL    HW131607   1.984   6.882   2.237
10236SOL    HW231608   2.031   6.798   2.105
10237SOL     OW31609   5.831   3.784   1.279
10237SOL    HW131610   5.768   3.845   1.327
10237SOL    HW231611   5.916   3.833   1.260
10238SOL     OW31612   3.365   4.135   3.945
10238SOL    HW131613   3.266   4.122   3.939
10238SOL    HW231614   3.393   4.133   4.041
10239SOL     OW31615   1.567   4.154   4.980
10239SOL    HW131616   1.482   4.163   4.927
10239SOL    HW231617   1.570   4.064   5.023
10240SOL     OW31618   1.891   5.069   3.250
10240SOL    HW131619   1.817   5.107   3.305
10240SOL    HW231620   1.953   5.142   3.221
10241SOL     OW31621   0.322   0.211   1.868
10241SOL    HW131622   0.418   0.189   1.848
10241SOL    HW231623   0.311   0.229   1.966
10242SOL     OW31624   6.500   1.408   6.672
10242SOL    HW131625   6.416   1.442   6.713
10242SOL    HW231626   6.487   1.398   6.573
10243SOL     OW31627   0.450   5.463   0.988
10243SOL    HW131628   0.548   5.470   0.969
10243SOL    HW231629   0.417   5.551   1.022
10244SOL     OW31630   1.912   5.095   0.351
10244SOL    HW131631   1.891   5.004   0.314
10244SOL    HW231632   1.949   5.152   0.277
10245SOL     OW31633   3.475   4.694   0.118
10245SOL    HW131634   3.520   4.717   0.205
10245SOL    HW231635   3.450   4.778   0.070
10246SOL     OW31636   2.920   3.702   3.879
10246SOL    HW131637   2.876   3.625   3.927
10246SOL    HW231638   2.978   3.667   3.806
10247SOL     OW31639   0.441   5.415   4.811
10247SOL    HW131640   0.375   5.387   4.742
10247SOL    HW231641   0.456   5.513   4.807
10248SOL     OW31642   3.451   6.555   2.299
10248SOL    HW131643   3.392   6.541   2.378
10248SOL    HW231644   3.400   6.535   2.216
10249SOL     OW31645   3.216   1.082   5.885
10249SOL    HW131646   3.307   1.097   5.846
10249SOL    HW231647   3.164   1.021   5.826
10250SOL     OW31648   6.489   1.886   1.016
10250SOL    HW131649   6.420   1.864   0.946
10250SOL    HW231650   6.448   1.879   1.107
10251SOL     OW31651   2.798   2.281   4.985
10251SOL    HW131652   2.761   2.342   5.055
10251SOL    HW231653   2.897   2.274   4.996
10252SOL     OW31654   6.311   6.107   0.376
10252SOL    HW131655   6.276   6.069   0.290
10252SOL    HW231656   6.411   6.113   0.371
10253SOL     OW31657   5.559   6.048   0.592
10253SOL    HW131658   5.471   6.056   0.638
10253SOL    HW231659   5.578   6.131   0.540
10254SOL     OW31660   4.002   1.764   5.280
10254SOL    HW131661   4.047   1.827   5.218
10254SOL    HW231662   3.905   1.790   5.290
10255SOL     OW31663   2.258   5.325   1.538
10255SOL    HW131664   2.232   5.326   1.442
10255SOL    HW231665   2.335   5.263   1.552
10256SOL     OW31666   5.703   0.617   1.583
10256SOL    HW131667   5.655   0.597   1.669
10256SOL    HW231668   5.763   0.696   1.596
10257SOL     OW31669   2.027   5.313   4.160
10257SOL    HW131670   2.099   5.342   4.223
10257SOL    HW231671   1.948   5.281   4.212
10258SOL     OW31672   4.866   0.169   4.212
10258SOL    HW131673   4.918   0.248   4.244
10258SOL    HW231674   4.870   0.163   4.113
10259SOL     OW31675   1.006   4.969   3.215
10259SOL    HW131676   1.029   4.910   3.293
10259SOL    HW231677   0.948   5.044   3.247
10260SOL     OW31678   0.578   0.410   2.976
10260SOL    HW131679   0.520   0.386   3.054
10260SOL    HW231680   0.604   0.507   2.982
10261SOL     OW31681   6.791   5.979   3.021
10261SOL    HW131682   6.839   5.932   3.096
10261SOL    HW231683   6.733   5.913   2.972
10262SOL     OW31684   2.513   6.395   4.391
10262SOL    HW131685   2.559   6.472   4.437
10262SOL    HW231686   2.419   6.422   4.369
10263SOL     OW31687   4.831   1.325   6.426
10263SOL    HW131688   4.822   1.229   6.453
10263SOL    HW231689   4.924   1.342   6.394
10264SOL     OW31690   5.510   1.952   6.846
10264SOL    HW131691   5.545   2.046   6.848
10264SOL    HW231692   5.456   1.935   6.928
10265SOL     OW31693   3.291   2.005   3.031
10265SOL    HW131694   3.356   1.953   2.975
10265SOL    HW231695   3.244   2.072   2.974
10266SOL     OW31696   3.315   2.813   5.196
10266SOL    HW131697   3.362   2.807   5.284
10266SOL    HW231698   3.289   2.721   5.166
10267SOL     OW31699   5.849   1.944   6.579
10267SOL    HW131700   5.762   1.993   6.571
10267SOL    HW231701   5.837   1.850   6.548
10268SOL     OW31702   4.240   5.839   2.218
10268SOL    HW131703   4.247   5.891   2.132
10268SOL    HW231704   4.173   5.883   2.277
10269SOL     OW31705   1.337   2.127   5.107
10269SOL    HW131706   1.396   2.190   5.157
10269SOL    HW231707   1.390   2.045   5.082
10270SOL     OW31708   2.478   5.318   3.017
10270SOL    HW131709   2.515   5.389   3.076
10270SOL    HW231710   2.447   5.240   3.072
10271SOL     OW31711   4.176   2.844   0.314
10271SOL    HW131712   4.164   2.937   0.279
10271SOL    HW231713   4.196   2.782   0.238
10272SOL     OW31714   0.430   0.066   4.391
10272SOL    HW131715   0.456   0.162   4.389
10272SOL    HW231716   0.444   0.027   4.300
10273SOL     OW31717   4.731   5.186   3.373
10273SOL    HW131718   4.815   5.154   3.329
10273SOL    HW231719   4.653   5.166   3.313
10274SOL     OW31720   0.932   4.018   4.787
10274SOL    HW131721   0.960   4.029   4.692
10274SOL    HW231722   0.972   3.934   4.824
10275SOL     OW31723   0.604   6.203   1.897
10275SOL    HW131724   0.672   6.276   1.908
10275SOL    HW231725   0.622   6.130   1.963
10276SOL     OW31726   5.723   5.721   5.859
10276SOL    HW131727   5.640   5.726   5.915
10276SOL    HW231728   5.767   5.811   5.857
10277SOL     OW31729   2.697   5.517   3.742
10277SOL    HW131730   2.658   5.609   3.750
10277SOL    HW231731   2.703   5.476   3.833
10278SOL     OW31732   5.938   1.176   4.466
10278SOL    HW131733   5.850   1.136   4.443
10278SOL    HW231734   5.962   1.153   4.561
10279SOL     OW31735   1.817   6.026   4.245
10279SOL    HW131736   1.817   6.121   4.214
10279SOL    HW231737   1.785   5.967   4.172
10280SOL     OW31738   1.856   3.414   1.253
10280SOL    HW131739   1.866   3.513   1.246
10280SOL    HW231740   1.799   3.391   1.331
10281SOL     OW31741   6.780   2.194   2.518
10281SOL    HW131742   6.748   2.205   2.612
10281SOL    HW231743   6.703   2.169   2.459
10282SOL     OW31744   6.275   4.418   4.360
10282SOL    HW131745   6.324   4.503   4.342
10282SOL    HW231746   6.329   4.361   4.422
10283SOL     OW31747   0.708   3.368   0.686
10283SOL    HW131748   0.658   3.295   0.639
10283SOL    HW231749   0.678   3.372   0.782
10284SOL     OW31750   4.979   3.932   5.415
10284SOL    HW131751   5.011   3.900   5.504
10284SOL    HW231752   4.935   3.857   5.366
10285SOL     OW31753   4.317   0.710   0.355
10285SOL    HW131754   4.382   0.786   0.355
10285SOL    HW231755   4.224   0.746   0.363
10286SOL     OW31756   3.163   2.197   4.172
10286SOL    HW131757   3.105   2.203   4.253
10286SOL    HW231758   3.255   2.169   4.199
10287SOL     OW31759   2.005   6.252   2.360
10287SOL    HW131760   2.074   6.302   2.308
10287SOL    HW231761   2.047   6.216   2.444
10288SOL     OW31762   4.953   6.482   2.191
10288SOL    HW131763   4.886   6.508   2.260
10288SOL    HW231764   4.990   6.391   2.213
10289SOL     OW31765   3.418   0.837   2.643
10289SOL    HW131766   3.434   0.934   2.658
10289SOL    HW231767   3.346   0.826   2.574
10290SOL     OW31768   3.410   4.113   2.169
10290SOL    HW131769   3.477   4.144   2.100
10290SOL    HW231770   3.325   4.087   2.123
10291SOL     OW31771   4.129   1.479   4.335
10291SOL    HW131772   4.069   1.413   4.291
10291SOL    HW231773   4.106   1.486   4.432
10292SOL     OW31774   0.939   1.296   4.594
10292SOL    HW131775   0.928   1.210   4.643
10292SOL    HW231776   0.925   1.281   4.496
10293SOL     OW31777   1.964   5.714   3.700
10293SOL    HW131778   1.944   5.735   3.795
10293SOL    HW231779   1.950   5.797   3.644
10294SOL     OW31780   4.845   3.953   2.616
10294SOL    HW131781   4.819   3.999   2.531
10294SOL    HW231782   4.858   3.855   2.599
10295SOL     OW31783   6.122   5.342   5.874
10295SOL    HW131784   6.132   5.427   5.925
10295SOL    HW231785   6.029   5.334   5.840
10296SOL     OW31786   4.921   2.896   6.572
10296SOL    HW131787   4.885   2.926   6.484
10296SOL    HW231788   4.881   2.807   6.596
10297SOL     OW31789   1.951   6.286   4.921
10297SOL    HW131790   1.881   6.223   4.954
10297SOL    HW231791   1.996   6.330   4.999
10298SOL     OW31792   3.990   4.818   2.522
10298SOL    HW131793   4.069   4.763   2.496
10298SOL    HW231794   3.922   4.815   2.448
10299SOL     OW31795   4.884   4.375   2.487
10299SOL    HW131796   4.861   4.351   2.393
10299SOL    HW231797   4.972   4.334   2.511
10300SOL     OW31798   1.956   4.801   2.858
10300SOL    HW131799   1.893   4.875   2.881
10300SOL    HW231800   1.908   4.731   2.805
10301SOL     OW31801   6.314   2.252   2.917
10301SOL    HW131802   6.244   2.200   2.966
10301SOL    HW231803   6.389   2.275   2.980
10302SOL     OW31804   0.356   6.228   3.968
10302SOL    HW131805   0.283   6.223   3.900
10302SOL    HW231806   0.365   6.140   4.013
10303SOL     OW31807   2.978   5.410   1.268
10303SOL    HW131808   2.986   5.458   1.180
10303SOL    HW231809   2.893   5.437   1.313
10304SOL     OW31810   5.379   0.776   3.019
10304SOL    HW131811   5.397   0.678   3.017
10304SOL    HW231812   5.373   0.807   3.114
10305SOL     OW31813   0.581   5.308   6.854
10305SOL    HW131814   0.626   5.394   6.878
10305SOL    HW231815   0.646   5.232   6.861
10306SOL     OW31816   4.716   6.415   6.694
10306SOL    HW131817   4.645   6.344   6.690
10306SOL    HW231818   4.767   6.407   6.779
10307SOL     OW31819   1.742   2.344   4.310
10307SOL    HW131820   1.822   2.377   4.361
10307SOL    HW231821   1.686   2.286   4.368
10308SOL     OW31822   2.619   5.005   3.719
10308SOL    HW131823   2.638   4.951   3.801
10308SOL    HW231824   2.521   5.027   3.716
10309SOL     OW31825   6.779   0.328   3.831
10309SOL    HW131826   6.824   0.264   3.894
10309SOL    HW231827   6.701   0.283   3.788
10310SOL     OW31828   4.073   2.699   1.627
10310SOL    HW131829   4.021   2.619   1.658
10310SOL    HW231830   4.022   2.745   1.553
10311SOL     OW31831   0.641   5.940   1.225
10311SOL    HW131832   0.606   5.975   1.312
10311SOL    HW231833   0.567   5.939   1.157
10312SOL     OW31834   2.947   5.493   0.997
10312SOL    HW131835   2.849   5.478   1.009
10312SOL    HW231836   2.971   5.586   1.023
10313SOL     OW31837   3.739   0.253   1.794
10313SOL    HW131838   3.677   0.188   1.749
10313SOL    HW231839   3.751   0.333   1.736
10314SOL     OW31840   6.487   0.563   1.744
10314SOL    HW131841   6.404   0.599   1.699
10314SOL    HW231842   6.464   0.530   1.835
10315SOL     OW31843   6.096   5.519   4.784
10315SOL    HW131844   6.074   5.440   4.725
10315SOL    HW231845   6.013   5.554   4.826
10316SOL     OW31846   6.336   3.060   5.047
10316SOL    HW131847   6.336   3.020   4.955
10316SOL    HW231848   6.384   2.999   5.110
10317SOL     OW31849   3.563   4.582   6.281
10317SOL    HW131850   3.565   4.644   6.358
10317SOL    HW231851   3.532   4.631   6.199
10318SOL     OW31852   5.574   5.776   0.646
10318SOL    HW131853   5.568   5.873   0.621
10318SOL    HW231854   5.661   5.740   0.613
10319SOL     OW31855   1.149   3.395   5.752
10319SOL    HW131856   1.244   3.425   5.757
10319SOL    HW231857   1.145   3.297   5.736
10320SOL     OW31858   0.835   0.695   0.760
10320SOL    HW131859   0.829   0.663   0.854
10320SOL    HW231860   0.916   0.753   0.749
10321SOL     OW31861   4.072   0.382   4.645
10321SOL    HW131862   3.995   0.445   4.637
10321SOL    HW231863   4.066   0.312   4.574
10322SOL     OW31864   6.283   5.707   0.057
10322SOL    HW131865   6.183   5.709   0.045
10322SOL    HW231866   6.311   5.783   0.115
10323SOL     OW31867   6.044   4.017   6.253
10323SOL    HW131868   6.043   3.930   6.304
10323SOL    HW231869   6.084   4.002   6.163
10324SOL     OW31870   3.347   2.911   3.091
10324SOL    HW131871   3.273   2.859   3.049
10324SOL    HW231872   3.327   2.927   3.188
10325SOL     OW31873   6.605   4.882   3.126
10325SOL    HW131874   6.611   4.944   3.048
10325SOL    HW231875   6.510   4.877   3.158
10326SOL     OW31876   4.535   2.768   6.992
10326SOL    HW131877   4.501   2.792   0.059
10326SOL    HW231878   4.458   2.762   6.928
10327SOL     OW31879   2.879   1.663   2.276
10327SOL    HW131880   2.867   1.587   2.340
10327SOL    HW231881   2.814   1.736   2.299
10328SOL     OW31882   6.266   3.434   1.286
10328SOL    HW131883   6.326   3.365   1.327
10328SOL    HW231884   6.205   3.471   1.357
10329SOL     OW31885   3.444   0.014   4.580
10329SOL    HW131886   3.518   7.014   4.517
10329SOL    HW231887   3.481   0.018   4.674
10330SOL     OW31888   3.155   5.744   2.839
10330SOL    HW131889   3.210   5.703   2.912
10330SOL    HW231890   3.187   5.710   2.751
10331SOL     OW31891   6.439   0.468   3.357
10331SOL    HW131892   6.395   0.392   3.405
10331SOL    HW231893   6.412   0.555   3.399
10332SOL     OW31894   5.816   1.380   0.656
10332SOL    HW131895   5.774   1.434   0.729
10332SOL    HW231896   5.882   1.316   0.695
10333SOL     OW31897   6.123   4.181   4.609
10333SOL    HW131898   6.074   4.267   4.593
10333SOL    HW231899   6.220   4.194   4.592
10334SOL     OW31900   2.425   5.854   3.350
10334SOL    HW131901   2.392   5.846   3.444
10334SOL    HW231902   2.431   5.950   3.325
10335SOL     OW31903   2.153   4.292   6.863
10335SOL    HW131904   2.207   4.283   6.947
10335SOL    HW231905   2.056   4.287   6.885
10336SOL     OW31906   5.469   6.920   3.223
10336SOL    HW131907   5.412   6.861   3.281
10336SOL    HW231908   5.520   6.864   3.158
10337SOL     OW31909   6.552   6.230   5.433
10337SOL    HW131910   6.512   6.268   5.349
10337SOL    HW231911   6.608   6.299   5.478
10338SOL     OW31912   3.121   6.630   1.054
10338SOL    HW131913   3.181   6.585   1.120
10338SOL    HW231914   3.092   6.565   0.985
10339SOL     OW31915   3.735   4.262   0.804
10339SOL    HW131916   3.712   4.182   0.749
10339SOL    HW231917   3.684   4.260   0.890
10340SOL     OW31918   1.376   5.621   0.150
10340SOL    HW131919   1.400   5.660   0.061
10340SOL    HW231920   1.326   5.535   0.137
10341SOL     OW31921   2.399   3.083   1.734
10341SOL    HW131922   2.498   3.095   1.727
10341SOL    HW231923   2.355   3.172   1.748
10342SOL     OW31924   2.618   5.689   5.591
10342SOL    HW131925   2.684   5.764   5.596
10342SOL    HW231926   2.541   5.708   5.652
10343SOL     OW31927   2.418   4.021   0.266
10343SOL    HW131928   2.402   4.064   0.177
10343SOL    HW231929   2.351   3.949   0.281
10344SOL     OW31930   3.981   3.922   3.372
10344SOL    HW131931   3.954   4.018   3.382
10344SOL    HW231932   4.017   3.907   3.280
10345SOL     OW31933   1.646   0.230   6.259
10345SOL    HW131934   1.638   0.234   6.160
10345SOL    HW231935   1.646   0.323   6.296
10346SOL     OW31936   6.080   0.613   1.424
10346SOL    HW131937   6.041   0.704   1.438
10346SOL    HW231938   6.119   0.608   1.332
10347SOL     OW31939   4.989   2.804   1.815
10347SOL    HW131940   4.962   2.899   1.827
10347SOL    HW231941   4.930   2.745   1.870
10348SOL     OW31942   6.976   1.254   6.432
10348SOL    HW131943   6.976   1.334   6.371
10348SOL    HW231944   7.011   1.175   6.382
10349SOL     OW31945   6.729   0.857   0.655
10349SOL    HW131946   6.643   0.857   0.707
10349SOL    HW231947   6.759   0.762   0.641
10350SOL     OW31948   3.112   6.153   5.075
10350SOL    HW131949   3.136   6.146   5.172
10350SOL    HW231950   3.018   6.186   5.065
10351SOL     OW31951   6.171   4.991   6.212
10351SOL    HW131952   6.256   4.939   6.205
10351SOL    HW231953   6.190   5.087   6.194
10352SOL     OW31954   5.466   2.229   6.584
10352SOL    HW131955   5.480   2.253   6.680
10352SOL    HW231956   5.451   2.312   6.530
10353SOL     OW31957   6.494   3.723   3.874
10353SOL    HW131958   6.572   3.726   3.937
10353SOL    HW231959   6.460   3.816   3.858
10354SOL     OW31960   0.859   3.102   1.303
10354SOL    HW131961   0.783   3.165   1.287
10354SOL    HW231962   0.823   3.015   1.338
10355SOL     OW31963   0.773   0.818   0.505
10355SOL    HW131964   0.859   0.868   0.515
10355SOL    HW231965   0.772   0.741   0.568
10356SOL     OW31966   6.865   3.415   5.895
10356SOL    HW131967   6.889   3.499   5.847
10356SOL    HW231968   6.939   3.390   5.958
10357SOL     OW31969   3.638   2.268   5.907
10357SOL    HW131970   3.625   2.171   5.885
10357SOL    HW231971   3.631   2.322   5.824
10358SOL     OW31972   0.997   3.175   3.494
10358SOL    HW131973   0.993   3.259   3.439
10358SOL    HW231974   1.091   3.162   3.527
10359SOL     OW31975   5.121   2.066   2.251
10359SOL    HW131976   5.087   2.133   2.185
10359SOL    HW231977   5.096   2.095   2.344
10360SOL     OW31978   5.112   5.494   2.776
10360SOL    HW131979   5.141   5.588   2.793
10360SOL    HW231980   5.075   5.486   2.684
10361SOL     OW31981   2.861   0.698   3.048
10361SOL    HW131982   2.855   0.613   2.994
10361SOL    HW231983   2.890   0.773   2.988
10362SOL     OW31984   0.519   5.495   2.701
10362SOL    HW131985   0.526   5.531   2.607
10362SOL    HW231986   0.422   5.490   2.726
10363SOL     OW31987   4.651   2.720   0.917
10363SOL    HW131988   4.562   2.700   0.877
10363SOL    HW231989   4.688   2.804   0.877
10364SOL     OW31990   4.902   4.483   1.886
10364SOL    HW131991   4.921   4.558   1.950
10364SOL    HW231992   4.900   4.519   1.793
10365SOL     OW31993   5.775   4.471   0.106
10365SOL    HW131994   5.812   4.449   0.197
10365SOL    HW231995   5.812   4.407   0.039
10366SOL     OW31996   3.680   6.829   3.549
10366SOL    HW131997   3.639   6.742   3.578
10366SOL    HW231998   3.745   6.811   3.475
10367SOL     OW31999   6.957   1.623   2.051
10367SOL    HW132000   6.902   1.687   1.997
10367SOL    HW232001   7.019   1.675   2.110
10368SOL     OW32002   1.901   0.981   2.382
10368SOL    HW132003   1.859   0.890   2.376
10368SOL    HW232004   2.000   0.971   2.391
10369SOL     OW32005   2.627   6.095   6.248
10369SOL    HW132006   2.626   6.131   6.155
10369SOL    HW232007   2.712   6.122   6.293
10370SOL     OW32008   6.503   1.386   5.151
10370SOL    HW132009   6.536   1.480   5.159
10370SOL    HW232010   6.446   1.378   5.070
10371SOL     OW32011   2.149   6.640   4.171
10371SOL    HW132012   2.156   6.590   4.085
10371SOL    HW232013   2.180   6.734   4.157
10372SOL     OW32014   2.922   1.041   0.886
10372SOL    HW132015   2.961   1.134   0.880
10372SOL    HW232016   2.988   0.981   0.931
10373SOL     OW32017   0.627   6.412   4.907
10373SOL    HW132018   0.724   6.405   4.882
10373SOL    HW232019   0.571   6.388   4.828
10374SOL     OW32020   3.030   0.194   3.677
10374SOL    HW132021   3.091   0.249   3.734
10374SOL    HW232022   3.062   0.195   3.582
10375SOL     OW32023   2.729   2.086   5.908
10375SOL    HW132024   2.654   2.152   5.898
10375SOL    HW232025   2.722   2.017   5.836
10376SOL     OW32026   0.820   6.330   4.292
10376SOL    HW132027   0.818   6.343   4.193
10376SOL    HW232028   0.891   6.263   4.315
10377SOL     OW32029   0.204   1.345   1.404
10377SOL    HW132030   0.120   1.300   1.435
10377SOL    HW232031   0.202   1.441   1.432
10378SOL     OW32032   6.014   5.885   5.931
10378SOL    HW132033   5.956   5.961   5.960
10378SOL    HW232034   6.044   5.900   5.836
10379SOL     OW32035   3.148   5.630   4.012
10379SOL    HW132036   3.103   5.695   3.951
10379SOL    HW232037   3.080   5.572   4.056
10380SOL     OW32038   0.588   2.823   5.103
10380SOL    HW132039   0.578   2.841   5.005
10380SOL    HW232040   0.666   2.875   5.138
10381SOL     OW32041   4.376   3.923   1.101
10381SOL    HW132042   4.386   3.889   1.194
10381SOL    HW232043   4.420   4.013   1.093
10382SOL     OW32044   3.062   6.113   1.598
10382SOL    HW132045   2.977   6.060   1.598
10382SOL    HW232046   3.086   6.138   1.691
10383SOL     OW32047   1.149   4.082   0.328
10383SOL    HW132048   1.214   4.086   0.404
10383SOL    HW232049   1.072   4.143   0.348
10384SOL     OW32050   6.775   6.866   0.339
10384SOL    HW132051   6.872   6.872   0.362
10384SOL    HW232052   6.727   6.946   0.376
10385SOL     OW32053   3.987   5.861   0.066
10385SOL    HW132054   3.910   5.813   0.023
10385SOL    HW232055   3.983   5.958   0.042
10386SOL     OW32056   0.529   0.779   5.459
10386SOL    HW132057   0.550   0.723   5.378
10386SOL    HW232058   0.556   0.729   5.541
10387SOL     OW32059   5.289   2.932   2.622
10387SOL    HW132060   5.388   2.939   2.639
10387SOL    HW232061   5.254   3.022   2.595
10388SOL     OW32062   1.174   6.386   1.187
10388SOL    HW132063   1.077   6.369   1.168
10388SOL    HW232064   1.215   6.304   1.226
10389SOL     OW32065   5.637   3.940   1.409
10389SOL    HW132066   5.626   3.957   1.507
10389SOL    HW232067   5.549   3.911   1.370
10390SOL     OW32068   2.133   3.157   0.133
10390SOL    HW132069   2.106   3.078   0.188
10390SOL    HW232070   2.148   3.235   0.193
10391SOL     OW32071   0.529   5.962   4.503
10391SOL    HW132072   0.467   5.938   4.578
10391SOL    HW232073   0.522   5.893   4.431
10392SOL     OW32074   5.591   5.069   5.290
10392SOL    HW132075   5.659   5.134   5.325
10392SOL    HW232076   5.537   5.114   5.219
10393SOL     OW32077   2.055   3.352   3.574
10393SOL    HW132078   2.102   3.369   3.487
10393SOL    HW232079   2.112   3.295   3.633
10394SOL     OW32080   2.577   5.555   4.970
10394SOL    HW132081   2.601   5.539   5.066
10394SOL    HW232082   2.599   5.474   4.916
10395SOL     OW32083   0.402   0.308   1.503
10395SOL    HW132084   0.374   0.378   1.567
10395SOL    HW232085   0.473   0.344   1.443
10396SOL     OW32086   3.687   2.107   3.832
10396SOL    HW132087   3.590   2.125   3.817
10396SOL    HW232088   3.736   2.113   3.745
10397SOL     OW32089   3.405   1.339   4.533
10397SOL    HW132090   3.463   1.407   4.488
10397SOL    HW232091   3.311   1.350   4.504
10398SOL     OW32092   6.028   2.456   0.325
10398SOL    HW132093   5.966   2.445   0.403
10398SOL    HW232094   5.986   2.518   0.259
10399SOL     OW32095   5.383   2.400   3.297
10399SOL    HW132096   5.480   2.391   3.277
10399SOL    HW232097   5.330   2.395   3.213
10400SOL     OW32098   4.242   5.842   7.015
10400SOL    HW132099   4.276   5.836   0.085
10400SOL    HW232100   4.142   5.846   7.016
10401SOL     OW32101   6.937   6.617   2.882
10401SOL    HW132102   6.895   6.596   2.970
10401SOL    HW232103   0.009   6.591   2.884
10402SOL     OW32104   6.780   1.639   5.282
10402SOL    HW132105   6.696   1.658   5.230
10402SOL    HW232106   6.833   1.568   5.236
10403SOL     OW32107   4.682   2.786   3.060
10403SOL    HW132108   4.724   2.803   2.971
10403SOL    HW232109   4.683   2.870   3.114
10404SOL     OW32110   5.854   6.573   4.635
10404SOL    HW132111   5.931   6.601   4.692
10404SOL    HW232112   5.885   6.504   4.569
10405SOL     OW32113   1.399   6.763   4.594
10405SOL    HW132114   1.497   6.752   4.573
10405SOL    HW232115   1.347   6.768   4.509
10406SOL     OW32116   2.051   3.619   3.629
10406SOL    HW132117   2.066   3.673   3.547
10406SOL    HW232118   2.041   3.523   3.605
10407SOL     OW32119   2.660   6.674   6.574
10407SOL    HW132120   2.602   6.627   6.640
10407SOL    HW232121   2.749   6.629   6.570
10408SOL     OW32122   4.172   0.262   1.131
10408SOL    HW132123   4.084   0.218   1.148
10408SOL    HW232124   4.164   0.361   1.148
10409SOL     OW32125   0.190   5.167   1.569
10409SOL    HW132126   0.258   5.118   1.624
10409SOL    HW232127   0.102   5.166   1.616
10410SOL     OW32128   5.008   2.068   1.855
10410SOL    HW132129   4.928   2.012   1.876
10410SOL    HW232130   5.054   2.031   1.774
10411SOL     OW32131   3.119   6.746   3.486
10411SOL    HW132132   3.024   6.715   3.488
10411SOL    HW232133   3.135   6.797   3.401
10412SOL     OW32134   0.187   1.292   6.954
10412SOL    HW132135   0.141   1.211   6.990
10412SOL    HW232136   0.155   1.311   6.861
10413SOL     OW32137   0.145   2.985   0.398
10413SOL    HW132138   0.189   2.915   0.454
10413SOL    HW232139   0.061   3.015   0.443
10414SOL     OW32140   4.185   5.427   5.849
10414SOL    HW132141   4.129   5.371   5.910
10414SOL    HW232142   4.129   5.502   5.813
10415SOL     OW32143   1.711   3.760   5.236
10415SOL    HW132144   1.671   3.684   5.287
10415SOL    HW232145   1.797   3.788   5.280
10416SOL     OW32146   5.755   0.496   5.467
10416SOL    HW132147   5.850   0.472   5.448
10416SOL    HW232148   5.706   0.511   5.380
10417SOL     OW32149   3.204   4.924   3.833
10417SOL    HW132150   3.256   4.968   3.759
10417SOL    HW232151   3.267   4.897   3.906
10418SOL     OW32152   6.421   4.115   6.602
10418SOL    HW132153   6.417   4.157   6.512
10418SOL    HW232154   6.329   4.101   6.637
10419SOL     OW32155   2.905   6.603   5.802
10419SOL    HW132156   2.866   6.689   5.837
10419SOL    HW232157   2.918   6.611   5.703
10420SOL     OW32158   0.388   3.781   3.816
10420SOL    HW132159   0.335   3.707   3.857
10420SOL    HW232160   0.340   3.815   3.734
10421SOL     OW32161   0.959   2.582   3.528
10421SOL    HW132162   1.042   2.609   3.481
10421SOL    HW232163   0.921   2.659   3.578
10422SOL     OW32164   5.752   3.388   5.430
10422SOL    HW132165   5.682   3.333   5.476
10422SOL    HW232166   5.818   3.327   5.385
10423SOL     OW32167   5.591   4.784   5.306
10423SOL    HW132168   5.499   4.766   5.343
10423SOL    HW232169   5.596   4.878   5.274
10424SOL     OW32170   4.536   2.831   0.242
10424SOL    HW132171   4.560   2.755   0.302
10424SOL    HW232172   4.608   2.901   0.246
10425SOL     OW32173   1.011   6.441   1.692
10425SOL    HW132174   1.073   6.443   1.613
10425SOL    HW232175   1.047   6.502   1.763
10426SOL     OW32176   5.208   5.152   0.521
10426SOL    HW132177   5.148   5.084   0.561
10426SOL    HW232178   5.175   5.244   0.544
10427SOL     OW32179   3.654   0.820   6.605
10427SOL    HW132180   3.631   0.854   6.696
10427SOL    HW232181   3.616   0.728   6.594
10428SOL     OW32182   3.863   0.851   3.958
10428SOL    HW132183   3.777   0.799   3.956
10428SOL    HW232184   3.894   0.861   4.052
10429SOL     OW32185   6.955   4.306   0.892
10429SOL    HW132186   6.927   4.366   0.817
10429SOL    HW232187   0.007   4.348   0.942
10430SOL     OW32188   5.122   0.169   5.024
10430SOL    HW132189   5.217   0.199   5.025
10430SOL    HW232190   5.062   0.248   5.012
10431SOL     OW32191   2.654   5.965   4.437
10431SOL    HW132192   2.648   6.050   4.491
10431SOL    HW232193   2.742   5.961   4.391
10432SOL     OW32194   5.315   6.866   4.596
10432SOL    HW132195   5.388   6.804   4.627
10432SOL    HW232196   5.273   6.909   4.675
10433SOL     OW32197   0.982   5.782   1.810
10433SOL    HW132198   1.067   5.734   1.788
10433SOL    HW232199   0.918   5.772   1.735
10434SOL     OW32200   4.158   6.297   3.148
10434SOL    HW132201   4.237   6.359   3.137
10434SOL    HW232202   4.181   6.225   3.213
10435SOL     OW32203   0.142   0.879   5.340
10435SOL    HW132204   0.220   0.938   5.359
10435SOL    HW232205   0.061   0.935   5.324
10436SOL     OW32206   6.986   4.762   5.650
10436SOL    HW132207   6.988   4.662   5.664
10436SOL    HW232208   6.894   4.796   5.672
10437SOL     OW32209   5.066   3.874   6.014
10437SOL    HW132210   5.140   3.851   5.951
10437SOL    HW232211   5.104   3.913   6.097
10438SOL     OW32212   6.170   6.300   0.155
10438SOL    HW132213   6.235   6.337   0.222
10438SOL    HW232214   6.125   6.376   0.108
10439SOL     OW32215   3.628   1.110   5.117
10439SOL    HW132216   3.531   1.107   5.092
10439SOL    HW232217   3.681   1.146   5.039
10440SOL     OW32218   1.637   6.736   0.526
10440SOL    HW132219   1.611   6.650   0.568
10440SOL    HW232220   1.594   6.743   0.436
10441SOL     OW32221   3.826   1.398   1.349
10441SOL    HW132222   3.863   1.466   1.412
10441SOL    HW232223   3.775   1.329   1.400
10442SOL     OW32224   4.056   6.103   6.609
10442SOL    HW132225   4.052   6.190   6.561
10442SOL    HW232226   4.027   6.030   6.548
10443SOL     OW32227   4.976   3.574   4.002
10443SOL    HW132228   4.987   3.477   4.027
10443SOL    HW232229   4.958   3.628   4.084
10444SOL     OW32230   4.438   5.696   4.119
10444SOL    HW132231   4.424   5.610   4.168
10444SOL    HW232232   4.354   5.721   4.071
10445SOL     OW32233   0.732   4.825   4.588
10445SOL    HW132234   0.774   4.835   4.498
10445SOL    HW232235   0.649   4.881   4.593
10446SOL     OW32236   1.212   3.149   5.634
10446SOL    HW132237   1.300   3.186   5.603
10446SOL    HW232238   1.214   3.049   5.628
10447SOL     OW32239   0.453   1.376   1.579
10447SOL    HW132240   0.515   1.451   1.560
10447SOL    HW232241   0.388   1.365   1.504
10448SOL     OW32242   4.931   0.767   2.479
10448SOL    HW132243   4.949   0.689   2.419
10448SOL    HW232244   4.845   0.810   2.452
10449SOL     OW32245   2.779   5.031   4.886
10449SOL    HW132246   2.842   5.089   4.833
10449SOL    HW232247   2.804   4.935   4.875
10450SOL     OW32248   0.873   1.845   0.596
10450SOL    HW132249   0.922   1.844   0.509
10450SOL    HW232250   0.792   1.903   0.587
10451SOL     OW32251   1.471   5.472   2.250
10451SOL    HW132252   1.525   5.551   2.222
10451SOL    HW232253   1.480   5.399   2.182
10452SOL     OW32254   6.485   3.059   1.968
10452SOL    HW132255   6.489   2.988   1.898
10452SOL    HW232256   6.524   3.023   2.053
10453SOL     OW32257   3.683   6.993   1.422
10453SOL    HW132258   3.700   6.897   1.399
10453SOL    HW232259   3.662   7.001   1.519
10454SOL     OW32260   4.239   3.570   0.443
10454SOL    HW132261   4.241   3.564   0.344
10454SOL    HW232262   4.146   3.559   0.476
10455SOL     OW32263   6.382   6.364   3.329
10455SOL    HW132264   6.286   6.374   3.305
10455SOL    HW232265   6.415   6.274   3.303
10456SOL     OW32266   2.730   6.437   0.733
10456SOL    HW132267   2.765   6.531   0.736
10456SOL    HW232268   2.630   6.438   0.736
10457SOL     OW32269   2.991   3.166   2.010
10457SOL    HW132270   3.020   3.099   2.078
10457SOL    HW232271   2.928   3.232   2.052
10458SOL     OW32272   6.904   1.771   6.596
10458SOL    HW132273   6.835   1.701   6.610
10458SOL    HW232274   6.894   1.843   6.665
10459SOL     OW32275   4.840   5.991   1.548
10459SOL    HW132276   4.913   6.060   1.558
10459SOL    HW232277   4.757   6.024   1.593
10460SOL     OW32278   0.717   4.351   2.113
10460SOL    HW132279   0.741   4.383   2.205
10460SOL    HW232280   0.650   4.414   2.073
10461SOL     OW32281   0.575   5.293   6.000
10461SOL    HW132282   0.642   5.278   5.928
10461SOL    HW232283   0.502   5.352   5.966
10462SOL     OW32284   6.014   1.702   3.405
10462SOL    HW132285   6.011   1.674   3.501
10462SOL    HW232286   5.931   1.672   3.359
10463SOL     OW32287   4.082   2.877   5.631
10463SOL    HW132288   3.992   2.918   5.615
10463SOL    HW232289   4.114   2.834   5.546
10464SOL     OW32290   6.475   0.285   0.884
10464SOL    HW132291   6.528   0.214   0.839
10464SOL    HW232292   6.380   0.255   0.893
10465SOL     OW32293   6.303   5.533   1.376
10465SOL    HW132294   6.366   5.605   1.348
10465SOL    HW232295   6.244   5.508   1.299
10466SOL     OW32296   4.399   5.030   6.630
10466SOL    HW132297   4.367   4.970   6.702
10466SOL    HW232298   4.374   4.992   6.541
10467SOL     OW32299   2.086   1.836   6.080
10467SOL    HW132300   2.162   1.799   6.133
10467SOL    HW232301   2.078   1.934   6.096
10468SOL     OW32302   3.850   5.228   3.106
10468SOL    HW132303   3.756   5.195   3.104
10468SOL    HW232304   3.895   5.195   3.189
10469SOL     OW32305   4.094   3.834   5.759
10469SOL    HW132306   4.159   3.907   5.739
10469SOL    HW232307   4.025   3.866   5.824
10470SOL     OW32308   2.467   2.270   3.714
10470SOL    HW132309   2.475   2.172   3.729
10470SOL    HW232310   2.538   2.318   3.765
10471SOL     OW32311   2.666   2.227   1.200
10471SOL    HW132312   2.622   2.315   1.217
10471SOL    HW232313   2.745   2.240   1.140
10472SOL     OW32314   4.115   5.217   0.647
10472SOL    HW132315   4.113   5.131   0.596
10472SOL    HW232316   4.156   5.288   0.590
10473SOL     OW32317   6.826   0.451   6.628
10473SOL    HW132318   6.889   0.479   6.555
10473SOL    HW232319   6.739   0.424   6.588
10474SOL     OW32320   4.345   1.966   4.452
10474SOL    HW132321   4.394   2.016   4.523
10474SOL    HW232322   4.307   1.882   4.491
10475SOL     OW32323   4.687   6.978   2.179
10475SOL    HW132324   4.726   6.887   2.160
10475SOL    HW232325   4.588   6.971   2.185
10476SOL     OW32326   7.014   6.222   6.640
10476SOL    HW132327   7.012   6.131   6.600
10476SOL    HW232328   0.055   6.223   6.717
10477SOL     OW32329   6.674   1.672   4.145
10477SOL    HW132330   6.611   1.739   4.104
10477SOL    HW232331   6.625   1.586   4.160
10478SOL     OW32332   0.545   0.346   1.276
10478SOL    HW132333   0.608   0.269   1.284
10478SOL    HW232334   0.474   0.323   1.209
10479SOL     OW32335   0.498   2.455   1.345
10479SOL    HW132336   0.577   2.433   1.288
10479SOL    HW232337   0.518   2.535   1.401
10480SOL     OW32338   6.467   0.146   1.990
10480SOL    HW132339   6.438   0.094   2.070
10480SOL    HW232340   6.386   0.176   1.939
10481SOL     OW32341   2.722   6.583   4.654
10481SOL    HW132342   2.729   6.669   4.705
10481SOL    HW232343   2.723   6.603   4.556
10482SOL     OW32344   6.456   5.474   5.227
10482SOL    HW132345   6.496   5.529   5.154
10482SOL    HW232346   6.411   5.394   5.187
10483SOL     OW32347   6.800   5.398   6.999
10483SOL    HW132348   6.750   5.434   6.920
10483SOL    HW232349   6.737   5.384   0.051
10484SOL     OW32350   6.156   1.288   1.560
10484SOL    HW132351   6.098   1.277   1.479
10484SOL    HW232352   6.238   1.230   1.550
10485SOL     OW32353   3.427   3.981   1.781
10485SOL    HW132354   3.469   3.987   1.871
10485SOL    HW232355   3.356   3.910   1.782
10486SOL     OW32356   6.839   0.402   6.056
10486SOL    HW132357   6.841   0.316   6.106
10486SOL    HW232358   6.926   0.416   6.009
10487SOL     OW32359   4.430   1.955   2.179
10487SOL    HW132360   4.477   1.993   2.258
10487SOL    HW232361   4.468   1.993   2.095
10488SOL     OW32362   2.415   1.773   5.396
10488SOL    HW132363   2.486   1.822   5.446
10488SOL    HW232364   2.457   1.699   5.343
10489SOL     OW32365   6.258   6.924   4.510
10489SOL    HW132366   6.219   7.004   4.464
10489SOL    HW232367   6.229   6.922   4.606
10490SOL     OW32368   6.043   1.645   0.705
10490SOL    HW132369   6.105   1.598   0.642
10490SOL    HW232370   5.970   1.690   0.653
10491SOL     OW32371   2.446   1.964   5.131
10491SOL    HW132372   2.370   2.028   5.125
10491SOL    HW232373   2.436   1.894   5.060
10492SOL     OW32374   5.130   6.009   1.180
10492SOL    HW132375   5.129   6.109   1.172
10492SOL    HW232376   5.167   5.968   1.097
10493SOL     OW32377   2.901   6.409   2.195
10493SOL    HW132378   2.961   6.329   2.191
10493SOL    HW232379   2.955   6.492   2.188
10494SOL     OW32380   5.669   4.232   6.532
10494SOL    HW132381   5.721   4.198   6.454
10494SOL    HW232382   5.666   4.161   6.603
10495SOL     OW32383   0.545   0.163   0.642
10495SOL    HW132384   0.517   0.256   0.619
10495SOL    HW232385   0.622   0.166   0.706
10496SOL     OW32386   6.179   4.450   6.436
10496SOL    HW132387   6.268   4.474   6.475
10496SOL    HW232388   6.109   4.455   6.507
10497SOL     OW32389   1.630   6.669   2.179
10497SOL    HW132390   1.636   6.764   2.147
10497SOL    HW232391   1.563   6.663   2.253
10498SOL     OW32392   5.428   5.385   0.851
10498SOL    HW132393   5.445   5.463   0.910
10498SOL    HW232394   5.413   5.303   0.906
10499SOL     OW32395   4.915   0.570   2.246
10499SOL    HW132396   4.918   0.472   2.227
10499SOL    HW232397   4.892   0.620   2.162
10500SOL     OW32398   5.707   1.121   5.539
10500SOL    HW132399   5.632   1.186   5.523
10500SOL    HW232400   5.674   1.046   5.596
10501SOL     OW32401   2.398   5.104   1.889
10501SOL    HW132402   2.314   5.082   1.840
10501SOL    HW232403   2.423   5.028   1.949
10502SOL     OW32404   2.947   2.990   1.189
10502SOL    HW132405   2.945   2.960   1.094
10502SOL    HW232406   2.884   3.066   1.202
10503SOL     OW32407   5.352   3.526   0.593
10503SOL    HW132408   5.267   3.496   0.636
10503SOL    HW232409   5.343   3.620   0.562
10504SOL     OW32410   7.003   3.096   5.372
10504SOL    HW132411   0.053   3.162   5.386
10504SOL    HW232412   6.919   3.131   5.413
10505SOL     OW32413   5.931   5.174   1.229
10505SOL    HW132414   5.928   5.236   1.307
10505SOL    HW232415   5.841   5.134   1.214
10506SOL     OW32416   0.892   3.929   6.984
10506SOL    HW132417   0.819   3.879   0.007
10506SOL    HW232418   0.873   3.932   6.886
10507SOL     OW32419   2.393   5.621   0.854
10507SOL    HW132420   2.306   5.658   0.819
10507SOL    HW232421   2.469   5.675   0.818
10508SOL     OW32422   6.969   5.573   4.848
10508SOL    HW132423   6.966   5.474   4.860
10508SOL    HW232424   0.039   5.605   4.860
10509SOL     OW32425   6.715   5.234   5.094
10509SOL    HW132426   6.653   5.185   5.156
10509SOL    HW232427   6.786   5.279   5.148
10510SOL     OW32428   4.509   6.633   0.234
10510SOL    HW132429   4.541   6.711   0.180
10510SOL    HW232430   4.417   6.652   0.269
10511SOL     OW32431   3.181   1.165   2.277
10511SOL    HW132432   3.116   1.215   2.220
10511SOL    HW232433   3.262   1.221   2.293
10512SOL     OW32434   3.620   0.731   6.180
10512SOL    HW132435   3.547   0.718   6.247
10512SOL    HW232436   3.585   0.711   6.088
10513SOL     OW32437   6.629   3.247   3.404
10513SOL    HW132438   6.614   3.297   3.319
10513SOL    HW232439   6.597   3.153   3.394
10514SOL     OW32440   0.853   2.808   1.418
10514SOL    HW132441   0.856   2.758   1.332
10514SOL    HW232442   0.762   2.848   1.430
10515SOL     OW32443   1.441   3.674   4.791
10515SOL    HW132444   1.531   3.652   4.828
10515SOL    HW232445   1.427   3.622   4.706
10516SOL     OW32446   2.733   1.733   0.473
10516SOL    HW132447   2.791   1.682   0.537
10516SOL    HW232448   2.676   1.797   0.524
10517SOL     OW32449   0.946   3.518   1.398
10517SOL    HW132450   0.964   3.449   1.469
10517SOL    HW232451   0.966   3.609   1.435
10518SOL     OW32452   6.988   6.290   1.520
10518SOL    HW132453   7.009   6.377   1.475
10518SOL    HW232454   0.015   6.217   1.475
10519SOL     OW32455   2.999   3.662   0.841
10519SOL    HW132456   3.014   3.661   0.742
10519SOL    HW232457   2.901   3.668   0.860
10520SOL     OW32458   0.461   2.770   5.918
10520SOL    HW132459   0.450   2.690   5.976
10520SOL    HW232460   0.480   2.850   5.975
10521SOL     OW32461   7.005   5.531   1.231
10521SOL    HW132462   6.923   5.492   1.272
10521SOL    HW232463   0.057   5.527   1.297
10522SOL     OW32464   0.074   2.007   4.461
10522SOL    HW132465   0.166   2.023   4.426
10522SOL    HW232466   0.006   2.030   4.392
10523SOL     OW32467   0.789   5.087   2.903
10523SOL    HW132468   0.843   5.006   2.883
10523SOL    HW232469   0.738   5.114   2.821
10524SOL     OW32470   6.794   6.318   4.470
10524SOL    HW132471   6.792   6.344   4.373
10524SOL    HW232472   6.768   6.222   4.479
10525SOL     OW32473   3.379   0.771   4.909
10525SOL    HW132474   3.292   0.722   4.901
10525SOL    HW232475   3.372   0.840   4.981
10526SOL     OW32476   1.204   0.100   1.878
10526SOL    HW132477   1.169   0.007   1.866
10526SOL    HW232478   1.139   0.165   1.840
10527SOL     OW32479   1.425   1.148   5.164
10527SOL    HW132480   1.380   1.142   5.075
10527SOL    HW232481   1.455   1.057   5.192
10528SOL     OW32482   1.702   4.217   6.375
10528SOL    HW132483   1.781   4.186   6.321
10528SOL    HW232484   1.698   4.165   6.460
10529SOL     OW32485   2.286   6.078   4.407
10529SOL    HW132486   2.346   6.157   4.400
10529SOL    HW232487   2.251   6.070   4.500
10530SOL     OW32488   1.208   6.802   6.035
10530SOL    HW132489   1.116   6.839   6.046
10530SOL    HW232490   1.267   6.838   6.108
10531SOL     OW32491   1.988   2.380   4.488
10531SOL    HW132492   2.069   2.403   4.434
10531SOL    HW232493   1.991   2.283   4.514
10532SOL     OW32494   0.547   6.679   6.510
10532SOL    HW132495   0.535   6.754   6.575
10532SOL    HW232496   0.459   6.658   6.466
10533SOL     OW32497   3.045   6.283   3.325
10533SOL    HW132498   2.976   6.303   3.256
10533SOL    HW232499   3.014   6.206   3.381
10534SOL     OW32500   6.251   5.166   2.261
10534SOL    HW132501   6.280   5.158   2.166
10534SOL    HW232502   6.305   5.104   2.318
10535SOL     OW32503   2.069   1.594   2.640
10535SOL    HW132504   1.981   1.587   2.686
10535SOL    HW232505   2.128   1.657   2.691
10536SOL     OW32506   4.768   0.845   4.374
10536SOL    HW132507   4.863   0.846   4.405
10536SOL    HW232508   4.708   0.820   4.450
10537SOL     OW32509   4.451   6.563   4.163
10537SOL    HW132510   4.393   6.557   4.081
10537SOL    HW232511   4.541   6.525   4.143
10538SOL     OW32512   6.643   3.388   0.447
10538SOL    HW132513   6.647   3.313   0.513
10538SOL    HW232514   6.603   3.355   0.361
10539SOL     OW32515   6.565   5.518   1.019
10539SOL    HW132516   6.616   5.586   1.071
10539SOL    HW232517   6.497   5.563   0.961
10540SOL     OW32518   1.531   2.652   5.403
10540SOL    HW132519   1.598   2.681   5.335
10540SOL    HW232520   1.442   2.694   5.382
10541SOL     OW32521   3.896   3.966   2.344
10541SOL    HW132522   3.989   3.978   2.307
10541SOL    HW232523   3.894   3.885   2.402
10542SOL     OW32524   6.708   1.248   5.456
10542SOL    HW132525   6.779   1.183   5.486
10542SOL    HW232526   6.752   1.329   5.418
10543SOL     OW32527   0.997   2.129   4.195
10543SOL    HW132528   0.919   2.140   4.257
10543SOL    HW232529   1.081   2.116   4.249
10544SOL     OW32530   2.677   6.441   2.076
10544SOL    HW132531   2.658   6.344   2.069
10544SOL    HW232532   2.754   6.456   2.139
10545SOL     OW32533   0.992   2.432   1.253
10545SOL    HW132534   1.045   2.404   1.334
10545SOL    HW232535   1.018   2.374   1.176
10546SOL     OW32536   2.906   6.265   0.401
10546SOL    HW132537   2.861   6.178   0.422
10546SOL    HW232538   2.996   6.248   0.361
10547SOL     OW32539   5.363   3.226   3.116
10547SOL    HW132540   5.280   3.219   3.061
10547SOL    HW232541   5.377   3.141   3.167
10548SOL     OW32542   0.179   4.301   4.130
10548SOL    HW132543   0.217   4.393   4.121
10548SOL    HW232544   0.197   4.266   4.222
10549SOL     OW32545   0.637   1.445   0.950
10549SOL    HW132546   0.580   1.363   0.943
10549SOL    HW232547   0.723   1.430   0.902
10550SOL     OW32548   4.623   6.733   4.019
10550SOL    HW132549   4.670   6.721   3.932
10550SOL    HW232550   4.579   6.647   4.045
10551SOL     OW32551   1.890   2.133   6.771
10551SOL    HW132552   1.928   2.070   6.838
10551SOL    HW232553   1.919   2.226   6.792
10552SOL     OW32554   1.844   0.798   5.717
10552SOL    HW132555   1.871   0.838   5.630
10552SOL    HW232556   1.778   0.858   5.763
10553SOL     OW32557   0.583   4.792   1.251
10553SOL    HW132558   0.484   4.779   1.256
10553SOL    HW232559   0.629   4.703   1.260
10554SOL     OW32560   4.911   4.943   1.181
10554SOL    HW132561   5.000   4.899   1.196
10554SOL    HW232562   4.840   4.873   1.182
10555SOL     OW32563   2.413   2.774   0.687
10555SOL    HW132564   2.462   2.687   0.697
10555SOL    HW232565   2.338   2.762   0.622
10556SOL     OW32566   1.296   1.158   3.849
10556SOL    HW132567   1.343   1.075   3.877
10556SOL    HW232568   1.225   1.181   3.916
10557SOL     OW32569   2.156   2.893   3.547
10557SOL    HW132570   2.228   2.844   3.498
10557SOL    HW232571   2.106   2.828   3.605
10558SOL     OW32572   3.855   5.866   5.683
10558SOL    HW132573   3.879   5.826   5.595
10558SOL    HW232574   3.757   5.887   5.685
10559SOL     OW32575   4.100   0.912   1.711
10559SOL    HW132576   4.089   0.941   1.616
10559SOL    HW232577   4.127   0.990   1.767
10560SOL     OW32578   4.575   0.100   2.974
10560SOL    HW132579   4.479   0.117   2.952
10560SOL    HW232580   4.592   0.121   3.070
10561SOL     OW32581   3.423   4.457   1.613
10561SOL    HW132582   3.394   4.371   1.655
10561SOL    HW232583   3.462   4.517   1.683
10562SOL     OW32584   4.525   5.304   0.084
10562SOL    HW132585   4.461   5.236   0.048
10562SOL    HW232586   4.521   5.304   0.183
10563SOL     OW32587   0.473   0.907   2.351
10563SOL    HW132588   0.423   0.993   2.361
10563SOL    HW232589   0.413   0.837   2.313
10564SOL     OW32590   5.664   6.432   3.715
10564SOL    HW132591   5.630   6.346   3.675
10564SOL    HW232592   5.602   6.461   3.788
10565SOL     OW32593   6.697   6.714   5.625
10565SOL    HW132594   6.744   6.646   5.681
10565SOL    HW232595   6.636   6.667   5.560
10566SOL     OW32596   3.603   1.549   6.719
10566SOL    HW132597   3.682   1.562   6.660
10566SOL    HW232598   3.613   1.465   6.771
10567SOL     OW32599   2.223   2.396   5.322
10567SOL    HW132600   2.196   2.434   5.411
10567SOL    HW232601   2.318   2.366   5.326
10568SOL     OW32602   6.708   3.388   0.871
10568SOL    HW132603   6.633   3.331   0.906
10568SOL    HW232604   6.753   3.340   0.795
10569SOL     OW32605   6.206   0.645   2.521
10569SOL    HW132606   6.188   0.586   2.442
10569SOL    HW232607   6.181   0.739   2.499
10570SOL     OW32608   1.715   4.705   3.718
10570SOL    HW132609   1.753   4.735   3.805
10570SOL    HW232610   1.719   4.605   3.713
10571SOL     OW32611   0.432   4.658   5.120
10571SOL    HW132612   0.426   4.716   5.039
10571SOL    HW232613   0.446   4.563   5.093
10572SOL     OW32614   6.985   4.437   2.717
10572SOL    HW132615   0.021   4.376   2.664
10572SOL    HW232616   0.017   4.499   2.771
10573SOL     OW32617   5.225   0.933   4.753
10573SOL    HW132618   5.219   1.031   4.770
10573SOL    HW232619   5.272   0.917   4.667
10574SOL     OW32620   0.826   1.429   4.261
10574SOL    HW132621   0.904   1.492   4.266
10574SOL    HW232622   0.852   1.340   4.298
10575SOL     OW32623   0.129   0.781   4.031
10575SOL    HW132624   0.166   0.764   3.940
10575SOL    HW232625   0.097   0.695   4.071
10576SOL     OW32626   0.803   5.949   4.518
10576SOL    HW132627   0.708   5.978   4.525
10576SOL    HW232628   0.812   5.881   4.445
10577SOL     OW32629   1.742   4.502   0.653
10577SOL    HW132630   1.684   4.551   0.588
10577SOL    HW232631   1.742   4.404   0.631
10578SOL     OW32632   4.052   1.628   3.198
10578SOL    HW132633   3.994   1.709   3.210
10578SOL    HW232634   4.138   1.640   3.248
10579SOL     OW32635   4.254   2.709   1.404
10579SOL    HW132636   4.193   2.664   1.338
10579SOL    HW232637   4.210   2.714   1.493
10580SOL     OW32638   6.672   6.595   6.409
10580SOL    HW132639   6.594   6.650   6.379
10580SOL    HW232640   6.641   6.522   6.470
10581SOL     OW32641   5.965   0.157   3.306
10581SOL    HW132642   5.933   0.075   3.259
10581SOL    HW232643   5.950   0.147   3.404
10582SOL     OW32644   4.571   4.700   6.146
10582SOL    HW132645   4.549   4.668   6.238
10582SOL    HW232646   4.594   4.622   6.088
10583SOL     OW32647   4.451   0.904   4.094
10583SOL    HW132648   4.473   0.852   4.012
10583SOL    HW232649   4.512   0.876   4.168
10584SOL     OW32650   6.582   0.331   0.024
10584SOL    HW132651   6.483   0.322   0.013
10584SOL    HW232652   6.608   0.427   0.015
10585SOL     OW32653   2.775   1.844   4.918
10585SOL    HW132654   2.825   1.930   4.913
10585SOL    HW232655   2.677   1.862   4.915
10586SOL     OW32656   5.212   4.777   5.599
10586SOL    HW132657   5.252   4.760   5.509
10586SOL    HW232658   5.193   4.690   5.644
10587SOL     OW32659   7.022   5.157   6.691
10587SOL    HW132660   7.021   5.248   6.652
10587SOL    HW232661   6.934   5.137   6.734
10588SOL     OW32662   1.484   1.918   4.993
10588SOL    HW132663   1.464   1.940   4.897
10588SOL    HW232664   1.537   1.833   4.997
10589SOL     OW32665   5.700   1.053   4.361
10589SOL    HW132666   5.617   1.088   4.404
10589SOL    HW232667   5.687   1.049   4.262
10590SOL     OW32668   0.471   6.965   0.476
10590SOL    HW132669   0.381   6.965   0.520
10590SOL    HW232670   0.532   0.005   0.523
10591SOL     OW32671   2.013   1.981   6.947
10591SOL    HW132672   1.981   1.911   7.012
10591SOL    HW232673   2.095   1.947   6.901
10592SOL     OW32674   5.682   3.639   3.407
10592SOL    HW132675   5.661   3.719   3.352
10592SOL    HW232676   5.616   3.566   3.387
10593SOL     OW32677   3.089   5.999   1.045
10593SOL    HW132678   3.097   6.080   1.104
10593SOL    HW232679   3.096   6.026   0.949
10594SOL     OW32680   5.012   1.592   2.502
10594SOL    HW132681   4.988   1.682   2.539
10594SOL    HW232682   5.069   1.543   2.568
10595SOL     OW32683   5.652   7.014   0.179
10595SOL    HW132684   5.691   0.081   0.193
10595SOL    HW232685   5.625   6.975   0.267
10596SOL     OW32686   3.912   0.802   0.116
10596SOL    HW132687   3.823   0.800   0.161
10596SOL    HW232688   3.913   0.873   0.047
10597SOL     OW32689   3.467   1.358   5.631
10597SOL    HW132690   3.480   1.354   5.730
10597SOL    HW232691   3.369   1.359   5.611
10598SOL     OW32692   3.463   2.943   0.253
10598SOL    HW132693   3.489   2.848   0.241
10598SOL    HW232694   3.386   2.949   0.316
10599SOL     OW32695   5.229   3.244   6.708
10599SOL    HW132696   5.212   3.259   6.611
10599SOL    HW232697   5.150   3.200   6.750
10600SOL     OW32698   3.528   2.535   1.701
10600SOL    HW132699   3.463   2.471   1.659
10600SOL    HW232700   3.577   2.488   1.774
10601SOL     OW32701   1.510   4.422   5.502
10601SOL    HW132702   1.480   4.394   5.411
10601SOL    HW232703   1.450   4.381   5.571
10602SOL     OW32704   1.326   1.122   1.077
10602SOL    HW132705   1.391   1.171   1.135
10602SOL    HW232706   1.235   1.160   1.090
10603SOL     OW32707   4.118   0.161   3.502
10603SOL    HW132708   4.043   0.109   3.461
10603SOL    HW232709   4.119   0.144   3.601
10604SOL     OW32710   6.265   4.954   5.372
10604SOL    HW132711   6.189   4.988   5.427
10604SOL    HW232712   6.245   4.968   5.275
10605SOL     OW32713   2.184   6.219   6.896
10605SOL    HW132714   2.254   6.210   6.825
10605SOL    HW232715   2.165   6.129   6.936
10606SOL     OW32716   0.167   0.677   0.575
10606SOL    HW132717   0.155   0.625   0.490
10606SOL    HW232718   0.218   0.760   0.556
10607SOL     OW32719   4.173   4.602   6.533
10607SOL    HW132720   4.267   4.605   6.497
10607SOL    HW232721   4.121   4.678   6.495
10608SOL     OW32722   6.956   4.393   4.055
10608SOL    HW132723   0.027   4.365   4.072
10608SOL    HW232724   6.895   4.316   4.070
10609SOL     OW32725   3.017   6.942   0.007
10609SOL    HW132726   3.108   6.951   6.990
10609SOL    HW232727   2.970   6.864   6.990
10610SOL     OW32728   0.697   2.351   4.035
10610SOL    HW132729   0.647   2.275   3.994
10610SOL    HW232730   0.714   2.421   3.965
10611SOL     OW32731   2.845   4.532   6.596
10611SOL    HW132732   2.853   4.595   6.519
10611SOL    HW232733   2.930   4.479   6.604
10612SOL     OW32734   4.159   2.302   4.498
10612SOL    HW132735   4.097   2.263   4.430
10612SOL    HW232736   4.243   2.248   4.500
10613SOL     OW32737   5.695   6.017   5.945
10613SOL    HW132738   5.712   6.053   6.037
10613SOL    HW232739   5.736   6.078   5.877
10614SOL     OW32740   4.910   1.334   4.979
10614SOL    HW132741   4.936   1.398   4.907
10614SOL    HW232742   4.871   1.252   4.938
10615SOL     OW32743   3.388   0.687   6.355
10615SOL    HW132744   3.441   0.678   6.440
10615SOL    HW232745   3.339   0.601   6.338
10616SOL     OW32746   2.332   7.017   7.018
10616SOL    HW132747   2.360   6.988   0.086
10616SOL    HW232748   2.403   0.051   6.979
10617SOL     OW32749   3.127   4.172   1.208
10617SOL    HW132750   3.052   4.236   1.224
10617SOL    HW232751   3.096   4.098   1.149
10618SOL     OW32752   1.333   4.309   6.014
10618SOL    HW132753   1.395   4.388   6.017
10618SOL    HW232754   1.368   4.238   6.075
10619SOL     OW32755   6.994   3.030   3.683
10619SOL    HW132756   0.008   3.123   3.673
10619SOL    HW232757   6.968   2.995   3.593
10620SOL     OW32758   1.242   6.771   4.875
10620SOL    HW132759   1.201   6.822   4.951
10620SOL    HW232760   1.191   6.790   4.791
10621SOL     OW32761   1.109   4.962   1.308
10621SOL    HW132762   1.146   4.955   1.401
10621SOL    HW232763   1.091   4.870   1.273
10622SOL     OW32764   5.008   1.877   2.608
10622SOL    HW132765   5.019   1.966   2.564
10622SOL    HW232766   5.095   1.850   2.650
10623SOL     OW32767   6.943   5.247   6.099
10623SOL    HW132768   6.995   5.279   6.178
10623SOL    HW232769   6.860   5.301   6.090
10624SOL     OW32770   0.363   2.729   5.228
10624SOL    HW132771   0.455   2.761   5.205
10624SOL    HW232772   0.332   2.771   5.313
10625SOL     OW32773   0.706   4.556   1.376
10625SOL    HW132774   0.658   4.471   1.401
10625SOL    HW232775   0.763   4.585   1.453
10626SOL     OW32776   3.460   2.931   0.580
10626SOL    HW132777   3.504   3.020   0.594
10626SOL    HW232778   3.484   2.870   0.655
10627SOL     OW32779   5.734   1.526   0.005
10627SOL    HW132780   5.772   1.616   7.009
10627SOL    HW232781   5.762   1.462   6.957
10628SOL     OW32782   4.947   6.404   1.144
10628SOL    HW132783   5.036   6.370   1.112
10628SOL    HW232784   4.914   6.475   1.081
10629SOL     OW32785   2.561   5.085   4.756
10629SOL    HW132786   2.522   5.002   4.716
10629SOL    HW232787   2.643   5.062   4.808
10630SOL     OW32788   6.709   1.595   2.815
10630SOL    HW132789   6.703   1.695   2.809
10630SOL    HW232790   6.736   1.558   2.726
10631SOL     OW32791   3.862   5.010   5.141
10631SOL    HW132792   3.872   4.934   5.206
10631SOL    HW232793   3.836   5.093   5.191
10632SOL     OW32794   5.701   6.947   3.462
10632SOL    HW132795   5.602   6.958   3.474
10632SOL    HW232796   5.735   6.879   3.527
10633SOL     OW32797   2.679   2.467   1.492
10633SOL    HW132798   2.655   2.551   1.443
10633SOL    HW232799   2.732   2.407   1.433
10634SOL     OW32800   2.126   4.205   0.358
10634SOL    HW132801   2.168   4.132   0.412
10634SOL    HW232802   2.165   4.293   0.384
10635SOL     OW32803   1.944   3.720   6.593
10635SOL    HW132804   2.035   3.705   6.632
10635SOL    HW232805   1.953   3.744   6.496
10636SOL     OW32806   0.428   2.234   1.081
10636SOL    HW132807   0.440   2.257   1.177
10636SOL    HW232808   0.509   2.187   1.047
10637SOL     OW32809   1.064   4.684   6.029
10637SOL    HW132810   1.130   4.691   5.954
10637SOL    HW232811   0.974   4.712   5.996
10638SOL     OW32812   5.530   5.850   2.889
10638SOL    HW132813   5.489   5.911   2.821
10638SOL    HW232814   5.591   5.784   2.843
10639SOL     OW32815   0.884   4.083   3.552
10639SOL    HW132816   0.926   4.173   3.557
10639SOL    HW232817   0.922   4.032   3.474
10640SOL     OW32818   5.151   7.005   4.026
10640SOL    HW132819   5.154   0.054   4.094
10640SOL    HW232820   5.111   6.923   4.067
10641SOL     OW32821   2.598   1.708   2.557
10641SOL    HW132822   2.584   1.616   2.521
10641SOL    HW232823   2.593   1.706   2.657
10642SOL     OW32824   6.147   1.968   0.639
10642SOL    HW132825   6.150   1.940   0.735
10642SOL    HW232826   6.066   1.929   0.595
10643SOL     OW32827   2.215   5.772   4.796
10643SOL    HW132828   2.192   5.808   4.705
10643SOL    HW232829   2.138   5.720   4.832
10644SOL     OW32830   5.688   2.802   1.450
10644SOL    HW132831   5.615   2.782   1.385
10644SOL    HW232832   5.702   2.722   1.510
10645SOL     OW32833   1.567   2.620   4.593
10645SOL    HW132834   1.661   2.586   4.590
10645SOL    HW232835   1.515   2.580   4.518
10646SOL     OW32836   0.487   6.692   5.542
10646SOL    HW132837   0.426   6.687   5.621
10646SOL    HW232838   0.579   6.664   5.570
10647SOL     OW32839   3.071   5.507   4.944
10647SOL    HW132840   3.039   5.571   4.874
10647SOL    HW232841   3.023   5.419   4.933
10648SOL     OW32842   5.829   4.672   6.296
10648SOL    HW132843   5.814   4.762   6.257
10648SOL    HW232844   5.825   4.678   6.396
10649SOL     OW32845   0.826   4.591   3.090
10649SOL    HW132846   0.758   4.523   3.064
10649SOL    HW232847   0.888   4.607   3.013
10650SOL     OW32848   0.665   0.191   3.621
10650SOL    HW132849   0.716   0.131   3.684
10650SOL    HW232850   0.601   0.136   3.567
10651SOL     OW32851   5.782   6.419   0.202
10651SOL    HW132852   5.723   6.497   0.225
10651SOL    HW232853   5.725   6.341   0.176
10652SOL     OW32854   3.374   6.768   5.785
10652SOL    HW132855   3.430   6.686   5.787
10652SOL    HW232856   3.346   6.792   5.878
10653SOL     OW32857   4.574   5.653   4.608
10653SOL    HW132858   4.557   5.564   4.566
10653SOL    HW232859   4.643   5.702   4.555
10654SOL     OW32860   5.128   0.672   0.034
10654SOL    HW132861   5.127   0.742   0.106
10654SOL    HW232862   5.082   0.707   6.976
10655SOL     OW32863   2.520   5.206   0.531
10655SOL    HW132864   2.487   5.286   0.580
10655SOL    HW232865   2.454   5.180   0.461
10656SOL     OW32866   0.428   1.963   2.640
10656SOL    HW132867   0.355   2.015   2.595
10656SOL    HW232868   0.417   1.866   2.621
10657SOL     OW32869   5.609   0.539   5.233
10657SOL    HW132870   5.624   0.595   5.151
10657SOL    HW232871   5.539   0.469   5.214
10658SOL     OW32872   6.637   4.903   4.547
10658SOL    HW132873   6.715   4.877   4.491
10658SOL    HW232874   6.644   4.999   4.572
10659SOL     OW32875   0.566   5.461   1.440
10659SOL    HW132876   0.500   5.535   1.428
10659SOL    HW232877   0.654   5.489   1.404
10660SOL     OW32878   5.177   4.039   6.209
10660SOL    HW132879   5.168   4.064   6.306
10660SOL    HW232880   5.146   4.116   6.153
10661SOL     OW32881   1.583   6.816   1.591
10661SOL    HW132882   1.538   6.902   1.615
10661SOL    HW232883   1.557   6.745   1.656
10662SOL     OW32884   5.200   0.717   2.189
10662SOL    HW132885   5.133   0.647   2.165
10662SOL    HW232886   5.179   0.754   2.280
10663SOL     OW32887   0.538   2.243   2.635
10663SOL    HW132888   0.550   2.314   2.705
10663SOL    HW232889   0.518   2.156   2.680
10664SOL     OW32890   6.102   3.707   5.258
10664SOL    HW132891   6.010   3.671   5.247
10664SOL    HW232892   6.138   3.680   5.347
10665SOL     OW32893   0.735   1.812   0.245
10665SOL    HW132894   0.746   1.910   0.229
10665SOL    HW232895   0.799   1.761   0.187
10666SOL     OW32896   3.750   3.655   1.852
10666SOL    HW132897   3.796   3.627   1.937
10666SOL    HW232898   3.713   3.574   1.806
10667SOL     OW32899   4.591   2.675   4.098
10667SOL    HW132900   4.571   2.736   4.021
10667SOL    HW232901   4.597   2.580   4.065
10668SOL     OW32902   2.493   0.534   5.417
10668SOL    HW132903   2.535   0.618   5.383
10668SOL    HW232904   2.402   0.524   5.378
10669SOL     OW32905   5.389   0.298   1.854
10669SOL    HW132906   5.334   0.316   1.935
10669SOL    HW232907   5.440   0.213   1.866
10670SOL     OW32908   5.649   4.546   5.149
10670SOL    HW132909   5.646   4.622   5.214
10670SOL    HW232910   5.685   4.465   5.194
10671SOL     OW32911   2.189   2.045   3.566
10671SOL    HW132912   2.233   1.960   3.538
10671SOL    HW232913   2.221   2.121   3.509
10672SOL     OW32914   6.656   3.677   0.895
10672SOL    HW132915   6.572   3.720   0.863
10672SOL    HW232916   6.659   3.582   0.862
10673SOL     OW32917   0.918   0.549   6.823
10673SOL    HW132918   0.880   0.583   6.737
10673SOL    HW232919   0.849   0.494   6.871
10674SOL     OW32920   3.655   4.140   2.435
10674SOL    HW132921   3.619   4.219   2.386
10674SOL    HW232922   3.751   4.126   2.410
10675SOL     OW32923   2.051   6.657   6.731
10675SOL    HW132924   1.954   6.664   6.753
10675SOL    HW232925   2.096   6.598   6.798
10676SOL     OW32926   6.204   5.545   5.575
10676SOL    HW132927   6.262   5.597   5.512
10676SOL    HW232928   6.108   5.562   5.553
10677SOL     OW32929   1.556   0.794   1.550
10677SOL    HW132930   1.637   0.811   1.606
10677SOL    HW232931   1.490   0.741   1.602
10678SOL     OW32932   4.464   5.431   4.213
10678SOL    HW132933   4.552   5.468   4.182
10678SOL    HW232934   4.464   5.332   4.202
10679SOL     OW32935   4.620   5.560   6.673
10679SOL    HW132936   4.710   5.544   6.712
10679SOL    HW232937   4.554   5.495   6.712
10680SOL     OW32938   3.597   1.465   4.284
10680SOL    HW132939   3.594   1.371   4.250
10680SOL    HW232940   3.641   1.524   4.217
10681SOL     OW32941   0.773   3.825   0.961
10681SOL    HW132942   0.804   3.731   0.946
10681SOL    HW232943   0.844   3.889   0.932
10682SOL     OW32944   0.793   1.332   5.662
10682SOL    HW132945   0.752   1.419   5.692
10682SOL    HW232946   0.833   1.285   5.741
10683SOL     OW32947   3.694   2.084   4.136
10683SOL    HW132948   3.792   2.088   4.116
10683SOL    HW232949   3.642   2.100   4.052
10684SOL     OW32950   5.224   4.632   2.819
10684SOL    HW132951   5.243   4.602   2.726
10684SOL    HW232952   5.145   4.693   2.820
10685SOL     OW32953   0.690   6.011   2.088
10685SOL    HW132954   0.715   5.923   2.047
10685SOL    HW232955   0.760   6.036   2.155
10686SOL     OW32956   0.349   4.679   6.066
10686SOL    HW132957   0.448   4.684   6.048
10686SOL    HW232958   0.301   4.660   5.981
10687SOL     OW32959   5.569   6.081   3.097
10687SOL    HW132960   5.527   5.996   3.065
10687SOL    HW232961   5.649   6.059   3.153
10688SOL     OW32962   6.638   3.749   2.186
10688SOL    HW132963   6.571   3.810   2.228
10688SOL    HW232964   6.678   3.690   2.256
10689SOL     OW32965   6.849   5.683   3.300
10689SOL    HW132966   6.877   5.777   3.279
10689SOL    HW232967   6.757   5.667   3.263
10690SOL     OW32968   6.610   5.893   3.997
10690SOL    HW132969   6.655   5.824   4.053
10690SOL    HW232970   6.556   5.953   4.055
10691SOL     OW32971   0.753   2.596   2.152
10691SOL    HW132972   0.662   2.597   2.111
10691SOL    HW232973   0.744   2.597   2.252
10692SOL     OW32974   3.223   5.980   3.430
10692SOL    HW132975   3.207   5.884   3.405
10692SOL    HW232976   3.266   6.028   3.353
10693SOL     OW32977   2.155   5.911   0.169
10693SOL    HW132978   2.241   5.865   0.190
10693SOL    HW232979   2.084   5.878   0.232
10694SOL     OW32980   5.318   6.742   1.621
10694SOL    HW132981   5.358   6.725   1.531
10694SOL    HW232982   5.331   6.662   1.679
10695SOL     OW32983   0.080   2.441   2.319
10695SOL    HW132984   0.095   2.536   2.347
10695SOL    HW232985   7.009   2.430   2.290
10696SOL     OW32986   0.460   4.093   3.642
10696SOL    HW132987   0.463   4.076   3.740
10696SOL    HW232988   0.545   4.138   3.613
10697SOL     OW32989   6.675   5.480   5.419
10697SOL    HW132990   6.608   5.469   5.346
10697SOL    HW232991   6.767   5.471   5.382
10698SOL     OW32992   4.780   4.861   6.272
10698SOL    HW132993   4.855   4.794   6.274
10698SOL    HW232994   4.706   4.826   6.214
10699SOL     OW32995   4.099   3.513   2.056
10699SOL    HW132996   4.137   3.589   2.003
10699SOL    HW232997   4.126   3.523   2.152
10700SOL     OW32998   0.056   6.800   1.000
10700SOL    HW132999   6.993   6.805   1.049
10700SOL    HW233000   0.048   6.735   0.925
10701SOL     OW33001   3.510   6.104   0.134
10701SOL    HW133002   3.464   6.191   0.116
10701SOL    HW233003   3.485   6.071   0.225
10702SOL     OW33004   5.984   2.683   1.566
10702SOL    HW133005   5.896   2.641   1.542
10702SOL    HW233006   6.016   2.740   1.491
10703SOL     OW33007   3.036   3.089   4.785
10703SOL    HW133008   3.056   3.003   4.832
10703SOL    HW233009   2.976   3.145   4.842
10704SOL     OW33010   6.213   5.970   1.961
10704SOL    HW133011   6.123   5.936   1.987
10704SOL    HW233012   6.219   6.067   1.982
10705SOL     OW33013   6.043   4.484   1.946
10705SOL    HW133014   5.963   4.543   1.957
10705SOL    HW233015   6.025   4.414   1.878
10706SOL     OW33016   4.896   6.808   1.809
10706SOL    HW133017   4.891   6.716   1.769
10706SOL    HW233018   4.830   6.868   1.764
10707SOL     OW33019   0.348   6.502   3.981
10707SOL    HW133020   0.333   6.404   3.968
10707SOL    HW233021   0.283   6.553   3.924
10708SOL     OW33022   3.768   0.540   2.516
10708SOL    HW133023   3.701   0.582   2.455
10708SOL    HW233024   3.723   0.514   2.602
10709SOL     OW33025   5.936   6.170   5.299
10709SOL    HW133026   5.942   6.186   5.397
10709SOL    HW233027   6.007   6.222   5.251
10710SOL     OW33028   0.015   6.610   4.710
10710SOL    HW133029   6.969   6.547   4.745
10710SOL    HW233030   0.055   6.572   4.626
10711SOL     OW33031   1.662   5.852   4.066
10711SOL    HW133032   1.586   5.917   4.059
10711SOL    HW233033   1.636   5.775   4.123
10712SOL     OW33034   2.937   1.057   1.497
10712SOL    HW133035   2.950   1.139   1.441
10712SOL    HW233036   3.025   1.029   1.537
10713SOL     OW33037   0.720   3.180   1.594
10713SOL    HW133038   0.668   3.254   1.551
10713SOL    HW233039   0.817   3.204   1.592
10714SOL     OW33040   6.376   4.279   5.182
10714SOL    HW133041   6.357   4.251   5.088
10714SOL    HW233042   6.328   4.218   5.245
10715SOL     OW33043   5.546   0.453   2.694
10715SOL    HW133044   5.599   0.534   2.720
10715SOL    HW233045   5.561   0.433   2.597
10716SOL     OW33046   5.752   2.423   4.421
10716SOL    HW133047   5.707   2.338   4.394
10716SOL    HW233048   5.846   2.403   4.448
10717SOL     OW33049   1.035   2.567   0.809
10717SOL    HW133050   0.941   2.574   0.843
10717SOL    HW233051   1.092   2.637   0.851
10718SOL     OW33052   0.750   2.807   6.400
10718SOL    HW133053   0.800   2.883   6.359
10718SOL    HW233054   0.782   2.792   6.493
10719SOL     OW33055   5.845   5.932   1.412
10719SOL    HW133056   5.914   5.885   1.468
10719SOL    HW233057   5.784   5.984   1.472
10720SOL     OW33058   0.181   4.290   4.966
10720SOL    HW133059   0.110   4.345   5.013
10720SOL    HW233060   0.185   4.200   5.008
10721SOL     OW33061   5.787   3.795   4.866
10721SOL    HW133062   5.730   3.776   4.786
10721SOL    HW233063   5.746   3.751   4.946
10722SOL     OW33064   1.139   4.784   0.835
10722SOL    HW133065   1.076   4.846   0.789
10722SOL    HW233066   1.138   4.695   0.790
10723SOL     OW33067   0.760   4.031   6.436
10723SOL    HW133068   0.801   4.074   6.516
10723SOL    HW233069   0.661   4.030   6.446
10724SOL     OW33070   5.630   1.187   6.935
10724SOL    HW133071   5.716   1.141   6.912
10724SOL    HW233072   5.604   1.248   6.860
10725SOL     OW33073   1.043   4.539   5.004
10725SOL    HW133074   0.977   4.574   4.937
10725SOL    HW233075   1.032   4.589   5.090
10726SOL     OW33076   5.230   0.559   5.612
10726SOL    HW133077   5.294   0.626   5.575
10726SOL    HW233078   5.199   0.498   5.539
10727SOL     OW33079   0.127   5.104   4.475
10727SOL    HW133080   0.144   5.149   4.563
10727SOL    HW233081   0.111   5.007   4.490
10728SOL     OW33082   6.757   6.419   0.402
10728SOL    HW133083   6.709   6.507   0.407
10728SOL    HW233084   6.841   6.430   0.348
10729SOL     OW33085   5.872   1.193   2.180
10729SOL    HW133086   5.812   1.197   2.099
10729SOL    HW233087   5.818   1.215   2.261
10730SOL     OW33088   2.257   7.002   2.190
10730SOL    HW133089   2.167   6.959   2.180
10730SOL    HW233090   2.326   6.947   2.143
10731SOL     OW33091   3.085   6.184   0.630
10731SOL    HW133092   3.008   6.205   0.691
10731SOL    HW233093   3.076   6.237   0.546
10732SOL     OW33094   5.045   4.631   3.447
10732SOL    HW133095   5.018   4.559   3.510
10732SOL    HW233096   5.143   4.652   3.460
10733SOL     OW33097   5.434   2.375   0.161
10733SOL    HW133098   5.520   2.367   0.112
10733SOL    HW233099   5.422   2.297   0.222
10734SOL     OW33100   1.286   0.219   6.440
10734SOL    HW133101   1.332   0.248   6.355
10734SOL    HW233102   1.347   0.159   6.492
10735SOL     OW33103   1.372   4.047   2.928
10735SOL    HW133104   1.364   3.966   2.870
10735SOL    HW233105   1.434   4.029   3.003
10736SOL     OW33106   0.490   0.053   3.408
10736SOL    HW133107   0.441   7.008   3.355
10736SOL    HW233108   0.554   0.102   3.349
10737SOL     OW33109   1.453   2.134   6.906
10737SOL    HW133110   1.453   2.034   6.912
10737SOL    HW233111   1.388   2.163   6.836
10738SOL     OW33112   2.499   0.409   3.942
10738SOL    HW133113   2.410   0.408   3.987
10738SOL    HW233114   2.570   0.390   4.010
10739SOL     OW33115   0.473   1.238   0.896
10739SOL    HW133116   0.411   1.176   0.943
10739SOL    HW233117   0.436   1.260   0.806
10740SOL     OW33118   0.520   4.656   5.529
10740SOL    HW133119   0.482   4.720   5.462
10740SOL    HW233120   0.577   4.588   5.483
10741SOL     OW33121   0.299   0.310   2.119
10741SOL    HW133122   0.240   0.382   2.082
10741SOL    HW233123   0.360   0.349   2.188
10742SOL     OW33124   5.854   0.224   1.659
10742SOL    HW133125   5.862   0.207   1.561
10742SOL    HW233126   5.926   0.287   1.688
10743SOL     OW33127   2.950   2.286   5.677
10743SOL    HW133128   3.047   2.304   5.662
10743SOL    HW233129   2.923   2.205   5.624
10744SOL     OW33130   2.892   0.679   2.283
10744SOL    HW133131   2.990   0.694   2.269
10744SOL    HW233132   2.840   0.747   2.231
10745SOL     OW33133   0.819   5.187   0.543
10745SOL    HW133134   0.729   5.223   0.568
10745SOL    HW233135   0.884   5.206   0.616
10746SOL     OW33136   1.935   3.687   1.239
10746SOL    HW133137   1.978   3.776   1.223
10746SOL    HW233138   1.971   3.649   1.325
10747SOL     OW33139   4.462   0.794   3.427
10747SOL    HW133140   4.487   0.789   3.331
10747SOL    HW233141   4.489   0.883   3.464
10748SOL     OW33142   3.501   0.921   1.834
10748SOL    HW133143   3.461   0.917   1.925
10748SOL    HW233144   3.468   0.844   1.779
10749SOL     OW33145   6.843   5.032   3.547
10749SOL    HW133146   6.810   5.067   3.635
10749SOL    HW233147   6.860   5.108   3.485
10750SOL     OW33148   4.625   6.066   4.395
10750SOL    HW133149   4.572   5.996   4.347
10750SOL    HW233150   4.583   6.085   4.484
10751SOL     OW33151   1.501   4.475   4.307
10751SOL    HW133152   1.507   4.394   4.249
10751SOL    HW233153   1.591   4.496   4.345
10752SOL     OW33154   6.162   4.188   6.474
10752SOL    HW133155   6.161   4.282   6.440
10752SOL    HW233156   6.122   4.127   6.407
10753SOL     OW33157   3.695   6.454   4.274
10753SOL    HW133158   3.671   6.389   4.346
10753SOL    HW233159   3.743   6.532   4.314
10754SOL     OW33160   1.231   1.860   3.588
10754SOL    HW133161   1.242   1.892   3.682
10754SOL    HW233162   1.180   1.774   3.588
10755SOL     OW33163   0.933   1.940   6.498
10755SOL    HW133164   0.906   1.844   6.495
10755SOL    HW233165   1.019   1.948   6.548
10756SOL     OW33166   6.700   4.239   0.314
10756SOL    HW133167   6.626   4.249   0.247
10756SOL    HW233168   6.667   4.184   0.391
10757SOL     OW33169   1.000   2.910   0.293
10757SOL    HW133170   1.055   2.988   0.321
10757SOL    HW233171   1.003   2.839   0.365
10758SOL     OW33172   0.892   6.598   5.082
10758SOL    HW133173   0.919   6.556   4.995
10758SOL    HW233174   0.895   6.529   5.154
10759SOL     OW33175   1.758   3.055   0.139
10759SOL    HW133176   1.710   3.142   0.145
10759SOL    HW233177   1.695   2.980   0.163
10760SOL     OW33178   5.937   1.720   0.984
10760SOL    HW133179   5.999   1.746   1.059
10760SOL    HW233180   5.990   1.693   0.904
10761SOL     OW33181   1.145   1.521   6.265
10761SOL    HW133182   1.155   1.617   6.238
10761SOL    HW233183   1.234   1.485   6.291
10762SOL     OW33184   3.824   2.082   5.248
10762SOL    HW133185   3.915   2.109   5.279
10762SOL    HW233186   3.813   2.107   5.151
10763SOL     OW33187   4.423   6.547   1.332
10763SOL    HW133188   4.375   6.537   1.420
10763SOL    HW233189   4.466   6.460   1.308
10764SOL     OW33190   5.525   2.029   6.220
10764SOL    HW133191   5.623   2.051   6.222
10764SOL    HW233192   5.492   2.011   6.313
10765SOL     OW33193   5.530   2.677   0.843
10765SOL    HW133194   5.468   2.612   0.799
10765SOL    HW233195   5.479   2.733   0.908
10766SOL     OW33196   4.535   3.024   1.042
10766SOL    HW133197   4.449   2.994   0.999
10766SOL    HW233198   4.573   3.100   0.989
10767SOL     OW33199   0.965   0.470   0.118
10767SOL    HW133200   0.908   0.484   0.037
10767SOL    HW233201   0.984   0.559   0.160
10768SOL     OW33202   4.452   4.422   0.755
10768SOL    HW133203   4.355   4.447   0.749
10768SOL    HW233204   4.493   4.425   0.664
10769SOL     OW33205   2.436   4.848   4.691
10769SOL    HW133206   2.502   4.777   4.716
10769SOL    HW233207   2.346   4.807   4.679
10770SOL     OW33208   5.249   0.421   5.178
10770SOL    HW133209   5.178   0.395   5.243
10770SOL    HW233210   5.328   0.360   5.189
10771SOL     OW33211   4.896   1.110   3.399
10771SOL    HW133212   4.905   1.073   3.306
10771SOL    HW233213   4.955   1.190   3.408
10772SOL     OW33214   0.109   6.759   4.927
10772SOL    HW133215   0.033   6.756   4.991
10772SOL    HW233216   0.084   6.712   4.842
10773SOL     OW33217   0.372   5.979   0.071
10773SOL    HW133218   0.387   5.897   0.126
10773SOL    HW233219   0.370   5.953   6.998
10774SOL     OW33220   1.712   1.186   6.199
10774SOL    HW133221   1.653   1.266   6.192
10774SOL    HW233222   1.791   1.207   6.257
10775SOL     OW33223   0.659   3.291   1.221
10775SOL    HW133224   0.616   3.346   1.293
10775SOL    HW233225   0.732   3.344   1.178
10776SOL     OW33226   1.414   6.706   6.652
10776SOL    HW133227   1.483   6.644   6.614
10776SOL    HW233228   1.345   6.652   6.700
10777SOL     OW33229   3.704   5.877   3.136
10777SOL    HW133230   3.608   5.856   3.155
10777SOL    HW233231   3.745   5.918   3.217
10778SOL     OW33232   5.393   6.554   4.884
10778SOL    HW133233   5.413   6.465   4.924
10778SOL    HW233234   5.438   6.561   4.795
10779SOL     OW33235   6.419   4.832   3.356
10779SOL    HW133236   6.386   4.891   3.430
10779SOL    HW233237   6.405   4.736   3.380
10780SOL     OW33238   1.636   0.264   3.909
10780SOL    HW133239   1.583   0.283   3.826
10780SOL    HW233240   1.709   0.199   3.887
10781SOL     OW33241   4.122   0.852   3.738
10781SOL    HW133242   4.022   0.859   3.740
10781SOL    HW233243   4.158   0.850   3.831
10782SOL     OW33244   6.446   2.143   2.712
10782SOL    HW133245   6.388   2.178   2.786
10782SOL    HW233246   6.539   2.180   2.722
10783SOL     OW33247   0.518   3.498   3.216
10783SOL    HW133248   0.521   3.584   3.165
10783SOL    HW233249   0.487   3.516   3.309
10784SOL     OW33250   3.218   1.110   3.990
10784SOL    HW133251   3.280   1.128   3.914
10784SOL    HW233252   3.209   1.011   4.002
10785SOL     OW33253   0.225   5.389   1.399
10785SOL    HW133254   0.225   5.301   1.447
10785SOL    HW233255   0.245   5.374   1.302
10786SOL     OW33256   4.985   5.055   2.666
10786SOL    HW133257   5.047   5.122   2.706
10786SOL    HW233258   4.916   5.102   2.612
10787SOL     OW33259   2.571   1.769   4.501
10787SOL    HW133260   2.500   1.745   4.567
10787SOL    HW233261   2.606   1.861   4.521
10788SOL     OW33262   2.439   5.223   6.394
10788SOL    HW133263   2.466   5.127   6.400
10788SOL    HW233264   2.480   5.265   6.313
10789SOL     OW33265   6.425   2.607   6.789
10789SOL    HW133266   6.437   2.693   6.740
10789SOL    HW233267   6.506   2.589   6.845
10790SOL     OW33268   1.645   1.158   2.178
10790SOL    HW133269   1.554   1.199   2.171
10790SOL    HW233270   1.645   1.067   2.137
10791SOL     OW33271   0.532   6.693   0.104
10791SOL    HW133272   0.493   6.780   0.135
10791SOL    HW233273   0.552   6.699   0.006
10792SOL     OW33274   3.147   3.548   3.226
10792SOL    HW133275   3.088   3.523   3.150
10792SOL    HW233276   3.092   3.587   3.300
10793SOL     OW33277   5.413   2.752   4.187
10793SOL    HW133278   5.447   2.688   4.255
10793SOL    HW233279   5.439   2.845   4.212
10794SOL     OW33280   3.023   3.951   3.831
10794SOL    HW133281   3.016   3.980   3.927
10794SOL    HW233282   2.965   3.871   3.816
10795SOL     OW33283   0.026   4.332   3.063
10795SOL    HW133284   0.032   4.427   3.032
10795SOL    HW233285   7.014   4.329   3.156
10796SOL     OW33286   5.532   6.601   0.824
10796SOL    HW133287   5.565   6.515   0.784
10796SOL    HW233288   5.593   6.676   0.798
10797SOL     OW33289   4.046   2.142   2.048
10797SOL    HW133290   4.014   2.206   1.978
10797SOL    HW233291   4.128   2.179   2.091
10798SOL     OW33292   3.005   6.537   0.366
10798SOL    HW133293   2.965   6.446   0.354
10798SOL    HW233294   3.101   6.535   0.336
10799SOL     OW33295   3.491   0.633   2.819
10799SOL    HW133296   3.570   0.631   2.881
10799SOL    HW233297   3.496   0.715   2.762
10800SOL     OW33298   0.612   6.444   6.618
10800SOL    HW133299   0.584   6.512   6.550
10800SOL    HW233300   0.643   6.492   6.701
10801SOL     OW33301   0.678   5.866   6.193
10801SOL    HW133302   0.691   5.786   6.134
10801SOL    HW233303   0.680   5.949   6.137
10802SOL     OW33304   0.777   2.396   3.252
10802SOL    HW133305   0.822   2.466   3.196
10802SOL    HW233306   0.836   2.373   3.330
10803SOL     OW33307   3.327   3.615   5.845
10803SOL    HW133308   3.326   3.673   5.764
10803SOL    HW233309   3.260   3.542   5.835
10804SOL     OW33310   6.264   3.514   1.765
10804SOL    HW133311   6.245   3.610   1.786
10804SOL    HW233312   6.246   3.458   1.846
10805SOL     OW33313   3.760   7.008   6.931
10805SOL    HW133314   3.756   0.082   6.908
10805SOL    HW233315   3.856   6.980   6.938
10806SOL     OW33316   4.863   3.641   6.363
10806SOL    HW133317   4.782   3.587   6.385
10806SOL    HW233318   4.943   3.581   6.359
10807SOL     OW33319   1.309   6.781   2.219
10807SOL    HW133320   1.355   6.702   2.261
10807SOL    HW233321   1.375   6.855   2.205
10808SOL     OW33322   6.404   3.037   6.365
10808SOL    HW133323   6.397   3.125   6.319
10808SOL    HW233324   6.314   2.995   6.372
10809SOL     OW33325   2.952   6.085   3.508
10809SOL    HW133326   3.036   6.032   3.502
10809SOL    HW233327   2.961   6.153   3.581
10810SOL     OW33328   2.002   0.592   5.122
10810SOL    HW133329   1.972   0.504   5.087
10810SOL    HW233330   1.928   0.658   5.117
10811SOL     OW33331   4.075   4.307   5.881
10811SOL    HW133332   4.038   4.397   5.906
10811SOL    HW233333   4.105   4.309   5.786
10812SOL     OW33334   0.982   3.289   1.624
10812SOL    HW133335   1.078   3.312   1.609
10812SOL    HW233336   0.955   3.320   1.715
10813SOL     OW33337   2.573   4.983   6.291
10813SOL    HW133338   2.482   5.001   6.253
10813SOL    HW233339   2.631   4.943   6.220
10814SOL     OW33340   1.759   6.821   6.310
10814SOL    HW133341   1.840   6.875   6.288
10814SOL    HW233342   1.682   6.882   6.327
10815SOL     OW33343   4.278   4.665   4.046
10815SOL    HW133344   4.265   4.637   3.951
10815SOL    HW233345   4.352   4.611   4.086
10816SOL     OW33346   2.641   3.037   1.251
10816SOL    HW133347   2.607   2.984   1.174
10816SOL    HW233348   2.564   3.068   1.307
10817SOL     OW33349   4.719   6.713   3.005
10817SOL    HW133350   4.632   6.704   2.956
10817SOL    HW233351   4.793   6.727   2.939
10818SOL     OW33352   4.171   4.658   5.404
10818SOL    HW133353   4.104   4.590   5.372
10818SOL    HW233354   4.153   4.678   5.501
10819SOL     OW33355   6.724   4.591   0.253
10819SOL    HW133356   6.778   4.675   0.244
10819SOL    HW233357   6.783   4.512   0.236
10820SOL     OW33358   6.054   5.832   4.219
10820SOL    HW133359   6.137   5.877   4.186
10820SOL    HW233360   5.977   5.858   4.161
10821SOL     OW33361   5.804   6.911   2.171
10821SOL    HW133362   5.786   6.977   2.244
10821SOL    HW233363   5.854   6.833   2.209
10822SOL     OW33364   6.843   3.003   3.098
10822SOL    HW133365   6.840   3.025   3.195
10822SOL    HW233366   6.927   3.041   3.057
10823SOL     OW33367   1.857   5.791   1.853
10823SOL    HW133368   1.946   5.837   1.859
10823SOL    HW233369   1.790   5.842   1.907
10824SOL     OW33370   6.683   0.574   3.768
10824SOL    HW133371   6.731   0.487   3.776
10824SOL    HW233372   6.683   0.604   3.673
10825SOL     OW33373   2.608   0.650   6.211
10825SOL    HW133374   2.658   0.707   6.277
10825SOL    HW233375   2.515   0.634   6.245
10826SOL     OW33376   1.307   2.890   3.375
10826SOL    HW133377   1.319   2.968   3.437
10826SOL    HW233378   1.393   2.873   3.326
10827SOL     OW33379   5.694   3.731   4.611
10827SOL    HW133380   5.790   3.720   4.587
10827SOL    HW233381   5.646   3.780   4.538
10828SOL     OW33382   0.763   5.816   1.619
10828SOL    HW133383   0.676   5.768   1.608
10828SOL    HW233384   0.746   5.914   1.630
10829SOL     OW33385   3.939   2.364   0.987
10829SOL    HW133386   3.842   2.382   0.972
10829SOL    HW233387   3.976   2.313   0.910
10830SOL     OW33388   5.655   2.096   3.260
10830SOL    HW133389   5.614   2.041   3.333
10830SOL    HW233390   5.747   2.062   3.240
10831SOL     OW33391   4.075   5.513   2.662
10831SOL    HW133392   4.093   5.426   2.707
10831SOL    HW233393   3.985   5.547   2.692
10832SOL     OW33394   1.461   2.588   0.251
10832SOL    HW133395   1.429   2.596   0.345
10832SOL    HW233396   1.400   2.526   0.201
10833SOL     OW33397   1.914   0.730   2.158
10833SOL    HW133398   1.895   0.666   2.084
10833SOL    HW233399   1.860   0.704   2.239
10834SOL     OW33400   0.830   2.315   6.318
10834SOL    HW133401   0.827   2.217   6.301
10834SOL    HW233402   0.861   2.363   6.236
10835SOL     OW33403   6.450   2.177   6.826
10835SOL    HW133404   6.513   2.178   6.748
10835SOL    HW233405   6.502   2.159   6.910
10836SOL     OW33406   6.687   1.716   4.690
10836SOL    HW133407   6.683   1.642   4.756
10836SOL    HW233408   6.701   1.679   4.598
10837SOL     OW33409   6.580   4.928   0.693
10837SOL    HW133410   6.576   4.894   0.599
10837SOL    HW233411   6.534   4.863   0.753
10838SOL     OW33412   4.935   6.364   4.811
10838SOL    HW133413   4.954   6.355   4.713
10838SOL    HW233414   5.020   6.382   4.860
10839SOL     OW33415   4.468   3.046   1.572
10839SOL    HW133416   4.478   3.124   1.509
10839SOL    HW233417   4.500   3.072   1.663
10840SOL     OW33418   3.038   5.630   2.196
10840SOL    HW133419   3.134   5.614   2.218
10840SOL    HW233420   2.985   5.629   2.281
10841SOL     OW33421   5.461   5.541   0.109
10841SOL    HW133422   5.424   5.595   0.033
10841SOL    HW233423   5.513   5.600   0.170
10842SOL     OW33424   4.589   2.545   1.769
10842SOL    HW133425   4.612   2.642   1.767
10842SOL    HW233426   4.491   2.534   1.784
10843SOL     OW33427   1.342   3.011   1.533
10843SOL    HW133428   1.352   2.978   1.627
10843SOL    HW233429   1.257   2.974   1.494
10844SOL     OW33430   0.153   6.907   3.801
10844SOL    HW133431   0.082   6.973   3.780
10844SOL    HW233432   0.206   6.938   3.880
10845SOL     OW33433   3.444   0.362   5.066
10845SOL    HW133434   3.351   0.358   5.030
10845SOL    HW233435   3.443   0.407   5.155
10846SOL     OW33436   4.733   1.615   0.603
10846SOL    HW133437   4.719   1.516   0.606
10846SOL    HW233438   4.744   1.650   0.695
10847SOL     OW33439   3.529   3.365   6.386
10847SOL    HW133440   3.524   3.265   6.383
10847SOL    HW233441   3.512   3.402   6.295
10848SOL     OW33442   3.017   3.299   6.906
10848SOL    HW133443   3.057   3.221   6.955
10848SOL    HW233444   2.941   3.268   6.849
10849SOL     OW33445   2.325   6.081   2.860
10849SOL    HW133446   2.336   5.991   2.904
10849SOL    HW233447   2.242   6.125   2.895
10850SOL     OW33448   3.415   4.592   6.715
10850SOL    HW133449   3.509   4.590   6.749
10850SOL    HW233450   3.414   4.568   6.618
10851SOL     OW33451   1.953   2.834   6.784
10851SOL    HW133452   1.998   2.908   6.734
10851SOL    HW233453   1.985   2.834   6.879
10852SOL     OW33454   1.398   0.297   6.872
10852SOL    HW133455   1.319   0.284   6.811
10852SOL    HW233456   1.476   0.330   6.819
10853SOL     OW33457   2.604   1.895   5.537
10853SOL    HW133458   2.551   1.959   5.593
10853SOL    HW233459   2.678   1.857   5.592
10854SOL     OW33460   4.363   5.402   5.345
10854SOL    HW133461   4.419   5.383   5.265
10854SOL    HW233462   4.267   5.380   5.324
10855SOL     OW33463   2.849   6.667   1.056
10855SOL    HW133464   2.820   6.662   0.960
10855SOL    HW233465   2.948   6.669   1.061
10856SOL     OW33466   5.829   1.943   0.882
10856SOL    HW133467   5.781   1.980   0.962
10856SOL    HW233468   5.864   1.852   0.903
10857SOL     OW33469   6.495   2.529   2.308
10857SOL    HW133470   6.453   2.584   2.236
10857SOL    HW233471   6.423   2.490   2.366
10858SOL     OW33472   0.577   2.137   6.129
10858SOL    HW133473   0.545   2.140   6.224
10858SOL    HW233474   0.674   2.110   6.128
10859SOL     OW33475   2.096   3.425   4.049
10859SOL    HW133476   2.128   3.339   4.087
10859SOL    HW233477   2.061   3.484   4.122
10860SOL     OW33478   6.697   1.668   5.889
10860SOL    HW133479   6.644   1.730   5.831
10860SOL    HW233480   6.660   1.575   5.880
10861SOL     OW33481   3.958   3.075   2.917
10861SOL    HW133482   3.919   3.019   2.845
10861SOL    HW233483   4.053   3.047   2.934
10862SOL     OW33484   2.345   1.833   5.903
10862SOL    HW133485   2.374   1.911   5.959
10862SOL    HW233486   2.377   1.748   5.945
10863SOL     OW33487   3.834   0.549   3.771
10863SOL    HW133488   3.932   0.531   3.783
10863SOL    HW233489   3.798   0.594   3.853
10864SOL     OW33490   3.364   5.008   0.557
10864SOL    HW133491   3.424   5.085   0.538
10864SOL    HW233492   3.296   4.999   0.484
10865SOL     OW33493   6.803   1.475   2.581
10865SOL    HW133494   6.807   1.383   2.620
10865SOL    HW233495   6.895   1.515   2.579
10866SOL     OW33496   5.120   4.922   0.176
10866SOL    HW133497   5.109   5.019   0.153
10866SOL    HW233498   5.083   4.905   0.267
10867SOL     OW33499   3.682   3.933   0.443
10867SOL    HW133500   3.734   3.972   0.519
10867SOL    HW233501   3.634   3.851   0.473
10868SOL     OW33502   3.413   2.130   3.762
10868SOL    HW133503   3.368   2.052   3.805
10868SOL    HW233504   3.353   2.210   3.765
10869NA      NA33505   0.256   2.179   5.656
10870NA      NA33506   4.335   4.667   5.231
10871NA      NA33507   1.754   4.070   2.422
10872NA      NA33508   4.875   4.120   3.881
10873NA      NA33509   4.333   2.379   5.236
10874NA      NA33510   3.182   4.882   1.789
10875NA      NA33511   0.059   4.672   0.657
10876NA      NA33512   3.366   3.416   3.207
10877NA      NA33513   4.998   5.198   1.272
10878NA      NA33514   3.650   6.320   5.448
10879NA      NA33515   6.104   5.483   1.798
10880NA      NA33516   2.170   1.080   4.629
10881NA      NA33517   3.864   5.094   1.876
10882NA      NA33518   3.816   3.251   1.617
   7.02383   7.02383   7.02383
