Generated by trjconv : CNT in water t= 411.00000
33518
    1C        C    1   2.843   2.773   4.751
    1C        C    2   2.897   2.717   4.868
    1C        C    3   2.841   2.772   4.984
    1C        C    4   2.853   2.777   4.262
    1C        C    5   2.904   2.730   4.386
    1C        C    6   2.850   2.775   4.509
    1C        C    7   3.018   2.647   4.629
    1C        C    8   2.900   2.726   4.631
    1C        C    9   3.080   2.605   4.749
    1C        C   10   3.012   2.634   4.869
    1C        C   11   3.184   2.494   4.978
    1C        C   12   3.064   2.566   4.980
    1C        C   13   2.856   2.778   3.773
    1C        C   14   2.908   2.729   3.895
    1C        C   15   2.859   2.783   4.016
    1C        C   16   3.025   2.654   4.141
    1C        C   17   2.910   2.736   4.140
    1C        C   18   3.087   2.625   4.264
    1C        C   19   3.023   2.654   4.387
    1C        C   20   3.213   2.560   4.508
    1C        C   21   3.084   2.616   4.508
    1C        C   22   3.285   2.536   4.628
    1C        C   23   3.210   2.547   4.747
    1C        C   24   3.416   2.487   4.868
    1C        C   25   3.275   2.508   4.868
    1C        C   26   3.494   2.491   4.984
    1C        C   27   2.855   2.775   3.285
    1C        C   28   2.907   2.731   3.409
    1C        C   29   2.857   2.781   3.531
    1C        C   30   3.024   2.646   3.654
    1C        C   31   2.910   2.730   3.652
    1C        C   32   3.080   2.604   3.776
    1C        C   33   3.020   2.644   3.898
    1C        C   34   3.215   2.557   4.020
    1C        C   35   3.084   2.609   4.020
    1C        C   36   3.282   2.534   4.142
    1C        C   37   3.215   2.565   4.263
    1C        C   38   3.418   2.510   4.386
    1C        C   39   3.280   2.540   4.386
    1C        C   40   3.491   2.497   4.506
    1C        C   41   3.422   2.503   4.629
    1C        C   42   3.636   2.481   4.747
    1C        C   43   3.494   2.483   4.749
    1C        C   44   3.709   2.489   4.868
    1C        C   45   3.633   2.479   4.985
    1C        C   46   2.844   2.758   2.800
    1C        C   47   2.903   2.718   2.922
    1C        C   48   2.848   2.767   3.043
    1C        C   49   3.024   2.645   3.167
    1C        C   50   2.906   2.723   3.164
    1C        C   51   3.086   2.612   3.289
    1C        C   52   3.021   2.647   3.410
    1C        C   53   3.212   2.550   3.529
    1C        C   54   3.083   2.609   3.531
    1C        C   55   3.277   2.529   3.653
    1C        C   56   3.210   2.550   3.776
    1C        C   57   3.421   2.510   3.895
    1C        C   58   3.282   2.537   3.897
    1C        C   59   3.487   2.496   4.019
    1C        C   60   3.419   2.500   4.142
    1C        C   61   3.631   2.498   4.262
    1C        C   62   3.490   2.495   4.265
    1C        C   63   3.703   2.508   4.383
    1C        C   64   3.632   2.493   4.505
    1C        C   65   3.840   2.542   4.623
    1C        C   66   3.706   2.497   4.625
    1C        C   67   3.905   2.565   4.746
    1C        C   68   3.845   2.527   4.868
    1C        C   69   4.053   2.591   4.982
    1C        C   70   3.925   2.533   4.982
    1C        C   71   2.829   2.740   2.313
    1C        C   72   2.889   2.697   2.433
    1C        C   73   2.841   2.752   2.554
    1C        C   74   3.011   2.629   2.676
    1C        C   75   2.894   2.708   2.678
    1C        C   76   3.076   2.601   2.798
    1C        C   77   3.018   2.637   2.922
    1C        C   78   3.210   2.546   3.039
    1C        C   79   3.081   2.605   3.044
    1C        C   80   3.278   2.531   3.162
    1C        C   81   3.212   2.549   3.286
    1C        C   82   3.417   2.495   3.406
    1C        C   83   3.279   2.523   3.407
    1C        C   84   3.485   2.489   3.530
    1C        C   85   3.415   2.499   3.652
    1C        C   86   3.630   2.501   3.773
    1C        C   87   3.489   2.498   3.772
    1C        C   88   3.698   2.504   3.897
    1C        C   89   3.629   2.493   4.020
    1C        C   90   3.836   2.548   4.138
    1C        C   91   3.701   2.507   4.140
    1C        C   92   3.905   2.574   4.258
    1C        C   93   3.839   2.549   4.381
    1C        C   94   4.030   2.641   4.504
    1C        C   95   3.906   2.573   4.502
    1C        C   96   4.095   2.670   4.626
    1C        C   97   4.030   2.633   4.745
    1C        C   98   4.196   2.767   4.864
    1C        C   99   4.099   2.662   4.866
    1C        C  100   4.211   2.849   4.977
    1C        C  101   2.824   2.729   2.073
    1C        C  102   2.994   2.597   2.193
    1C        C  103   2.880   2.683   2.193
    1C        C  104   3.070   2.581   2.313
    1C        C  105   3.007   2.619   2.433
    1C        C  106   3.204   2.536   2.554
    1C        C  107   3.074   2.593   2.555
    1C        C  108   3.274   2.522   2.675
    1C        C  109   3.205   2.545   2.796
    1C        C  110   3.415   2.496   2.919
    1C        C  111   3.276   2.521   2.916
    1C        C  112   3.486   2.488   3.040
    1C        C  113   3.415   2.499   3.162
    1C        C  114   3.628   2.493   3.281
    1C        C  115   3.486   2.488   3.283
    1C        C  116   3.695   2.502   3.405
    1C        C  117   3.627   2.494   3.528
    1C        C  118   3.834   2.548   3.650
    1C        C  119   3.698   2.510   3.649
    1C        C  120   3.898   2.575   3.772
    1C        C  121   3.833   2.546   3.894
    1C        C  122   4.023   2.646   4.017
    1C        C  123   3.901   2.574   4.015
    1C        C  124   4.089   2.677   4.138
    1C        C  125   4.029   2.641   4.260
    1C        C  126   4.199   2.770   4.380
    1C        C  127   4.089   2.682   4.382
    1C        C  128   4.242   2.827   4.502
    1C        C  129   4.195   2.771   4.623
    1C        C  130   4.329   2.939   4.743
    1C        C  131   4.245   2.824   4.744
    1C        C  132   4.355   3.008   4.864
    1C        C  133   4.286   2.966   4.978
    1C        C  134   3.177   2.475   2.082
    1C        C  135   3.043   2.514   2.087
    1C        C  136   3.262   2.479   2.193
    1C        C  137   3.199   2.522   2.312
    1C        C  138   3.409   2.482   2.430
    1C        C  139   3.270   2.505   2.433
    1C        C  140   3.482   2.478   2.551
    1C        C  141   3.413   2.493   2.673
    1C        C  142   3.624   2.493   2.794
    1C        C  143   3.483   2.491   2.795
    1C        C  144   3.697   2.500   2.915
    1C        C  145   3.628   2.493   3.037
    1C        C  146   3.836   2.533   3.159
    1C        C  147   3.699   2.499   3.159
    1C        C  148   3.900   2.559   3.283
    1C        C  149   3.832   2.538   3.404
    1C        C  150   4.024   2.633   3.525
    1C        C  151   3.898   2.568   3.526
    1C        C  152   4.083   2.671   3.647
    1C        C  153   4.025   2.637   3.772
    1C        C  154   4.192   2.771   3.891
    1C        C  155   4.079   2.686   3.893
    1C        C  156   4.242   2.820   4.013
    1C        C  157   4.196   2.770   4.137
    1C        C  158   4.345   2.923   4.255
    1C        C  159   4.252   2.816   4.258
    1C        C  160   4.379   2.987   4.376
    1C        C  161   4.329   2.938   4.499
    1C        C  162   4.436   3.121   4.621
    1C        C  163   4.369   2.997   4.621
    1C        C  164   4.467   3.188   4.741
    1C        C  165   4.428   3.129   4.863
    1C        C  166   4.524   3.322   4.975
    1C        C  167   4.477   3.191   4.979
    1C        C  168   3.476   2.441   2.074
    1C        C  169   3.402   2.460   2.192
    1C        C  170   3.623   2.465   2.310
    1C        C  171   3.481   2.465   2.309
    1C        C  172   3.695   2.488   2.429
    1C        C  173   3.623   2.482   2.551
    1C        C  174   3.830   2.542   2.670
    1C        C  175   3.695   2.502   2.671
    1C        C  176   3.899   2.561   2.791
    1C        C  177   3.833   2.539   2.914
    1C        C  178   4.027   2.623   3.034
    1C        C  179   3.900   2.561   3.036
    1C        C  180   4.085   2.662   3.157
    1C        C  181   4.023   2.629   3.279
    1C        C  182   4.193   2.756   3.402
    1C        C  183   4.085   2.665   3.401
    1C        C  184   4.241   2.810   3.523
    1C        C  185   4.187   2.767   3.646
    1C        C  186   4.334   2.923   3.768
    1C        C  187   4.243   2.815   3.766
    1C        C  188   4.374   2.985   3.888
    1C        C  189   4.335   2.926   4.011
    1C        C  190   4.450   3.106   4.130
    1C        C  191   4.382   2.982   4.132
    1C        C  192   4.471   3.174   4.252
    1C        C  193   4.441   3.114   4.376
    1C        C  194   4.511   3.316   4.495
    1C        C  195   4.469   3.181   4.497
    1C        C  196   4.534   3.388   4.614
    1C        C  197   4.512   3.323   4.738
    1C        C  198   4.552   3.539   4.853
    1C        C  199   4.533   3.397   4.857
    1C        C  200   4.588   3.623   4.963
    1C        C  201   3.615   2.424   2.077
    1C        C  202   3.829   2.514   2.184
    1C        C  203   3.697   2.459   2.189
    1C        C  204   3.898   2.547   2.304
    1C        C  205   3.831   2.523   2.427
    1C        C  206   4.021   2.627   2.547
    1C        C  207   3.898   2.558   2.546
    1C        C  208   4.081   2.668   2.668
    1C        C  209   4.020   2.634   2.791
    1C        C  210   4.193   2.757   2.911
    1C        C  211   4.081   2.671   2.913
    1C        C  212   4.248   2.799   3.034
    1C        C  213   4.198   2.748   3.156
    1C        C  214   4.331   2.912   3.276
    1C        C  215   4.244   2.801   3.279
    1C        C  216   4.367   2.974   3.398
    1C        C  217   4.331   2.919   3.523
    1C        C  218   4.430   3.109   3.641
    1C        C  219   4.371   2.980   3.644
    1C        C  220   4.458   3.175   3.763
    1C        C  221   4.439   3.111   3.887
    1C        C  222   4.502   3.313   4.007
    1C        C  223   4.470   3.175   4.009
    1C        C  224   4.517   3.381   4.129
    1C        C  225   4.508   3.311   4.251
    1C        C  226   4.528   3.525   4.370
    1C        C  227   4.522   3.384   4.372
    1C        C  228   4.522   3.598   4.491
    1C        C  229   4.535   3.529   4.613
    1C        C  230   4.509   3.748   4.728
    1C        C  231   4.538   3.609   4.730
    1C        C  232   4.505   3.826   4.846
    1C        C  233   4.551   3.759   4.960
    1C        C  234   4.021   2.604   2.066
    1C        C  235   3.897   2.542   2.065
    1C        C  236   4.085   2.652   2.182
    1C        C  237   4.025   2.611   2.303
    1C        C  238   4.198   2.738   2.426
    1C        C  239   4.084   2.654   2.424
    1C        C  240   4.254   2.792   2.544
    1C        C  241   4.196   2.751   2.666
    1C        C  242   4.340   2.908   2.787
    1C        C  243   4.247   2.802   2.788
    1C        C  244   4.377   2.964   2.911
    1C        C  245   4.338   2.907   3.035
    1C        C  246   4.437   3.098   3.153
    1C        C  247   4.378   2.970   3.155
    1C        C  248   4.457   3.167   3.275
    1C        C  249   4.428   3.101   3.397
    1C        C  250   4.497   3.305   3.517
    1C        C  251   4.458   3.170   3.517
    1C        C  252   4.513   3.376   3.638
    1C        C  253   4.506   3.308   3.762
    1C        C  254   4.523   3.521   3.882
    1C        C  255   4.519   3.380   3.883
    1C        C  256   4.519   3.591   4.004
    1C        C  257   4.527   3.522   4.127
    1C        C  258   4.501   3.735   4.243
    1C        C  259   4.523   3.596   4.248
    1C        C  260   4.477   3.804   4.364
    1C        C  261   4.498   3.737   4.487
    1C        C  262   4.432   3.944   4.605
    1C        C  263   4.483   3.813   4.605
    1C        C  264   4.398   4.012   4.725
    1C        C  265   4.435   3.948   4.845
    1C        C  266   4.321   4.133   4.961
    1C        C  267   4.396   4.015   4.961
    1C        C  268   4.263   2.778   2.067
    1C        C  269   4.200   2.734   2.184
    1C        C  270   4.351   2.888   2.302
    1C        C  271   4.253   2.785   2.304
    1C        C  272   4.391   2.955   2.420
    1C        C  273   4.346   2.899   2.542
    1C        C  274   4.448   3.087   2.665
    1C        C  275   4.384   2.961   2.663
    1C        C  276   4.477   3.154   2.786
    1C        C  277   4.444   3.088   2.907
    1C        C  278   4.503   3.293   3.028
    1C        C  279   4.466   3.157   3.028
    1C        C  280   4.512   3.367   3.148
    1C        C  281   4.496   3.303   3.274
    1C        C  282   4.521   3.515   3.392
    1C        C  283   4.511   3.374   3.395
    1C        C  284   4.520   3.585   3.515
    1C        C  285   4.522   3.517   3.640
    1C        C  286   4.496   3.731   3.755
    1C        C  287   4.522   3.592   3.760
    1C        C  288   4.477   3.797   3.878
    1C        C  289   4.493   3.730   4.002
    1C        C  290   4.430   3.936   4.123
    1C        C  291   4.480   3.804   4.121
    1C        C  292   4.396   4.001   4.244
    1C        C  293   4.426   3.936   4.365
    1C        C  294   4.333   4.133   4.481
    1C        C  295   4.402   4.009   4.484
    1C        C  296   4.291   4.193   4.602
    1C        C  297   4.326   4.135   4.725
    1C        C  298   4.202   4.317   4.841
    1C        C  299   4.288   4.203   4.845
    1C        C  300   4.172   4.407   4.947
    1C        C  301   4.351   2.885   2.066
    1C        C  302   4.470   3.071   2.179
    1C        C  303   4.401   2.946   2.182
    1C        C  304   4.489   3.143   2.300
    1C        C  305   4.454   3.081   2.422
    1C        C  306   4.515   3.286   2.540
    1C        C  307   4.482   3.149   2.543
    1C        C  308   4.518   3.359   2.661
    1C        C  309   4.508   3.292   2.784
    1C        C  310   4.526   3.503   2.903
    1C        C  311   4.522   3.362   2.906
    1C        C  312   4.523   3.577   3.023
    1C        C  313   4.519   3.508   3.146
    1C        C  314   4.491   3.719   3.267
    1C        C  315   4.517   3.580   3.267
    1C        C  316   4.472   3.790   3.388
    1C        C  317   4.494   3.724   3.510
    1C        C  318   4.424   3.927   3.632
    1C        C  319   4.473   3.794   3.631
    1C        C  320   4.397   3.991   3.755
    1C        C  321   4.425   3.928   3.878
    1C        C  322   4.319   4.113   3.994
    1C        C  323   4.396   3.995   3.999
    1C        C  324   4.276   4.172   4.116
    1C        C  325   4.322   4.122   4.239
    1C        C  326   4.184   4.285   4.356
    1C        C  327   4.285   4.186   4.360
    1C        C  328   4.134   4.336   4.478
    1C        C  329   4.191   4.292   4.600
    1C        C  330   4.025   4.435   4.718
    1C        C  331   4.138   4.349   4.718
    1C        C  332   3.971   4.493   4.835
    1C        C  333   4.051   4.478   4.950
    1C        C  334   4.550   3.269   2.063
    1C        C  335   4.534   3.130   2.065
    1C        C  336   4.540   3.352   2.176
    1C        C  337   4.522   3.282   2.297
    1C        C  338   4.523   3.497   2.416
    1C        C  339   4.524   3.356   2.417
    1C        C  340   4.521   3.573   2.535
    1C        C  341   4.527   3.500   2.656
    1C        C  342   4.494   3.709   2.777
    1C        C  343   4.525   3.571   2.779
    1C        C  344   4.470   3.779   2.897
    1C        C  345   4.495   3.716   3.020
    1C        C  346   4.420   3.915   3.141
    1C        C  347   4.472   3.783   3.142
    1C        C  348   4.391   3.984   3.261
    1C        C  349   4.422   3.922   3.384
    1C        C  350   4.315   4.104   3.506
    1C        C  351   4.393   3.986   3.507
    1C        C  352   4.276   4.163   3.628
    1C        C  353   4.321   4.110   3.751
    1C        C  354   4.173   4.266   3.870
    1C        C  355   4.270   4.163   3.872
    1C        C  356   4.123   4.321   3.990
    1C        C  357   4.175   4.270   4.111
    1C        C  358   4.014   4.409   4.233
    1C        C  359   4.127   4.323   4.233
    1C        C  360   3.953   4.446   4.355
    1C        C  361   4.017   4.414   4.477
    1C        C  362   3.831   4.522   4.597
    1C        C  363   3.958   4.462   4.596
    1C        C  364   3.764   4.554   4.718
    1C        C  365   3.842   4.549   4.835
    1C        C  366   3.633   4.599   4.953
    1C        C  367   3.771   4.580   4.952
    1C        C  368   4.515   3.566   2.055
    1C        C  369   4.528   3.493   2.173
    1C        C  370   4.502   3.707   2.290
    1C        C  371   4.517   3.566   2.293
    1C        C  372   4.481   3.780   2.409
    1C        C  373   4.499   3.712   2.532
    1C        C  374   4.425   3.909   2.650
    1C        C  375   4.478   3.778   2.655
    1C        C  376   4.386   3.972   2.771
    1C        C  377   4.415   3.909   2.894
    1C        C  378   4.316   4.095   3.013
    1C        C  379   4.390   3.975   3.017
    1C        C  380   4.275   4.156   3.134
    1C        C  381   4.314   4.102   3.258
    1C        C  382   4.179   4.263   3.381
    1C        C  383   4.272   4.156   3.382
    1C        C  384   4.125   4.311   3.502
    1C        C  385   4.177   4.264   3.624
    1C        C  386   4.004   4.388   3.744
    1C        C  387   4.122   4.311   3.746
    1C        C  388   3.942   4.424   3.865
    1C        C  389   4.006   4.399   3.989
    1C        C  390   3.820   4.497   4.110
    1C        C  391   3.950   4.440   4.112
    1C        C  392   3.756   4.525   4.232
    1C        C  393   3.825   4.505   4.354
    1C        C  394   3.621   4.563   4.478
    1C        C  395   3.759   4.532   4.476
    1C        C  396   3.549   4.572   4.599
    1C        C  397   3.624   4.572   4.719
    1C        C  398   3.414   4.557   4.844
    1C        C  399   3.552   4.586   4.839
    1C        C  400   3.345   4.518   4.960
    1C        C  401   4.512   3.706   2.054
    1C        C  402   4.450   3.915   2.167
    1C        C  403   4.495   3.781   2.170
    1C        C  404   4.410   3.982   2.285
    1C        C  405   4.432   3.912   2.406
    1C        C  406   4.324   4.095   2.528
    1C        C  407   4.396   3.974   2.528
    1C        C  408   4.278   4.153   2.649
    1C        C  409   4.316   4.094   2.771
    1C        C  410   4.178   4.258   2.892
    1C        C  411   4.273   4.154   2.892
    1C        C  412   4.126   4.305   3.014
    1C        C  413   4.178   4.258   3.137
    1C        C  414   4.005   4.385   3.255
    1C        C  415   4.121   4.304   3.259
    1C        C  416   3.945   4.422   3.377
    1C        C  417   4.005   4.385   3.500
    1C        C  418   3.815   4.482   3.623
    1C        C  419   3.943   4.422   3.621
    1C        C  420   3.749   4.515   3.744
    1C        C  421   3.817   4.490   3.865
    1C        C  422   3.612   4.540   3.991
    1C        C  423   3.750   4.509   3.988
    1C        C  424   3.544   4.546   4.115
    1C        C  425   3.616   4.546   4.237
    1C        C  426   3.405   4.554   4.359
    1C        C  427   3.546   4.563   4.358
    1C        C  428   3.336   4.548   4.482
    1C        C  429   3.408   4.562   4.603
    1C        C  430   3.199   4.524   4.724
    1C        C  431   3.338   4.550   4.725
    1C        C  432   3.130   4.501   4.846
    1C        C  433   3.207   4.501   4.964
    1C        C  434   4.386   4.126   2.054
    1C        C  435   4.448   4.001   2.056
    1C        C  436   4.300   4.165   2.162
    1C        C  437   4.337   4.104   2.284
    1C        C  438   4.187   4.255   2.404
    1C        C  439   4.287   4.155   2.406
    1C        C  440   4.129   4.302   2.524
    1C        C  441   4.182   4.257   2.647
    1C        C  442   4.011   4.385   2.765
    1C        C  443   4.127   4.304   2.768
    1C        C  444   3.950   4.418   2.888
    1C        C  445   4.008   4.382   3.011
    1C        C  446   3.815   4.477   3.132
    1C        C  447   3.943   4.416   3.132
    1C        C  448   3.749   4.501   3.255
    1C        C  449   3.815   4.479   3.378
    1C        C  450   3.611   4.532   3.498
    1C        C  451   3.749   4.503   3.500
    1C        C  452   3.545   4.549   3.622
    1C        C  453   3.611   4.546   3.747
    1C        C  454   3.400   4.549   3.868
    1C        C  455   3.542   4.552   3.869
    1C        C  456   3.333   4.541   3.992
    1C        C  457   3.403   4.541   4.115
    1C        C  458   3.196   4.508   4.238
    1C        C  459   3.334   4.536   4.238
    1C        C  460   3.130   4.490   4.362
    1C        C  461   3.199   4.513   4.483
    1C        C  462   3.000   4.439   4.606
    1C        C  463   3.127   4.499   4.604
    1C        C  464   2.937   4.403   4.727
    1C        C  465   2.999   4.445   4.848
    1C        C  466   2.809   4.338   4.962
    1C        C  467   2.911   4.433   4.961
    1C        C  468   4.125   4.295   2.041
    1C        C  469   4.186   4.252   2.160
    1C        C  470   4.012   4.377   2.281
    1C        C  471   4.132   4.301   2.282
    1C        C  472   3.948   4.414   2.401
    1C        C  473   4.013   4.382   2.523
    1C        C  474   3.821   4.479   2.644
    1C        C  475   3.949   4.420   2.643
    1C        C  476   3.753   4.500   2.766
    1C        C  477   3.819   4.473   2.888
    1C        C  478   3.611   4.521   3.008
    1C        C  479   3.751   4.501   3.008
    1C        C  480   3.541   4.529   3.131
    1C        C  481   3.610   4.524   3.254
    1C        C  482   3.399   4.538   3.379
    1C        C  483   3.540   4.540   3.376
    1C        C  484   3.329   4.537   3.503
    1C        C  485   3.404   4.550   3.622
    1C        C  486   3.197   4.503   3.749
    1C        C  487   3.333   4.541   3.744
    1C        C  488   3.132   4.477   3.872
    1C        C  489   3.196   4.506   3.994
    1C        C  490   3.003   4.420   4.118
    1C        C  491   3.128   4.485   4.116
    1C        C  492   2.945   4.385   4.242
    1C        C  493   3.003   4.428   4.363
    1C        C  494   2.832   4.304   4.486
    1C        C  495   2.941   4.393   4.486
    1C        C  496   2.776   4.260   4.608
    1C        C  497   2.829   4.311   4.729
    1C        C  498   2.672   4.163   4.849
    1C        C  499   2.761   4.273   4.847
    1C        C  500   2.603   4.117   4.962
    1C        C  501   4.004   4.363   2.045
    1C        C  502   3.816   4.471   2.160
    1C        C  503   3.944   4.411   2.163
    1C        C  504   3.747   4.489   2.282
    1C        C  505   3.813   4.458   2.403
    1C        C  506   3.610   4.519   2.525
    1C        C  507   3.749   4.492   2.523
    1C        C  508   3.538   4.528   2.646
    1C        C  509   3.614   4.524   2.765
    1C        C  510   3.399   4.529   2.889
    1C        C  511   3.541   4.530   2.886
    1C        C  512   3.327   4.526   3.011
    1C        C  513   3.400   4.531   3.131
    1C        C  514   3.193   4.500   3.256
    1C        C  515   3.332   4.527   3.255
    1C        C  516   3.128   4.479   3.380
    1C        C  517   3.192   4.503   3.503
    1C        C  518   3.007   4.408   3.627
    1C        C  519   3.129   4.479   3.628
    1C        C  520   2.949   4.370   3.750
    1C        C  521   3.008   4.409   3.872
    1C        C  522   2.837   4.288   3.998
    1C        C  523   2.948   4.375   3.995
    1C        C  524   2.793   4.238   4.122
    1C        C  525   2.839   4.292   4.244
    1C        C  526   2.699   4.134   4.367
    1C        C  527   2.783   4.247   4.366
    1C        C  528   2.660   4.076   4.490
    1C        C  529   2.697   4.143   4.609
    1C        C  530   2.587   3.962   4.734
    1C        C  531   2.644   4.092   4.730
    1C        C  532   2.545   3.903   4.856
    1C        C  533   2.536   3.994   4.966
    1C        C  534   3.619   4.565   2.045
    1C        C  535   3.753   4.525   2.048
    1C        C  536   3.538   4.548   2.162
    1C        C  537   3.609   4.522   2.283
    1C        C  538   3.396   4.521   2.403
    1C        C  539   3.537   4.529   2.404
    1C        C  540   3.325   4.518   2.525
    1C        C  541   3.397   4.527   2.647
    1C        C  542   3.187   4.495   2.767
    1C        C  543   3.326   4.522   2.769
    1C        C  544   3.123   4.472   2.891
    1C        C  545   3.189   4.496   3.013
    1C        C  546   2.999   4.407   3.137
    1C        C  547   3.124   4.473   3.136
    1C        C  548   2.945   4.367   3.261
    1C        C  549   3.005   4.410   3.382
    1C        C  550   2.835   4.285   3.509
    1C        C  551   2.946   4.373   3.505
    1C        C  552   2.783   4.236   3.630
    1C        C  553   2.836   4.284   3.752
    1C        C  554   2.709   4.119   3.879
    1C        C  555   2.791   4.234   3.876
    1C        C  556   2.669   4.062   4.002
    1C        C  557   2.707   4.126   4.122
    1C        C  558   2.597   3.948   4.249
    1C        C  559   2.663   4.072   4.245
    1C        C  560   2.564   3.883   4.370
    1C        C  561   2.594   3.951   4.490
    1C        C  562   2.535   3.752   4.618
    1C        C  563   2.570   3.888   4.615
    1C        C  564   2.520   3.683   4.741
    1C        C  565   2.528   3.761   4.860
    1C        C  566   2.518   3.547   4.981
    1C        C  567   2.525   3.686   4.978
    1C        C  568   3.332   4.476   2.046
    1C        C  569   3.399   4.521   2.161
    1C        C  570   3.187   4.479   2.283
    1C        C  571   3.324   4.517   2.281
    1C        C  572   3.118   4.461   2.405
    1C        C  573   3.187   4.492   2.524
    1C        C  574   2.995   4.403   2.650
    1C        C  575   3.118   4.471   2.646
    1C        C  576   2.937   4.362   2.772
    1C        C  577   3.000   4.402   2.892
    1C        C  578   2.834   4.273   3.020
    1C        C  579   2.940   4.367   3.015
    1C        C  580   2.787   4.223   3.143
    1C        C  581   2.836   4.278   3.264
    1C        C  582   2.704   4.117   3.390
    1C        C  583   2.784   4.233   3.388
    1C        C  584   2.668   4.056   3.512
    1C        C  585   2.698   4.123   3.633
    1C        C  586   2.603   3.936   3.758
    1C        C  587   2.664   4.063   3.757
    1C        C  588   2.574   3.874   3.881
    1C        C  589   2.600   3.939   4.004
    1C        C  590   2.539   3.741   4.130
    1C        C  591   2.571   3.879   4.129
    1C        C  592   2.522   3.675   4.254
    1C        C  593   2.528   3.747   4.375
    1C        C  594   2.512   3.538   4.500
    1C        C  595   2.513   3.680   4.499
    1C        C  596   2.519   3.468   4.622
    1C        C  597   2.508   3.542   4.742
    1C        C  598   2.526   3.330   4.863
    1C        C  599   2.513   3.470   4.864
    1C        C  600   2.522   3.248   4.977
    1C        C  601   3.198   4.444   2.046
    1C        C  602   2.986   4.395   2.162
    1C        C  603   3.120   4.446   2.162
    1C        C  604   2.930   4.358   2.287
    1C        C  605   2.992   4.399   2.407
    1C        C  606   2.824   4.273   2.533
    1C        C  607   2.930   4.367   2.530
    1C        C  608   2.773   4.222   2.655
    1C        C  609   2.827   4.273   2.775
    1C        C  610   2.696   4.110   2.898
    1C        C  611   2.784   4.221   2.898
    1C        C  612   2.658   4.056   3.022
    1C        C  613   2.697   4.114   3.145
    1C        C  614   2.600   3.929   3.270
    1C        C  615   2.666   4.054   3.269
    1C        C  616   2.574   3.864   3.393
    1C        C  617   2.602   3.931   3.514
    1C        C  618   2.530   3.734   3.641
    1C        C  619   2.571   3.869   3.637
    1C        C  620   2.518   3.667   3.764
    1C        C  621   2.536   3.738   3.886
    1C        C  622   2.508   3.529   4.011
    1C        C  623   2.526   3.669   4.009
    1C        C  624   2.515   3.462   4.135
    1C        C  625   2.516   3.534   4.257
    1C        C  626   2.534   3.326   4.381
    1C        C  627   2.511   3.465   4.380
    1C        C  628   2.552   3.254   4.501
    1C        C  629   2.537   3.327   4.621
    1C        C  630   2.594   3.124   4.744
    1C        C  631   2.543   3.257   4.743
    1C        C  632   2.623   3.057   4.867
    1C        C  633   2.561   3.114   4.983
    1C        C  634   2.787   4.302   2.056
    1C        C  635   2.899   4.386   2.048
    1C        C  636   2.751   4.232   2.172
    1C        C  637   2.815   4.273   2.291
    1C        C  638   2.683   4.110   2.413
    1C        C  639   2.769   4.222   2.414
    1C        C  640   2.649   4.048   2.535
    1C        C  641   2.688   4.109   2.657
    1C        C  642   2.587   3.923   2.781
    1C        C  643   2.650   4.050   2.779
    1C        C  644   2.569   3.858   2.905
    1C        C  645   2.598   3.928   3.024
    1C        C  646   2.529   3.730   3.154
    1C        C  647   2.573   3.864   3.147
    1C        C  648   2.511   3.659   3.275
    1C        C  649   2.530   3.730   3.396
    1C        C  650   2.507   3.522   3.522
    1C        C  651   2.516   3.663   3.519
    1C        C  652   2.512   3.454   3.646
    1C        C  653   2.510   3.526   3.767
    1C        C  654   2.533   3.318   3.891
    1C        C  655   2.508   3.457   3.890
    1C        C  656   2.557   3.255   4.016
    1C        C  657   2.536   3.322   4.138
    1C        C  658   2.615   3.127   4.261
    1C        C  659   2.553   3.254   4.261
    1C        C  660   2.646   3.062   4.383
    1C        C  661   2.605   3.123   4.503
    1C        C  662   2.714   2.943   4.628
    1C        C  663   2.632   3.058   4.626
    1C        C  664   2.753   2.884   4.751
    1C        C  665   2.695   2.934   4.870
    1C        C  666   2.744   2.872   4.986
    1C        C  667   2.692   4.022   2.056
    1C        C  668   2.689   4.105   2.169
    1C        C  669   2.589   3.918   2.294
    1C        C  670   2.647   4.048   2.291
    1C        C  671   2.560   3.853   2.416
    1C        C  672   2.589   3.920   2.537
    1C        C  673   2.522   3.720   2.664
    1C        C  674   2.559   3.856   2.659
    1C        C  675   2.507   3.653   2.787
    1C        C  676   2.529   3.723   2.908
    1C        C  677   2.503   3.517   3.032
    1C        C  678   2.512   3.658   3.033
    1C        C  679   2.505   3.448   3.155
    1C        C  680   2.502   3.519   3.277
    1C        C  681   2.530   3.311   3.401
    1C        C  682   2.508   3.450   3.401
    1C        C  683   2.549   3.244   3.524
    1C        C  684   2.534   3.314   3.646
    1C        C  685   2.603   3.117   3.772
    1C        C  686   2.549   3.247   3.770
    1C        C  687   2.637   3.058   3.896
    1C        C  688   2.610   3.124   4.019
    1C        C  689   2.720   2.940   4.141
    1C        C  690   2.648   3.062   4.140
    1C        C  691   2.764   2.886   4.263
    1C        C  692   2.726   2.946   4.386
    1C        C  693   2.764   2.887   4.508
    1C        C  694   2.623   3.901   2.061
    1C        C  695   2.527   3.707   2.178
    1C        C  696   2.582   3.837   2.179
    1C        C  697   2.513   3.640   2.302
    1C        C  698   2.525   3.716   2.420
    1C        C  699   2.488   3.510   2.545
    1C        C  700   2.503   3.650   2.543
    1C        C  701   2.498   3.439   2.667
    1C        C  702   2.496   3.512   2.788
    1C        C  703   2.526   3.304   2.912
    1C        C  704   2.501   3.443   2.911
    1C        C  705   2.547   3.237   3.035
    1C        C  706   2.531   3.310   3.155
    1C        C  707   2.601   3.112   3.281
    1C        C  708   2.550   3.243   3.278
    1C        C  709   2.636   3.052   3.404
    1C        C  710   2.602   3.114   3.527
    1C        C  711   2.717   2.939   3.653
    1C        C  712   2.633   3.052   3.650
    1C        C  713   2.763   2.884   3.775
    1C        C  714   2.719   2.943   3.896
    1C        C  715   2.762   2.886   4.017
    1C        C  716   2.451   3.500   2.067
    1C        C  717   2.497   3.632   2.064
    1C        C  718   2.466   3.423   2.187
    1C        C  719   2.484   3.501   2.304
    1C        C  720   2.520   3.295   2.429
    1C        C  721   2.488   3.432   2.427
    1C        C  722   2.543   3.227   2.550
    1C        C  723   2.532   3.302   2.670
    1C        C  724   2.589   3.099   2.792
    1C        C  725   2.540   3.232   2.792
    1C        C  726   2.627   3.042   2.916
    1C        C  727   2.600   3.106   3.038
    1C        C  728   2.710   2.926   3.162
    1C        C  729   2.631   3.043   3.161
    1C        C  730   2.757   2.877   3.286
    1C        C  731   2.713   2.933   3.408
    1C        C  732   2.757   2.880   3.531
    1C        C  733   2.495   3.201   2.075
    1C        C  734   2.493   3.282   2.190
    1C        C  735   2.590   3.089   2.308
    1C        C  736   2.531   3.218   2.311
    1C        C  737   2.620   3.025   2.430
    1C        C  738   2.595   3.095   2.550
    1C        C  739   2.706   2.917   2.674
    1C        C  740   2.622   3.030   2.673
    1C        C  741   2.749   2.863   2.797
    1C        C  742   2.705   2.923   2.917
    1C        C  743   2.752   2.871   3.039
    1C        C  744   2.546   3.072   2.078
    1C        C  745   2.688   2.898   2.188
    1C        C  746   2.612   3.017   2.189
    1C        C  747   2.730   2.842   2.310
    1C        C  748   2.695   2.906   2.431
    1C        C  749   2.745   2.855   2.553
    1C        C  750   2.739   2.839   2.071
    1C        C  751   3.659   2.319   1.982
    1C        O  752   3.683   2.203   2.026
    1C        O  753   3.683   2.351   1.848
    1C        C  754   4.612   3.050   1.968
    1C        O  755   4.566   3.021   1.854
    1C        O  756   4.749   3.071   1.950
    1C        C  757   4.438   4.219   1.951
    1C        O  758   4.514   4.318   1.971
    1C        O  759   4.472   4.162   1.828
    1C        C  760   3.591   4.651   1.928
    1C        O  761   3.571   4.774   1.945
    1C        O  762   3.549   4.614   1.799
    1C        C  763   2.889   4.494   1.948
    1C        O  764   2.902   4.475   1.824
    1C        O  765   2.874   4.632   1.971
    1C        C  766   2.327   3.490   1.987
    1C        O  767   2.325   3.527   1.866
    1C        O  768   2.205   3.500   2.055
    1C        C  769   4.694   3.594   5.063
    1C        O  770   4.674   3.612   5.186
    1C        O  771   4.830   3.595   5.030
    1C        C  772   4.279   4.460   5.034
    1C        O  773   4.265   4.445   5.159
    1C        O  774   4.329   4.589   5.013
    1C        C  775   4.148   2.545   5.085
    1C        O  776   4.262   2.494   5.067
    1C        O  777   4.148   2.600   5.214
    1C        C  778   2.867   4.561   5.021
    1C        O  779   2.788   4.641   4.965
    1C        O  780   2.939   4.603   5.134
    1C        C  781   2.480   3.032   5.076
    1C        O  782   2.360   3.003   5.050
    1C        O  783   2.496   3.035   5.214
    1C        C  784   2.423   3.990   5.062
    1C        O  785   2.312   4.020   5.010
    1C        O  786   2.433   3.965   5.200
    1C        C  787   2.956   2.427   2.005
    1C        O  788   2.969   2.409   1.881
    1C        O  789   2.905   2.315   2.069
    1C        C  790   3.168   2.370   5.058
    1C        O  791   3.092   2.279   5.016
    1C        O  792   3.195   2.358   5.195
    1C        H  793   4.248   3.040   5.046
    1C        H  794   4.126   2.854   5.042
    1C        H  795   4.520   3.135   5.060
    1C        H  796   4.527   3.372   5.070
    1C        H  797   4.557   3.816   5.050
    1C        H  798   4.443   3.988   5.053
    1C        H  799   4.242   4.133   5.034
    1C        H  800   4.040   4.554   5.024
    1C        H  801   3.817   4.590   5.048
    1C        H  802   3.592   4.584   5.051
    1C        H  803   3.400   4.461   5.032
    1C        H  804   3.163   4.516   5.060
    1C        H  805   3.886   2.493   5.073
    1C        H  806   3.681   2.461   5.078
    1C        H  807   3.034   2.598   5.077
    1C        H  808   3.447   2.483   5.080
    1C        H  809   2.882   2.746   5.080
    1C        H  810   2.752   2.934   5.073
    1C        H  811   2.503   3.290   5.073
    1C        H  812   2.458   3.508   5.060
    1C        H  813   2.536   3.736   5.073
    1C        H  814   2.585   4.190   5.037
    1C        H  815   2.764   4.317   5.056
    1C        H  816   2.759   2.910   1.994
    1C        H  817   2.881   2.709   1.985
    1C        H  818   3.221   2.496   1.986
    1C        H  819   3.441   2.496   1.989
    1C        H  820   3.839   2.550   1.975
    1C        H  821   4.059   2.644   1.975
    1C        H  822   4.281   2.706   1.989
    1C        H  823   4.349   2.944   1.977
    1C        H  824   4.628   3.299   1.995
    1C        H  825   4.478   3.514   1.969
    1C        H  826   4.579   3.748   1.982
    1C        H  827   3.811   4.545   1.960
    1C        H  828   3.944   4.360   1.957
    1C        H  829   4.185   4.315   1.954
    1C        H  830   4.489   3.967   1.963
    1C        H  831   2.573   3.868   1.972
    1C        H  832   2.778   4.034   1.993
    1C        H  833   2.714   4.308   1.979
    1C        H  834   3.391   4.458   1.958
    1C        H  835   3.154   4.425   1.950
    1C        H  836   2.563   3.023   1.984
    1C        H  837   2.476   3.235   1.975
    1C        H  838   2.479   3.685   1.972
    2V3OU   H29  839   2.813   3.551   4.737
    2V3OU   C27  840   2.797   3.506   4.838
    2V3OU   H27  841   2.741   3.577   4.904
    2V3OU   H28  842   2.749   3.407   4.822
    2V3OU   O11  843   2.918   3.481   4.912
    2V3OU   C15  844   2.925   3.399   5.022
    2V3OU   C13  845   3.053   3.377   5.078
    2V3OU   C14  846   3.075   3.273   5.169
    2V3OU   C16  847   2.969   3.193   5.211
    2V3OU    H6  848   2.996   3.101   5.265
    2V3OU   C12  849   3.214   3.238   5.208
    2V3OU    O2  850   3.240   3.132   5.270
    2V3OU   C10  851   3.329   3.310   5.154
    2V3OU    C8  852   3.462   3.270   5.162
    2V3OU   O10  853   3.490   3.154   5.229
    2V3OU   H26  854   3.402   3.122   5.255
    2V3OU    C6  855   3.567   3.351   5.110
    2V3OU    C5  856   3.542   3.474   5.050
    2V3OU    C4  857   3.706   3.298   5.111
    2V3OU    H4  858   3.728   3.238   5.205
    2V3OU    H5  859   3.718   3.228   5.023
    2V3OU    C2  860   3.818   3.403   5.105
    2V3OU    O6  861   3.805   3.476   5.227
    2V3OU   H21  862   3.769   3.565   5.211
    2V3OU    C3  863   3.781   3.498   4.991
    2V3OU    H2  864   3.860   3.576   4.975
    2V3OU    H3  865   3.777   3.443   4.894
    2V3OU   C25  866   3.952   3.331   5.087
    2V3OU    O7  867   3.999   3.294   4.980
    2V3OU   C26  868   4.027   3.291   5.213
    2V3OU   H22  869   4.069   3.386   5.255
    2V3OU   H23  870   4.119   3.232   5.187
    2V3OU    O8  871   3.961   3.217   5.313
    2V3OU   H24  872   3.927   3.272   5.385
    2V3OU    C1  873   3.649   3.571   5.010
    2V3OU    H1  874   3.628   3.627   4.914
    2V3OU    O3  875   3.661   3.658   5.123
    2V3OU   C19  876   3.624   3.794   5.103
    2V3OU    H9  877   3.525   3.809   5.049
    2V3OU    O4  878   3.719   3.853   5.017
    2V3OU   C20  879   3.850   3.876   5.071
    2V3OU   H10  880   3.898   3.775   5.088
    2V3OU   C24  881   3.614   3.862   5.239
    2V3OU   H16  882   3.550   3.801   5.307
    2V3OU   H17  883   3.568   3.963   5.220
    2V3OU   C23  884   3.753   3.880   5.302
    2V3OU   H15  885   3.797   3.777   5.324
    2V3OU    N1  886   3.735   3.960   5.422
    2V3OU   H19  887   3.804   3.934   5.490
    2V3OU   H20  888   3.646   3.937   5.460
    2V3OU   C21  889   3.853   3.950   5.205
    2V3OU   H11  890   3.959   3.925   5.235
    2V3OU    O5  891   3.837   4.091   5.207
    2V3OU   H18  892   3.784   4.105   5.287
    2V3OU   C22  893   3.915   3.958   4.961
    2V3OU   H12  894   3.858   4.054   4.949
    2V3OU   H13  895   3.913   3.900   4.865
    2V3OU   H14  896   4.025   3.967   4.979
    2V3OU   C11  897   3.162   3.473   5.061
    2V3OU    O1  898   3.133   3.589   5.023
    2V3OU    C9  899   3.302   3.430   5.083
    2V3OU    C7  900   3.404   3.506   5.027
    2V3OU    O9  901   3.388   3.627   4.963
    2V3OU   H25  902   3.297   3.634   4.928
    2V3OU   C17  903   2.823   3.319   5.077
    2V3OU    H7  904   2.719   3.346   5.059
    2V3OU   C18  905   2.839   3.216   5.169
    2V3OU    H8  906   2.754   3.152   5.199
    3SOL     OW  907   3.662   4.165   4.837
    3SOL    HW1  908   3.682   4.163   4.739
    3SOL    HW2  909   3.668   4.259   4.871
    4SOL     OW  910   6.804   6.938   0.011
    4SOL    HW1  911   6.852   6.965   0.095
    4SOL    HW2  912   6.864   6.880   6.985
    5SOL     OW  913   4.018   1.246   1.382
    5SOL    HW1  914   4.075   1.244   1.300
    5SOL    HW2  915   4.010   1.153   1.418
    6SOL     OW  916   5.419   0.506   2.563
    6SOL    HW1  917   5.516   0.516   2.544
    6SOL    HW2  918   5.368   0.580   2.520
    7SOL     OW  919   1.757   4.853   4.024
    7SOL    HW1  920   1.732   4.804   4.107
    7SOL    HW2  921   1.684   4.917   4.000
    8SOL     OW  922   2.008   3.498   5.658
    8SOL    HW1  923   1.960   3.442   5.726
    8SOL    HW2  924   2.100   3.520   5.692
    9SOL     OW  925   6.407   1.165   6.448
    9SOL    HW1  926   6.312   1.175   6.478
    9SOL    HW2  927   6.462   1.128   6.523
   10SOL     OW  928   4.997   4.765   3.680
   10SOL    HW1  929   5.026   4.670   3.668
   10SOL    HW2  930   4.942   4.793   3.602
   11SOL     OW  931   2.177   1.301   0.796
   11SOL    HW1  932   2.195   1.231   0.727
   11SOL    HW2  933   2.119   1.262   0.868
   12SOL     OW  934   3.265   4.990   3.447
   12SOL    HW1  935   3.203   4.951   3.378
   12SOL    HW2  936   3.249   4.945   3.535
   13SOL     OW  937   4.736   6.057   2.434
   13SOL    HW1  938   4.658   6.106   2.474
   13SOL    HW2  939   4.731   5.960   2.460
   14SOL     OW  940   4.611   4.993   4.815
   14SOL    HW1  941   4.565   5.058   4.755
   14SOL    HW2  942   4.649   5.041   4.894
   15SOL     OW  943   0.317   5.899   6.255
   15SOL    HW1  944   0.373   5.934   6.180
   15SOL    HW2  945   0.341   5.947   6.340
   16SOL     OW  946   0.067   2.957   5.994
   16SOL    HW1  947   7.010   2.974   5.947
   16SOL    HW2  948   0.086   2.858   5.994
   17SOL     OW  949   6.008   1.120   5.327
   17SOL    HW1  950   6.082   1.170   5.283
   17SOL    HW2  951   6.019   1.022   5.310
   18SOL     OW  952   3.562   0.002   5.230
   18SOL    HW1  953   3.590   0.078   5.171
   18SOL    HW2  954   3.622   7.028   5.310
   19SOL     OW  955   0.897   1.182   3.055
   19SOL    HW1  956   0.970   1.135   3.006
   19SOL    HW2  957   0.826   1.211   2.991
   20SOL     OW  958   5.664   2.087   4.786
   20SOL    HW1  959   5.580   2.074   4.734
   20SOL    HW2  960   5.742   2.090   4.723
   21SOL     OW  961   3.486   5.997   2.531
   21SOL    HW1  962   3.566   5.958   2.485
   21SOL    HW2  963   3.512   6.084   2.574
   22SOL     OW  964   2.382   6.816   4.928
   22SOL    HW1  965   2.288   6.815   4.894
   22SOL    HW2  966   2.427   6.729   4.905
   23SOL     OW  967   5.379   4.375   2.150
   23SOL    HW1  968   5.360   4.464   2.109
   23SOL    HW2  969   5.454   4.383   2.215
   24SOL     OW  970   4.216   0.787   1.185
   24SOL    HW1  971   4.294   0.783   1.248
   24SOL    HW2  972   4.172   0.876   1.194
   25SOL     OW  973   2.547   6.977   3.421
   25SOL    HW1  974   2.493   0.016   3.470
   25SOL    HW2  975   2.487   6.902   3.393
   26SOL     OW  976   0.610   2.660   6.787
   26SOL    HW1  977   0.628   2.752   6.754
   26SOL    HW2  978   0.561   2.665   6.875
   27SOL     OW  979   6.100   1.528   1.576
   27SOL    HW1  980   6.033   1.531   1.650
   27SOL    HW2  981   6.191   1.550   1.612
   28SOL     OW  982   2.094   0.592   4.444
   28SOL    HW1  983   2.157   0.668   4.428
   28SOL    HW2  984   2.145   0.511   4.472
   29SOL     OW  985   6.995   0.721   0.613
   29SOL    HW1  986   7.023   0.626   0.627
   29SOL    HW2  987   6.907   0.723   0.566
   30SOL     OW  988   4.325   0.616   4.932
   30SOL    HW1  989   4.248   0.675   4.956
   30SOL    HW2  990   4.303   0.565   4.848
   31SOL     OW  991   1.107   3.200   5.686
   31SOL    HW1  992   1.117   3.128   5.619
   31SOL    HW2  993   1.061   3.279   5.644
   32SOL     OW  994   1.678   0.104   1.604
   32SOL    HW1  995   1.610   0.086   1.533
   32SOL    HW2  996   1.717   0.195   1.591
   33SOL     OW  997   0.681   4.440   5.965
   33SOL    HW1  998   0.694   4.444   5.866
   33SOL    HW2  999   0.769   4.424   6.010
   34SOL     OW 1000   1.860   5.067   5.506
   34SOL    HW1 1001   1.778   5.118   5.483
   34SOL    HW2 1002   1.872   4.992   5.441
   35SOL     OW 1003   3.844   2.834   0.242
   35SOL    HW1 1004   3.860   2.928   0.270
   35SOL    HW2 1005   3.877   2.772   0.312
   36SOL     OW 1006   4.683   0.805   3.773
   36SOL    HW1 1007   4.586   0.829   3.772
   36SOL    HW2 1008   4.697   0.725   3.832
   37SOL     OW 1009   2.172   1.411   3.696
   37SOL    HW1 1010   2.244   1.381   3.633
   37SOL    HW2 1011   2.085   1.414   3.648
   38SOL     OW 1012   1.238   4.568   2.015
   38SOL    HW1 1013   1.324   4.568   2.066
   38SOL    HW2 1014   1.243   4.635   1.941
   39SOL     OW 1015   6.453   5.402   6.721
   39SOL    HW1 1016   6.482   5.313   6.686
   39SOL    HW2 1017   6.387   5.389   6.795
   40SOL     OW 1018   3.545   0.900   6.148
   40SOL    HW1 1019   3.531   0.830   6.078
   40SOL    HW2 1020   3.573   0.856   6.234
   41SOL     OW 1021   5.978   4.089   1.969
   41SOL    HW1 1022   5.889   4.121   2.000
   41SOL    HW2 1023   6.050   4.138   2.018
   42SOL     OW 1024   2.232   5.706   5.254
   42SOL    HW1 1025   2.204   5.623   5.302
   42SOL    HW2 1026   2.156   5.772   5.256
   43SOL     OW 1027   5.134   6.755   4.953
   43SOL    HW1 1028   5.185   6.693   5.012
   43SOL    HW2 1029   5.039   6.759   4.983
   44SOL     OW 1030   5.955   2.224   5.502
   44SOL    HW1 1031   6.053   2.243   5.497
   44SOL    HW2 1032   5.927   2.174   5.420
   45SOL     OW 1033   4.145   5.044   0.120
   45SOL    HW1 1034   4.098   5.013   0.037
   45SOL    HW2 1035   4.214   4.976   0.146
   46SOL     OW 1036   0.813   3.079   4.803
   46SOL    HW1 1037   0.722   3.100   4.767
   46SOL    HW2 1038   0.855   3.008   4.747
   47SOL     OW 1039   5.760   2.952   1.694
   47SOL    HW1 1040   5.701   2.972   1.772
   47SOL    HW2 1041   5.802   2.862   1.706
   48SOL     OW 1042   6.655   3.854   6.890
   48SOL    HW1 1043   6.635   3.885   6.797
   48SOL    HW2 1044   6.643   3.755   6.896
   49SOL     OW 1045   4.709   3.447   6.981
   49SOL    HW1 1046   4.710   3.446   0.052
   49SOL    HW2 1047   4.618   3.419   6.949
   50SOL     OW 1048   5.938   2.669   6.376
   50SOL    HW1 1049   5.910   2.756   6.334
   50SOL    HW2 1050   6.038   2.662   6.375
   51SOL     OW 1051   2.100   4.914   3.439
   51SOL    HW1 1052   2.001   4.929   3.440
   51SOL    HW2 1053   2.146   5.003   3.438
   52SOL     OW 1054   5.682   2.853   1.431
   52SOL    HW1 1055   5.584   2.852   1.409
   52SOL    HW2 1056   5.696   2.898   1.519
   53SOL     OW 1057   3.902   0.346   2.681
   53SOL    HW1 1058   3.854   0.276   2.735
   53SOL    HW2 1059   3.964   0.302   2.616
   54SOL     OW 1060   5.040   6.296   6.642
   54SOL    HW1 1061   5.023   6.198   6.647
   54SOL    HW2 1062   5.090   6.317   6.558
   55SOL     OW 1063   1.768   3.076   6.562
   55SOL    HW1 1064   1.677   3.102   6.528
   55SOL    HW2 1065   1.766   3.068   6.661
   56SOL     OW 1066   1.729   2.288   6.891
   56SOL    HW1 1067   1.822   2.302   6.925
   56SOL    HW2 1068   1.676   2.236   6.959
   57SOL     OW 1069   4.343   0.831   0.490
   57SOL    HW1 1070   4.291   0.747   0.507
   57SOL    HW2 1071   4.431   0.825   0.537
   58SOL     OW 1072   1.083   1.005   6.384
   58SOL    HW1 1073   1.166   1.051   6.416
   58SOL    HW2 1074   1.037   0.962   6.462
   59SOL     OW 1075   5.540   3.592   6.322
   59SOL    HW1 1076   5.534   3.516   6.388
   59SOL    HW2 1077   5.456   3.596   6.269
   60SOL     OW 1078   5.233   0.607   2.953
   60SOL    HW1 1079   5.308   0.597   2.887
   60SOL    HW2 1080   5.255   0.681   3.017
   61SOL     OW 1081   0.401   0.172   5.053
   61SOL    HW1 1082   0.431   0.231   5.129
   61SOL    HW2 1083   0.447   0.200   4.969
   62SOL     OW 1084   0.318   2.372   2.130
   62SOL    HW1 1085   0.272   2.459   2.110
   62SOL    HW2 1086   0.315   2.354   2.228
   63SOL     OW 1087   4.161   6.211   4.604
   63SOL    HW1 1088   4.247   6.223   4.554
   63SOL    HW2 1089   4.087   6.198   4.539
   64SOL     OW 1090   1.175   4.785   6.921
   64SOL    HW1 1091   1.231   4.703   6.929
   64SOL    HW2 1092   1.126   4.784   6.834
   65SOL     OW 1093   0.781   0.199   5.075
   65SOL    HW1 1094   0.863   0.256   5.082
   65SOL    HW2 1095   0.734   0.218   4.989
   66SOL     OW 1096   4.275   0.189   1.877
   66SOL    HW1 1097   4.230   0.141   1.951
   66SOL    HW2 1098   4.343   0.253   1.914
   67SOL     OW 1099   0.367   3.024   1.256
   67SOL    HW1 1100   0.348   2.927   1.268
   67SOL    HW2 1101   0.445   3.035   1.193
   68SOL     OW 1102   6.669   2.387   5.566
   68SOL    HW1 1103   6.747   2.329   5.541
   68SOL    HW2 1104   6.614   2.340   5.635
   69SOL     OW 1105   0.824   5.476   5.673
   69SOL    HW1 1106   0.753   5.515   5.732
   69SOL    HW2 1107   0.802   5.496   5.577
   70SOL     OW 1108   5.088   3.060   4.834
   70SOL    HW1 1109   5.121   2.994   4.767
   70SOL    HW2 1110   5.011   3.111   4.795
   71SOL     OW 1111   4.411   1.945   4.387
   71SOL    HW1 1112   4.405   2.040   4.355
   71SOL    HW2 1113   4.369   1.938   4.477
   72SOL     OW 1114   6.588   0.637   3.583
   72SOL    HW1 1115   6.526   0.578   3.634
   72SOL    HW2 1116   6.569   0.733   3.605
   73SOL     OW 1117   3.070   0.553   0.742
   73SOL    HW1 1118   3.064   0.631   0.805
   73SOL    HW2 1119   2.983   0.505   0.741
   74SOL     OW 1120   1.874   1.789   0.114
   74SOL    HW1 1121   1.935   1.720   0.154
   74SOL    HW2 1122   1.913   1.880   0.127
   75SOL     OW 1123   4.283   1.673   0.645
   75SOL    HW1 1124   4.346   1.728   0.700
   75SOL    HW2 1125   4.331   1.640   0.563
   76SOL     OW 1126   3.096   4.418   5.296
   76SOL    HW1 1127   3.185   4.379   5.271
   76SOL    HW2 1128   3.053   4.458   5.215
   77SOL     OW 1129   1.447   4.834   4.064
   77SOL    HW1 1130   1.479   4.740   4.069
   77SOL    HW2 1131   1.375   4.841   3.995
   78SOL     OW 1132   4.244   1.515   1.190
   78SOL    HW1 1133   4.199   1.428   1.171
   78SOL    HW2 1134   4.301   1.541   1.112
   79SOL     OW 1135   1.754   5.456   1.872
   79SOL    HW1 1136   1.768   5.387   1.942
   79SOL    HW2 1137   1.724   5.541   1.914
   80SOL     OW 1138   4.884   1.678   5.197
   80SOL    HW1 1139   4.940   1.620   5.255
   80SOL    HW2 1140   4.800   1.629   5.172
   81SOL     OW 1141   2.992   6.147   1.464
   81SOL    HW1 1142   2.994   6.191   1.374
   81SOL    HW2 1143   2.953   6.211   1.531
   82SOL     OW 1144   0.942   6.304   1.233
   82SOL    HW1 1145   0.982   6.352   1.311
   82SOL    HW2 1146   0.984   6.338   1.148
   83SOL     OW 1147   5.678   1.857   5.134
   83SOL    HW1 1148   5.681   1.956   5.146
   83SOL    HW2 1149   5.734   1.813   5.205
   84SOL     OW 1150   6.326   2.693   3.263
   84SOL    HW1 1151   6.245   2.732   3.218
   84SOL    HW2 1152   6.341   2.600   3.229
   85SOL     OW 1153   2.301   0.381   4.125
   85SOL    HW1 1154   2.309   0.399   4.223
   85SOL    HW2 1155   2.249   0.454   4.081
   86SOL     OW 1156   5.854   1.215   6.365
   86SOL    HW1 1157   5.890   1.262   6.285
   86SOL    HW2 1158   5.812   1.281   6.428
   87SOL     OW 1159   3.366   3.808   6.377
   87SOL    HW1 1160   3.457   3.844   6.355
   87SOL    HW2 1161   3.351   3.723   6.327
   88SOL     OW 1162   3.304   3.590   6.665
   88SOL    HW1 1163   3.212   3.629   6.669
   88SOL    HW2 1164   3.323   3.560   6.572
   89SOL     OW 1165   3.077   3.639   2.994
   89SOL    HW1 1166   3.136   3.615   3.071
   89SOL    HW2 1167   2.982   3.621   3.018
   90SOL     OW 1168   4.722   4.270   3.150
   90SOL    HW1 1169   4.700   4.224   3.064
   90SOL    HW2 1170   4.816   4.304   3.147
   91SOL     OW 1171   5.611   4.963   6.058
   91SOL    HW1 1172   5.647   5.024   6.129
   91SOL    HW2 1173   5.515   4.986   6.041
   92SOL     OW 1174   5.454   4.185   6.875
   92SOL    HW1 1175   5.358   4.206   6.892
   92SOL    HW2 1176   5.486   4.117   6.941
   93SOL     OW 1177   2.667   3.239   1.336
   93SOL    HW1 1178   2.751   3.194   1.369
   93SOL    HW2 1179   2.631   3.188   1.258
   94SOL     OW 1180   3.283   0.731   5.874
   94SOL    HW1 1181   3.217   0.793   5.917
   94SOL    HW2 1182   3.278   0.741   5.775
   95SOL     OW 1183   6.906   0.460   3.965
   95SOL    HW1 1184   6.863   0.511   3.890
   95SOL    HW2 1185   6.993   0.422   3.934
   96SOL     OW 1186   4.837   5.018   0.313
   96SOL    HW1 1187   4.830   5.113   0.342
   96SOL    HW2 1188   4.764   4.998   0.247
   97SOL     OW 1189   2.185   5.499   5.409
   97SOL    HW1 1190   2.093   5.460   5.400
   97SOL    HW2 1191   2.208   5.510   5.506
   98SOL     OW 1192   1.335   2.965   2.854
   98SOL    HW1 1193   1.397   3.042   2.872
   98SOL    HW2 1194   1.335   2.903   2.933
   99SOL     OW 1195   3.790   2.975   4.037
   99SOL    HW1 1196   3.714   2.913   4.014
   99SOL    HW2 1197   3.867   2.958   3.975
  100SOL     OW 1198   6.922   0.106   3.660
  100SOL    HW1 1199   7.002   0.093   3.602
  100SOL    HW2 1200   6.948   0.096   3.756
  101SOL     OW 1201   0.166   3.601   2.579
  101SOL    HW1 1202   0.202   3.692   2.557
  101SOL    HW2 1203   0.241   3.537   2.593
  102SOL     OW 1204   2.525   6.270   0.928
  102SOL    HW1 1205   2.465   6.338   0.885
  102SOL    HW2 1206   2.484   6.180   0.922
  103SOL     OW 1207   1.781   1.105   2.198
  103SOL    HW1 1208   1.784   1.026   2.138
  103SOL    HW2 1209   1.864   1.160   2.186
  104SOL     OW 1210   1.567   4.490   1.786
  104SOL    HW1 1211   1.484   4.446   1.819
  104SOL    HW2 1212   1.554   4.521   1.692
  105SOL     OW 1213   4.711   1.848   6.454
  105SOL    HW1 1214   4.748   1.817   6.366
  105SOL    HW2 1215   4.632   1.907   6.437
  106SOL     OW 1216   5.538   4.975   2.572
  106SOL    HW1 1217   5.513   4.878   2.565
  106SOL    HW2 1218   5.485   5.028   2.505
  107SOL     OW 1219   6.330   0.900   0.580
  107SOL    HW1 1220   6.274   0.841   0.521
  107SOL    HW2 1221   6.404   0.940   0.526
  108SOL     OW 1222   1.777   0.417   5.823
  108SOL    HW1 1223   1.850   0.386   5.762
  108SOL    HW2 1224   1.804   0.402   5.918
  109SOL     OW 1225   2.600   1.306   3.414
  109SOL    HW1 1226   2.573   1.247   3.490
  109SOL    HW2 1227   2.698   1.323   3.418
  110SOL     OW 1228   2.665   4.644   5.578
  110SOL    HW1 1229   2.670   4.555   5.622
  110SOL    HW2 1230   2.713   4.641   5.490
  111SOL     OW 1231   6.441   2.015   2.216
  111SOL    HW1 1232   6.404   1.931   2.255
  111SOL    HW2 1233   6.368   2.083   2.209
  112SOL     OW 1234   4.318   0.023   6.821
  112SOL    HW1 1235   4.296   0.111   6.778
  112SOL    HW2 1236   4.408   0.030   6.865
  113SOL     OW 1237   6.619   6.385   2.795
  113SOL    HW1 1238   6.609   6.412   2.699
  113SOL    HW2 1239   6.667   6.297   2.800
  114SOL     OW 1240   1.523   4.314   3.525
  114SOL    HW1 1241   1.471   4.303   3.609
  114SOL    HW2 1242   1.521   4.228   3.473
  115SOL     OW 1243   5.736   1.245   3.508
  115SOL    HW1 1244   5.666   1.280   3.445
  115SOL    HW2 1245   5.691   1.205   3.588
  116SOL     OW 1246   1.439   5.097   0.588
  116SOL    HW1 1247   1.402   5.006   0.572
  116SOL    HW2 1248   1.365   5.160   0.613
  117SOL     OW 1249   2.195   1.334   6.954
  117SOL    HW1 1250   2.265   1.399   6.982
  117SOL    HW2 1251   2.161   1.359   6.863
  118SOL     OW 1252   1.324   1.472   4.652
  118SOL    HW1 1253   1.289   1.388   4.694
  118SOL    HW2 1254   1.379   1.449   4.572
  119SOL     OW 1255   0.049   6.589   6.275
  119SOL    HW1 1256   0.142   6.590   6.239
  119SOL    HW2 1257   7.023   6.657   6.227
  120SOL     OW 1258   4.590   1.699   4.715
  120SOL    HW1 1259   4.628   1.786   4.681
  120SOL    HW2 1260   4.663   1.646   4.757
  121SOL     OW 1261   0.926   3.970   6.440
  121SOL    HW1 1262   0.894   3.988   6.533
  121SOL    HW2 1263   0.847   3.953   6.380
  122SOL     OW 1264   1.398   4.176   0.132
  122SOL    HW1 1265   1.397   4.171   0.231
  122SOL    HW2 1266   1.484   4.138   0.097
  123SOL     OW 1267   1.088   1.401   1.924
  123SOL    HW1 1268   1.025   1.419   1.849
  123SOL    HW2 1269   1.175   1.447   1.907
  124SOL     OW 1270   2.681   2.530   0.410
  124SOL    HW1 1271   2.617   2.453   0.418
  124SOL    HW2 1272   2.671   2.590   0.489
  125SOL     OW 1273   3.582   2.913   0.161
  125SOL    HW1 1274   3.508   2.848   0.178
  125SOL    HW2 1275   3.668   2.875   0.193
  126SOL     OW 1276   3.798   3.128   4.252
  126SOL    HW1 1277   3.819   3.211   4.200
  126SOL    HW2 1278   3.788   3.051   4.189
  127SOL     OW 1279   0.597   6.173   5.866
  127SOL    HW1 1280   0.522   6.157   5.802
  127SOL    HW2 1281   0.564   6.165   5.960
  128SOL     OW 1282   4.717   3.357   0.953
  128SOL    HW1 1283   4.661   3.315   1.024
  128SOL    HW2 1284   4.767   3.435   0.991
  129SOL     OW 1285   2.633   5.826   0.745
  129SOL    HW1 1286   2.535   5.845   0.750
  129SOL    HW2 1287   2.682   5.888   0.807
  130SOL     OW 1288   5.242   2.448   4.685
  130SOL    HW1 1289   5.194   2.473   4.769
  130SOL    HW2 1290   5.177   2.409   4.620
  131SOL     OW 1291   0.027   2.491   3.659
  131SOL    HW1 1292   7.006   2.457   3.739
  131SOL    HW2 1293   6.992   2.532   3.595
  132SOL     OW 1294   3.311   3.906   1.890
  132SOL    HW1 1295   3.217   3.925   1.860
  132SOL    HW2 1296   3.375   3.949   1.825
  133SOL     OW 1297   5.365   6.584   5.622
  133SOL    HW1 1298   5.448   6.531   5.638
  133SOL    HW2 1299   5.388   6.673   5.584
  134SOL     OW 1300   5.291   0.973   1.802
  134SOL    HW1 1301   5.325   0.911   1.873
  134SOL    HW2 1302   5.235   1.045   1.844
  135SOL     OW 1303   4.971   3.664   4.631
  135SOL    HW1 1304   4.948   3.597   4.560
  135SOL    HW2 1305   4.900   3.734   4.635
  136SOL     OW 1306   3.290   6.993   5.242
  136SOL    HW1 1307   3.388   6.975   5.251
  136SOL    HW2 1308   3.268   7.005   5.145
  137SOL     OW 1309   2.830   2.277   4.999
  137SOL    HW1 1310   2.809   2.179   4.997
  137SOL    HW2 1311   2.929   2.289   5.007
  138SOL     OW 1312   0.830   5.546   5.093
  138SOL    HW1 1313   0.868   5.524   5.183
  138SOL    HW2 1314   0.892   5.514   5.022
  139SOL     OW 1315   2.373   6.039   6.626
  139SOL    HW1 1316   2.305   5.999   6.688
  139SOL    HW2 1317   2.370   6.139   6.634
  140SOL     OW 1318   2.165   0.912   2.731
  140SOL    HW1 1319   2.178   0.813   2.721
  140SOL    HW2 1320   2.147   0.953   2.642
  141SOL     OW 1321   6.946   4.643   0.223
  141SOL    HW1 1322   6.918   4.701   0.300
  141SOL    HW2 1323   6.920   4.687   0.137
  142SOL     OW 1324   1.317   3.861   2.006
  142SOL    HW1 1325   1.356   3.833   2.093
  142SOL    HW2 1326   1.316   3.783   1.943
  143SOL     OW 1327   5.053   6.685   1.828
  143SOL    HW1 1328   5.067   6.606   1.887
  143SOL    HW2 1329   5.001   6.755   1.878
  144SOL     OW 1330   2.973   4.790   2.951
  144SOL    HW1 1331   3.003   4.780   2.857
  144SOL    HW2 1332   3.051   4.814   3.009
  145SOL     OW 1333   0.111   4.277   2.808
  145SOL    HW1 1334   0.093   4.289   2.906
  145SOL    HW2 1335   0.134   4.365   2.767
  146SOL     OW 1336   6.297   1.643   6.319
  146SOL    HW1 1337   6.319   1.727   6.368
  146SOL    HW2 1338   6.292   1.663   6.221
  147SOL     OW 1339   4.761   1.445   5.769
  147SOL    HW1 1340   4.702   1.364   5.771
  147SOL    HW2 1341   4.853   1.421   5.801
  148SOL     OW 1342   1.284   4.613   1.179
  148SOL    HW1 1343   1.341   4.675   1.234
  148SOL    HW2 1344   1.342   4.562   1.116
  149SOL     OW 1345   1.975   2.633   5.440
  149SOL    HW1 1346   1.913   2.645   5.518
  149SOL    HW2 1347   2.069   2.621   5.474
  150SOL     OW 1348   4.486   1.497   4.548
  150SOL    HW1 1349   4.520   1.558   4.476
  150SOL    HW2 1350   4.490   1.545   4.636
  151SOL     OW 1351   4.359   2.059   0.746
  151SOL    HW1 1352   4.274   2.033   0.793
  151SOL    HW2 1353   4.377   2.156   0.760
  152SOL     OW 1354   0.691   1.060   0.178
  152SOL    HW1 1355   0.782   1.019   0.185
  152SOL    HW2 1356   0.689   1.146   0.230
  153SOL     OW 1357   2.549   1.171   3.645
  153SOL    HW1 1358   2.550   1.102   3.717
  153SOL    HW2 1359   2.535   1.261   3.686
  154SOL     OW 1360   5.704   2.261   1.285
  154SOL    HW1 1361   5.638   2.191   1.313
  154SOL    HW2 1362   5.796   2.222   1.286
  155SOL     OW 1363   1.140   6.729   1.761
  155SOL    HW1 1364   1.145   6.763   1.667
  155SOL    HW2 1365   1.223   6.754   1.810
  156SOL     OW 1366   5.101   2.110   0.476
  156SOL    HW1 1367   5.041   2.037   0.508
  156SOL    HW2 1368   5.050   2.171   0.416
  157SOL     OW 1369   5.033   4.754   0.480
  157SOL    HW1 1370   5.105   4.713   0.535
  157SOL    HW2 1371   5.068   4.835   0.433
  158SOL     OW 1372   0.670   2.974   3.198
  158SOL    HW1 1373   0.725   3.051   3.230
  158SOL    HW2 1374   0.680   2.897   3.261
  159SOL     OW 1375   5.686   5.696   0.483
  159SOL    HW1 1376   5.690   5.705   0.383
  159SOL    HW2 1377   5.593   5.717   0.514
  160SOL     OW 1378   6.392   6.844   1.317
  160SOL    HW1 1379   6.303   6.885   1.301
  160SOL    HW2 1380   6.454   6.869   1.243
  161SOL     OW 1381   0.537   0.360   0.570
  161SOL    HW1 1382   0.637   0.352   0.571
  161SOL    HW2 1383   0.510   0.431   0.505
  162SOL     OW 1384   3.936   6.809   0.316
  162SOL    HW1 1385   3.917   6.808   0.414
  162SOL    HW2 1386   4.025   6.767   0.300
  163SOL     OW 1387   0.245   3.875   3.832
  163SOL    HW1 1388   0.282   3.804   3.773
  163SOL    HW2 1389   0.295   3.876   3.919
  164SOL     OW 1390   1.616   1.753   3.060
  164SOL    HW1 1391   1.612   1.835   3.116
  164SOL    HW2 1392   1.640   1.778   2.966
  165SOL     OW 1393   0.898   5.503   2.536
  165SOL    HW1 1394   0.974   5.455   2.492
  165SOL    HW2 1395   0.904   5.601   2.518
  166SOL     OW 1396   6.799   4.230   3.015
  166SOL    HW1 1397   6.879   4.288   3.032
  166SOL    HW2 1398   6.827   4.134   3.018
  167SOL     OW 1399   4.738   2.236   0.056
  167SOL    HW1 1400   4.663   2.245   7.020
  167SOL    HW2 1401   4.784   2.148   0.043
  168SOL     OW 1402   4.865   3.815   2.065
  168SOL    HW1 1403   4.868   3.751   1.989
  168SOL    HW2 1404   4.842   3.906   2.032
  169SOL     OW 1405   6.059   2.417   1.185
  169SOL    HW1 1406   6.082   2.410   1.282
  169SOL    HW2 1407   6.022   2.330   1.153
  170SOL     OW 1408   0.883   5.180   2.011
  170SOL    HW1 1409   0.886   5.269   2.055
  170SOL    HW2 1410   0.928   5.186   1.921
  171SOL     OW 1411   2.815   3.693   0.379
  171SOL    HW1 1412   2.910   3.716   0.401
  171SOL    HW2 1413   2.785   3.618   0.439
  172SOL     OW 1414   6.097   2.142   1.675
  172SOL    HW1 1415   6.124   2.237   1.690
  172SOL    HW2 1416   6.021   2.138   1.610
  173SOL     OW 1417   6.607   1.675   6.001
  173SOL    HW1 1418   6.707   1.668   5.999
  173SOL    HW2 1419   6.581   1.771   5.997
  174SOL     OW 1420   5.829   5.310   5.474
  174SOL    HW1 1421   5.826   5.336   5.571
  174SOL    HW2 1422   5.836   5.393   5.418
  175SOL     OW 1423   1.059   0.850   0.489
  175SOL    HW1 1424   1.065   0.942   0.528
  175SOL    HW2 1425   1.021   0.788   0.556
  176SOL     OW 1426   5.149   4.444   2.978
  176SOL    HW1 1427   5.242   4.463   2.947
  176SOL    HW2 1428   5.093   4.414   2.901
  177SOL     OW 1429   5.773   2.266   4.236
  177SOL    HW1 1430   5.681   2.291   4.265
  177SOL    HW2 1431   5.838   2.283   4.311
  178SOL     OW 1432   2.027   6.507   5.475
  178SOL    HW1 1433   2.028   6.564   5.557
  178SOL    HW2 1434   1.993   6.560   5.398
  179SOL     OW 1435   4.444   5.338   0.875
  179SOL    HW1 1436   4.394   5.341   0.961
  179SOL    HW2 1437   4.397   5.393   0.806
  180SOL     OW 1438   4.333   1.041   1.129
  180SOL    HW1 1439   4.401   1.091   1.183
  180SOL    HW2 1440   4.369   0.950   1.108
  181SOL     OW 1441   3.480   2.355   5.589
  181SOL    HW1 1442   3.462   2.449   5.560
  181SOL    HW2 1443   3.393   2.308   5.605
  182SOL     OW 1444   5.134   2.210   6.602
  182SOL    HW1 1445   5.137   2.307   6.579
  182SOL    HW2 1446   5.148   2.155   6.519
  183SOL     OW 1447   3.023   1.600   3.590
  183SOL    HW1 1448   3.043   1.527   3.655
  183SOL    HW2 1449   3.090   1.674   3.601
  184SOL     OW 1450   6.724   6.847   2.540
  184SOL    HW1 1451   6.756   6.893   2.622
  184SOL    HW2 1452   6.793   6.782   2.509
  185SOL     OW 1453   0.422   1.128   3.973
  185SOL    HW1 1454   0.328   1.156   3.990
  185SOL    HW2 1455   0.425   1.069   3.892
  186SOL     OW 1456   4.553   5.803   3.890
  186SOL    HW1 1457   4.459   5.834   3.899
  186SOL    HW2 1458   4.563   5.713   3.934
  187SOL     OW 1459   4.268   6.189   2.150
  187SOL    HW1 1460   4.326   6.108   2.141
  187SOL    HW2 1461   4.191   6.182   2.086
  188SOL     OW 1462   2.495   2.589   3.021
  188SOL    HW1 1463   2.529   2.495   3.033
  188SOL    HW2 1464   2.536   2.629   2.940
  189SOL     OW 1465   6.055   5.492   6.300
  189SOL    HW1 1466   6.067   5.411   6.357
  189SOL    HW2 1467   6.110   5.567   6.338
  190SOL     OW 1468   5.773   6.862   0.321
  190SOL    HW1 1469   5.786   6.956   0.288
  190SOL    HW2 1470   5.837   6.844   0.395
  191SOL     OW 1471   6.113   0.992   5.746
  191SOL    HW1 1472   6.208   0.996   5.718
  191SOL    HW2 1473   6.056   1.041   5.680
  192SOL     OW 1474   0.302   5.280   0.534
  192SOL    HW1 1475   0.313   5.277   0.434
  192SOL    HW2 1476   0.234   5.213   0.562
  193SOL     OW 1477   3.122   5.096   6.072
  193SOL    HW1 1478   3.121   4.996   6.067
  193SOL    HW2 1479   3.045   5.127   6.128
  194SOL     OW 1480   3.732   0.097   2.389
  194SOL    HW1 1481   3.821   0.053   2.377
  194SOL    HW2 1482   3.687   0.058   2.470
  195SOL     OW 1483   3.020   0.709   1.562
  195SOL    HW1 1484   3.065   0.797   1.543
  195SOL    HW2 1485   2.933   0.726   1.607
  196SOL     OW 1486   2.030   0.622   6.835
  196SOL    HW1 1487   1.958   0.569   6.790
  196SOL    HW2 1488   2.119   0.590   6.802
  197SOL     OW 1489   2.441   5.473   0.443
  197SOL    HW1 1490   2.522   5.437   0.396
  197SOL    HW2 1491   2.419   5.415   0.521
  198SOL     OW 1492   3.965   6.498   6.784
  198SOL    HW1 1493   3.873   6.471   6.809
  198SOL    HW2 1494   3.985   6.468   6.690
  199SOL     OW 1495   6.044   6.734   2.712
  199SOL    HW1 1496   6.028   6.669   2.637
  199SOL    HW2 1497   5.964   6.793   2.722
  200SOL     OW 1498   0.425   3.990   3.262
  200SOL    HW1 1499   0.394   4.057   3.194
  200SOL    HW2 1500   0.506   3.943   3.227
  201SOL     OW 1501   3.039   0.684   0.023
  201SOL    HW1 1502   2.996   0.769   0.053
  201SOL    HW2 1503   2.984   0.643   6.979
  202SOL     OW 1504   3.895   6.944   3.656
  202SOL    HW1 1505   3.853   7.022   3.609
  202SOL    HW2 1506   3.830   6.906   3.721
  203SOL     OW 1507   5.493   3.860   6.422
  203SOL    HW1 1508   5.542   3.773   6.423
  203SOL    HW2 1509   5.415   3.854   6.484
  204SOL     OW 1510   1.859   6.984   0.577
  204SOL    HW1 1511   1.859   0.047   0.538
  204SOL    HW2 1512   1.949   6.942   0.564
  205SOL     OW 1513   5.767   1.975   1.127
  205SOL    HW1 1514   5.750   1.983   1.225
  205SOL    HW2 1515   5.691   1.927   1.084
  206SOL     OW 1516   0.431   4.806   1.532
  206SOL    HW1 1517   0.502   4.781   1.597
  206SOL    HW2 1518   0.381   4.887   1.565
  207SOL     OW 1519   4.801   0.687   6.020
  207SOL    HW1 1520   4.710   0.717   6.048
  207SOL    HW2 1521   4.840   0.753   5.955
  208SOL     OW 1522   4.921   5.231   5.943
  208SOL    HW1 1523   4.866   5.169   5.887
  208SOL    HW2 1524   4.884   5.232   6.036
  209SOL     OW 1525   6.665   5.734   5.903
  209SOL    HW1 1526   6.604   5.813   5.908
  209SOL    HW2 1527   6.755   5.759   5.940
  210SOL     OW 1528   3.922   1.915   1.479
  210SOL    HW1 1529   3.976   1.937   1.397
  210SOL    HW2 1530   3.915   1.816   1.488
  211SOL     OW 1531   0.805   1.572   1.093
  211SOL    HW1 1532   0.897   1.535   1.107
  211SOL    HW2 1533   0.740   1.498   1.081
  212SOL     OW 1534   1.000   5.143   3.499
  212SOL    HW1 1535   1.090   5.136   3.542
  212SOL    HW2 1536   0.929   5.130   3.568
  213SOL     OW 1537   5.090   1.783   0.124
  213SOL    HW1 1538   5.002   1.817   0.157
  213SOL    HW2 1539   5.164   1.818   0.183
  214SOL     OW 1540   0.959   6.602   2.292
  214SOL    HW1 1541   0.940   6.584   2.196
  214SOL    HW2 1542   1.018   6.682   2.300
  215SOL     OW 1543   3.585   3.329   2.372
  215SOL    HW1 1544   3.584   3.231   2.390
  215SOL    HW2 1545   3.539   3.348   2.284
  216SOL     OW 1546   1.047   0.282   5.071
  216SOL    HW1 1547   1.126   0.234   5.109
  216SOL    HW2 1548   1.020   0.238   4.985
  217SOL     OW 1549   1.297   2.866   3.835
  217SOL    HW1 1550   1.282   2.852   3.933
  217SOL    HW2 1551   1.391   2.897   3.819
  218SOL     OW 1552   1.113   3.005   5.486
  218SOL    HW1 1553   1.025   2.998   5.440
  218SOL    HW2 1554   1.187   2.984   5.421
  219SOL     OW 1555   4.618   4.709   0.251
  219SOL    HW1 1556   4.675   4.628   0.240
  219SOL    HW2 1557   4.531   4.684   0.295
  220SOL     OW 1558   2.756   4.900   0.110
  220SOL    HW1 1559   2.694   4.904   0.032
  220SOL    HW2 1560   2.807   4.814   0.107
  221SOL     OW 1561   5.394   3.163   4.040
  221SOL    HW1 1562   5.338   3.129   4.115
  221SOL    HW2 1563   5.491   3.148   4.061
  222SOL     OW 1564   0.852   5.966   5.495
  222SOL    HW1 1565   0.858   5.899   5.421
  222SOL    HW2 1566   0.853   5.919   5.583
  223SOL     OW 1567   0.240   3.353   2.279
  223SOL    HW1 1568   0.273   3.285   2.214
  223SOL    HW2 1569   0.145   3.333   2.303
  224SOL     OW 1570   2.780   2.334   2.349
  224SOL    HW1 1571   2.808   2.338   2.253
  224SOL    HW2 1572   2.700   2.393   2.363
  225SOL     OW 1573   5.654   0.726   0.217
  225SOL    HW1 1574   5.612   0.711   0.127
  225SOL    HW2 1575   5.701   0.814   0.217
  226SOL     OW 1576   1.099   6.116   0.300
  226SOL    HW1 1577   1.147   6.165   0.373
  226SOL    HW2 1578   1.017   6.166   0.275
  227SOL     OW 1579   1.877   3.869   3.795
  227SOL    HW1 1580   1.838   3.910   3.878
  227SOL    HW2 1581   1.810   3.808   3.753
  228SOL     OW 1582   4.102   6.324   4.003
  228SOL    HW1 1583   4.115   6.421   4.023
  228SOL    HW2 1584   4.132   6.304   3.910
  229SOL     OW 1585   5.916   5.874   1.707
  229SOL    HW1 1586   5.978   5.870   1.786
  229SOL    HW2 1587   5.845   5.804   1.717
  230SOL     OW 1588   2.259   4.253   4.918
  230SOL    HW1 1589   2.264   4.253   4.818
  230SOL    HW2 1590   2.259   4.159   4.951
  231SOL     OW 1591   0.231   3.443   6.238
  231SOL    HW1 1592   0.161   3.417   6.304
  231SOL    HW2 1593   0.321   3.441   6.281
  232SOL     OW 1594   1.016   3.622   0.080
  232SOL    HW1 1595   0.932   3.651   0.033
  232SOL    HW2 1596   1.054   3.542   0.034
  233SOL     OW 1597   2.114   1.347   5.719
  233SOL    HW1 1598   2.132   1.336   5.621
  233SOL    HW2 1599   2.015   1.345   5.734
  234SOL     OW 1600   2.580   4.609   0.072
  234SOL    HW1 1601   2.637   4.532   0.043
  234SOL    HW2 1602   2.543   4.655   7.020
  235SOL     OW 1603   2.888   3.436   4.246
  235SOL    HW1 1604   2.789   3.424   4.241
  235SOL    HW2 1605   2.910   3.534   4.238
  236SOL     OW 1606   6.550   2.767   5.389
  236SOL    HW1 1607   6.546   2.782   5.290
  236SOL    HW2 1608   6.458   2.748   5.423
  237SOL     OW 1609   0.311   0.307   1.303
  237SOL    HW1 1610   0.373   0.245   1.350
  237SOL    HW2 1611   0.225   0.259   1.283
  238SOL     OW 1612   5.649   3.568   2.386
  238SOL    HW1 1613   5.736   3.544   2.341
  238SOL    HW2 1614   5.623   3.661   2.360
  239SOL     OW 1615   6.773   5.935   6.856
  239SOL    HW1 1616   6.736   5.845   6.879
  239SOL    HW2 1617   6.759   5.953   6.758
  240SOL     OW 1618   0.417   4.275   5.951
  240SOL    HW1 1619   0.501   4.320   5.979
  240SOL    HW2 1620   0.416   4.181   5.987
  241SOL     OW 1621   0.526   0.777   3.422
  241SOL    HW1 1622   0.557   0.841   3.492
  241SOL    HW2 1623   0.433   0.800   3.394
  242SOL     OW 1624   1.341   3.730   4.863
  242SOL    HW1 1625   1.282   3.789   4.918
  242SOL    HW2 1626   1.352   3.770   4.771
  243SOL     OW 1627   5.774   0.043   5.235
  243SOL    HW1 1628   5.830   7.016   5.175
  243SOL    HW2 1629   5.678   0.018   5.224
  244SOL     OW 1630   5.338   1.996   4.911
  244SOL    HW1 1631   5.353   2.032   4.819
  244SOL    HW2 1632   5.420   1.946   4.941
  245SOL     OW 1633   6.345   2.665   4.426
  245SOL    HW1 1634   6.356   2.601   4.350
  245SOL    HW2 1635   6.406   2.743   4.413
  246SOL     OW 1636   4.911   3.757   3.573
  246SOL    HW1 1637   4.845   3.832   3.565
  246SOL    HW2 1638   4.974   3.760   3.495
  247SOL     OW 1639   1.764   1.516   3.945
  247SOL    HW1 1640   1.832   1.449   3.975
  247SOL    HW2 1641   1.674   1.488   3.976
  248SOL     OW 1642   5.096   2.095   3.973
  248SOL    HW1 1643   5.110   1.996   3.972
  248SOL    HW2 1644   5.174   2.140   4.016
  249SOL     OW 1645   3.190   6.572   4.129
  249SOL    HW1 1646   3.213   6.531   4.040
  249SOL    HW2 1647   3.270   6.565   4.190
  250SOL     OW 1648   5.177   3.530   5.610
  250SOL    HW1 1649   5.096   3.479   5.583
  250SOL    HW2 1650   5.192   3.519   5.708
  251SOL     OW 1651   4.223   2.854   6.506
  251SOL    HW1 1652   4.274   2.918   6.449
  251SOL    HW2 1653   4.152   2.809   6.452
  252SOL     OW 1654   6.704   0.729   5.980
  252SOL    HW1 1655   6.643   0.740   5.902
  252SOL    HW2 1656   6.677   0.648   6.033
  253SOL     OW 1657   3.038   3.092   0.181
  253SOL    HW1 1658   3.118   3.044   0.215
  253SOL    HW2 1659   3.067   3.172   0.128
  254SOL     OW 1660   6.231   3.262   4.780
  254SOL    HW1 1661   6.147   3.314   4.768
  254SOL    HW2 1662   6.220   3.171   4.740
  255SOL     OW 1663   2.941   2.182   3.603
  255SOL    HW1 1664   2.871   2.251   3.586
  255SOL    HW2 1665   2.915   2.127   3.683
  256SOL     OW 1666   6.108   5.232   6.842
  256SOL    HW1 1667   6.193   5.272   6.876
  256SOL    HW2 1668   6.066   5.295   6.776
  257SOL     OW 1669   3.034   5.635   6.435
  257SOL    HW1 1670   2.966   5.695   6.479
  257SOL    HW2 1671   3.038   5.548   6.484
  258SOL     OW 1672   5.888   4.244   4.029
  258SOL    HW1 1673   5.836   4.256   4.114
  258SOL    HW2 1674   5.824   4.235   3.952
  259SOL     OW 1675   1.363   2.555   3.020
  259SOL    HW1 1676   1.352   2.534   2.923
  259SOL    HW2 1677   1.369   2.654   3.033
  260SOL     OW 1678   5.873   0.351   6.008
  260SOL    HW1 1679   5.774   0.343   6.007
  260SOL    HW2 1680   5.912   0.284   6.072
  261SOL     OW 1681   0.897   4.003   2.136
  261SOL    HW1 1682   0.847   3.942   2.197
  261SOL    HW2 1683   0.903   3.962   2.045
  262SOL     OW 1684   0.550   3.645   1.848
  262SOL    HW1 1685   0.560   3.744   1.843
  262SOL    HW2 1686   0.630   3.605   1.893
  263SOL     OW 1687   0.531   1.714   5.355
  263SOL    HW1 1688   0.531   1.814   5.360
  263SOL    HW2 1689   0.528   1.686   5.259
  264SOL     OW 1690   1.890   4.841   6.529
  264SOL    HW1 1691   1.799   4.804   6.507
  264SOL    HW2 1692   1.943   4.771   6.577
  265SOL     OW 1693   5.518   4.483   4.144
  265SOL    HW1 1694   5.488   4.406   4.088
  265SOL    HW2 1695   5.601   4.458   4.194
  266SOL     OW 1696   4.496   1.558   0.508
  266SOL    HW1 1697   4.496   1.500   0.426
  266SOL    HW2 1698   4.543   1.644   0.488
  267SOL     OW 1699   1.515   1.968   6.074
  267SOL    HW1 1700   1.602   2.013   6.094
  267SOL    HW2 1701   1.473   2.009   5.993
  268SOL     OW 1702   4.083   4.840   4.457
  268SOL    HW1 1703   4.148   4.866   4.529
  268SOL    HW2 1704   3.993   4.879   4.478
  269SOL     OW 1705   0.917   2.421   6.238
  269SOL    HW1 1706   0.914   2.391   6.334
  269SOL    HW2 1707   0.824   2.423   6.201
  270SOL     OW 1708   4.834   1.025   2.128
  270SOL    HW1 1709   4.765   1.083   2.084
  270SOL    HW2 1710   4.914   1.081   2.153
  271SOL     OW 1711   1.771   0.484   0.106
  271SOL    HW1 1712   1.713   0.481   0.187
  271SOL    HW2 1713   1.768   0.576   0.066
  272SOL     OW 1714   3.561   5.564   3.357
  272SOL    HW1 1715   3.600   5.495   3.418
  272SOL    HW2 1716   3.631   5.632   3.335
  273SOL     OW 1717   2.412   6.221   5.327
  273SOL    HW1 1718   2.464   6.211   5.242
  273SOL    HW2 1719   2.405   6.318   5.351
  274SOL     OW 1720   6.383   2.910   2.696
  274SOL    HW1 1721   6.343   2.832   2.744
  274SOL    HW2 1722   6.315   2.983   2.687
  275SOL     OW 1723   6.694   6.139   5.477
  275SOL    HW1 1724   6.664   6.046   5.457
  275SOL    HW2 1725   6.757   6.170   5.407
  276SOL     OW 1726   6.576   6.131   3.940
  276SOL    HW1 1727   6.565   6.074   3.858
  276SOL    HW2 1728   6.530   6.087   4.017
  277SOL     OW 1729   4.101   1.553   5.553
  277SOL    HW1 1730   4.083   1.547   5.651
  277SOL    HW2 1731   4.153   1.637   5.534
  278SOL     OW 1732   5.543   3.784   2.792
  278SOL    HW1 1733   5.482   3.742   2.859
  278SOL    HW2 1734   5.574   3.714   2.727
  279SOL     OW 1735   0.298   2.895   3.574
  279SOL    HW1 1736   0.305   2.796   3.590
  279SOL    HW2 1737   0.330   2.915   3.481
  280SOL     OW 1738   4.228   0.141   4.641
  280SOL    HW1 1739   4.263   0.130   4.548
  280SOL    HW2 1740   4.157   0.211   4.641
  281SOL     OW 1741   5.301   6.366   3.853
  281SOL    HW1 1742   5.301   6.285   3.796
  281SOL    HW2 1743   5.246   6.438   3.811
  282SOL     OW 1744   4.429   2.070   6.729
  282SOL    HW1 1745   4.334   2.065   6.758
  282SOL    HW2 1746   4.437   2.041   6.634
  283SOL     OW 1747   6.384   1.187   5.187
  283SOL    HW1 1748   6.372   1.221   5.094
  283SOL    HW2 1749   6.480   1.162   5.201
  284SOL     OW 1750   6.310   5.200   4.449
  284SOL    HW1 1751   6.224   5.240   4.418
  284SOL    HW2 1752   6.350   5.256   4.521
  285SOL     OW 1753   4.172   0.533   6.632
  285SOL    HW1 1754   4.205   0.483   6.712
  285SOL    HW2 1755   4.239   0.602   6.606
  286SOL     OW 1756   3.815   4.881   4.487
  286SOL    HW1 1757   3.812   4.786   4.516
  286SOL    HW2 1758   3.779   4.939   4.560
  287SOL     OW 1759   2.845   6.204   5.467
  287SOL    HW1 1760   2.935   6.246   5.472
  287SOL    HW2 1761   2.793   6.245   5.391
  288SOL     OW 1762   3.584   1.211   0.174
  288SOL    HW1 1763   3.668   1.265   0.183
  288SOL    HW2 1764   3.505   1.272   0.170
  289SOL     OW 1765   0.503   6.249   3.966
  289SOL    HW1 1766   0.513   6.313   3.889
  289SOL    HW2 1767   0.480   6.301   4.049
  290SOL     OW 1768   3.868   0.811   4.322
  290SOL    HW1 1769   3.932   0.888   4.319
  290SOL    HW2 1770   3.798   0.823   4.252
  291SOL     OW 1771   4.235   0.448   4.726
  291SOL    HW1 1772   4.229   0.371   4.790
  291SOL    HW2 1773   4.143   0.479   4.702
  292SOL     OW 1774   3.535   0.026   3.685
  292SOL    HW1 1775   3.460   0.006   3.748
  292SOL    HW2 1776   3.597   0.091   3.727
  293SOL     OW 1777   5.707   6.881   3.412
  293SOL    HW1 1778   5.656   6.958   3.451
  293SOL    HW2 1779   5.733   6.903   3.318
  294SOL     OW 1780   5.984   1.233   5.982
  294SOL    HW1 1781   6.065   1.206   5.930
  294SOL    HW2 1782   5.955   1.325   5.954
  295SOL     OW 1783   0.940   1.752   5.365
  295SOL    HW1 1784   1.039   1.743   5.358
  295SOL    HW2 1785   0.902   1.771   5.274
  296SOL     OW 1786   6.637   1.497   1.568
  296SOL    HW1 1787   6.709   1.566   1.559
  296SOL    HW2 1788   6.671   1.421   1.624
  297SOL     OW 1789   5.619   3.965   3.844
  297SOL    HW1 1790   5.598   3.867   3.850
  297SOL    HW2 1791   5.624   3.992   3.748
  298SOL     OW 1792   3.997   0.821   0.284
  298SOL    HW1 1793   3.959   0.912   0.302
  298SOL    HW2 1794   3.953   0.754   0.344
  299SOL     OW 1795   2.696   1.386   6.760
  299SOL    HW1 1796   2.722   1.312   6.698
  299SOL    HW2 1797   2.597   1.398   6.758
  300SOL     OW 1798   3.827   1.134   3.054
  300SOL    HW1 1799   3.861   1.206   3.114
  300SOL    HW2 1800   3.733   1.111   3.079
  301SOL     OW 1801   6.154   6.024   1.470
  301SOL    HW1 1802   6.209   5.976   1.401
  301SOL    HW2 1803   6.095   5.958   1.517
  302SOL     OW 1804   6.592   6.158   1.279
  302SOL    HW1 1805   6.679   6.174   1.325
  302SOL    HW2 1806   6.563   6.064   1.295
  303SOL     OW 1807   6.404   5.806   2.725
  303SOL    HW1 1808   6.485   5.852   2.763
  303SOL    HW2 1809   6.432   5.722   2.679
  304SOL     OW 1810   1.495   0.262   5.138
  304SOL    HW1 1811   1.478   0.331   5.067
  304SOL    HW2 1812   1.566   0.199   5.107
  305SOL     OW 1813   1.798   2.519   2.114
  305SOL    HW1 1814   1.897   2.514   2.123
  305SOL    HW2 1815   1.762   2.428   2.093
  306SOL     OW 1816   6.255   0.751   2.974
  306SOL    HW1 1817   6.201   0.790   2.899
  306SOL    HW2 1818   6.196   0.735   3.053
  307SOL     OW 1819   3.280   3.408   2.259
  307SOL    HW1 1820   3.227   3.352   2.196
  307SOL    HW2 1821   3.251   3.388   2.353
  308SOL     OW 1822   5.440   1.727   3.989
  308SOL    HW1 1823   5.530   1.698   3.957
  308SOL    HW2 1824   5.424   1.692   4.081
  309SOL     OW 1825   0.905   6.334   6.454
  309SOL    HW1 1826   0.873   6.377   6.539
  309SOL    HW2 1827   0.842   6.261   6.428
  310SOL     OW 1828   5.007   5.545   4.711
  310SOL    HW1 1829   4.943   5.497   4.772
  310SOL    HW2 1830   5.011   5.641   4.736
  311SOL     OW 1831   1.812   5.442   2.854
  311SOL    HW1 1832   1.892   5.489   2.891
  311SOL    HW2 1833   1.827   5.343   2.858
  312SOL     OW 1834   4.790   2.384   3.326
  312SOL    HW1 1835   4.814   2.385   3.229
  312SOL    HW2 1836   4.751   2.295   3.350
  313SOL     OW 1837   3.803   3.322   3.138
  313SOL    HW1 1838   3.887   3.307   3.086
  313SOL    HW2 1839   3.724   3.322   3.076
  314SOL     OW 1840   1.977   6.738   5.095
  314SOL    HW1 1841   2.046   6.810   5.099
  314SOL    HW2 1842   1.939   6.723   5.186
  315SOL     OW 1843   6.473   1.319   3.772
  315SOL    HW1 1844   6.505   1.323   3.867
  315SOL    HW2 1845   6.537   1.368   3.713
  316SOL     OW 1846   3.867   1.669   5.088
  316SOL    HW1 1847   3.815   1.733   5.031
  316SOL    HW2 1848   3.852   1.576   5.054
  317SOL     OW 1849   1.325   1.473   1.713
  317SOL    HW1 1850   1.300   1.569   1.703
  317SOL    HW2 1851   1.326   1.429   1.623
  318SOL     OW 1852   0.021   0.625   5.303
  318SOL    HW1 1853   0.084   0.580   5.239
  318SOL    HW2 1854   0.058   0.619   5.395
  319SOL     OW 1855   1.254   1.871   2.388
  319SOL    HW1 1856   1.325   1.929   2.427
  319SOL    HW2 1857   1.164   1.908   2.411
  320SOL     OW 1858   6.156   2.268   6.930
  320SOL    HW1 1859   6.169   2.257   7.029
  320SOL    HW2 1860   6.063   2.239   6.905
  321SOL     OW 1861   4.127   3.149   0.753
  321SOL    HW1 1862   4.143   3.184   0.660
  321SOL    HW2 1863   4.089   3.057   0.748
  322SOL     OW 1864   4.611   3.096   6.669
  322SOL    HW1 1865   4.703   3.135   6.668
  322SOL    HW2 1866   4.577   3.091   6.763
  323SOL     OW 1867   0.426   3.400   3.725
  323SOL    HW1 1868   0.349   3.447   3.769
  323SOL    HW2 1869   0.488   3.468   3.686
  324SOL     OW 1870   1.289   0.392   2.939
  324SOL    HW1 1871   1.257   0.476   2.984
  324SOL    HW2 1872   1.258   0.313   2.992
  325SOL     OW 1873   0.938   3.557   2.411
  325SOL    HW1 1874   0.870   3.497   2.452
  325SOL    HW2 1875   0.952   3.637   2.471
  326SOL     OW 1876   2.205   6.110   6.388
  326SOL    HW1 1877   2.289   6.116   6.443
  326SOL    HW2 1878   2.128   6.091   6.449
  327SOL     OW 1879   4.186   5.478   3.551
  327SOL    HW1 1880   4.148   5.525   3.630
  327SOL    HW2 1881   4.129   5.496   3.471
  328SOL     OW 1882   2.434   4.515   2.162
  328SOL    HW1 1883   2.417   4.424   2.123
  328SOL    HW2 1884   2.355   4.574   2.144
  329SOL     OW 1885   3.044   3.961   1.793
  329SOL    HW1 1886   3.032   4.057   1.768
  329SOL    HW2 1887   3.028   3.904   1.713
  330SOL     OW 1888   4.262   4.772   0.173
  330SOL    HW1 1889   4.294   4.699   0.113
  330SOL    HW2 1890   4.311   4.768   0.260
  331SOL     OW 1891   4.687   5.579   0.851
  331SOL    HW1 1892   4.756   5.641   0.889
  331SOL    HW2 1893   4.708   5.485   0.880
  332SOL     OW 1894   5.433   2.255   2.932
  332SOL    HW1 1895   5.485   2.245   2.846
  332SOL    HW2 1896   5.491   2.298   3.001
  333SOL     OW 1897   3.732   1.057   5.555
  333SOL    HW1 1898   3.818   1.075   5.603
  333SOL    HW2 1899   3.681   1.143   5.546
  334SOL     OW 1900   4.090   3.687   3.320
  334SOL    HW1 1901   4.016   3.684   3.387
  334SOL    HW2 1902   4.119   3.594   3.298
  335SOL     OW 1903   3.795   6.992   6.485
  335SOL    HW1 1904   3.695   6.985   6.485
  335SOL    HW2 1905   3.833   6.921   6.544
  336SOL     OW 1906   2.168   1.888   3.249
  336SOL    HW1 1907   2.110   1.970   3.244
  336SOL    HW2 1908   2.186   1.855   3.156
  337SOL     OW 1909   1.710   1.775   6.162
  337SOL    HW1 1910   1.740   1.812   6.249
  337SOL    HW2 1911   1.635   1.831   6.126
  338SOL     OW 1912   4.444   2.868   1.150
  338SOL    HW1 1913   4.365   2.872   1.089
  338SOL    HW2 1914   4.421   2.910   1.238
  339SOL     OW 1915   4.069   5.123   4.539
  339SOL    HW1 1916   4.152   5.067   4.547
  339SOL    HW2 1917   4.029   5.136   4.629
  340SOL     OW 1918   4.625   2.214   4.571
  340SOL    HW1 1919   4.527   2.233   4.568
  340SOL    HW2 1920   4.646   2.138   4.509
  341SOL     OW 1921   5.785   6.493   3.684
  341SOL    HW1 1922   5.706   6.479   3.743
  341SOL    HW2 1923   5.863   6.442   3.721
  342SOL     OW 1924   5.065   3.131   0.876
  342SOL    HW1 1925   5.143   3.073   0.903
  342SOL    HW2 1926   5.088   3.227   0.892
  343SOL     OW 1927   1.184   5.469   3.043
  343SOL    HW1 1928   1.178   5.413   3.125
  343SOL    HW2 1929   1.254   5.540   3.057
  344SOL     OW 1930   1.927   1.322   1.303
  344SOL    HW1 1931   2.020   1.342   1.332
  344SOL    HW2 1932   1.898   1.389   1.234
  345SOL     OW 1933   6.453   2.120   4.401
  345SOL    HW1 1934   6.522   2.143   4.333
  345SOL    HW2 1935   6.403   2.038   4.372
  346SOL     OW 1936   1.626   0.532   2.671
  346SOL    HW1 1937   1.712   0.568   2.634
  346SOL    HW2 1938   1.584   0.472   2.603
  347SOL     OW 1939   2.915   5.377   0.466
  347SOL    HW1 1940   2.992   5.429   0.430
  347SOL    HW2 1941   2.947   5.289   0.501
  348SOL     OW 1942   5.301   5.445   2.269
  348SOL    HW1 1943   5.298   5.424   2.366
  348SOL    HW2 1944   5.217   5.415   2.225
  349SOL     OW 1945   6.855   3.838   1.351
  349SOL    HW1 1946   6.871   3.886   1.437
  349SOL    HW2 1947   6.782   3.884   1.300
  350SOL     OW 1948   3.704   3.155   0.219
  350SOL    HW1 1949   3.683   3.220   0.147
  350SOL    HW2 1950   3.641   3.077   0.213
  351SOL     OW 1951   3.623   4.407   0.487
  351SOL    HW1 1952   3.624   4.308   0.477
  351SOL    HW2 1953   3.529   4.441   0.483
  352SOL     OW 1954   4.479   5.846   3.389
  352SOL    HW1 1955   4.567   5.882   3.360
  352SOL    HW2 1956   4.464   5.868   3.486
  353SOL     OW 1957   2.459   6.994   6.070
  353SOL    HW1 1958   2.437   7.007   6.167
  353SOL    HW2 1959   2.387   6.941   6.026
  354SOL     OW 1960   5.788   2.595   1.111
  354SOL    HW1 1961   5.878   2.602   1.154
  354SOL    HW2 1962   5.763   2.499   1.099
  355SOL     OW 1963   1.688   2.772   2.345
  355SOL    HW1 1964   1.651   2.680   2.357
  355SOL    HW2 1965   1.629   2.824   2.283
  356SOL     OW 1966   1.780   0.437   5.425
  356SOL    HW1 1967   1.775   0.346   5.384
  356SOL    HW2 1968   1.688   0.467   5.452
  357SOL     OW 1969   5.731   0.174   4.700
  357SOL    HW1 1970   5.819   0.187   4.654
  357SOL    HW2 1971   5.700   0.080   4.688
  358SOL     OW 1972   5.234   5.941   0.478
  358SOL    HW1 1973   5.221   6.040   0.487
  358SOL    HW2 1974   5.145   5.895   0.478
  359SOL     OW 1975   3.223   1.714   2.247
  359SOL    HW1 1976   3.210   1.681   2.341
  359SOL    HW2 1977   3.148   1.776   2.223
  360SOL     OW 1978   0.903   5.235   4.283
  360SOL    HW1 1979   0.954   5.251   4.199
  360SOL    HW2 1980   0.966   5.210   4.357
  361SOL     OW 1981   6.649   5.794   3.446
  361SOL    HW1 1982   6.598   5.877   3.426
  361SOL    HW2 1983   6.586   5.716   3.449
  362SOL     OW 1984   4.059   4.441   0.531
  362SOL    HW1 1985   4.009   4.423   0.616
  362SOL    HW2 1986   3.994   4.455   0.457
  363SOL     OW 1987   6.250   5.080   2.638
  363SOL    HW1 1988   6.168   5.056   2.586
  363SOL    HW2 1989   6.233   5.069   2.736
  364SOL     OW 1990   0.720   5.298   6.362
  364SOL    HW1 1991   0.774   5.262   6.438
  364SOL    HW2 1992   0.632   5.330   6.395
  365SOL     OW 1993   3.443   0.901   2.101
  365SOL    HW1 1994   3.386   0.820   2.092
  365SOL    HW2 1995   3.485   0.903   2.192
  366SOL     OW 1996   5.873   3.736   0.083
  366SOL    HW1 1997   5.778   3.734   0.112
  366SOL    HW2 1998   5.908   3.643   0.076
  367SOL     OW 1999   4.967   1.804   5.567
  367SOL    HW1 2000   5.019   1.886   5.543
  367SOL    HW2 2001   4.958   1.797   5.666
  368SOL     OW 2002   6.677   2.175   6.186
  368SOL    HW1 2003   6.739   2.139   6.256
  368SOL    HW2 2004   6.679   2.275   6.188
  369SOL     OW 2005   5.962   4.029   3.192
  369SOL    HW1 2006   5.905   4.088   3.135
  369SOL    HW2 2007   5.944   3.933   3.168
  370SOL     OW 2008   1.747   2.732   4.048
  370SOL    HW1 2009   1.654   2.714   4.080
  370SOL    HW2 2010   1.743   2.776   3.958
  371SOL     OW 2011   1.567   3.896   6.745
  371SOL    HW1 2012   1.603   3.851   6.827
  371SOL    HW2 2013   1.643   3.916   6.683
  372SOL     OW 2014   2.032   6.968   4.882
  372SOL    HW1 2015   1.979   6.883   4.884
  372SOL    HW2 2016   2.039   7.005   4.974
  373SOL     OW 2017   5.825   6.707   4.927
  373SOL    HW1 2018   5.725   6.707   4.940
  373SOL    HW2 2019   5.861   6.797   4.954
  374SOL     OW 2020   2.250   1.902   2.555
  374SOL    HW1 2021   2.284   1.973   2.494
  374SOL    HW2 2022   2.196   1.836   2.504
  375SOL     OW 2023   0.389   5.475   5.235
  375SOL    HW1 2024   0.428   5.458   5.145
  375SOL    HW2 2025   0.432   5.415   5.303
  376SOL     OW 2026   2.946   1.329   4.128
  376SOL    HW1 2027   2.858   1.376   4.129
  376SOL    HW2 2028   3.018   1.394   4.106
  377SOL     OW 2029   1.517   2.448   0.246
  377SOL    HW1 2030   1.449   2.408   0.184
  377SOL    HW2 2031   1.483   2.443   0.340
  378SOL     OW 2032   2.743   1.505   7.020
  378SOL    HW1 2033   2.741   1.480   6.924
  378SOL    HW2 2034   2.771   1.426   0.046
  379SOL     OW 2035   5.743   2.245   6.349
  379SOL    HW1 2036   5.651   2.207   6.340
  379SOL    HW2 2037   5.737   2.342   6.372
  380SOL     OW 2038   3.084   1.171   1.334
  380SOL    HW1 2039   3.154   1.113   1.376
  380SOL    HW2 2040   3.057   1.133   1.246
  381SOL     OW 2041   1.119   4.854   4.479
  381SOL    HW1 2042   1.031   4.849   4.431
  381SOL    HW2 2043   1.171   4.770   4.463
  382SOL     OW 2044   5.946   0.620   0.406
  382SOL    HW1 2045   5.954   0.539   0.464
  382SOL    HW2 2046   5.867   0.609   0.345
  383SOL     OW 2047   3.974   2.901   0.932
  383SOL    HW1 2048   3.949   2.818   0.883
  383SOL    HW2 2049   3.929   2.902   1.022
  384SOL     OW 2050   0.214   3.775   4.323
  384SOL    HW1 2051   0.174   3.685   4.339
  384SOL    HW2 2052   0.239   3.817   4.410
  385SOL     OW 2053   3.925   5.399   6.237
  385SOL    HW1 2054   3.895   5.494   6.234
  385SOL    HW2 2055   4.007   5.388   6.181
  386SOL     OW 2056   4.542   0.281   4.009
  386SOL    HW1 2057   4.472   0.341   4.046
  386SOL    HW2 2058   4.499   0.197   3.974
  387SOL     OW 2059   2.108   5.075   3.099
  387SOL    HW1 2060   2.197   5.067   3.144
  387SOL    HW2 2061   2.038   5.035   3.158
  388SOL     OW 2062   2.402   2.152   6.517
  388SOL    HW1 2063   2.333   2.153   6.589
  388SOL    HW2 2064   2.396   2.237   6.464
  389SOL     OW 2065   3.693   3.852   2.950
  389SOL    HW1 2066   3.713   3.764   2.993
  389SOL    HW2 2067   3.775   3.910   2.953
  390SOL     OW 2068   2.367   0.839   3.869
  390SOL    HW1 2069   2.436   0.901   3.906
  390SOL    HW2 2070   2.369   0.844   3.769
  391SOL     OW 2071   1.723   3.012   0.119
  391SOL    HW1 2072   1.650   3.021   0.187
  391SOL    HW2 2073   1.746   3.102   0.082
  392SOL     OW 2074   2.169   5.246   1.499
  392SOL    HW1 2075   2.175   5.316   1.428
  392SOL    HW2 2076   2.074   5.235   1.528
  393SOL     OW 2077   6.196   4.728   5.298
  393SOL    HW1 2078   6.235   4.806   5.348
  393SOL    HW2 2079   6.263   4.692   5.234
  394SOL     OW 2080   0.631   0.004   0.362
  394SOL    HW1 2081   0.539   0.018   0.400
  394SOL    HW2 2082   0.632   0.030   0.266
  395SOL     OW 2083   5.020   3.861   2.281
  395SOL    HW1 2084   4.952   3.841   2.211
  395SOL    HW2 2085   5.064   3.776   2.310
  396SOL     OW 2086   3.694   3.696   2.737
  396SOL    HW1 2087   3.685   3.748   2.822
  396SOL    HW2 2088   3.788   3.664   2.727
  397SOL     OW 2089   4.030   2.957   5.754
  397SOL    HW1 2090   3.954   2.895   5.736
  397SOL    HW2 2091   4.053   3.006   5.669
  398SOL     OW 2092   0.993   5.737   2.193
  398SOL    HW1 2093   0.959   5.647   2.219
  398SOL    HW2 2094   1.086   5.748   2.228
  399SOL     OW 2095   4.937   5.630   2.356
  399SOL    HW1 2096   4.892   5.685   2.426
  399SOL    HW2 2097   5.027   5.600   2.389
  400SOL     OW 2098   0.078   0.500   5.588
  400SOL    HW1 2099   0.059   0.435   5.515
  400SOL    HW2 2100   0.146   0.460   5.650
  401SOL     OW 2101   5.004   0.727   6.635
  401SOL    HW1 2102   4.921   0.761   6.679
  401SOL    HW2 2103   5.042   0.799   6.577
  402SOL     OW 2104   6.233   6.559   3.259
  402SOL    HW1 2105   6.252   6.464   3.233
  402SOL    HW2 2106   6.311   6.597   3.309
  403SOL     OW 2107   4.701   2.375   5.824
  403SOL    HW1 2108   4.767   2.451   5.821
  403SOL    HW2 2109   4.611   2.408   5.796
  404SOL     OW 2110   1.609   6.955   3.392
  404SOL    HW1 2111   1.538   6.915   3.335
  404SOL    HW2 2112   1.570   7.027   3.450
  405SOL     OW 2113   1.779   2.170   1.359
  405SOL    HW1 2114   1.873   2.142   1.342
  405SOL    HW2 2115   1.747   2.226   1.282
  406SOL     OW 2116   1.270   2.789   4.098
  406SOL    HW1 2117   1.268   2.715   4.165
  406SOL    HW2 2118   1.346   2.851   4.120
  407SOL     OW 2119   2.536   0.204   4.200
  407SOL    HW1 2120   2.461   0.270   4.187
  407SOL    HW2 2121   2.618   0.254   4.229
  408SOL     OW 2122   1.536   0.606   3.390
  408SOL    HW1 2123   1.544   0.704   3.371
  408SOL    HW2 2124   1.627   0.564   3.389
  409SOL     OW 2125   5.900   3.431   2.981
  409SOL    HW1 2126   5.867   3.390   3.066
  409SOL    HW2 2127   5.971   3.373   2.941
  410SOL     OW 2128   2.540   0.138   0.291
  410SOL    HW1 2129   2.539   0.231   0.329
  410SOL    HW2 2130   2.626   0.093   0.314
  411SOL     OW 2131   5.958   5.972   6.540
  411SOL    HW1 2132   5.906   5.911   6.479
  411SOL    HW2 2133   5.971   5.926   6.628
  412SOL     OW 2134   4.014   6.758   2.674
  412SOL    HW1 2135   4.061   6.680   2.634
  412SOL    HW2 2136   4.040   6.767   2.770
  413SOL     OW 2137   3.990   4.558   1.086
  413SOL    HW1 2138   3.995   4.468   1.043
  413SOL    HW2 2139   3.984   4.629   1.015
  414SOL     OW 2140   4.610   5.139   2.360
  414SOL    HW1 2141   4.560   5.183   2.435
  414SOL    HW2 2142   4.662   5.208   2.310
  415SOL     OW 2143   1.788   5.710   0.211
  415SOL    HW1 2144   1.794   5.637   0.143
  415SOL    HW2 2145   1.774   5.797   0.165
  416SOL     OW 2146   4.635   5.751   4.778
  416SOL    HW1 2147   4.560   5.701   4.735
  416SOL    HW2 2148   4.629   5.740   4.878
  417SOL     OW 2149   2.976   6.604   1.248
  417SOL    HW1 2150   3.037   6.609   1.327
  417SOL    HW2 2151   2.996   6.522   1.195
  418SOL     OW 2152   4.790   6.321   0.238
  418SOL    HW1 2153   4.812   6.302   0.143
  418SOL    HW2 2154   4.841   6.401   0.269
  419SOL     OW 2155   0.880   0.314   1.290
  419SOL    HW1 2156   0.866   0.215   1.298
  419SOL    HW2 2157   0.974   0.332   1.263
  420SOL     OW 2158   6.267   3.615   1.083
  420SOL    HW1 2159   6.261   3.561   1.167
  420SOL    HW2 2160   6.360   3.610   1.047
  421SOL     OW 2161   0.655   5.111   5.921
  421SOL    HW1 2162   0.611   5.032   5.879
  421SOL    HW2 2163   0.679   5.090   6.016
  422SOL     OW 2164   6.563   5.636   0.890
  422SOL    HW1 2165   6.481   5.645   0.945
  422SOL    HW2 2166   6.632   5.700   0.923
  423SOL     OW 2167   6.373   3.399   6.721
  423SOL    HW1 2168   6.389   3.319   6.663
  423SOL    HW2 2169   6.359   3.369   6.816
  424SOL     OW 2170   3.077   3.417   0.605
  424SOL    HW1 2171   3.105   3.342   0.545
  424SOL    HW2 2172   3.153   3.481   0.615
  425SOL     OW 2173   5.123   1.153   1.915
  425SOL    HW1 2174   5.100   1.166   2.012
  425SOL    HW2 2175   5.053   1.196   1.858
  426SOL     OW 2176   5.769   2.423   5.179
  426SOL    HW1 2177   5.781   2.521   5.168
  426SOL    HW2 2178   5.853   2.376   5.154
  427SOL     OW 2179   5.723   4.880   2.795
  427SOL    HW1 2180   5.639   4.857   2.845
  427SOL    HW2 2181   5.706   4.873   2.697
  428SOL     OW 2182   4.384   7.003   5.235
  428SOL    HW1 2183   4.430   0.050   5.281
  428SOL    HW2 2184   4.390   7.015   5.136
  429SOL     OW 2185   2.957   5.316   0.922
  429SOL    HW1 2186   3.005   5.385   0.869
  429SOL    HW2 2187   2.970   5.226   0.880
  430SOL     OW 2188   0.977   6.613   3.953
  430SOL    HW1 2189   1.022   6.531   3.915
  430SOL    HW2 2190   0.984   6.611   4.052
  431SOL     OW 2191   3.316   1.341   0.156
  431SOL    HW1 2192   3.315   1.244   0.134
  431SOL    HW2 2193   3.243   1.388   0.106
  432SOL     OW 2194   6.613   2.471   0.971
  432SOL    HW1 2195   6.529   2.498   0.924
  432SOL    HW2 2196   6.691   2.483   0.910
  433SOL     OW 2197   2.523   0.196   3.567
  433SOL    HW1 2198   2.613   0.176   3.607
  433SOL    HW2 2199   2.469   0.250   3.631
  434SOL     OW 2200   4.979   5.068   1.736
  434SOL    HW1 2201   4.893   5.046   1.781
  434SOL    HW2 2202   5.009   4.990   1.681
  435SOL     OW 2203   3.805   2.683   5.584
  435SOL    HW1 2204   3.768   2.776   5.590
  435SOL    HW2 2205   3.834   2.665   5.490
  436SOL     OW 2206   2.071   6.639   1.040
  436SOL    HW1 2207   2.132   6.673   0.969
  436SOL    HW2 2208   2.043   6.716   1.099
  437SOL     OW 2209   0.293   0.148   6.414
  437SOL    HW1 2210   0.298   0.206   6.495
  437SOL    HW2 2211   0.297   0.205   6.331
  438SOL     OW 2212   1.506   2.942   2.227
  438SOL    HW1 2213   1.546   2.982   2.145
  438SOL    HW2 2214   1.454   3.011   2.276
  439SOL     OW 2215   5.917   4.107   3.721
  439SOL    HW1 2216   5.926   4.063   3.811
  439SOL    HW2 2217   5.972   4.190   3.719
  440SOL     OW 2218   0.952   2.063   4.732
  440SOL    HW1 2219   1.007   2.143   4.756
  440SOL    HW2 2220   0.927   2.067   4.635
  441SOL     OW 2221   0.474   1.748   3.117
  441SOL    HW1 2222   0.563   1.777   3.081
  441SOL    HW2 2223   0.487   1.692   3.199
  442SOL     OW 2224   1.836   4.674   0.181
  442SOL    HW1 2225   1.746   4.678   0.137
  442SOL    HW2 2226   1.853   4.581   0.213
  443SOL     OW 2227   1.087   4.077   4.898
  443SOL    HW1 2228   1.034   4.130   4.963
  443SOL    HW2 2229   1.167   4.038   4.945
  444SOL     OW 2230   5.059   2.075   5.929
  444SOL    HW1 2231   4.980   2.117   5.884
  444SOL    HW2 2232   5.050   1.975   5.926
  445SOL     OW 2233   1.424   5.634   3.010
  445SOL    HW1 2234   1.469   5.682   2.935
  445SOL    HW2 2235   1.493   5.601   3.074
  446SOL     OW 2236   4.156   4.747   3.512
  446SOL    HW1 2237   4.202   4.826   3.552
  446SOL    HW2 2238   4.224   4.684   3.475
  447SOL     OW 2239   0.254   3.579   6.905
  447SOL    HW1 2240   0.216   3.669   6.928
  447SOL    HW2 2241   0.239   3.561   6.808
  448SOL     OW 2242   3.600   0.461   4.717
  448SOL    HW1 2243   3.611   0.362   4.707
  448SOL    HW2 2244   3.537   0.495   4.647
  449SOL     OW 2245   4.616   0.990   5.425
  449SOL    HW1 2246   4.673   1.030   5.353
  449SOL    HW2 2247   4.673   0.951   5.496
  450SOL     OW 2248   1.102   5.999   2.946
  450SOL    HW1 2249   1.054   6.048   3.019
  450SOL    HW2 2250   1.062   5.908   2.935
  451SOL     OW 2251   1.310   2.421   2.777
  451SOL    HW1 2252   1.298   2.332   2.732
  451SOL    HW2 2253   1.356   2.484   2.714
  452SOL     OW 2254   6.135   5.618   0.581
  452SOL    HW1 2255   6.171   5.709   0.561
  452SOL    HW2 2256   6.092   5.580   0.499
  453SOL     OW 2257   3.010   0.133   5.321
  453SOL    HW1 2258   3.072   0.092   5.387
  453SOL    HW2 2259   2.926   0.163   5.368
  454SOL     OW 2260   0.345   5.295   5.937
  454SOL    HW1 2261   0.298   5.207   5.942
  454SOL    HW2 2262   0.388   5.305   5.848
  455SOL     OW 2263   6.650   0.692   4.195
  455SOL    HW1 2264   6.676   0.689   4.098
  455SOL    HW2 2265   6.664   0.784   4.231
  456SOL     OW 2266   4.390   5.906   4.763
  456SOL    HW1 2267   4.385   5.848   4.682
  456SOL    HW2 2268   4.482   5.944   4.772
  457SOL     OW 2269   2.155   3.520   3.645
  457SOL    HW1 2270   2.215   3.573   3.585
  457SOL    HW2 2271   2.122   3.578   3.719
  458SOL     OW 2272   4.851   5.898   4.645
  458SOL    HW1 2273   4.875   5.902   4.548
  458SOL    HW2 2274   4.778   5.830   4.657
  459SOL     OW 2275   1.216   0.196   4.091
  459SOL    HW1 2276   1.220   0.166   4.186
  459SOL    HW2 2277   1.309   0.201   4.053
  460SOL     OW 2278   0.739   1.014   2.140
  460SOL    HW1 2279   0.733   0.977   2.048
  460SOL    HW2 2280   0.828   1.058   2.153
  461SOL     OW 2281   6.077   6.678   4.737
  461SOL    HW1 2282   6.026   6.678   4.823
  461SOL    HW2 2283   6.057   6.761   4.686
  462SOL     OW 2284   4.236   2.221   5.727
  462SOL    HW1 2285   4.137   2.210   5.733
  462SOL    HW2 2286   4.278   2.133   5.705
  463SOL     OW 2287   6.352   6.317   3.257
  463SOL    HW1 2288   6.286   6.290   3.187
  463SOL    HW2 2289   6.445   6.297   3.226
  464SOL     OW 2290   2.905   1.903   6.161
  464SOL    HW1 2291   2.887   1.805   6.164
  464SOL    HW2 2292   2.822   1.951   6.134
  465SOL     OW 2293   1.232   2.226   4.406
  465SOL    HW1 2294   1.274   2.135   4.411
  465SOL    HW2 2295   1.304   2.294   4.390
  466SOL     OW 2296   0.963   5.785   2.896
  466SOL    HW1 2297   0.970   5.687   2.916
  466SOL    HW2 2298   0.936   5.798   2.800
  467SOL     OW 2299   0.968   0.422   6.266
  467SOL    HW1 2300   1.050   0.407   6.209
  467SOL    HW2 2301   0.942   0.336   6.310
  468SOL     OW 2302   3.010   6.230   0.212
  468SOL    HW1 2303   2.972   6.319   0.185
  468SOL    HW2 2304   3.072   6.242   0.289
  469SOL     OW 2305   2.618   4.378   0.841
  469SOL    HW1 2306   2.707   4.378   0.796
  469SOL    HW2 2307   2.612   4.456   0.903
  470SOL     OW 2308   3.529   0.497   2.459
  470SOL    HW1 2309   3.475   0.558   2.517
  470SOL    HW2 2310   3.626   0.506   2.484
  471SOL     OW 2311   1.565   2.607   4.551
  471SOL    HW1 2312   1.654   2.611   4.505
  471SOL    HW2 2313   1.577   2.626   4.648
  472SOL     OW 2314   5.052   3.921   6.770
  472SOL    HW1 2315   5.107   3.838   6.778
  472SOL    HW2 2316   4.961   3.898   6.734
  473SOL     OW 2317   0.679   3.236   1.761
  473SOL    HW1 2318   0.626   3.315   1.731
  473SOL    HW2 2319   0.757   3.223   1.700
  474SOL     OW 2320   4.494   4.945   3.813
  474SOL    HW1 2321   4.419   4.984   3.760
  474SOL    HW2 2322   4.541   5.018   3.863
  475SOL     OW 2323   6.090   0.971   6.672
  475SOL    HW1 2324   6.114   0.878   6.647
  475SOL    HW2 2325   6.077   1.026   6.589
  476SOL     OW 2326   0.730   4.442   2.347
  476SOL    HW1 2327   0.732   4.391   2.261
  476SOL    HW2 2328   0.726   4.379   2.424
  477SOL     OW 2329   2.106   4.675   5.026
  477SOL    HW1 2330   2.158   4.613   5.084
  477SOL    HW2 2331   2.083   4.758   5.078
  478SOL     OW 2332   3.141   6.635   2.659
  478SOL    HW1 2333   3.159   6.554   2.714
  478SOL    HW2 2334   3.137   6.609   2.562
  479SOL     OW 2335   4.532   2.263   6.925
  479SOL    HW1 2336   4.452   2.313   6.957
  479SOL    HW2 2337   4.504   2.188   6.865
  480SOL     OW 2338   2.433   0.844   0.379
  480SOL    HW1 2339   2.359   0.895   0.335
  480SOL    HW2 2340   2.502   0.821   0.311
  481SOL     OW 2341   1.573   6.790   0.057
  481SOL    HW1 2342   1.501   6.721   0.053
  481SOL    HW2 2343   1.532   6.881   0.064
  482SOL     OW 2344   4.137   5.020   2.952
  482SOL    HW1 2345   4.222   5.044   2.905
  482SOL    HW2 2346   4.120   4.922   2.941
  483SOL     OW 2347   6.461   2.155   1.835
  483SOL    HW1 2348   6.463   2.215   1.755
  483SOL    HW2 2349   6.371   2.113   1.844
  484SOL     OW 2350   0.870   3.012   5.368
  484SOL    HW1 2351   0.887   3.011   5.270
  484SOL    HW2 2352   0.814   2.932   5.393
  485SOL     OW 2353   4.321   5.966   1.900
  485SOL    HW1 2354   4.354   5.897   1.965
  485SOL    HW2 2355   4.389   6.039   1.890
  486SOL     OW 2356   6.961   1.564   1.160
  486SOL    HW1 2357   7.028   1.579   1.087
  486SOL    HW2 2358   6.996   1.498   1.225
  487SOL     OW 2359   0.660   2.115   0.818
  487SOL    HW1 2360   0.633   2.087   0.910
  487SOL    HW2 2361   0.752   2.153   0.821
  488SOL     OW 2362   0.521   1.404   1.864
  488SOL    HW1 2363   0.609   1.403   1.911
  488SOL    HW2 2364   0.501   1.497   1.833
  489SOL     OW 2365   3.530   6.160   6.268
  489SOL    HW1 2366   3.464   6.227   6.303
  489SOL    HW2 2367   3.618   6.174   6.312
  490SOL     OW 2368   6.817   6.425   3.489
  490SOL    HW1 2369   6.752   6.464   3.423
  490SOL    HW2 2370   6.806   6.326   3.492
  491SOL     OW 2371   0.322   2.891   2.735
  491SOL    HW1 2372   0.298   2.982   2.768
  491SOL    HW2 2373   0.274   2.823   2.790
  492SOL     OW 2374   2.924   0.345   4.829
  492SOL    HW1 2375   2.831   0.344   4.865
  492SOL    HW2 2376   2.922   0.335   4.729
  493SOL     OW 2377   5.398   6.263   5.477
  493SOL    HW1 2378   5.494   6.290   5.472
  493SOL    HW2 2379   5.341   6.337   5.441
  494SOL     OW 2380   0.562   0.235   6.757
  494SOL    HW1 2381   0.479   0.196   6.794
  494SOL    HW2 2382   0.623   0.262   6.832
  495SOL     OW 2383   5.256   6.157   2.960
  495SOL    HW1 2384   5.183   6.110   3.009
  495SOL    HW2 2385   5.273   6.246   3.003
  496SOL     OW 2386   5.225   3.665   2.802
  496SOL    HW1 2387   5.308   3.617   2.774
  496SOL    HW2 2388   5.204   3.736   2.735
  497SOL     OW 2389   3.045   1.373   5.563
  497SOL    HW1 2390   2.966   1.341   5.510
  497SOL    HW2 2391   3.028   1.354   5.660
  498SOL     OW 2392   1.262   3.697   1.673
  498SOL    HW1 2393   1.171   3.681   1.710
  498SOL    HW2 2394   1.285   3.624   1.609
  499SOL     OW 2395   3.015   0.259   4.320
  499SOL    HW1 2396   3.109   0.288   4.341
  499SOL    HW2 2397   3.013   0.161   4.305
  500SOL     OW 2398   1.190   3.334   2.570
  500SOL    HW1 2399   1.149   3.425   2.566
  500SOL    HW2 2400   1.281   3.340   2.611
  501SOL     OW 2401   3.082   0.042   0.326
  501SOL    HW1 2402   3.053   0.028   0.421
  501SOL    HW2 2403   3.045   0.129   0.293
  502SOL     OW 2404   6.803   4.789   6.300
  502SOL    HW1 2405   6.881   4.726   6.306
  502SOL    HW2 2406   6.803   4.835   6.211
  503SOL     OW 2407   5.774   5.740   5.912
  503SOL    HW1 2408   5.739   5.753   6.005
  503SOL    HW2 2409   5.743   5.816   5.854
  504SOL     OW 2410   2.469   5.672   3.100
  504SOL    HW1 2411   2.394   5.697   3.161
  504SOL    HW2 2412   2.517   5.755   3.070
  505SOL     OW 2413   3.708   6.550   5.823
  505SOL    HW1 2414   3.783   6.498   5.864
  505SOL    HW2 2415   3.671   6.499   5.745
  506SOL     OW 2416   1.074   5.706   4.733
  506SOL    HW1 2417   1.039   5.660   4.652
  506SOL    HW2 2418   1.169   5.679   4.748
  507SOL     OW 2419   3.482   0.875   4.144
  507SOL    HW1 2420   3.481   0.825   4.057
  507SOL    HW2 2421   3.572   0.917   4.157
  508SOL     OW 2422   6.223   3.403   2.966
  508SOL    HW1 2423   6.273   3.448   3.040
  508SOL    HW2 2424   6.173   3.324   3.003
  509SOL     OW 2425   2.910   0.816   0.581
  509SOL    HW1 2426   2.882   0.779   0.670
  509SOL    HW2 2427   3.006   0.794   0.565
  510SOL     OW 2428   6.299   5.066   5.677
  510SOL    HW1 2429   6.385   5.109   5.707
  510SOL    HW2 2430   6.255   5.022   5.755
  511SOL     OW 2431   0.222   6.953   6.661
  511SOL    HW1 2432   0.286   6.890   6.616
  511SOL    HW2 2433   0.133   6.947   6.616
  512SOL     OW 2434   6.946   2.975   0.424
  512SOL    HW1 2435   6.953   3.040   0.500
  512SOL    HW2 2436   6.946   3.026   0.337
  513SOL     OW 2437   5.705   6.256   3.007
  513SOL    HW1 2438   5.743   6.340   2.967
  513SOL    HW2 2439   5.722   6.256   3.106
  514SOL     OW 2440   6.800   2.798   3.829
  514SOL    HW1 2441   6.814   2.732   3.903
  514SOL    HW2 2442   6.862   2.875   3.842
  515SOL     OW 2443   1.542   0.447   6.688
  515SOL    HW1 2444   1.512   0.385   6.761
  515SOL    HW2 2445   1.477   0.524   6.683
  516SOL     OW 2446   3.061   4.657   1.731
  516SOL    HW1 2447   3.006   4.589   1.780
  516SOL    HW2 2448   3.052   4.746   1.776
  517SOL     OW 2449   4.991   6.142   2.063
  517SOL    HW1 2450   5.088   6.165   2.064
  517SOL    HW2 2451   4.980   6.043   2.054
  518SOL     OW 2452   3.044   2.156   2.237
  518SOL    HW1 2453   3.135   2.186   2.211
  518SOL    HW2 2454   2.975   2.210   2.189
  519SOL     OW 2455   0.213   0.723   4.745
  519SOL    HW1 2456   0.275   0.785   4.698
  519SOL    HW2 2457   0.218   0.632   4.702
  520SOL     OW 2458   6.296   4.756   6.877
  520SOL    HW1 2459   6.205   4.729   6.845
  520SOL    HW2 2460   6.337   4.681   6.928
  521SOL     OW 2461   6.430   2.901   6.185
  521SOL    HW1 2462   6.505   2.883   6.248
  521SOL    HW2 2463   6.369   2.821   6.183
  522SOL     OW 2464   3.552   3.252   5.520
  522SOL    HW1 2465   3.477   3.310   5.552
  522SOL    HW2 2466   3.536   3.227   5.424
  523SOL     OW 2467   0.450   4.788   2.461
  523SOL    HW1 2468   0.445   4.839   2.547
  523SOL    HW2 2469   0.464   4.852   2.385
  524SOL     OW 2470   2.109   1.066   6.933
  524SOL    HW1 2471   2.151   1.156   6.948
  524SOL    HW2 2472   2.128   1.036   6.839
  525SOL     OW 2473   2.621   3.592   6.719
  525SOL    HW1 2474   2.648   3.536   6.796
  525SOL    HW2 2475   2.670   3.562   6.637
  526SOL     OW 2476   2.581   0.198   4.582
  526SOL    HW1 2477   2.615   0.115   4.627
  526SOL    HW2 2478   2.512   0.240   4.640
  527SOL     OW 2479   6.036   3.213   6.075
  527SOL    HW1 2480   6.074   3.292   6.027
  527SOL    HW2 2481   5.954   3.181   6.026
  528SOL     OW 2482   0.887   2.024   4.291
  528SOL    HW1 2483   0.961   1.957   4.295
  528SOL    HW2 2484   0.807   1.984   4.246
  529SOL     OW 2485   0.641   5.860   4.588
  529SOL    HW1 2486   0.634   5.761   4.600
  529SOL    HW2 2487   0.605   5.886   4.498
  530SOL     OW 2488   2.710   2.944   5.345
  530SOL    HW1 2489   2.622   2.978   5.312
  530SOL    HW2 2490   2.699   2.851   5.379
  531SOL     OW 2491   0.072   0.983   2.053
  531SOL    HW1 2492   0.133   1.046   2.101
  531SOL    HW2 2493   0.056   0.903   2.110
  532SOL     OW 2494   1.080   2.306   6.957
  532SOL    HW1 2495   1.044   2.223   6.912
  532SOL    HW2 2496   1.059   2.302   0.026
  533SOL     OW 2497   4.028   5.925   4.004
  533SOL    HW1 2498   4.003   6.014   4.043
  533SOL    HW2 2499   3.996   5.853   4.065
  534SOL     OW 2500   5.272   5.210   3.776
  534SOL    HW1 2501   5.239   5.163   3.695
  534SOL    HW2 2502   5.267   5.309   3.763
  535SOL     OW 2503   0.964   3.845   4.919
  535SOL    HW1 2504   0.872   3.827   4.952
  535SOL    HW2 2505   0.976   3.943   4.906
  536SOL     OW 2506   6.938   5.096   1.869
  536SOL    HW1 2507   6.984   5.184   1.856
  536SOL    HW2 2508   6.977   5.028   1.808
  537SOL     OW 2509   1.968   6.387   3.701
  537SOL    HW1 2510   1.908   6.322   3.655
  537SOL    HW2 2511   1.916   6.468   3.728
  538SOL     OW 2512   2.165   5.901   3.834
  538SOL    HW1 2513   2.094   5.933   3.897
  538SOL    HW2 2514   2.255   5.926   3.872
  539SOL     OW 2515   0.602   5.936   0.305
  539SOL    HW1 2516   0.695   5.910   0.331
  539SOL    HW2 2517   0.594   5.933   0.205
  540SOL     OW 2518   0.024   1.239   1.919
  540SOL    HW1 2519   0.014   1.158   1.977
  540SOL    HW2 2520   0.121   1.256   1.902
  541SOL     OW 2521   2.925   7.000   4.583
  541SOL    HW1 2522   2.864   7.006   4.661
  541SOL    HW2 2523   2.946   6.905   4.563
  542SOL     OW 2524   6.886   0.285   0.536
  542SOL    HW1 2525   6.889   0.371   0.587
  542SOL    HW2 2526   6.791   0.256   0.524
  543SOL     OW 2527   0.125   5.071   5.496
  543SOL    HW1 2528   0.213   5.035   5.525
  543SOL    HW2 2529   0.130   5.101   5.401
  544SOL     OW 2530   2.017   4.239   1.153
  544SOL    HW1 2531   1.924   4.209   1.131
  544SOL    HW2 2532   2.021   4.265   1.249
  545SOL     OW 2533   3.637   1.356   3.303
  545SOL    HW1 2534   3.571   1.284   3.325
  545SOL    HW2 2535   3.590   1.431   3.256
  546SOL     OW 2536   1.490   3.332   1.181
  546SOL    HW1 2537   1.398   3.345   1.218
  546SOL    HW2 2538   1.539   3.419   1.179
  547SOL     OW 2539   2.751   1.053   6.597
  547SOL    HW1 2540   2.672   1.048   6.659
  547SOL    HW2 2541   2.799   0.966   6.598
  548SOL     OW 2542   3.846   3.130   2.801
  548SOL    HW1 2543   3.917   3.195   2.775
  548SOL    HW2 2544   3.825   3.071   2.724
  549SOL     OW 2545   4.474   3.644   1.327
  549SOL    HW1 2546   4.518   3.728   1.295
  549SOL    HW2 2547   4.543   3.581   1.362
  550SOL     OW 2548   7.007   3.710   3.775
  550SOL    HW1 2549   0.031   3.638   3.730
  550SOL    HW2 2550   0.008   3.718   3.870
  551SOL     OW 2551   6.995   0.870   1.082
  551SOL    HW1 2552   6.924   0.934   1.113
  551SOL    HW2 2553   6.973   0.838   0.990
  552SOL     OW 2554   4.683   5.137   0.671
  552SOL    HW1 2555   4.707   5.043   0.694
  552SOL    HW2 2556   4.590   5.140   0.634
  553SOL     OW 2557   1.923   0.328   2.271
  553SOL    HW1 2558   1.857   0.367   2.335
  553SOL    HW2 2559   1.944   0.234   2.299
  554SOL     OW 2560   4.807   6.589   6.424
  554SOL    HW1 2561   4.803   6.611   6.522
  554SOL    HW2 2562   4.896   6.548   6.403
  555SOL     OW 2563   2.385   5.249   4.308
  555SOL    HW1 2564   2.439   5.255   4.392
  555SOL    HW2 2565   2.438   5.286   4.232
  556SOL     OW 2566   6.334   1.867   4.356
  556SOL    HW1 2567   6.244   1.825   4.348
  556SOL    HW2 2568   6.404   1.799   4.334
  557SOL     OW 2569   0.015   5.586   6.654
  557SOL    HW1 2570   0.060   5.675   6.649
  557SOL    HW2 2571   7.027   5.553   6.561
  558SOL     OW 2572   4.005   4.005   4.618
  558SOL    HW1 2573   4.058   4.036   4.697
  558SOL    HW2 2574   3.918   4.055   4.616
  559SOL     OW 2575   6.276   6.118   6.789
  559SOL    HW1 2576   6.343   6.076   6.726
  559SOL    HW2 2577   6.251   6.052   6.860
  560SOL     OW 2578   3.990   6.425   0.634
  560SOL    HW1 2579   4.077   6.428   0.682
  560SOL    HW2 2580   3.951   6.333   0.641
  561SOL     OW 2581   6.476   6.983   6.834
  561SOL    HW1 2582   6.536   6.966   6.911
  561SOL    HW2 2583   6.434   0.044   6.843
  562SOL     OW 2584   4.761   0.272   6.382
  562SOL    HW1 2585   4.729   0.344   6.321
  562SOL    HW2 2586   4.746   0.300   6.477
  563SOL     OW 2587   2.905   0.086   3.104
  563SOL    HW1 2588   2.895   0.028   3.184
  563SOL    HW2 2589   2.949   0.172   3.130
  564SOL     OW 2590   2.700   2.076   6.103
  564SOL    HW1 2591   2.635   2.122   6.163
  564SOL    HW2 2592   2.650   2.031   6.028
  565SOL     OW 2593   4.368   3.066   5.348
  565SOL    HW1 2594   4.291   3.095   5.405
  565SOL    HW2 2595   4.439   3.136   5.350
  566SOL     OW 2596   4.728   4.520   3.571
  566SOL    HW1 2597   4.640   4.484   3.603
  566SOL    HW2 2598   4.715   4.563   3.481
  567SOL     OW 2599   3.374   3.801   4.006
  567SOL    HW1 2600   3.472   3.807   3.989
  567SOL    HW2 2601   3.326   3.786   3.919
  568SOL     OW 2602   3.737   2.436   1.175
  568SOL    HW1 2603   3.820   2.403   1.219
  568SOL    HW2 2604   3.752   2.440   1.076
  569SOL     OW 2605   1.457   3.098   0.663
  569SOL    HW1 2606   1.467   3.157   0.583
  569SOL    HW2 2607   1.503   3.139   0.741
  570SOL     OW 2608   1.584   6.849   6.584
  570SOL    HW1 2609   1.676   6.868   6.551
  570SOL    HW2 2610   1.538   6.786   6.521
  571SOL     OW 2611   3.479   6.210   2.689
  571SOL    HW1 2612   3.458   6.199   2.786
  571SOL    HW2 2613   3.400   6.248   2.642
  572SOL     OW 2614   2.753   5.028   5.885
  572SOL    HW1 2615   2.740   5.127   5.890
  572SOL    HW2 2616   2.700   4.991   5.810
  573SOL     OW 2617   3.720   2.030   5.092
  573SOL    HW1 2618   3.815   2.055   5.071
  573SOL    HW2 2619   3.697   1.944   5.047
  574SOL     OW 2620   2.297   2.111   4.191
  574SOL    HW1 2621   2.277   2.135   4.286
  574SOL    HW2 2622   2.395   2.121   4.174
  575SOL     OW 2623   6.308   4.265   6.414
  575SOL    HW1 2624   6.273   4.260   6.320
  575SOL    HW2 2625   6.283   4.353   6.455
  576SOL     OW 2626   1.624   1.923   1.733
  576SOL    HW1 2627   1.631   2.016   1.769
  576SOL    HW2 2628   1.655   1.858   1.801
  577SOL     OW 2629   1.980   1.430   3.510
  577SOL    HW1 2630   2.009   1.509   3.456
  577SOL    HW2 2631   2.016   1.346   3.468
  578SOL     OW 2632   7.018   3.196   3.463
  578SOL    HW1 2633   6.919   3.189   3.464
  578SOL    HW2 2634   0.024   3.194   3.556
  579SOL     OW 2635   3.467   2.356   1.138
  579SOL    HW1 2636   3.428   2.264   1.146
  579SOL    HW2 2637   3.566   2.350   1.131
  580SOL     OW 2638   0.720   4.737   5.975
  580SOL    HW1 2639   0.718   4.638   5.958
  580SOL    HW2 2640   0.815   4.768   5.982
  581SOL     OW 2641   3.032   3.092   3.019
  581SOL    HW1 2642   3.104   3.161   3.018
  581SOL    HW2 2643   3.006   3.069   2.925
  582SOL     OW 2644   5.681   4.710   2.549
  582SOL    HW1 2645   5.677   4.695   2.648
  582SOL    HW2 2646   5.756   4.656   2.510
  583SOL     OW 2647   2.813   4.573   6.601
  583SOL    HW1 2648   2.734   4.523   6.567
  583SOL    HW2 2649   2.783   4.637   6.673
  584SOL     OW 2650   0.506   4.899   5.845
  584SOL    HW1 2651   0.474   4.852   5.763
  584SOL    HW2 2652   0.579   4.845   5.888
  585SOL     OW 2653   6.640   2.611   5.902
  585SOL    HW1 2654   6.569   2.592   5.835
  585SOL    HW2 2655   6.653   2.710   5.909
  586SOL     OW 2656   3.197   6.712   0.338
  586SOL    HW1 2657   3.203   6.625   0.289
  586SOL    HW2 2658   3.112   6.714   0.390
  587SOL     OW 2659   1.826   2.153   5.113
  587SOL    HW1 2660   1.809   2.238   5.163
  587SOL    HW2 2661   1.738   2.108   5.093
  588SOL     OW 2662   3.536   6.504   1.178
  588SOL    HW1 2663   3.544   6.410   1.146
  588SOL    HW2 2664   3.626   6.546   1.181
  589SOL     OW 2665   3.996   5.146   1.955
  589SOL    HW1 2666   3.940   5.186   1.882
  589SOL    HW2 2667   3.944   5.074   2.000
  590SOL     OW 2668   6.696   2.980   2.386
  590SOL    HW1 2669   6.607   3.018   2.412
  590SOL    HW2 2670   6.742   3.042   2.323
  591SOL     OW 2671   3.743   6.864   3.862
  591SOL    HW1 2672   3.686   6.926   3.916
  591SOL    HW2 2673   3.693   6.780   3.843
  592SOL     OW 2674   4.419   1.100   0.478
  592SOL    HW1 2675   4.396   1.005   0.458
  592SOL    HW2 2676   4.358   1.161   0.427
  593SOL     OW 2677   4.492   1.848   3.542
  593SOL    HW1 2678   4.429   1.775   3.568
  593SOL    HW2 2679   4.570   1.848   3.604
  594SOL     OW 2680   4.045   2.771   6.299
  594SOL    HW1 2681   4.085   2.749   6.210
  594SOL    HW2 2682   3.978   2.700   6.323
  595SOL     OW 2683   4.590   6.959   4.073
  595SOL    HW1 2684   4.668   7.021   4.075
  595SOL    HW2 2685   4.595   6.901   3.991
  596SOL     OW 2686   1.116   4.114   1.351
  596SOL    HW1 2687   1.189   4.053   1.382
  596SOL    HW2 2688   1.037   4.107   1.412
  597SOL     OW 2689   4.185   6.695   6.169
  597SOL    HW1 2690   4.125   6.676   6.247
  597SOL    HW2 2691   4.144   6.660   6.085
  598SOL     OW 2692   3.510   4.285   0.760
  598SOL    HW1 2693   3.477   4.379   0.771
  598SOL    HW2 2694   3.609   4.283   0.772
  599SOL     OW 2695   0.306   0.780   2.952
  599SOL    HW1 2696   0.295   0.737   2.862
  599SOL    HW2 2697   0.242   0.856   2.960
  600SOL     OW 2698   0.398   6.944   0.811
  600SOL    HW1 2699   0.493   6.914   0.824
  600SOL    HW2 2700   0.390   6.992   0.724
  601SOL     OW 2701   3.130   5.656   3.149
  601SOL    HW1 2702   3.174   5.598   3.081
  601SOL    HW2 2703   3.097   5.600   3.225
  602SOL     OW 2704   0.990   1.135   0.664
  602SOL    HW1 2705   0.902   1.178   0.686
  602SOL    HW2 2706   1.045   1.197   0.608
  603SOL     OW 2707   3.974   1.859   3.918
  603SOL    HW1 2708   3.981   1.760   3.901
  603SOL    HW2 2709   3.879   1.887   3.913
  604SOL     OW 2710   0.882   3.021   0.261
  604SOL    HW1 2711   0.794   3.048   0.301
  604SOL    HW2 2712   0.954   3.030   0.330
  605SOL     OW 2713   6.896   5.840   3.512
  605SOL    HW1 2714   6.800   5.829   3.489
  605SOL    HW2 2715   6.951   5.773   3.462
  606SOL     OW 2716   4.955   0.862   5.328
  606SOL    HW1 2717   4.982   0.937   5.388
  606SOL    HW2 2718   5.003   0.870   5.240
  607SOL     OW 2719   5.482   1.417   4.380
  607SOL    HW1 2720   5.454   1.404   4.475
  607SOL    HW2 2721   5.462   1.335   4.328
  608SOL     OW 2722   3.362   0.124   0.733
  608SOL    HW1 2723   3.316   0.213   0.731
  608SOL    HW2 2724   3.313   0.063   0.796
  609SOL     OW 2725   3.493   2.972   4.954
  609SOL    HW1 2726   3.537   2.919   4.881
  609SOL    HW2 2727   3.402   2.933   4.972
  610SOL     OW 2728   5.579   2.374   3.112
  610SOL    HW1 2729   5.514   2.424   3.170
  610SOL    HW2 2730   5.671   2.381   3.152
  611SOL     OW 2731   0.588   0.707   6.963
  611SOL    HW1 2732   0.500   0.712   7.011
  611SOL    HW2 2733   0.626   0.799   6.954
  612SOL     OW 2734   3.547   5.742   5.722
  612SOL    HW1 2735   3.475   5.735   5.653
  612SOL    HW2 2736   3.597   5.656   5.728
  613SOL     OW 2737   4.168   1.095   5.339
  613SOL    HW1 2738   4.111   1.014   5.357
  613SOL    HW2 2739   4.147   1.131   5.248
  614SOL     OW 2740   5.974   5.167   1.137
  614SOL    HW1 2741   5.926   5.250   1.107
  614SOL    HW2 2742   6.015   5.122   1.058
  615SOL     OW 2743   0.795   0.602   6.704
  615SOL    HW1 2744   0.717   0.627   6.761
  615SOL    HW2 2745   0.789   0.650   6.616
  616SOL     OW 2746   5.970   2.087   3.796
  616SOL    HW1 2747   5.985   2.158   3.727
  616SOL    HW2 2748   5.957   2.130   3.885
  617SOL     OW 2749   0.330   4.642   6.296
  617SOL    HW1 2750   0.291   4.555   6.267
  617SOL    HW2 2751   0.382   4.682   6.221
  618SOL     OW 2752   5.948   3.299   1.522
  618SOL    HW1 2753   6.009   3.231   1.565
  618SOL    HW2 2754   5.855   3.263   1.521
  619SOL     OW 2755   3.520   6.698   6.822
  619SOL    HW1 2756   3.431   6.730   6.855
  619SOL    HW2 2757   3.533   6.727   6.728
  620SOL     OW 2758   5.835   3.437   2.204
  620SOL    HW1 2759   5.823   3.502   2.129
  620SOL    HW2 2760   5.764   3.367   2.199
  621SOL     OW 2761   2.409   6.992   5.139
  621SOL    HW1 2762   2.479   0.033   5.127
  621SOL    HW2 2763   2.384   6.953   5.051
  622SOL     OW 2764   0.830   2.551   5.673
  622SOL    HW1 2765   0.897   2.542   5.600
  622SOL    HW2 2766   0.851   2.631   5.729
  623SOL     OW 2767   6.278   6.194   5.044
  623SOL    HW1 2768   6.288   6.171   5.141
  623SOL    HW2 2769   6.211   6.133   5.002
  624SOL     OW 2770   6.255   1.142   6.814
  624SOL    HW1 2771   6.325   1.081   6.851
  624SOL    HW2 2772   6.186   1.088   6.765
  625SOL     OW 2773   2.074   0.995   0.282
  625SOL    HW1 2774   2.115   0.917   0.235
  625SOL    HW2 2775   2.078   1.076   0.223
  626SOL     OW 2776   1.447   5.858   3.318
  626SOL    HW1 2777   1.464   5.821   3.227
  626SOL    HW2 2778   1.465   5.956   3.319
  627SOL     OW 2779   6.466   6.195   0.597
  627SOL    HW1 2780   6.522   6.112   0.593
  627SOL    HW2 2781   6.525   6.275   0.605
  628SOL     OW 2782   5.404   3.677   5.267
  628SOL    HW1 2783   5.424   3.626   5.184
  628SOL    HW2 2784   5.462   3.759   5.272
  629SOL     OW 2785   0.205   1.139   0.222
  629SOL    HW1 2786   0.271   1.086   0.169
  629SOL    HW2 2787   0.240   1.232   0.235
  630SOL     OW 2788   6.533   0.713   1.117
  630SOL    HW1 2789   6.459   0.771   1.084
  630SOL    HW2 2790   6.508   0.675   1.206
  631SOL     OW 2791   2.671   2.428   4.630
  631SOL    HW1 2792   2.681   2.457   4.725
  631SOL    HW2 2793   2.590   2.371   4.620
  632SOL     OW 2794   4.753   3.224   0.481
  632SOL    HW1 2795   4.809   3.236   0.399
  632SOL    HW2 2796   4.804   3.169   0.548
  633SOL     OW 2797   2.162   4.991   1.153
  633SOL    HW1 2798   2.139   4.895   1.169
  633SOL    HW2 2799   2.252   5.011   1.191
  634SOL     OW 2800   3.745   3.440   3.373
  634SOL    HW1 2801   3.742   3.381   3.292
  634SOL    HW2 2802   3.707   3.391   3.451
  635SOL     OW 2803   4.708   0.657   0.280
  635SOL    HW1 2804   4.671   0.700   0.197
  635SOL    HW2 2805   4.638   0.601   0.323
  636SOL     OW 2806   3.122   0.356   5.008
  636SOL    HW1 2807   3.060   0.333   4.933
  636SOL    HW2 2808   3.212   0.316   4.990
  637SOL     OW 2809   6.312   1.777   2.586
  637SOL    HW1 2810   6.239   1.840   2.560
  637SOL    HW2 2811   6.298   1.689   2.541
  638SOL     OW 2812   5.768   3.461   4.231
  638SOL    HW1 2813   5.798   3.486   4.139
  638SOL    HW2 2814   5.807   3.372   4.255
  639SOL     OW 2815   5.512   4.778   3.208
  639SOL    HW1 2816   5.521   4.838   3.288
  639SOL    HW2 2817   5.535   4.830   3.126
  640SOL     OW 2818   0.628   3.661   3.324
  640SOL    HW1 2819   0.706   3.703   3.369
  640SOL    HW2 2820   0.585   3.727   3.262
  641SOL     OW 2821   1.572   4.584   5.438
  641SOL    HW1 2822   1.641   4.589   5.365
  641SOL    HW2 2823   1.610   4.533   5.516
  642SOL     OW 2824   1.120   3.804   4.506
  642SOL    HW1 2825   1.038   3.748   4.522
  642SOL    HW2 2826   1.186   3.750   4.453
  643SOL     OW 2827   6.656   6.242   0.193
  643SOL    HW1 2828   6.711   6.245   0.109
  643SOL    HW2 2829   6.569   6.288   0.177
  644SOL     OW 2830   0.158   0.471   4.451
  644SOL    HW1 2831   0.173   0.515   4.363
  644SOL    HW2 2832   0.239   0.484   4.509
  645SOL     OW 2833   3.330   4.883   2.806
  645SOL    HW1 2834   3.346   4.976   2.772
  645SOL    HW2 2835   3.306   4.887   2.903
  646SOL     OW 2836   3.836   0.660   4.834
  646SOL    HW1 2837   3.838   0.621   4.742
  646SOL    HW2 2838   3.741   0.676   4.862
  647SOL     OW 2839   4.775   2.079   4.910
  647SOL    HW1 2840   4.758   2.177   4.894
  647SOL    HW2 2841   4.761   2.029   4.824
  648SOL     OW 2842   6.497   2.548   3.538
  648SOL    HW1 2843   6.471   2.467   3.486
  648SOL    HW2 2844   6.568   2.598   3.489
  649SOL     OW 2845   2.101   4.331   0.563
  649SOL    HW1 2846   2.191   4.373   0.580
  649SOL    HW2 2847   2.098   4.240   0.604
  650SOL     OW 2848   6.656   5.378   0.622
  650SOL    HW1 2849   6.702   5.379   0.711
  650SOL    HW2 2850   6.557   5.383   0.635
  651SOL     OW 2851   1.635   0.801   5.976
  651SOL    HW1 2852   1.702   0.768   5.910
  651SOL    HW2 2853   1.546   0.813   5.931
  652SOL     OW 2854   3.793   0.076   2.017
  652SOL    HW1 2855   3.790   7.018   2.066
  652SOL    HW2 2856   3.853   0.067   1.938
  653SOL     OW 2857   0.714   6.613   0.309
  653SOL    HW1 2858   0.703   6.520   0.344
  653SOL    HW2 2859   0.666   6.678   0.368
  654SOL     OW 2860   0.037   6.003   5.881
  654SOL    HW1 2861   7.001   5.994   5.805
  654SOL    HW2 2862   0.123   5.957   5.858
  655SOL     OW 2863   0.147   5.604   1.952
  655SOL    HW1 2864   0.110   5.637   1.865
  655SOL    HW2 2865   0.244   5.583   1.942
  656SOL     OW 2866   2.963   6.545   0.725
  656SOL    HW1 2867   2.906   6.463   0.728
  656SOL    HW2 2868   2.948   6.599   0.807
  657SOL     OW 2869   2.987   3.411   1.481
  657SOL    HW1 2870   3.027   3.439   1.568
  657SOL    HW2 2871   2.934   3.486   1.442
  658SOL     OW 2872   1.753   4.187   4.533
  658SOL    HW1 2873   1.800   4.175   4.621
  658SOL    HW2 2874   1.768   4.280   4.501
  659SOL     OW 2875   3.383   5.862   5.044
  659SOL    HW1 2876   3.333   5.854   5.130
  659SOL    HW2 2877   3.458   5.927   5.054
  660SOL     OW 2878   4.890   5.214   2.631
  660SOL    HW1 2879   4.838   5.136   2.665
  660SOL    HW2 2880   4.827   5.287   2.602
  661SOL     OW 2881   5.095   4.371   4.302
  661SOL    HW1 2882   5.055   4.349   4.213
  661SOL    HW2 2883   5.101   4.470   4.313
  662SOL     OW 2884   4.808   2.069   6.769
  662SOL    HW1 2885   4.890   2.116   6.800
  662SOL    HW2 2886   4.785   2.098   6.676
  663SOL     OW 2887   0.334   5.227   6.808
  663SOL    HW1 2888   0.424   5.185   6.801
  663SOL    HW2 2889   0.304   5.258   6.718
  664SOL     OW 2890   1.895   5.223   6.806
  664SOL    HW1 2891   1.955   5.287   6.757
  664SOL    HW2 2892   1.915   5.129   6.776
  665SOL     OW 2893   4.150   5.319   1.658
  665SOL    HW1 2894   4.055   5.327   1.630
  665SOL    HW2 2895   4.208   5.364   1.589
  666SOL     OW 2896   3.638   1.928   0.227
  666SOL    HW1 2897   3.626   2.026   0.212
  666SOL    HW2 2898   3.565   1.878   0.180
  667SOL     OW 2899   6.960   2.408   4.469
  667SOL    HW1 2900   6.954   2.314   4.436
  667SOL    HW2 2901   6.877   2.431   4.520
  668SOL     OW 2902   4.164   5.924   6.673
  668SOL    HW1 2903   4.082   5.888   6.628
  668SOL    HW2 2904   4.246   5.890   6.627
  669SOL     OW 2905   1.614   7.015   3.016
  669SOL    HW1 2906   1.642   6.934   2.965
  669SOL    HW2 2907   1.680   0.059   3.001
  670SOL     OW 2908   2.928   3.809   3.277
  670SOL    HW1 2909   2.867   3.849   3.345
  670SOL    HW2 2910   3.017   3.855   3.281
  671SOL     OW 2911   2.219   5.558   6.191
  671SOL    HW1 2912   2.300   5.531   6.243
  671SOL    HW2 2913   2.197   5.654   6.211
  672SOL     OW 2914   0.892   3.419   3.746
  672SOL    HW1 2915   0.827   3.354   3.786
  672SOL    HW2 2916   0.986   3.391   3.768
  673SOL     OW 2917   4.573   0.062   6.945
  673SOL    HW1 2918   4.562   7.029   7.022
  673SOL    HW2 2919   4.630   0.140   6.973
  674SOL     OW 2920   0.696   2.706   4.426
  674SOL    HW1 2921   0.712   2.773   4.499
  674SOL    HW2 2922   0.644   2.629   4.463
  675SOL     OW 2923   1.041   2.317   4.879
  675SOL    HW1 2924   1.130   2.362   4.887
  675SOL    HW2 2925   1.009   2.291   4.970
  676SOL     OW 2926   2.882   4.791   4.254
  676SOL    HW1 2927   2.845   4.781   4.346
  676SOL    HW2 2928   2.808   4.803   4.189
  677SOL     OW 2929   5.764   0.462   0.265
  677SOL    HW1 2930   5.851   0.452   0.217
  677SOL    HW2 2931   5.725   0.552   0.247
  678SOL     OW 2932   2.439   1.741   5.344
  678SOL    HW1 2933   2.366   1.678   5.369
  678SOL    HW2 2934   2.489   1.769   5.426
  679SOL     OW 2935   3.900   1.022   3.815
  679SOL    HW1 2936   3.982   1.059   3.859
  679SOL    HW2 2937   3.822   1.082   3.835
  680SOL     OW 2938   6.223   4.190   6.144
  680SOL    HW1 2939   6.206   4.098   6.181
  680SOL    HW2 2940   6.248   4.183   6.047
  681SOL     OW 2941   6.980   6.489   0.608
  681SOL    HW1 2942   0.043   6.521   0.587
  681SOL    HW2 2943   6.925   6.488   0.524
  682SOL     OW 2944   2.359   6.785   6.464
  682SOL    HW1 2945   2.347   6.701   6.411
  682SOL    HW2 2946   2.342   6.865   6.406
  683SOL     OW 2947   4.083   0.887   5.745
  683SOL    HW1 2948   4.065   0.870   5.648
  683SOL    HW2 2949   4.175   0.923   5.756
  684SOL     OW 2950   6.806   0.570   6.212
  684SOL    HW1 2951   6.858   0.541   6.292
  684SOL    HW2 2952   6.857   0.547   6.129
  685SOL     OW 2953   5.119   0.452   5.883
  685SOL    HW1 2954   5.175   0.395   5.944
  685SOL    HW2 2955   5.054   0.395   5.833
  686SOL     OW 2956   5.382   3.075   3.453
  686SOL    HW1 2957   5.440   3.002   3.490
  686SOL    HW2 2958   5.425   3.163   3.472
  687SOL     OW 2959   6.981   3.163   6.428
  687SOL    HW1 2960   7.027   3.077   6.409
  687SOL    HW2 2961   6.884   3.155   6.404
  688SOL     OW 2962   2.054   3.114   0.351
  688SOL    HW1 2963   2.146   3.127   0.390
  688SOL    HW2 2964   2.008   3.202   0.344
  689SOL     OW 2965   1.341   4.665   5.642
  689SOL    HW1 2966   1.342   4.655   5.543
  689SOL    HW2 2967   1.397   4.592   5.683
  690SOL     OW 2968   1.100   2.885   3.365
  690SOL    HW1 2969   1.050   2.951   3.420
  690SOL    HW2 2970   1.075   2.792   3.392
  691SOL     OW 2971   1.633   2.371   6.241
  691SOL    HW1 2972   1.704   2.439   6.259
  691SOL    HW2 2973   1.549   2.416   6.212
  692SOL     OW 2974   3.096   6.797   3.393
  692SOL    HW1 2975   2.998   6.815   3.388
  692SOL    HW2 2976   3.145   6.869   3.345
  693SOL     OW 2977   6.467   1.497   3.253
  693SOL    HW1 2978   6.439   1.412   3.210
  693SOL    HW2 2979   6.399   1.568   3.234
  694SOL     OW 2980   4.081   5.641   1.186
  694SOL    HW1 2981   3.992   5.657   1.143
  694SOL    HW2 2982   4.083   5.684   1.277
  695SOL     OW 2983   4.738   5.163   4.558
  695SOL    HW1 2984   4.803   5.171   4.634
  695SOL    HW2 2985   4.702   5.069   4.555
  696SOL     OW 2986   3.098   5.284   2.552
  696SOL    HW1 2987   3.077   5.381   2.541
  696SOL    HW2 2988   3.015   5.235   2.581
  697SOL     OW 2989   0.963   3.391   5.525
  697SOL    HW1 2990   0.895   3.318   5.526
  697SOL    HW2 2991   0.919   3.477   5.499
  698SOL     OW 2992   5.097   0.136   4.064
  698SOL    HW1 2993   5.119   0.231   4.086
  698SOL    HW2 2994   5.142   0.109   3.979
  699SOL     OW 2995   1.918   4.452   0.947
  699SOL    HW1 2996   1.823   4.452   0.914
  699SOL    HW2 2997   1.918   4.435   1.046
  700SOL     OW 2998   2.824   1.949   3.405
  700SOL    HW1 2999   2.762   2.015   3.362
  700SOL    HW2 3000   2.917   1.985   3.404
  701SOL     OW 3001   1.392   4.938   0.039
  701SOL    HW1 3002   1.348   4.913   6.982
  701SOL    HW2 3003   1.458   5.012   0.022
  702SOL     OW 3004   5.121   6.017   5.757
  702SOL    HW1 3005   5.067   6.022   5.673
  702SOL    HW2 3006   5.108   6.101   5.810
  703SOL     OW 3007   4.432   3.347   6.894
  703SOL    HW1 3008   4.342   3.351   6.938
  703SOL    HW2 3009   4.429   3.396   6.807
  704SOL     OW 3010   0.987   1.220   6.006
  704SOL    HW1 3011   0.936   1.288   5.953
  704SOL    HW2 3012   1.080   1.212   5.971
  705SOL     OW 3013   4.804   0.610   3.487
  705SOL    HW1 3014   4.841   0.557   3.412
  705SOL    HW2 3015   4.877   0.632   3.552
  706SOL     OW 3016   3.879   1.708   3.675
  706SOL    HW1 3017   3.875   1.674   3.581
  706SOL    HW2 3018   3.867   1.632   3.738
  707SOL     OW 3019   4.446   6.994   1.707
  707SOL    HW1 3020   4.380   6.973   1.779
  707SOL    HW2 3021   4.460   6.912   1.650
  708SOL     OW 3022   4.912   0.504   0.712
  708SOL    HW1 3023   4.844   0.432   0.723
  708SOL    HW2 3024   4.867   0.593   0.715
  709SOL     OW 3025   1.643   5.200   1.194
  709SOL    HW1 3026   1.562   5.256   1.215
  709SOL    HW2 3027   1.726   5.251   1.217
  710SOL     OW 3028   3.468   4.013   2.953
  710SOL    HW1 3029   3.401   4.021   2.879
  710SOL    HW2 3030   3.539   3.948   2.927
  711SOL     OW 3031   6.767   2.582   5.363
  711SOL    HW1 3032   6.677   2.627   5.366
  711SOL    HW2 3033   6.761   2.495   5.411
  712SOL     OW 3034   1.254   3.688   1.314
  712SOL    HW1 3035   1.275   3.680   1.216
  712SOL    HW2 3036   1.320   3.635   1.366
  713SOL     OW 3037   3.517   3.574   1.598
  713SOL    HW1 3038   3.513   3.635   1.677
  713SOL    HW2 3039   3.457   3.496   1.612
  714SOL     OW 3040   5.300   4.240   5.554
  714SOL    HW1 3041   5.250   4.174   5.497
  714SOL    HW2 3042   5.397   4.239   5.530
  715SOL     OW 3043   4.670   5.920   6.964
  715SOL    HW1 3044   4.721   5.836   6.982
  715SOL    HW2 3045   4.625   5.914   6.875
  716SOL     OW 3046   0.823   5.394   1.095
  716SOL    HW1 3047   0.854   5.463   1.160
  716SOL    HW2 3048   0.869   5.407   1.007
  717SOL     OW 3049   6.396   4.736   6.475
  717SOL    HW1 3050   6.324   4.786   6.426
  717SOL    HW2 3051   6.464   4.703   6.410
  718SOL     OW 3052   4.180   2.526   6.108
  718SOL    HW1 3053   4.137   2.497   6.193
  718SOL    HW2 3054   4.279   2.536   6.122
  719SOL     OW 3055   6.467   2.588   1.503
  719SOL    HW1 3056   6.499   2.672   1.546
  719SOL    HW2 3057   6.471   2.598   1.403
  720SOL     OW 3058   2.486   1.657   5.617
  720SOL    HW1 3059   2.580   1.656   5.652
  720SOL    HW2 3060   2.424   1.684   5.690
  721SOL     OW 3061   1.526   1.136   5.379
  721SOL    HW1 3062   1.525   1.144   5.479
  721SOL    HW2 3063   1.621   1.122   5.349
  722SOL     OW 3064   4.220   6.536   4.947
  722SOL    HW1 3065   4.166   6.612   4.983
  722SOL    HW2 3066   4.183   6.506   4.859
  723SOL     OW 3067   2.216   2.599   2.252
  723SOL    HW1 3068   2.172   2.675   2.300
  723SOL    HW2 3069   2.311   2.591   2.281
  724SOL     OW 3070   1.246   1.631   5.761
  724SOL    HW1 3071   1.257   1.667   5.853
  724SOL    HW2 3072   1.176   1.560   5.761
  725SOL     OW 3073   2.624   4.952   2.230
  725SOL    HW1 3074   2.608   4.976   2.134
  725SOL    HW2 3075   2.705   5.000   2.263
  726SOL     OW 3076   3.845   4.938   0.261
  726SOL    HW1 3077   3.768   4.981   0.213
  726SOL    HW2 3078   3.874   4.997   0.337
  727SOL     OW 3079   3.787   6.293   4.235
  727SOL    HW1 3080   3.797   6.261   4.141
  727SOL    HW2 3081   3.784   6.215   4.297
  728SOL     OW 3082   6.936   3.648   5.551
  728SOL    HW1 3083   6.934   3.651   5.451
  728SOL    HW2 3084   7.020   3.603   5.581
  729SOL     OW 3085   2.210   0.519   0.685
  729SOL    HW1 3086   2.280   0.590   0.675
  729SOL    HW2 3087   2.140   0.530   0.614
  730SOL     OW 3088   5.556   0.640   3.194
  730SOL    HW1 3089   5.653   0.656   3.178
  730SOL    HW2 3090   5.540   0.629   3.292
  731SOL     OW 3091   5.439   3.125   5.521
  731SOL    HW1 3092   5.488   3.191   5.463
  731SOL    HW2 3093   5.401   3.053   5.463
  732SOL     OW 3094   0.858   3.267   1.502
  732SOL    HW1 3095   0.852   3.304   1.410
  732SOL    HW2 3096   0.850   3.167   1.499
  733SOL     OW 3097   5.520   4.065   4.109
  733SOL    HW1 3098   5.556   4.050   4.201
  733SOL    HW2 3099   5.555   3.995   4.048
  734SOL     OW 3100   0.105   5.367   2.117
  734SOL    HW1 3101   0.166   5.297   2.080
  734SOL    HW2 3102   0.086   5.435   2.046
  735SOL     OW 3103   2.375   3.047   0.803
  735SOL    HW1 3104   2.403   3.066   0.897
  735SOL    HW2 3105   2.446   2.994   0.757
  736SOL     OW 3106   6.497   6.702   2.617
  736SOL    HW1 3107   6.508   6.636   2.543
  736SOL    HW2 3108   6.576   6.762   2.620
  737SOL     OW 3109   4.965   3.500   1.045
  737SOL    HW1 3110   4.989   3.454   1.131
  737SOL    HW2 3111   5.038   3.485   0.978
  738SOL     OW 3112   1.010   5.022   4.093
  738SOL    HW1 3113   1.034   4.941   4.039
  738SOL    HW2 3114   1.092   5.078   4.107
  739SOL     OW 3115   4.530   6.708   5.569
  739SOL    HW1 3116   4.478   6.730   5.651
  739SOL    HW2 3117   4.625   6.737   5.581
  740SOL     OW 3118   5.130   0.216   0.776
  740SOL    HW1 3119   5.040   0.257   0.763
  740SOL    HW2 3120   5.150   0.155   0.699
  741SOL     OW 3121   1.714   6.655   3.196
  741SOL    HW1 3122   1.791   6.686   3.141
  741SOL    HW2 3123   1.634   6.712   3.178
  742SOL     OW 3124   2.120   6.874   2.626
  742SOL    HW1 3125   2.193   6.927   2.584
  742SOL    HW2 3126   2.156   6.786   2.658
  743SOL     OW 3127   1.799   4.451   4.179
  743SOL    HW1 3128   1.731   4.378   4.185
  743SOL    HW2 3129   1.757   4.539   4.202
  744SOL     OW 3130   0.175   6.691   6.538
  744SOL    HW1 3131   0.136   6.668   6.449
  744SOL    HW2 3132   0.274   6.693   6.531
  745SOL     OW 3133   0.928   6.122   3.853
  745SOL    HW1 3134   1.014   6.142   3.900
  745SOL    HW2 3135   0.854   6.118   3.920
  746SOL     OW 3136   0.090   6.431   5.362
  746SOL    HW1 3137   0.190   6.441   5.364
  746SOL    HW2 3138   0.049   6.490   5.431
  747SOL     OW 3139   4.227   5.232   4.269
  747SOL    HW1 3140   4.133   5.253   4.295
  747SOL    HW2 3141   4.230   5.148   4.215
  748SOL     OW 3142   4.556   5.147   2.024
  748SOL    HW1 3143   4.475   5.165   1.969
  748SOL    HW2 3144   4.531   5.095   2.106
  749SOL     OW 3145   6.859   3.180   5.191
  749SOL    HW1 3146   6.956   3.173   5.168
  749SOL    HW2 3147   6.850   3.221   5.282
  750SOL     OW 3148   2.340   3.037   0.340
  750SOL    HW1 3149   2.320   2.973   0.265
  750SOL    HW2 3150   2.302   3.001   0.425
  751SOL     OW 3151   4.145   2.423   6.419
  751SOL    HW1 3152   4.167   2.457   6.510
  751SOL    HW2 3153   4.218   2.364   6.386
  752SOL     OW 3154   4.623   2.639   1.840
  752SOL    HW1 3155   4.557   2.589   1.897
  752SOL    HW2 3156   4.581   2.724   1.808
  753SOL     OW 3157   2.101   3.175   4.663
  753SOL    HW1 3158   2.016   3.134   4.630
  753SOL    HW2 3159   2.087   3.273   4.679
  754SOL     OW 3160   5.665   3.893   6.769
  754SOL    HW1 3161   5.716   3.810   6.750
  754SOL    HW2 3162   5.585   3.898   6.708
  755SOL     OW 3163   0.852   5.844   7.013
  755SOL    HW1 3164   0.945   5.813   6.997
  755SOL    HW2 3165   0.849   5.944   7.016
  756SOL     OW 3166   5.043   0.194   1.743
  756SOL    HW1 3167   4.960   0.247   1.726
  756SOL    HW2 3168   5.022   0.118   1.804
  757SOL     OW 3169   1.005   6.349   2.948
  757SOL    HW1 3170   1.025   6.282   3.019
  757SOL    HW2 3171   0.991   6.439   2.990
  758SOL     OW 3172   3.333   1.303   1.720
  758SOL    HW1 3173   3.235   1.291   1.704
  758SOL    HW2 3174   3.379   1.214   1.713
  759SOL     OW 3175   0.010   1.109   0.797
  759SOL    HW1 3176   6.951   1.072   0.828
  759SOL    HW2 3177   0.080   1.038   0.805
  760SOL     OW 3178   4.852   1.532   6.202
  760SOL    HW1 3179   4.921   1.461   6.209
  760SOL    HW2 3180   4.767   1.501   6.245
  761SOL     OW 3181   5.412   3.669   7.022
  761SOL    HW1 3182   5.336   3.605   7.023
  761SOL    HW2 3183   5.482   3.637   6.958
  762SOL     OW 3184   1.846   6.025   3.316
  762SOL    HW1 3185   1.924   6.081   3.344
  762SOL    HW2 3186   1.798   6.069   3.241
  763SOL     OW 3187   4.074   5.627   6.475
  763SOL    HW1 3188   4.157   5.683   6.472
  763SOL    HW2 3189   4.027   5.641   6.562
  764SOL     OW 3190   4.126   0.077   4.139
  764SOL    HW1 3191   4.057   0.041   4.075
  764SOL    HW2 3192   4.107   0.042   4.231
  765SOL     OW 3193   1.459   6.270   0.977
  765SOL    HW1 3194   1.488   6.332   0.905
  765SOL    HW2 3195   1.488   6.177   0.955
  766SOL     OW 3196   6.666   1.321   0.101
  766SOL    HW1 3197   6.617   1.355   0.020
  766SOL    HW2 3198   6.609   1.336   0.182
  767SOL     OW 3199   0.776   6.164   2.011
  767SOL    HW1 3200   0.830   6.084   2.036
  767SOL    HW2 3201   0.735   6.204   2.093
  768SOL     OW 3202   2.164   1.092   2.473
  768SOL    HW1 3203   2.086   1.141   2.512
  768SOL    HW2 3204   2.247   1.145   2.486
  769SOL     OW 3205   2.932   6.461   4.168
  769SOL    HW1 3206   3.013   6.516   4.146
  769SOL    HW2 3207   2.960   6.379   4.219
  770SOL     OW 3208   2.395   5.024   2.718
  770SOL    HW1 3209   2.397   4.925   2.733
  770SOL    HW2 3210   2.323   5.065   2.773
  771SOL     OW 3211   1.784   5.604   2.366
  771SOL    HW1 3212   1.795   5.607   2.466
  771SOL    HW2 3213   1.781   5.509   2.336
  772SOL     OW 3214   6.522   5.082   0.786
  772SOL    HW1 3215   6.455   5.136   0.839
  772SOL    HW2 3216   6.611   5.126   0.791
  773SOL     OW 3217   0.451   3.066   3.728
  773SOL    HW1 3218   0.389   3.008   3.675
  773SOL    HW2 3219   0.462   3.154   3.681
  774SOL     OW 3220   1.395   1.760   1.658
  774SOL    HW1 3221   1.463   1.792   1.722
  774SOL    HW2 3222   1.440   1.725   1.576
  775SOL     OW 3223   1.361   2.358   4.134
  775SOL    HW1 3224   1.309   2.347   4.049
  775SOL    HW2 3225   1.398   2.269   4.162
  776SOL     OW 3226   0.342   0.504   6.016
  776SOL    HW1 3227   0.292   0.521   6.101
  776SOL    HW2 3228   0.423   0.563   6.012
  777SOL     OW 3229   3.616   0.614   0.971
  777SOL    HW1 3230   3.687   0.559   1.015
  777SOL    HW2 3231   3.611   0.704   1.014
  778SOL     OW 3232   3.737   1.295   3.661
  778SOL    HW1 3233   3.641   1.321   3.676
  778SOL    HW2 3234   3.793   1.327   3.737
  779SOL     OW 3235   0.308   1.828   2.343
  779SOL    HW1 3236   0.274   1.780   2.262
  779SOL    HW2 3237   0.263   1.792   2.425
  780SOL     OW 3238   5.517   3.170   4.483
  780SOL    HW1 3239   5.565   3.224   4.553
  780SOL    HW2 3240   5.419   3.187   4.489
  781SOL     OW 3241   6.139   1.413   5.812
  781SOL    HW1 3242   6.190   1.331   5.839
  781SOL    HW2 3243   6.096   1.397   5.723
  782SOL     OW 3244   1.650   4.169   0.651
  782SOL    HW1 3245   1.734   4.134   0.690
  782SOL    HW2 3246   1.669   4.212   0.562
  783SOL     OW 3247   3.799   4.738   0.447
  783SOL    HW1 3248   3.805   4.656   0.389
  783SOL    HW2 3249   3.815   4.819   0.391
  784SOL     OW 3250   4.773   0.351   5.405
  784SOL    HW1 3251   4.735   0.294   5.332
  784SOL    HW2 3252   4.788   0.444   5.371
  785SOL     OW 3253   6.647   2.153   2.776
  785SOL    HW1 3254   6.729   2.210   2.772
  785SOL    HW2 3255   6.671   2.059   2.749
  786SOL     OW 3256   0.387   0.747   0.449
  786SOL    HW1 3257   0.300   0.713   0.415
  786SOL    HW2 3258   0.379   0.845   0.470
  787SOL     OW 3259   2.769   0.878   5.894
  787SOL    HW1 3260   2.865   0.894   5.870
  787SOL    HW2 3261   2.734   0.957   5.945
  788SOL     OW 3262   2.298   2.570   4.519
  788SOL    HW1 3263   2.324   2.503   4.448
  788SOL    HW2 3264   2.361   2.561   4.597
  789SOL     OW 3265   5.975   4.128   1.684
  789SOL    HW1 3266   5.924   4.206   1.648
  789SOL    HW2 3267   5.968   4.125   1.783
  790SOL     OW 3268   2.274   1.533   4.113
  790SOL    HW1 3269   2.261   1.616   4.167
  790SOL    HW2 3270   2.283   1.556   4.016
  791SOL     OW 3271   3.478   6.823   3.979
  791SOL    HW1 3272   3.507   6.861   4.066
  791SOL    HW2 3273   3.425   6.891   3.928
  792SOL     OW 3274   6.613   6.989   1.480
  792SOL    HW1 3275   6.672   0.038   1.501
  792SOL    HW2 3276   6.633   6.956   1.388
  793SOL     OW 3277   4.837   6.347   2.142
  793SOL    HW1 3278   4.870   6.254   2.130
  793SOL    HW2 3279   4.752   6.346   2.195
  794SOL     OW 3280   2.278   4.368   5.513
  794SOL    HW1 3281   2.324   4.317   5.585
  794SOL    HW2 3282   2.314   4.340   5.424
  795SOL     OW 3283   3.121   5.075   5.339
  795SOL    HW1 3284   3.107   5.001   5.274
  795SOL    HW2 3285   3.219   5.092   5.350
  796SOL     OW 3286   0.207   2.287   6.536
  796SOL    HW1 3287   0.108   2.276   6.537
  796SOL    HW2 3288   0.239   2.315   6.627
  797SOL     OW 3289   5.202   2.794   2.404
  797SOL    HW1 3290   5.116   2.845   2.410
  797SOL    HW2 3291   5.213   2.737   2.485
  798SOL     OW 3292   4.697   0.415   0.971
  798SOL    HW1 3293   4.601   0.387   0.960
  798SOL    HW2 3294   4.756   0.346   0.929
  799SOL     OW 3295   6.664   1.459   3.614
  799SOL    HW1 3296   6.735   1.500   3.671
  799SOL    HW2 3297   6.692   1.367   3.586
  800SOL     OW 3298   5.551   0.737   2.324
  800SOL    HW1 3299   5.589   0.752   2.415
  800SOL    HW2 3300   5.623   0.745   2.256
  801SOL     OW 3301   1.560   3.396   3.162
  801SOL    HW1 3302   1.494   3.427   3.094
  801SOL    HW2 3303   1.653   3.408   3.128
  802SOL     OW 3304   4.679   1.271   0.486
  802SOL    HW1 3305   4.604   1.298   0.425
  802SOL    HW2 3306   4.661   1.305   0.578
  803SOL     OW 3307   6.683   6.075   5.025
  803SOL    HW1 3308   6.613   6.075   5.096
  803SOL    HW2 3309   6.763   6.024   5.057
  804SOL     OW 3310   6.621   5.899   0.115
  804SOL    HW1 3311   6.618   5.823   0.050
  804SOL    HW2 3312   6.712   5.939   0.116
  805SOL     OW 3313   4.436   2.668   5.899
  805SOL    HW1 3314   4.474   2.691   5.989
  805SOL    HW2 3315   4.419   2.569   5.896
  806SOL     OW 3316   3.435   2.045   4.995
  806SOL    HW1 3317   3.430   1.969   4.931
  806SOL    HW2 3318   3.531   2.069   5.012
  807SOL     OW 3319   0.936   1.703   3.716
  807SOL    HW1 3320   0.856   1.656   3.680
  807SOL    HW2 3321   1.019   1.654   3.687
  808SOL     OW 3322   5.194   3.102   6.452
  808SOL    HW1 3323   5.267   3.158   6.492
  808SOL    HW2 3324   5.178   3.131   6.357
  809SOL     OW 3325   1.719   4.935   1.660
  809SOL    HW1 3326   1.699   4.859   1.722
  809SOL    HW2 3327   1.744   4.898   1.570
  810SOL     OW 3328   4.363   3.040   0.805
  810SOL    HW1 3329   4.308   3.117   0.771
  810SOL    HW2 3330   4.459   3.068   0.809
  811SOL     OW 3331   4.736   5.090   3.784
  811SOL    HW1 3332   4.760   5.164   3.721
  811SOL    HW2 3333   4.804   5.083   3.856
  812SOL     OW 3334   0.040   0.952   1.798
  812SOL    HW1 3335   6.973   0.962   1.770
  812SOL    HW2 3336   0.046   0.961   1.898
  813SOL     OW 3337   4.336   5.622   3.297
  813SOL    HW1 3338   4.370   5.713   3.322
  813SOL    HW2 3339   4.237   5.619   3.311
  814SOL     OW 3340   5.125   6.671   3.261
  814SOL    HW1 3341   5.137   6.739   3.333
  814SOL    HW2 3342   5.215   6.646   3.224
  815SOL     OW 3343   6.298   3.034   2.208
  815SOL    HW1 3344   6.295   2.934   2.215
  815SOL    HW2 3345   6.393   3.064   2.195
  816SOL     OW 3346   0.469   6.886   6.996
  816SOL    HW1 3347   0.563   6.856   7.007
  816SOL    HW2 3348   0.408   6.823   0.014
  817SOL     OW 3349   1.848   4.102   2.101
  817SOL    HW1 3350   1.878   4.022   2.152
  817SOL    HW2 3351   1.887   4.100   2.009
  818SOL     OW 3352   6.534   2.591   0.649
  818SOL    HW1 3353   6.492   2.630   0.567
  818SOL    HW2 3354   6.632   2.580   0.635
  819SOL     OW 3355   6.369   2.977   4.365
  819SOL    HW1 3356   6.353   3.058   4.421
  819SOL    HW2 3357   6.465   2.974   4.338
  820SOL     OW 3358   1.415   3.019   5.940
  820SOL    HW1 3359   1.494   3.051   5.991
  820SOL    HW2 3360   1.406   3.070   5.855
  821SOL     OW 3361   2.691   4.418   0.499
  821SOL    HW1 3362   2.657   4.484   0.432
  821SOL    HW2 3363   2.791   4.416   0.495
  822SOL     OW 3364   0.688   5.410   4.272
  822SOL    HW1 3365   0.724   5.484   4.215
  822SOL    HW2 3366   0.742   5.327   4.256
  823SOL     OW 3367   4.663   3.931   6.415
  823SOL    HW1 3368   4.700   3.960   6.503
  823SOL    HW2 3369   4.645   4.011   6.358
  824SOL     OW 3370   5.440   1.193   5.213
  824SOL    HW1 3371   5.482   1.168   5.300
  824SOL    HW2 3372   5.511   1.221   5.148
  825SOL     OW 3373   2.099   3.012   2.114
  825SOL    HW1 3374   2.092   3.108   2.086
  825SOL    HW2 3375   2.104   3.006   2.213
  826SOL     OW 3376   6.177   4.219   0.649
  826SOL    HW1 3377   6.130   4.176   0.572
  826SOL    HW2 3378   6.123   4.205   0.732
  827SOL     OW 3379   3.247   5.669   5.760
  827SOL    HW1 3380   3.278   5.622   5.678
  827SOL    HW2 3381   3.147   5.664   5.765
  828SOL     OW 3382   6.157   0.587   5.143
  828SOL    HW1 3383   6.229   0.518   5.135
  828SOL    HW2 3384   6.098   0.566   5.221
  829SOL     OW 3385   3.069   3.347   4.436
  829SOL    HW1 3386   3.138   3.413   4.406
  829SOL    HW2 3387   2.984   3.362   4.386
  830SOL     OW 3388   5.228   4.521   6.101
  830SOL    HW1 3389   5.190   4.607   6.066
  830SOL    HW2 3390   5.327   4.520   6.085
  831SOL     OW 3391   0.040   6.771   4.346
  831SOL    HW1 3392   0.138   6.787   4.346
  831SOL    HW2 3393   0.022   6.673   4.351
  832SOL     OW 3394   2.086   1.233   0.152
  832SOL    HW1 3395   1.995   1.274   0.159
  832SOL    HW2 3396   2.137   1.278   0.078
  833SOL     OW 3397   0.097   5.760   6.235
  833SOL    HW1 3398   0.048   5.755   6.147
  833SOL    HW2 3399   0.181   5.813   6.224
  834SOL     OW 3400   3.662   3.797   2.320
  834SOL    HW1 3401   3.597   3.721   2.322
  834SOL    HW2 3402   3.657   3.847   2.406
  835SOL     OW 3403   4.105   6.584   4.047
  835SOL    HW1 3404   4.052   6.572   4.130
  835SOL    HW2 3405   4.132   6.680   4.038
  836SOL     OW 3406   3.224   6.102   6.581
  836SOL    HW1 3407   3.135   6.058   6.573
  836SOL    HW2 3408   3.279   6.053   6.648
  837SOL     OW 3409   4.917   0.420   6.947
  837SOL    HW1 3410   4.895   0.332   6.906
  837SOL    HW2 3411   4.999   0.458   6.904
  838SOL     OW 3412   0.989   0.114   4.837
  838SOL    HW1 3413   1.063   0.105   4.770
  838SOL    HW2 3414   0.902   0.122   4.790
  839SOL     OW 3415   2.840   1.431   2.819
  839SOL    HW1 3416   2.827   1.523   2.784
  839SOL    HW2 3417   2.934   1.420   2.851
  840SOL     OW 3418   6.516   1.257   5.606
  840SOL    HW1 3419   6.494   1.312   5.687
  840SOL    HW2 3420   6.597   1.297   5.561
  841SOL     OW 3421   5.841   4.301   0.347
  841SOL    HW1 3422   5.744   4.321   0.337
  841SOL    HW2 3423   5.858   4.204   0.331
  842SOL     OW 3424   4.477   5.430   3.185
  842SOL    HW1 3425   4.462   5.344   3.235
  842SOL    HW2 3426   4.418   5.501   3.224
  843SOL     OW 3427   5.477   2.063   0.087
  843SOL    HW1 3428   5.565   2.021   0.068
  843SOL    HW2 3429   5.455   2.052   0.184
  844SOL     OW 3430   4.545   6.364   0.375
  844SOL    HW1 3431   4.619   6.314   0.331
  844SOL    HW2 3432   4.531   6.329   0.468
  845SOL     OW 3433   6.007   2.824   5.034
  845SOL    HW1 3434   6.103   2.840   5.061
  845SOL    HW2 3435   5.950   2.821   5.116
  846SOL     OW 3436   5.732   1.391   6.531
  846SOL    HW1 3437   5.700   1.477   6.490
  846SOL    HW2 3438   5.654   1.335   6.557
  847SOL     OW 3439   6.292   3.019   0.756
  847SOL    HW1 3440   6.339   2.930   0.759
  847SOL    HW2 3441   6.251   3.038   0.845
  848SOL     OW 3442   5.741   0.941   6.371
  848SOL    HW1 3443   5.786   0.907   6.288
  848SOL    HW2 3444   5.765   1.037   6.384
  849SOL     OW 3445   6.918   5.597   5.224
  849SOL    HW1 3446   6.837   5.622   5.172
  849SOL    HW2 3447   6.985   5.554   5.163
  850SOL     OW 3448   4.438   0.507   3.340
  850SOL    HW1 3449   4.495   0.481   3.419
  850SOL    HW2 3450   4.497   0.535   3.265
  851SOL     OW 3451   0.291   1.512   0.554
  851SOL    HW1 3452   0.215   1.546   0.498
  851SOL    HW2 3453   0.300   1.567   0.637
  852SOL     OW 3454   2.489   2.454   7.009
  852SOL    HW1 3455   2.509   2.550   0.001
  852SOL    HW2 3456   2.532   2.429   6.922
  853SOL     OW 3457   0.800   3.855   3.120
  853SOL    HW1 3458   0.703   3.841   3.100
  853SOL    HW2 3459   0.822   3.952   3.113
  854SOL     OW 3460   5.222   6.427   2.323
  854SOL    HW1 3461   5.302   6.387   2.280
  854SOL    HW2 3462   5.240   6.523   2.344
  855SOL     OW 3463   6.334   0.094   1.581
  855SOL    HW1 3464   6.406   0.025   1.581
  855SOL    HW2 3465   6.247   0.050   1.557
  856SOL     OW 3466   2.017   0.912   5.168
  856SOL    HW1 3467   2.077   0.833   5.177
  856SOL    HW2 3468   2.051   0.986   5.225
  857SOL     OW 3469   5.622   4.992   1.455
  857SOL    HW1 3470   5.716   4.996   1.422
  857SOL    HW2 3471   5.620   4.949   1.545
  858SOL     OW 3472   2.771   4.731   1.736
  858SOL    HW1 3473   2.748   4.819   1.778
  858SOL    HW2 3474   2.808   4.670   1.805
  859SOL     OW 3475   5.727   5.316   6.799
  859SOL    HW1 3476   5.673   5.290   6.719
  859SOL    HW2 3477   5.791   5.243   6.822
  860SOL     OW 3478   4.466   3.915   0.274
  860SOL    HW1 3479   4.493   3.998   0.323
  860SOL    HW2 3480   4.543   3.880   0.221
  861SOL     OW 3481   2.364   0.034   4.343
  861SOL    HW1 3482   2.380   0.023   4.441
  861SOL    HW2 3483   2.435   0.092   4.304
  862SOL     OW 3484   5.499   4.673   5.075
  862SOL    HW1 3485   5.494   4.581   5.036
  862SOL    HW2 3486   5.594   4.695   5.098
  863SOL     OW 3487   1.201   0.246   0.873
  863SOL    HW1 3488   1.205   0.175   0.802
  863SOL    HW2 3489   1.199   0.336   0.830
  864SOL     OW 3490   5.175   4.371   3.788
  864SOL    HW1 3491   5.120   4.388   3.706
  864SOL    HW2 3492   5.192   4.457   3.835
  865SOL     OW 3493   0.878   6.986   4.129
  865SOL    HW1 3494   0.826   6.945   4.204
  865SOL    HW2 3495   0.815   7.029   4.064
  866SOL     OW 3496   2.570   1.615   2.136
  866SOL    HW1 3497   2.650   1.562   2.164
  866SOL    HW2 3498   2.594   1.711   2.130
  867SOL     OW 3499   3.410   2.745   0.299
  867SOL    HW1 3500   3.412   2.650   0.268
  867SOL    HW2 3501   3.469   2.755   0.379
  868SOL     OW 3502   5.847   0.273   1.652
  868SOL    HW1 3503   5.938   0.232   1.644
  868SOL    HW2 3504   5.777   0.202   1.643
  869SOL     OW 3505   6.818   5.487   3.060
  869SOL    HW1 3506   6.916   5.509   3.068
  869SOL    HW2 3507   6.765   5.555   3.110
  870SOL     OW 3508   6.287   3.217   1.514
  870SOL    HW1 3509   6.239   3.299   1.546
  870SOL    HW2 3510   6.226   3.138   1.517
  871SOL     OW 3511   6.745   3.001   1.696
  871SOL    HW1 3512   6.776   2.943   1.620
  871SOL    HW2 3513   6.710   3.087   1.660
  872SOL     OW 3514   6.240   3.042   4.612
  872SOL    HW1 3515   6.300   2.964   4.595
  872SOL    HW2 3516   6.145   3.014   4.594
  873SOL     OW 3517   4.020   0.098   2.996
  873SOL    HW1 3518   4.115   0.073   3.011
  873SOL    HW2 3519   3.996   0.175   3.055
  874SOL     OW 3520   2.017   4.372   5.188
  874SOL    HW1 3521   2.104   4.421   5.180
  874SOL    HW2 3522   2.034   4.278   5.216
  875SOL     OW 3523   5.264   4.707   0.638
  875SOL    HW1 3524   5.353   4.752   0.651
  875SOL    HW2 3525   5.237   4.663   0.723
  876SOL     OW 3526   6.714   4.069   3.342
  876SOL    HW1 3527   6.692   3.976   3.312
  876SOL    HW2 3528   6.800   4.099   3.301
  877SOL     OW 3529   4.904   4.782   6.866
  877SOL    HW1 3530   4.917   4.769   6.965
  877SOL    HW2 3531   4.875   4.695   6.826
  878SOL     OW 3532   3.486   5.344   6.828
  878SOL    HW1 3533   3.414   5.310   6.889
  878SOL    HW2 3534   3.496   5.443   6.839
  879SOL     OW 3535   4.490   1.906   2.635
  879SOL    HW1 3536   4.445   1.856   2.561
  879SOL    HW2 3537   4.444   1.993   2.650
  880SOL     OW 3538   3.576   4.159   6.898
  880SOL    HW1 3539   3.524   4.074   6.885
  880SOL    HW2 3540   3.564   4.190   6.992
  881SOL     OW 3541   4.236   4.756   4.823
  881SOL    HW1 3542   4.159   4.810   4.858
  881SOL    HW2 3543   4.277   4.704   4.897
  882SOL     OW 3544   1.785   1.058   4.588
  882SOL    HW1 3545   1.791   1.098   4.497
  882SOL    HW2 3546   1.820   0.964   4.585
  883SOL     OW 3547   3.982   5.128   5.246
  883SOL    HW1 3548   3.921   5.207   5.252
  883SOL    HW2 3549   4.063   5.152   5.192
  884SOL     OW 3550   6.425   3.183   1.790
  884SOL    HW1 3551   6.337   3.163   1.834
  884SOL    HW2 3552   6.418   3.164   1.692
  885SOL     OW 3553   5.793   6.189   0.032
  885SOL    HW1 3554   5.849   6.271   0.042
  885SOL    HW2 3555   5.758   6.161   0.122
  886SOL     OW 3556   4.241   1.259   6.846
  886SOL    HW1 3557   4.185   1.201   6.906
  886SOL    HW2 3558   4.338   1.245   6.866
  887SOL     OW 3559   4.161   6.975   6.155
  887SOL    HW1 3560   4.183   6.877   6.153
  887SOL    HW2 3561   4.073   6.990   6.109
  888SOL     OW 3562   6.844   6.201   3.816
  888SOL    HW1 3563   6.756   6.242   3.794
  888SOL    HW2 3564   6.893   6.180   3.731
  889SOL     OW 3565   6.964   6.457   5.766
  889SOL    HW1 3566   6.970   6.552   5.797
  889SOL    HW2 3567   0.024   6.413   5.777
  890SOL     OW 3568   2.806   4.722   2.240
  890SOL    HW1 3569   2.754   4.806   2.226
  890SOL    HW2 3570   2.844   4.691   2.153
  891SOL     OW 3571   5.723   3.513   1.522
  891SOL    HW1 3572   5.660   3.555   1.588
  891SOL    HW2 3573   5.808   3.490   1.569
  892SOL     OW 3574   3.013   4.047   0.893
  892SOL    HW1 3575   2.982   4.111   0.964
  892SOL    HW2 3576   3.082   3.987   0.932
  893SOL     OW 3577   1.616   0.445   0.326
  893SOL    HW1 3578   1.633   0.515   0.396
  893SOL    HW2 3579   1.521   0.416   0.331
  894SOL     OW 3580   1.256   5.199   4.174
  894SOL    HW1 3581   1.307   5.130   4.225
  894SOL    HW2 3582   1.243   5.280   4.232
  895SOL     OW 3583   2.089   0.047   4.232
  895SOL    HW1 3584   2.023   0.123   4.236
  895SOL    HW2 3585   2.172   0.072   4.281
  896SOL     OW 3586   5.747   6.227   3.946
  896SOL    HW1 3587   5.764   6.134   3.977
  896SOL    HW2 3588   5.816   6.288   3.986
  897SOL     OW 3589   4.901   1.829   0.454
  897SOL    HW1 3590   4.888   1.776   0.370
  897SOL    HW2 3591   4.877   1.925   0.438
  898SOL     OW 3592   5.580   6.478   3.832
  898SOL    HW1 3593   5.630   6.416   3.892
  898SOL    HW2 3594   5.490   6.439   3.812
  899SOL     OW 3595   0.569   5.066   6.842
  899SOL    HW1 3596   0.560   4.968   6.862
  899SOL    HW2 3597   0.651   5.081   6.787
  900SOL     OW 3598   6.376   6.139   2.073
  900SOL    HW1 3599   6.352   6.049   2.037
  900SOL    HW2 3600   6.450   6.178   2.018
  901SOL     OW 3601   0.039   1.406   4.135
  901SOL    HW1 3602   0.074   1.497   4.115
  901SOL    HW2 3603   0.046   1.389   4.233
  902SOL     OW 3604   6.322   0.386   6.588
  902SOL    HW1 3605   6.316   0.365   6.686
  902SOL    HW2 3606   6.305   0.303   6.535
  903SOL     OW 3607   6.709   4.527   0.766
  903SOL    HW1 3608   6.696   4.477   0.852
  903SOL    HW2 3609   6.710   4.462   0.690
  904SOL     OW 3610   1.390   1.475   3.387
  904SOL    HW1 3611   1.310   1.453   3.332
  904SOL    HW2 3612   1.407   1.401   3.452
  905SOL     OW 3613   4.898   2.061   6.292
  905SOL    HW1 3614   4.848   1.981   6.258
  905SOL    HW2 3615   4.983   2.071   6.240
  906SOL     OW 3616   0.347   4.615   0.049
  906SOL    HW1 3617   0.282   4.624   0.125
  906SOL    HW2 3618   0.432   4.575   0.082
  907SOL     OW 3619   6.077   2.196   2.678
  907SOL    HW1 3620   6.117   2.123   2.623
  907SOL    HW2 3621   5.993   2.163   2.721
  908SOL     OW 3622   1.326   6.765   4.222
  908SOL    HW1 3623   1.290   6.672   4.230
  908SOL    HW2 3624   1.361   6.779   4.130
  909SOL     OW 3625   2.662   0.819   0.245
  909SOL    HW1 3626   2.725   0.844   0.171
  909SOL    HW2 3627   2.703   0.748   0.302
  910SOL     OW 3628   1.379   0.498   0.522
  910SOL    HW1 3629   1.315   0.542   0.459
  910SOL    HW2 3630   1.350   0.514   0.616
  911SOL     OW 3631   0.145   4.897   1.380
  911SOL    HW1 3632   0.191   4.835   1.316
  911SOL    HW2 3633   0.194   4.898   1.467
  912SOL     OW 3634   0.199   1.672   5.801
  912SOL    HW1 3635   0.103   1.695   5.814
  912SOL    HW2 3636   0.216   1.653   5.704
  913SOL     OW 3637   2.083   0.397   3.870
  913SOL    HW1 3638   2.151   0.327   3.894
  913SOL    HW2 3639   2.129   0.485   3.862
  914SOL     OW 3640   2.520   5.843   4.300
  914SOL    HW1 3641   2.537   5.941   4.310
  914SOL    HW2 3642   2.601   5.792   4.328
  915SOL     OW 3643   0.552   3.581   0.093
  915SOL    HW1 3644   0.533   3.678   0.110
  915SOL    HW2 3645   0.475   3.541   0.043
  916SOL     OW 3646   2.170   2.023   2.768
  916SOL    HW1 3647   2.206   1.953   2.706
  916SOL    HW2 3648   2.223   2.023   2.852
  917SOL     OW 3649   3.574   0.860   1.103
  917SOL    HW1 3650   3.537   0.952   1.104
  917SOL    HW2 3651   3.642   0.850   1.175
  918SOL     OW 3652   2.806   6.118   6.154
  918SOL    HW1 3653   2.741   6.185   6.116
  918SOL    HW2 3654   2.759   6.031   6.170
  919SOL     OW 3655   1.358   5.262   2.090
  919SOL    HW1 3656   1.444   5.217   2.065
  919SOL    HW2 3657   1.305   5.282   2.008
  920SOL     OW 3658   2.822   0.334   2.800
  920SOL    HW1 3659   2.791   0.257   2.856
  920SOL    HW2 3660   2.785   0.325   2.707
  921SOL     OW 3661   6.417   4.692   4.431
  921SOL    HW1 3662   6.415   4.617   4.365
  921SOL    HW2 3663   6.352   4.763   4.403
  922SOL     OW 3664   2.922   3.809   6.930
  922SOL    HW1 3665   2.841   3.792   6.986
  922SOL    HW2 3666   2.970   3.889   6.965
  923SOL     OW 3667   2.945   5.921   0.139
  923SOL    HW1 3668   2.876   5.993   0.141
  923SOL    HW2 3669   3.036   5.962   0.153
  924SOL     OW 3670   5.462   3.601   2.992
  924SOL    HW1 3671   5.466   3.503   2.972
  924SOL    HW2 3672   5.519   3.622   3.072
  925SOL     OW 3673   0.451   1.918   5.981
  925SOL    HW1 3674   0.547   1.894   5.973
  925SOL    HW2 3675   0.420   1.963   5.897
  926SOL     OW 3676   6.013   6.411   0.696
  926SOL    HW1 3677   6.008   6.379   0.601
  926SOL    HW2 3678   6.107   6.407   0.728
  927SOL     OW 3679   4.877   3.981   4.347
  927SOL    HW1 3680   4.867   4.079   4.366
  927SOL    HW2 3681   4.884   3.932   4.433
  928SOL     OW 3682   1.419   0.033   0.592
  928SOL    HW1 3683   1.356   7.028   0.522
  928SOL    HW2 3684   1.406   7.011   0.677
  929SOL     OW 3685   0.479   2.745   2.245
  929SOL    HW1 3686   0.449   2.727   2.151
  929SOL    HW2 3687   0.404   2.784   2.298
  930SOL     OW 3688   5.204   4.645   4.357
  930SOL    HW1 3689   5.284   4.674   4.305
  930SOL    HW2 3690   5.122   4.688   4.319
  931SOL     OW 3691   0.751   2.724   2.738
  931SOL    HW1 3692   0.835   2.766   2.704
  931SOL    HW2 3693   0.769   2.629   2.765
  932SOL     OW 3694   4.074   5.982   1.252
  932SOL    HW1 3695   4.027   5.907   1.207
  932SOL    HW2 3696   4.162   5.949   1.289
  933SOL     OW 3697   1.385   4.745   2.981
  933SOL    HW1 3698   1.293   4.771   3.010
  933SOL    HW2 3699   1.413   4.802   2.904
  934SOL     OW 3700   3.381   0.795   5.010
  934SOL    HW1 3701   3.286   0.761   5.005
  934SOL    HW2 3702   3.442   0.724   4.975
  935SOL     OW 3703   4.802   3.568   6.353
  935SOL    HW1 3704   4.766   3.634   6.287
  935SOL    HW2 3705   4.739   3.490   6.360
  936SOL     OW 3706   0.834   0.078   1.346
  936SOL    HW1 3707   0.737   0.063   1.368
  936SOL    HW2 3708   0.867   0.004   1.288
  937SOL     OW 3709   4.659   1.636   4.253
  937SOL    HW1 3710   4.676   1.611   4.157
  937SOL    HW2 3711   4.746   1.636   4.303
  938SOL     OW 3712   6.887   3.942   5.809
  938SOL    HW1 3713   6.808   3.989   5.847
  938SOL    HW2 3714   6.905   3.859   5.861
  939SOL     OW 3715   5.056   1.074   6.493
  939SOL    HW1 3716   5.119   1.125   6.435
  939SOL    HW2 3717   4.964   1.080   6.455
  940SOL     OW 3718   6.887   0.921   2.868
  940SOL    HW1 3719   6.814   0.893   2.931
  940SOL    HW2 3720   6.847   0.951   2.782
  941SOL     OW 3721   5.256   1.549   3.858
  941SOL    HW1 3722   5.316   1.608   3.912
  941SOL    HW2 3723   5.218   1.600   3.781
  942SOL     OW 3724   5.176   6.836   5.238
  942SOL    HW1 3725   5.228   6.751   5.235
  942SOL    HW2 3726   5.239   6.914   5.239
  943SOL     OW 3727   6.396   3.337   2.451
  943SOL    HW1 3728   6.382   3.341   2.550
  943SOL    HW2 3729   6.337   3.405   2.407
  944SOL     OW 3730   6.126   3.282   4.430
  944SOL    HW1 3731   6.169   3.192   4.429
  944SOL    HW2 3732   6.084   3.298   4.520
  945SOL     OW 3733   4.711   4.241   4.095
  945SOL    HW1 3734   4.711   4.148   4.132
  945SOL    HW2 3735   4.677   4.305   4.164
  946SOL     OW 3736   5.610   2.549   5.868
  946SOL    HW1 3737   5.602   2.577   5.963
  946SOL    HW2 3738   5.705   2.527   5.847
  947SOL     OW 3739   3.249   3.228   6.338
  947SOL    HW1 3740   3.210   3.270   6.256
  947SOL    HW2 3741   3.223   3.131   6.340
  948SOL     OW 3742   3.182   1.103   0.443
  948SOL    HW1 3743   3.159   1.061   0.355
  948SOL    HW2 3744   3.222   1.193   0.427
  949SOL     OW 3745   6.087   5.323   6.511
  949SOL    HW1 3746   6.139   5.238   6.511
  949SOL    HW2 3747   6.129   5.386   6.577
  950SOL     OW 3748   4.072   5.013   1.515
  950SOL    HW1 3749   4.108   5.019   1.609
  950SOL    HW2 3750   4.085   4.920   1.481
  951SOL     OW 3751   0.633   0.718   1.366
  951SOL    HW1 3752   0.708   0.783   1.370
  951SOL    HW2 3753   0.546   0.767   1.371
  952SOL     OW 3754   5.261   1.031   2.781
  952SOL    HW1 3755   5.185   1.081   2.739
  952SOL    HW2 3756   5.248   1.028   2.880
  953SOL     OW 3757   4.371   6.325   5.539
  953SOL    HW1 3758   4.346   6.228   5.546
  953SOL    HW2 3759   4.468   6.335   5.559
  954SOL     OW 3760   6.480   0.231   1.348
  954SOL    HW1 3761   6.427   0.260   1.268
  954SOL    HW2 3762   6.420   0.185   1.413
  955SOL     OW 3763   0.772   4.936   3.633
  955SOL    HW1 3764   0.725   4.955   3.547
  955SOL    HW2 3765   0.708   4.943   3.709
  956SOL     OW 3766   1.366   1.375   1.457
  956SOL    HW1 3767   1.324   1.285   1.464
  956SOL    HW2 3768   1.465   1.367   1.469
  957SOL     OW 3769   1.353   5.066   5.566
  957SOL    HW1 3770   1.415   5.048   5.642
  957SOL    HW2 3771   1.261   5.081   5.602
  958SOL     OW 3772   4.878   2.258   1.007
  958SOL    HW1 3773   4.954   2.194   1.018
  958SOL    HW2 3774   4.821   2.257   1.089
  959SOL     OW 3775   2.749   4.833   2.592
  959SOL    HW1 3776   2.776   4.913   2.644
  959SOL    HW2 3777   2.816   4.815   2.520
  960SOL     OW 3778   2.223   6.211   4.284
  960SOL    HW1 3779   2.244   6.131   4.340
  960SOL    HW2 3780   2.155   6.268   4.330
  961SOL     OW 3781   3.944   6.992   2.295
  961SOL    HW1 3782   4.007   6.963   2.367
  961SOL    HW2 3783   3.976   6.957   2.207
  962SOL     OW 3784   1.931   0.972   3.461
  962SOL    HW1 3785   1.925   0.888   3.407
  962SOL    HW2 3786   1.841   0.995   3.497
  963SOL     OW 3787   6.204   7.022   1.112
  963SOL    HW1 3788   6.174   0.057   1.183
  963SOL    HW2 3789   6.125   6.985   1.064
  964SOL     OW 3790   5.518   2.930   0.800
  964SOL    HW1 3791   5.596   2.878   0.836
  964SOL    HW2 3792   5.502   2.903   0.705
  965SOL     OW 3793   6.414   1.395   1.111
  965SOL    HW1 3794   6.337   1.383   1.174
  965SOL    HW2 3795   6.482   1.455   1.152
  966SOL     OW 3796   6.297   1.687   3.171
  966SOL    HW1 3797   6.208   1.686   3.217
  966SOL    HW2 3798   6.336   1.779   3.176
  967SOL     OW 3799   1.621   5.495   0.486
  967SOL    HW1 3800   1.713   5.455   0.482
  967SOL    HW2 3801   1.565   5.457   0.413
  968SOL     OW 3802   4.693   2.673   2.649
  968SOL    HW1 3803   4.703   2.604   2.577
  968SOL    HW2 3804   4.738   2.758   2.619
  969SOL     OW 3805   3.994   6.595   6.338
  969SOL    HW1 3806   4.021   6.524   6.402
  969SOL    HW2 3807   3.897   6.585   6.316
  970SOL     OW 3808   4.226   1.790   5.415
  970SOL    HW1 3809   4.314   1.744   5.412
  970SOL    HW2 3810   4.194   1.809   5.322
  971SOL     OW 3811   6.754   1.297   2.487
  971SOL    HW1 3812   6.673   1.265   2.538
  971SOL    HW2 3813   6.770   1.393   2.508
  972SOL     OW 3814   6.299   4.796   0.887
  972SOL    HW1 3815   6.360   4.794   0.808
  972SOL    HW2 3816   6.319   4.717   0.946
  973SOL     OW 3817   0.364   4.667   6.586
  973SOL    HW1 3818   0.317   4.749   6.616
  973SOL    HW2 3819   0.347   4.653   6.488
  974SOL     OW 3820   3.354   0.603   2.623
  974SOL    HW1 3821   3.344   0.692   2.668
  974SOL    HW2 3822   3.364   0.532   2.693
  975SOL     OW 3823   3.078   6.088   6.173
  975SOL    HW1 3824   3.102   5.994   6.199
  975SOL    HW2 3825   2.980   6.093   6.155
  976SOL     OW 3826   0.023   3.119   2.568
  976SOL    HW1 3827   0.018   3.036   2.512
  976SOL    HW2 3828   6.961   3.143   2.600
  977SOL     OW 3829   1.469   1.234   3.855
  977SOL    HW1 3830   1.523   1.188   3.926
  977SOL    HW2 3831   1.393   1.283   3.897
  978SOL     OW 3832   5.896   4.451   4.428
  978SOL    HW1 3833   5.947   4.528   4.388
  978SOL    HW2 3834   5.821   4.486   4.484
  979SOL     OW 3835   6.085   1.585   3.294
  979SOL    HW1 3836   6.112   1.603   3.388
  979SOL    HW2 3837   6.117   1.494   3.267
  980SOL     OW 3838   5.560   2.488   3.511
  980SOL    HW1 3839   5.508   2.506   3.594
  980SOL    HW2 3840   5.642   2.545   3.509
  981SOL     OW 3841   1.201   1.734   4.996
  981SOL    HW1 3842   1.240   1.808   4.941
  981SOL    HW2 3843   1.256   1.652   4.986
  982SOL     OW 3844   1.644   2.710   1.991
  982SOL    HW1 3845   1.559   2.708   2.043
  982SOL    HW2 3846   1.715   2.661   2.042
  983SOL     OW 3847   6.094   2.379   3.361
  983SOL    HW1 3848   6.176   2.416   3.317
  983SOL    HW2 3849   6.024   2.363   3.292
  984SOL     OW 3850   4.392   1.085   5.520
  984SOL    HW1 3851   4.479   1.056   5.480
  984SOL    HW2 3852   4.321   1.087   5.450
  985SOL     OW 3853   4.411   5.236   0.066
  985SOL    HW1 3854   4.370   5.160   0.015
  985SOL    HW2 3855   4.417   5.211   0.163
  986SOL     OW 3856   5.219   5.359   6.084
  986SOL    HW1 3857   5.261   5.405   6.163
  986SOL    HW2 3858   5.243   5.409   6.001
  987SOL     OW 3859   3.701   6.668   1.575
  987SOL    HW1 3860   3.663   6.707   1.658
  987SOL    HW2 3861   3.771   6.729   1.539
  988SOL     OW 3862   3.748   2.462   0.706
  988SOL    HW1 3863   3.828   2.428   0.755
  988SOL    HW2 3864   3.684   2.386   0.691
  989SOL     OW 3865   0.430   0.665   6.237
  989SOL    HW1 3866   0.481   0.581   6.217
  989SOL    HW2 3867   0.382   0.655   6.324
  990SOL     OW 3868   4.813   0.094   4.028
  990SOL    HW1 3869   4.797   0.170   3.966
  990SOL    HW2 3870   4.906   0.098   4.063
  991SOL     OW 3871   1.456   2.368   4.702
  991SOL    HW1 3872   1.497   2.426   4.632
  991SOL    HW2 3873   1.386   2.419   4.752
  992SOL     OW 3874   0.170   2.814   6.920
  992SOL    HW1 3875   0.172   2.843   6.824
  992SOL    HW2 3876   0.123   2.884   6.974
  993SOL     OW 3877   2.712   5.341   2.423
  993SOL    HW1 3878   2.706   5.332   2.324
  993SOL    HW2 3879   2.663   5.265   2.467
  994SOL     OW 3880   3.455   4.131   2.487
  994SOL    HW1 3881   3.414   4.135   2.578
  994SOL    HW2 3882   3.538   4.074   2.490
  995SOL     OW 3883   1.742   2.647   5.960
  995SOL    HW1 3884   1.771   2.620   5.868
  995SOL    HW2 3885   1.649   2.683   5.956
  996SOL     OW 3886   1.727   3.657   3.744
  996SOL    HW1 3887   1.713   3.590   3.817
  996SOL    HW2 3888   1.750   3.609   3.659
  997SOL     OW 3889   0.388   0.489   1.105
  997SOL    HW1 3890   0.345   0.430   1.174
  997SOL    HW2 3891   0.486   0.498   1.125
  998SOL     OW 3892   4.261   0.047   2.932
  998SOL    HW1 3893   4.303   0.122   2.983
  998SOL    HW2 3894   4.250   0.074   2.837
  999SOL     OW 3895   5.431   5.533   1.313
  999SOL    HW1 3896   5.464   5.521   1.219
  999SOL    HW2 3897   5.346   5.587   1.311
 1000SOL     OW 3898   2.083   1.702   2.384
 1000SOL    HW1 3899   2.037   1.671   2.301
 1000SOL    HW2 3900   2.069   1.636   2.458
 1001SOL     OW 3901   4.069   6.420   6.543
 1001SOL    HW1 3902   4.162   6.389   6.522
 1001SOL    HW2 3903   4.013   6.341   6.570
 1002SOL     OW 3904   5.672   1.636   6.751
 1002SOL    HW1 3905   5.695   1.545   6.787
 1002SOL    HW2 3906   5.720   1.650   6.664
 1003SOL     OW 3907   2.290   6.904   2.345
 1003SOL    HW1 3908   2.372   6.850   2.369
 1003SOL    HW2 3909   2.214   6.842   2.327
 1004SOL     OW 3910   6.493   0.454   0.127
 1004SOL    HW1 3911   6.493   0.370   0.073
 1004SOL    HW2 3912   6.399   0.475   0.155
 1005SOL     OW 3913   0.263   0.623   2.707
 1005SOL    HW1 3914   0.168   0.618   2.676
 1005SOL    HW2 3915   0.294   0.531   2.732
 1006SOL     OW 3916   2.568   5.607   1.663
 1006SOL    HW1 3917   2.604   5.588   1.754
 1006SOL    HW2 3918   2.560   5.706   1.651
 1007SOL     OW 3919   6.183   0.742   3.357
 1007SOL    HW1 3920   6.235   0.827   3.350
 1007SOL    HW2 3921   6.237   0.666   3.322
 1008SOL     OW 3922   0.788   2.511   4.072
 1008SOL    HW1 3923   0.860   2.492   4.139
 1008SOL    HW2 3924   0.748   2.601   4.092
 1009SOL     OW 3925   6.685   5.313   3.678
 1009SOL    HW1 3926   6.699   5.378   3.603
 1009SOL    HW2 3927   6.665   5.364   3.762
 1010SOL     OW 3928   3.939   1.825   7.002
 1010SOL    HW1 3929   3.919   1.764   0.049
 1010SOL    HW2 3930   4.030   1.864   7.013
 1011SOL     OW 3931   3.020   5.497   3.643
 1011SOL    HW1 3932   2.949   5.532   3.582
 1011SOL    HW2 3933   3.105   5.487   3.592
 1012SOL     OW 3934   6.389   5.249   0.147
 1012SOL    HW1 3935   6.475   5.299   0.163
 1012SOL    HW2 3936   6.347   5.227   0.235
 1013SOL     OW 3937   0.472   1.045   6.846
 1013SOL    HW1 3938   0.468   1.134   6.801
 1013SOL    HW2 3939   0.464   1.057   6.945
 1014SOL     OW 3940   5.314   5.462   6.319
 1014SOL    HW1 3941   5.280   5.420   6.403
 1014SOL    HW2 3942   5.314   5.561   6.329
 1015SOL     OW 3943   3.752   6.682   4.802
 1015SOL    HW1 3944   3.740   6.657   4.898
 1015SOL    HW2 3945   3.672   6.655   4.750
 1016SOL     OW 3946   2.781   2.827   0.836
 1016SOL    HW1 3947   2.720   2.749   0.851
 1016SOL    HW2 3948   2.726   2.908   0.814
 1017SOL     OW 3949   5.208   2.416   1.224
 1017SOL    HW1 3950   5.296   2.409   1.271
 1017SOL    HW2 3951   5.143   2.464   1.283
 1018SOL     OW 3952   1.646   3.305   4.294
 1018SOL    HW1 3953   1.739   3.341   4.286
 1018SOL    HW2 3954   1.640   3.218   4.246
 1019SOL     OW 3955   0.234   1.241   0.516
 1019SOL    HW1 3956   0.252   1.336   0.542
 1019SOL    HW2 3957   0.277   1.223   0.428
 1020SOL     OW 3958   1.209   6.753   0.572
 1020SOL    HW1 3959   1.268   6.737   0.650
 1020SOL    HW2 3960   1.249   6.824   0.514
 1021SOL     OW 3961   5.678   1.340   2.033
 1021SOL    HW1 3962   5.756   1.401   2.020
 1021SOL    HW2 3963   5.657   1.293   1.947
 1022SOL     OW 3964   4.185   4.954   5.999
 1022SOL    HW1 3965   4.173   4.856   6.011
 1022SOL    HW2 3966   4.223   4.972   5.908
 1023SOL     OW 3967   6.531   6.954   1.851
 1023SOL    HW1 3968   6.487   6.892   1.786
 1023SOL    HW2 3969   6.476   6.961   1.934
 1024SOL     OW 3970   6.619   2.447   4.373
 1024SOL    HW1 3971   6.552   2.489   4.311
 1024SOL    HW2 3972   6.579   2.439   4.464
 1025SOL     OW 3973   3.999   4.733   0.145
 1025SOL    HW1 3974   4.099   4.745   0.147
 1025SOL    HW2 3975   3.956   4.812   0.187
 1026SOL     OW 3976   1.277   1.295   1.012
 1026SOL    HW1 3977   1.346   1.364   1.035
 1026SOL    HW2 3978   1.321   1.206   1.002
 1027SOL     OW 3979   3.111   5.565   1.067
 1027SOL    HW1 3980   3.096   5.588   1.164
 1027SOL    HW2 3981   3.062   5.631   1.010
 1028SOL     OW 3982   3.172   5.489   0.377
 1028SOL    HW1 3983   3.223   5.559   0.427
 1028SOL    HW2 3984   3.206   5.485   0.283
 1029SOL     OW 3985   1.929   0.540   0.559
 1029SOL    HW1 3986   1.843   0.584   0.585
 1029SOL    HW2 3987   1.945   0.554   0.462
 1030SOL     OW 3988   3.250   3.015   3.847
 1030SOL    HW1 3989   3.257   2.921   3.880
 1030SOL    HW2 3990   3.335   3.041   3.801
 1031SOL     OW 3991   3.882   5.450   1.568
 1031SOL    HW1 3992   3.854   5.477   1.476
 1031SOL    HW2 3993   3.841   5.513   1.635
 1032SOL     OW 3994   2.431   1.398   5.517
 1032SOL    HW1 3995   2.465   1.483   5.560
 1032SOL    HW2 3996   2.339   1.414   5.481
 1033SOL     OW 3997   2.013   5.682   1.181
 1033SOL    HW1 3998   2.111   5.692   1.201
 1033SOL    HW2 3999   1.988   5.747   1.109
 1034SOL     OW 4000   2.066   6.291   4.538
 1034SOL    HW1 4001   2.042   6.330   4.626
 1034SOL    HW2 4002   1.985   6.247   4.498
 1035SOL     OW 4003   2.823   2.021   3.840
 1035SOL    HW1 4004   2.862   1.961   3.770
 1035SOL    HW2 4005   2.890   2.036   3.912
 1036SOL     OW 4006   3.705   0.870   0.803
 1036SOL    HW1 4007   3.648   0.788   0.799
 1036SOL    HW2 4008   3.651   0.947   0.838
 1037SOL     OW 4009   0.735   1.293   1.263
 1037SOL    HW1 4010   0.810   1.228   1.274
 1037SOL    HW2 4011   0.648   1.244   1.256
 1038SOL     OW 4012   0.777   1.348   5.903
 1038SOL    HW1 4013   0.711   1.336   5.977
 1038SOL    HW2 4014   0.768   1.440   5.865
 1039SOL     OW 4015   4.469   1.691   5.312
 1039SOL    HW1 4016   4.546   1.729   5.363
 1039SOL    HW2 4017   4.460   1.738   5.224
 1040SOL     OW 4018   5.723   3.414   3.618
 1040SOL    HW1 4019   5.745   3.361   3.699
 1040SOL    HW2 4020   5.775   3.500   3.618
 1041SOL     OW 4021   6.379   0.031   4.175
 1041SOL    HW1 4022   6.281   0.035   4.194
 1041SOL    HW2 4023   6.411   0.120   4.142
 1042SOL     OW 4024   4.289   4.813   2.401
 1042SOL    HW1 4025   4.348   4.747   2.447
 1042SOL    HW2 4026   4.203   4.768   2.374
 1043SOL     OW 4027   4.167   1.508   6.366
 1043SOL    HW1 4028   4.169   1.444   6.442
 1043SOL    HW2 4029   4.075   1.546   6.355
 1044SOL     OW 4030   3.417   2.425   1.416
 1044SOL    HW1 4031   3.500   2.391   1.460
 1044SOL    HW2 4032   3.430   2.427   1.317
 1045SOL     OW 4033   3.383   0.828   1.621
 1045SOL    HW1 4034   3.372   0.885   1.702
 1045SOL    HW2 4035   3.336   0.741   1.634
 1046SOL     OW 4036   2.550   6.937   6.657
 1046SOL    HW1 4037   2.482   6.880   6.611
 1046SOL    HW2 4038   2.516   6.962   6.748
 1047SOL     OW 4039   1.542   5.390   2.853
 1047SOL    HW1 4040   1.624   5.441   2.878
 1047SOL    HW2 4041   1.464   5.452   2.849
 1048SOL     OW 4042   4.973   5.762   5.299
 1048SOL    HW1 4043   5.069   5.742   5.319
 1048SOL    HW2 4044   4.960   5.861   5.296
 1049SOL     OW 4045   6.869   3.692   5.280
 1049SOL    HW1 4046   6.918   3.684   5.194
 1049SOL    HW2 4047   6.797   3.761   5.272
 1050SOL     OW 4048   3.828   6.605   0.752
 1050SOL    HW1 4049   3.746   6.619   0.697
 1050SOL    HW2 4050   3.892   6.546   0.701
 1051SOL     OW 4051   4.250   4.450   6.926
 1051SOL    HW1 4052   4.166   4.420   6.971
 1051SOL    HW2 4053   4.328   4.436   6.986
 1052SOL     OW 4054   3.840   0.668   4.541
 1052SOL    HW1 4055   3.866   0.713   4.455
 1052SOL    HW2 4056   3.792   0.734   4.599
 1053SOL     OW 4057   5.971   6.128   3.433
 1053SOL    HW1 4058   5.920   6.126   3.347
 1053SOL    HW2 4059   6.017   6.216   3.442
 1054SOL     OW 4060   2.319   5.235   5.544
 1054SOL    HW1 4061   2.402   5.201   5.498
 1054SOL    HW2 4062   2.254   5.268   5.475
 1055SOL     OW 4063   6.016   5.762   4.368
 1055SOL    HW1 4064   5.939   5.701   4.348
 1055SOL    HW2 4065   5.991   5.823   4.443
 1056SOL     OW 4066   1.761   6.485   5.264
 1056SOL    HW1 4067   1.782   6.567   5.318
 1056SOL    HW2 4068   1.716   6.418   5.323
 1057SOL     OW 4069   3.354   3.775   3.423
 1057SOL    HW1 4070   3.396   3.848   3.478
 1057SOL    HW2 4071   3.388   3.686   3.453
 1058SOL     OW 4072   4.359   1.629   1.906
 1058SOL    HW1 4073   4.393   1.709   1.855
 1058SOL    HW2 4074   4.278   1.655   1.958
 1059SOL     OW 4075   3.775   0.528   1.564
 1059SOL    HW1 4076   3.741   0.518   1.658
 1059SOL    HW2 4077   3.872   0.552   1.566
 1060SOL     OW 4078   0.073   3.685   5.871
 1060SOL    HW1 4079   7.013   3.699   5.914
 1060SOL    HW2 4080   0.063   3.622   5.794
 1061SOL     OW 4081   3.877   4.066   0.872
 1061SOL    HW1 4082   3.856   4.093   0.966
 1061SOL    HW2 4083   3.960   4.010   0.871
 1062SOL     OW 4084   6.623   5.889   5.402
 1062SOL    HW1 4085   6.541   5.832   5.393
 1062SOL    HW2 4086   6.703   5.831   5.416
 1063SOL     OW 4087   1.043   3.725   0.915
 1063SOL    HW1 4088   0.992   3.679   0.988
 1063SOL    HW2 4089   1.101   3.796   0.954
 1064SOL     OW 4090   1.478   3.263   2.102
 1064SOL    HW1 4091   1.398   3.237   2.156
 1064SOL    HW2 4092   1.449   3.324   2.028
 1065SOL     OW 4093   4.819   0.472   4.077
 1065SOL    HW1 4094   4.800   0.381   4.114
 1065SOL    HW2 4095   4.907   0.470   4.029
 1066SOL     OW 4096   5.024   0.581   4.273
 1066SOL    HW1 4097   5.078   0.502   4.244
 1066SOL    HW2 4098   4.930   0.571   4.241
 1067SOL     OW 4099   1.736   2.620   0.843
 1067SOL    HW1 4100   1.688   2.536   0.816
 1067SOL    HW2 4101   1.798   2.600   0.918
 1068SOL     OW 4102   0.069   3.927   1.939
 1068SOL    HW1 4103   0.061   4.021   1.906
 1068SOL    HW2 4104   0.144   3.881   1.891
 1069SOL     OW 4105   4.306   4.830   0.732
 1069SOL    HW1 4106   4.333   4.747   0.781
 1069SOL    HW2 4107   4.236   4.808   0.665
 1070SOL     OW 4108   1.919   0.834   6.956
 1070SOL    HW1 4109   1.959   0.757   6.906
 1070SOL    HW2 4110   1.977   0.914   6.946
 1071SOL     OW 4111   3.815   0.072   3.368
 1071SOL    HW1 4112   3.741   0.135   3.391
 1071SOL    HW2 4113   3.777   7.019   3.325
 1072SOL     OW 4114   2.547   5.886   2.011
 1072SOL    HW1 4115   2.511   5.868   2.103
 1072SOL    HW2 4116   2.495   5.833   1.944
 1073SOL     OW 4117   3.763   5.642   1.740
 1073SOL    HW1 4118   3.688   5.701   1.772
 1073SOL    HW2 4119   3.787   5.668   1.646
 1074SOL     OW 4120   1.457   5.314   1.738
 1074SOL    HW1 4121   1.538   5.258   1.754
 1074SOL    HW2 4122   1.439   5.321   1.640
 1075SOL     OW 4123   5.051   4.976   3.355
 1075SOL    HW1 4124   4.998   4.894   3.375
 1075SOL    HW2 4125   5.039   5.000   3.258
 1076SOL     OW 4126   1.167   4.398   5.036
 1076SOL    HW1 4127   1.245   4.397   4.973
 1076SOL    HW2 4128   1.124   4.488   5.033
 1077SOL     OW 4129   5.999   6.792   0.484
 1077SOL    HW1 4130   5.980   6.748   0.572
 1077SOL    HW2 4131   6.041   6.881   0.500
 1078SOL     OW 4132   1.957   1.286   2.523
 1078SOL    HW1 4133   1.976   1.351   2.597
 1078SOL    HW2 4134   1.861   1.293   2.496
 1079SOL     OW 4135   2.320   5.335   3.315
 1079SOL    HW1 4136   2.302   5.412   3.377
 1079SOL    HW2 4137   2.403   5.352   3.263
 1080SOL     OW 4138   2.771   5.527   3.096
 1080SOL    HW1 4139   2.767   5.627   3.102
 1080SOL    HW2 4140   2.846   5.492   3.152
 1081SOL     OW 4141   1.218   1.161   5.905
 1081SOL    HW1 4142   1.215   1.103   5.823
 1081SOL    HW2 4143   1.303   1.212   5.907
 1082SOL     OW 4144   1.311   6.843   5.673
 1082SOL    HW1 4145   1.239   6.903   5.639
 1082SOL    HW2 4146   1.334   6.775   5.603
 1083SOL     OW 4147   3.816   3.449   2.311
 1083SOL    HW1 4148   3.730   3.405   2.335
 1083SOL    HW2 4149   3.804   3.504   2.229
 1084SOL     OW 4150   6.375   5.440   1.104
 1084SOL    HW1 4151   6.352   5.535   1.084
 1084SOL    HW2 4152   6.299   5.397   1.152
 1085SOL     OW 4153   2.052   4.537   3.858
 1085SOL    HW1 4154   2.092   4.606   3.919
 1085SOL    HW2 4155   2.109   4.456   3.857
 1086SOL     OW 4156   6.264   5.316   3.656
 1086SOL    HW1 4157   6.273   5.394   3.595
 1086SOL    HW2 4158   6.311   5.237   3.617
 1087SOL     OW 4159   5.009   2.799   5.004
 1087SOL    HW1 4160   5.103   2.797   4.971
 1087SOL    HW2 4161   4.952   2.848   4.938
 1088SOL     OW 4162   5.149   4.370   3.330
 1088SOL    HW1 4163   5.081   4.309   3.289
 1088SOL    HW2 4164   5.175   4.441   3.265
 1089SOL     OW 4165   0.164   0.198   4.358
 1089SOL    HW1 4166   0.091   0.152   4.408
 1089SOL    HW2 4167   0.153   0.297   4.368
 1090SOL     OW 4168   2.812   1.088   4.638
 1090SOL    HW1 4169   2.845   1.131   4.553
 1090SOL    HW2 4170   2.745   1.148   4.681
 1091SOL     OW 4171   1.462   2.101   4.143
 1091SOL    HW1 4172   1.406   2.047   4.207
 1091SOL    HW2 4173   1.559   2.085   4.162
 1092SOL     OW 4174   2.327   3.609   0.878
 1092SOL    HW1 4175   2.231   3.632   0.894
 1092SOL    HW2 4176   2.374   3.689   0.840
 1093SOL     OW 4177   1.486   1.702   2.403
 1093SOL    HW1 4178   1.417   1.764   2.366
 1093SOL    HW2 4179   1.572   1.714   2.354
 1094SOL     OW 4180   0.200   6.669   1.845
 1094SOL    HW1 4181   0.171   6.578   1.815
 1094SOL    HW2 4182   0.119   6.722   1.873
 1095SOL     OW 4183   6.132   2.475   6.528
 1095SOL    HW1 4184   6.177   2.410   6.589
 1095SOL    HW2 4185   6.074   2.425   6.463
 1096SOL     OW 4186   3.792   5.297   1.256
 1096SOL    HW1 4187   3.788   5.222   1.322
 1096SOL    HW2 4188   3.885   5.306   1.221
 1097SOL     OW 4189   1.654   5.328   4.665
 1097SOL    HW1 4190   1.684   5.405   4.722
 1097SOL    HW2 4191   1.564   5.349   4.627
 1098SOL     OW 4192   5.247   2.471   0.761
 1098SOL    HW1 4193   5.181   2.534   0.720
 1098SOL    HW2 4194   5.308   2.521   0.821
 1099SOL     OW 4195   4.071   2.172   4.616
 1099SOL    HW1 4196   4.057   2.107   4.691
 1099SOL    HW2 4197   4.161   2.216   4.626
 1100SOL     OW 4198   0.696   1.253   6.410
 1100SOL    HW1 4199   0.629   1.294   6.348
 1100SOL    HW2 4200   0.763   1.201   6.357
 1101SOL     OW 4201   5.706   3.428   1.269
 1101SOL    HW1 4202   5.801   3.409   1.243
 1101SOL    HW2 4203   5.702   3.446   1.367
 1102SOL     OW 4204   0.867   4.640   4.332
 1102SOL    HW1 4205   0.838   4.735   4.323
 1102SOL    HW2 4206   0.961   4.631   4.299
 1103SOL     OW 4207   1.832   1.417   1.974
 1103SOL    HW1 4208   1.746   1.366   1.976
 1103SOL    HW2 4209   1.850   1.454   2.065
 1104SOL     OW 4210   1.998   4.429   6.033
 1104SOL    HW1 4211   2.017   4.415   5.936
 1104SOL    HW2 4212   2.003   4.527   6.054
 1105SOL     OW 4213   5.060   4.106   6.559
 1105SOL    HW1 4214   5.068   4.020   6.610
 1105SOL    HW2 4215   5.130   4.109   6.488
 1106SOL     OW 4216   0.653   1.938   6.275
 1106SOL    HW1 4217   0.567   1.908   6.317
 1106SOL    HW2 4218   0.634   2.012   6.210
 1107SOL     OW 4219   0.864   0.373   6.800
 1107SOL    HW1 4220   0.878   0.388   6.898
 1107SOL    HW2 4221   0.835   0.458   6.757
 1108SOL     OW 4222   2.455   0.690   5.074
 1108SOL    HW1 4223   2.366   0.673   5.115
 1108SOL    HW2 4224   2.526   0.652   5.133
 1109SOL     OW 4225   3.992   5.819   4.525
 1109SOL    HW1 4226   3.898   5.817   4.560
 1109SOL    HW2 4227   4.020   5.726   4.500
 1110SOL     OW 4228   2.612   2.536   1.094
 1110SOL    HW1 4229   2.629   2.614   1.154
 1110SOL    HW2 4230   2.653   2.553   1.005
 1111SOL     OW 4231   5.160   6.863   6.622
 1111SOL    HW1 4232   5.213   6.944   6.649
 1111SOL    HW2 4233   5.072   6.891   6.586
 1112SOL     OW 4234   5.858   0.868   2.527
 1112SOL    HW1 4235   5.823   0.775   2.509
 1112SOL    HW2 4236   5.806   0.908   2.602
 1113SOL     OW 4237   6.213   3.360   2.704
 1113SOL    HW1 4238   6.236   3.371   2.801
 1113SOL    HW2 4239   6.127   3.405   2.685
 1114SOL     OW 4240   4.986   0.506   6.444
 1114SOL    HW1 4241   4.889   0.527   6.432
 1114SOL    HW2 4242   5.030   0.579   6.497
 1115SOL     OW 4243   3.910   2.002   0.478
 1115SOL    HW1 4244   3.950   2.078   0.427
 1115SOL    HW2 4245   3.980   1.959   0.535
 1116SOL     OW 4246   5.150   5.804   4.009
 1116SOL    HW1 4247   5.170   5.819   4.106
 1116SOL    HW2 4248   5.226   5.839   3.954
 1117SOL     OW 4249   2.329   2.626   1.530
 1117SOL    HW1 4250   2.421   2.619   1.568
 1117SOL    HW2 4251   2.271   2.680   1.591
 1118SOL     OW 4252   1.762   4.994   3.155
 1118SOL    HW1 4253   1.737   5.084   3.118
 1118SOL    HW2 4254   1.759   4.926   3.081
 1119SOL     OW 4255   4.262   4.080   1.660
 1119SOL    HW1 4256   4.335   4.109   1.721
 1119SOL    HW2 4257   4.177   4.126   1.686
 1120SOL     OW 4258   5.335   6.839   6.015
 1120SOL    HW1 4259   5.246   6.834   6.060
 1120SOL    HW2 4260   5.352   6.755   5.963
 1121SOL     OW 4261   5.028   2.783   2.140
 1121SOL    HW1 4262   4.955   2.773   2.072
 1121SOL    HW2 4263   4.988   2.790   2.231
 1122SOL     OW 4264   5.731   2.859   6.590
 1122SOL    HW1 4265   5.758   2.916   6.667
 1122SOL    HW2 4266   5.787   2.881   6.510
 1123SOL     OW 4267   4.806   1.553   1.753
 1123SOL    HW1 4268   4.788   1.559   1.851
 1123SOL    HW2 4269   4.747   1.484   1.712
 1124SOL     OW 4270   6.537   3.601   5.042
 1124SOL    HW1 4271   6.531   3.701   5.049
 1124SOL    HW2 4272   6.586   3.577   4.958
 1125SOL     OW 4273   2.596   2.607   5.193
 1125SOL    HW1 4274   2.673   2.659   5.229
 1125SOL    HW2 4275   2.515   2.665   5.191
 1126SOL     OW 4276   4.332   6.943   0.103
 1126SOL    HW1 4277   4.302   6.947   0.199
 1126SOL    HW2 4278   4.337   6.847   0.074
 1127SOL     OW 4279   2.550   4.276   6.623
 1127SOL    HW1 4280   2.570   4.186   6.584
 1127SOL    HW2 4281   2.454   4.299   6.608
 1128SOL     OW 4282   4.353   2.471   4.019
 1128SOL    HW1 4283   4.340   2.431   3.928
 1128SOL    HW2 4284   4.448   2.457   4.047
 1129SOL     OW 4285   4.179   0.277   0.609
 1129SOL    HW1 4286   4.085   0.277   0.642
 1129SOL    HW2 4287   4.216   0.370   0.611
 1130SOL     OW 4288   1.353   4.018   1.469
 1130SOL    HW1 4289   1.378   3.923   1.488
 1130SOL    HW2 4290   1.374   4.074   1.549
 1131SOL     OW 4291   0.151   6.307   5.826
 1131SOL    HW1 4292   0.102   6.263   5.901
 1131SOL    HW2 4293   0.218   6.244   5.788
 1132SOL     OW 4294   5.045   6.681   5.885
 1132SOL    HW1 4295   5.055   6.761   5.943
 1132SOL    HW2 4296   5.134   6.652   5.852
 1133SOL     OW 4297   0.494   2.308   1.595
 1133SOL    HW1 4298   0.419   2.362   1.558
 1133SOL    HW2 4299   0.536   2.254   1.522
 1134SOL     OW 4300   5.722   2.570   6.665
 1134SOL    HW1 4301   5.755   2.664   6.652
 1134SOL    HW2 4302   5.703   2.554   6.761
 1135SOL     OW 4303   3.065   2.079   3.388
 1135SOL    HW1 4304   3.045   2.116   3.479
 1135SOL    HW2 4305   3.076   2.155   3.324
 1136SOL     OW 4306   2.165   5.614   3.739
 1136SOL    HW1 4307   2.216   5.538   3.779
 1136SOL    HW2 4308   2.170   5.693   3.801
 1137SOL     OW 4309   0.935   1.710   6.729
 1137SOL    HW1 4310   0.896   1.684   6.817
 1137SOL    HW2 4311   0.962   1.628   6.678
 1138SOL     OW 4312   2.362   3.584   6.154
 1138SOL    HW1 4313   2.290   3.609   6.088
 1138SOL    HW2 4314   2.404   3.668   6.190
 1139SOL     OW 4315   1.462   6.136   3.313
 1139SOL    HW1 4316   1.393   6.189   3.360
 1139SOL    HW2 4317   1.476   6.172   3.220
 1140SOL     OW 4318   3.711   1.931   3.398
 1140SOL    HW1 4319   3.807   1.935   3.374
 1140SOL    HW2 4320   3.655   1.955   3.318
 1141SOL     OW 4321   5.209   5.617   5.687
 1141SOL    HW1 4322   5.304   5.606   5.714
 1141SOL    HW2 4323   5.153   5.548   5.735
 1142SOL     OW 4324   4.833   0.168   4.612
 1142SOL    HW1 4325   4.865   0.098   4.675
 1142SOL    HW2 4326   4.909   0.198   4.554
 1143SOL     OW 4327   3.989   2.177   2.672
 1143SOL    HW1 4328   3.978   2.124   2.756
 1143SOL    HW2 4329   3.900   2.187   2.627
 1144SOL     OW 4330   7.027   4.349   4.296
 1144SOL    HW1 4331   0.086   4.387   4.322
 1144SOL    HW2 4332   7.026   4.331   4.197
 1145SOL     OW 4333   0.018   5.708   3.830
 1145SOL    HW1 4334   7.004   5.630   3.873
 1145SOL    HW2 4335   7.001   5.792   3.858
 1146SOL     OW 4336   5.729   1.864   0.765
 1146SOL    HW1 4337   5.679   1.950   0.770
 1146SOL    HW2 4338   5.818   1.879   0.723
 1147SOL     OW 4339   0.948   3.683   1.363
 1147SOL    HW1 4340   0.909   3.619   1.430
 1147SOL    HW2 4341   1.047   3.680   1.367
 1148SOL     OW 4342   3.449   5.750   6.212
 1148SOL    HW1 4343   3.439   5.650   6.208
 1148SOL    HW2 4344   3.509   5.780   6.138
 1149SOL     OW 4345   6.615   3.393   3.314
 1149SOL    HW1 4346   6.680   3.441   3.256
 1149SOL    HW2 4347   6.619   3.295   3.296
 1150SOL     OW 4348   2.632   4.557   1.221
 1150SOL    HW1 4349   2.670   4.509   1.300
 1150SOL    HW2 4350   2.686   4.533   1.139
 1151SOL     OW 4351   5.866   5.775   6.365
 1151SOL    HW1 4352   5.864   5.780   6.265
 1151SOL    HW2 4353   5.815   5.694   6.394
 1152SOL     OW 4354   1.226   0.553   4.922
 1152SOL    HW1 4355   1.172   0.634   4.948
 1152SOL    HW2 4356   1.170   0.494   4.863
 1153SOL     OW 4357   2.467   6.385   3.152
 1153SOL    HW1 4358   2.549   6.364   3.205
 1153SOL    HW2 4359   2.481   6.357   3.057
 1154SOL     OW 4360   0.736   3.791   2.233
 1154SOL    HW1 4361   0.639   3.812   2.223
 1154SOL    HW2 4362   0.750   3.692   2.231
 1155SOL     OW 4363   3.209   6.021   0.534
 1155SOL    HW1 4364   3.283   5.967   0.574
 1155SOL    HW2 4365   3.188   5.985   0.443
 1156SOL     OW 4366   2.414   0.444   3.719
 1156SOL    HW1 4367   2.493   0.503   3.699
 1156SOL    HW2 4368   2.350   0.448   3.643
 1157SOL     OW 4369   6.930   2.241   4.848
 1157SOL    HW1 4370   6.833   2.251   4.829
 1157SOL    HW2 4371   6.970   2.332   4.866
 1158SOL     OW 4372   5.484   4.801   5.726
 1158SOL    HW1 4373   5.454   4.844   5.641
 1158SOL    HW2 4374   5.413   4.741   5.761
 1159SOL     OW 4375   3.588   6.434   2.811
 1159SOL    HW1 4376   3.561   6.369   2.740
 1159SOL    HW2 4377   3.677   6.408   2.849
 1160SOL     OW 4378   3.542   3.930   2.126
 1160SOL    HW1 4379   3.580   3.987   2.052
 1160SOL    HW2 4380   3.614   3.910   2.192
 1161SOL     OW 4381   5.208   0.570   4.534
 1161SOL    HW1 4382   5.163   0.583   4.623
 1161SOL    HW2 4383   5.200   0.475   4.506
 1162SOL     OW 4384   3.343   2.987   1.028
 1162SOL    HW1 4385   3.440   3.009   1.038
 1162SOL    HW2 4386   3.324   2.898   1.069
 1163SOL     OW 4387   4.890   2.540   1.779
 1163SOL    HW1 4388   4.791   2.536   1.790
 1163SOL    HW2 4389   4.913   2.610   1.711
 1164SOL     OW 4390   5.306   3.128   2.858
 1164SOL    HW1 4391   5.335   3.051   2.802
 1164SOL    HW2 4392   5.383   3.189   2.873
 1165SOL     OW 4393   1.241   3.377   3.496
 1165SOL    HW1 4394   1.329   3.356   3.453
 1165SOL    HW2 4395   1.187   3.436   3.435
 1166SOL     OW 4396   4.145   2.020   6.266
 1166SOL    HW1 4397   4.176   1.943   6.323
 1166SOL    HW2 4398   4.091   1.985   6.190
 1167SOL     OW 4399   3.692   0.506   5.208
 1167SOL    HW1 4400   3.768   0.558   5.247
 1167SOL    HW2 4401   3.623   0.489   5.279
 1168SOL     OW 4402   6.278   6.844   2.861
 1168SOL    HW1 4403   6.256   6.924   2.917
 1168SOL    HW2 4404   6.194   6.803   2.826
 1169SOL     OW 4405   0.286   3.731   0.913
 1169SOL    HW1 4406   0.368   3.787   0.927
 1169SOL    HW2 4407   0.235   3.765   0.835
 1170SOL     OW 4408   3.554   1.048   2.685
 1170SOL    HW1 4409   3.566   1.120   2.753
 1170SOL    HW2 4410   3.515   1.087   2.602
 1171SOL     OW 4411   3.221   6.382   0.967
 1171SOL    HW1 4412   3.208   6.369   0.868
 1171SOL    HW2 4413   3.131   6.383   1.011
 1172SOL     OW 4414   4.023   3.840   4.225
 1172SOL    HW1 4415   4.021   3.940   4.233
 1172SOL    HW2 4416   4.029   3.816   4.128
 1173SOL     OW 4417   3.525   0.423   5.392
 1173SOL    HW1 4418   3.511   0.324   5.398
 1173SOL    HW2 4419   3.438   0.468   5.369
 1174SOL     OW 4420   2.819   5.617   0.660
 1174SOL    HW1 4421   2.740   5.678   0.651
 1174SOL    HW2 4422   2.811   5.542   0.595
 1175SOL     OW 4423   6.077   4.609   6.999
 1175SOL    HW1 4424   6.092   4.517   0.006
 1175SOL    HW2 4425   5.999   4.651   0.017
 1176SOL     OW 4426   5.721   5.061   1.005
 1176SOL    HW1 4427   5.692   5.139   1.060
 1176SOL    HW2 4428   5.779   5.001   1.061
 1177SOL     OW 4429   0.010   2.629   5.480
 1177SOL    HW1 4430   0.047   2.688   5.553
 1177SOL    HW2 4431   6.940   2.626   5.487
 1178SOL     OW 4432   4.866   4.053   2.445
 1178SOL    HW1 4433   4.883   4.117   2.370
 1178SOL    HW2 4434   4.926   3.974   2.434
 1179SOL     OW 4435   1.665   3.881   0.764
 1179SOL    HW1 4436   1.693   3.920   0.852
 1179SOL    HW2 4437   1.746   3.852   0.713
 1180SOL     OW 4438   2.016   1.213   3.363
 1180SOL    HW1 4439   2.001   1.234   3.267
 1180SOL    HW2 4440   1.984   1.120   3.382
 1181SOL     OW 4441   0.718   5.062   4.534
 1181SOL    HW1 4442   0.744   5.156   4.557
 1181SOL    HW2 4443   0.620   5.057   4.519
 1182SOL     OW 4444   2.266   4.313   3.483
 1182SOL    HW1 4445   2.288   4.351   3.393
 1182SOL    HW2 4446   2.172   4.334   3.506
 1183SOL     OW 4447   4.563   5.332   1.744
 1183SOL    HW1 4448   4.502   5.252   1.749
 1183SOL    HW2 4449   4.513   5.414   1.770
 1184SOL     OW 4450   3.425   2.981   5.605
 1184SOL    HW1 4451   3.454   2.898   5.557
 1184SOL    HW2 4452   3.477   3.059   5.570
 1185SOL     OW 4453   2.605   0.455   0.178
 1185SOL    HW1 4454   2.544   0.422   0.250
 1185SOL    HW2 4455   2.672   0.518   0.217
 1186SOL     OW 4456   6.063   0.165   5.169
 1186SOL    HW1 4457   5.990   0.228   5.195
 1186SOL    HW2 4458   6.151   0.212   5.172
 1187SOL     OW 4459   5.555   6.357   4.750
 1187SOL    HW1 4460   5.512   6.352   4.660
 1187SOL    HW2 4461   5.654   6.364   4.740
 1188SOL     OW 4462   2.457   6.680   5.839
 1188SOL    HW1 4463   2.371   6.731   5.834
 1188SOL    HW2 4464   2.446   6.591   5.795
 1189SOL     OW 4465   5.013   1.456   2.224
 1189SOL    HW1 4466   5.033   1.468   2.127
 1189SOL    HW2 4467   5.008   1.545   2.269
 1190SOL     OW 4468   3.886   5.204   3.466
 1190SOL    HW1 4469   3.941   5.128   3.499
 1190SOL    HW2 4470   3.852   5.183   3.374
 1191SOL     OW 4471   3.334   5.057   6.230
 1191SOL    HW1 4472   3.270   5.052   6.153
 1191SOL    HW2 4473   3.415   5.001   6.210
 1192SOL     OW 4474   6.271   4.725   3.425
 1192SOL    HW1 4475   6.312   4.772   3.503
 1192SOL    HW2 4476   6.310   4.633   3.419
 1193SOL     OW 4477   5.279   7.024   4.367
 1193SOL    HW1 4478   5.316   6.958   4.432
 1193SOL    HW2 4479   5.190   6.991   4.333
 1194SOL     OW 4480   6.684   0.466   0.717
 1194SOL    HW1 4481   6.587   0.482   0.730
 1194SOL    HW2 4482   6.720   0.412   0.793
 1195SOL     OW 4483   6.503   1.013   6.213
 1195SOL    HW1 4484   6.568   0.942   6.237
 1195SOL    HW2 4485   6.465   1.054   6.296
 1196SOL     OW 4486   0.552   4.942   2.261
 1196SOL    HW1 4487   0.646   4.930   2.293
 1196SOL    HW2 4488   0.547   4.919   2.164
 1197SOL     OW 4489   3.781   5.883   5.417
 1197SOL    HW1 4490   3.800   5.904   5.513
 1197SOL    HW2 4491   3.798   5.964   5.361
 1198SOL     OW 4492   2.867   2.296   2.710
 1198SOL    HW1 4493   2.922   2.214   2.696
 1198SOL    HW2 4494   2.822   2.321   2.624
 1199SOL     OW 4495   3.038   3.904   2.488
 1199SOL    HW1 4496   3.096   3.970   2.441
 1199SOL    HW2 4497   3.053   3.911   2.587
 1200SOL     OW 4498   4.221   3.945   5.341
 1200SOL    HW1 4499   4.299   3.919   5.398
 1200SOL    HW2 4500   4.209   4.044   5.344
 1201SOL     OW 4501   1.337   1.499   4.990
 1201SOL    HW1 4502   1.286   1.431   4.938
 1201SOL    HW2 4503   1.432   1.499   4.961
 1202SOL     OW 4504   5.658   6.821   5.673
 1202SOL    HW1 4505   5.682   6.726   5.695
 1202SOL    HW2 4506   5.616   6.863   5.754
 1203SOL     OW 4507   5.221   0.143   1.030
 1203SOL    HW1 4508   5.188   0.207   1.098
 1203SOL    HW2 4509   5.174   0.158   0.943
 1204SOL     OW 4510   3.623   1.408   0.476
 1204SOL    HW1 4511   3.715   1.371   0.493
 1204SOL    HW2 4512   3.619   1.445   0.383
 1205SOL     OW 4513   5.588   2.636   6.138
 1205SOL    HW1 4514   5.609   2.602   6.230
 1205SOL    HW2 4515   5.489   2.634   6.125
 1206SOL     OW 4516   1.905   1.867   4.762
 1206SOL    HW1 4517   1.939   1.793   4.704
 1206SOL    HW2 4518   1.942   1.856   4.854
 1207SOL     OW 4519   6.379   6.364   0.386
 1207SOL    HW1 4520   6.450   6.420   0.429
 1207SOL    HW2 4521   6.364   6.282   0.441
 1208SOL     OW 4522   3.390   3.679   2.982
 1208SOL    HW1 4523   3.447   3.649   2.905
 1208SOL    HW2 4524   3.310   3.727   2.946
 1209SOL     OW 4525   6.167   5.424   5.289
 1209SOL    HW1 4526   6.161   5.362   5.368
 1209SOL    HW2 4527   6.263   5.436   5.264
 1210SOL     OW 4528   3.786   0.110   2.810
 1210SOL    HW1 4529   3.852   0.096   2.884
 1210SOL    HW2 4530   3.804   0.045   2.736
 1211SOL     OW 4531   1.125   3.286   4.021
 1211SOL    HW1 4532   1.100   3.193   4.049
 1211SOL    HW2 4533   1.143   3.287   3.923
 1212SOL     OW 4534   1.199   3.211   6.047
 1212SOL    HW1 4535   1.238   3.121   6.066
 1212SOL    HW2 4536   1.210   3.232   5.950
 1213SOL     OW 4537   6.390   2.723   5.158
 1213SOL    HW1 4538   6.319   2.682   5.216
 1213SOL    HW2 4539   6.349   2.795   5.101
 1214SOL     OW 4540   1.723   3.407   4.959
 1214SOL    HW1 4541   1.822   3.419   4.970
 1214SOL    HW2 4542   1.704   3.365   4.870
 1215SOL     OW 4543   2.192   4.675   2.538
 1215SOL    HW1 4544   2.227   4.706   2.449
 1215SOL    HW2 4545   2.251   4.710   2.610
 1216SOL     OW 4546   1.435   6.528   1.396
 1216SOL    HW1 4547   1.468   6.480   1.314
 1216SOL    HW2 4548   1.428   6.463   1.472
 1217SOL     OW 4549   1.278   6.455   6.813
 1217SOL    HW1 4550   1.373   6.479   6.794
 1217SOL    HW2 4551   1.220   6.535   6.800
 1218SOL     OW 4552   1.182   3.350   5.338
 1218SOL    HW1 4553   1.158   3.307   5.251
 1218SOL    HW2 4554   1.110   3.332   5.405
 1219SOL     OW 4555   4.750   5.295   0.346
 1219SOL    HW1 4556   4.770   5.367   0.414
 1219SOL    HW2 4557   4.744   5.336   0.255
 1220SOL     OW 4558   5.701   3.528   2.775
 1220SOL    HW1 4559   5.734   3.501   2.866
 1220SOL    HW2 4560   5.602   3.516   2.771
 1221SOL     OW 4561   5.811   4.111   0.023
 1221SOL    HW1 4562   5.872   4.060   6.991
 1221SOL    HW2 4563   5.783   4.196   7.007
 1222SOL     OW 4564   6.790   6.688   0.744
 1222SOL    HW1 4565   6.860   6.729   0.804
 1222SOL    HW2 4566   6.829   6.611   0.695
 1223SOL     OW 4567   6.026   6.898   6.700
 1223SOL    HW1 4568   5.943   6.943   6.669
 1223SOL    HW2 4569   6.102   6.964   6.700
 1224SOL     OW 4570   4.163   6.003   0.097
 1224SOL    HW1 4571   4.177   6.076   0.164
 1224SOL    HW2 4572   4.251   5.975   0.059
 1225SOL     OW 4573   3.963   1.576   0.875
 1225SOL    HW1 4574   3.969   1.652   0.940
 1225SOL    HW2 4575   3.899   1.600   0.801
 1226SOL     OW 4576   6.143   6.384   0.970
 1226SOL    HW1 4577   6.195   6.380   1.055
 1226SOL    HW2 4578   6.205   6.384   0.892
 1227SOL     OW 4579   5.718   4.543   5.761
 1227SOL    HW1 4580   5.791   4.581   5.818
 1227SOL    HW2 4581   5.714   4.592   5.674
 1228SOL     OW 4582   3.816   3.023   2.049
 1228SOL    HW1 4583   3.748   2.967   2.002
 1228SOL    HW2 4584   3.777   3.113   2.069
 1229SOL     OW 4585   1.473   6.655   2.171
 1229SOL    HW1 4586   1.548   6.655   2.106
 1229SOL    HW2 4587   1.390   6.624   2.126
 1230SOL     OW 4588   5.473   5.294   2.810
 1230SOL    HW1 4589   5.435   5.387   2.812
 1230SOL    HW2 4590   5.527   5.283   2.726
 1231SOL     OW 4591   1.847   2.791   6.507
 1231SOL    HW1 4592   1.805   2.732   6.575
 1231SOL    HW2 4593   1.827   2.886   6.529
 1232SOL     OW 4594   3.865   1.024   4.980
 1232SOL    HW1 4595   3.770   1.058   4.983
 1232SOL    HW2 4596   3.896   1.022   4.885
 1233SOL     OW 4597   1.280   4.628   3.657
 1233SOL    HW1 4598   1.362   4.625   3.600
 1233SOL    HW2 4599   1.204   4.586   3.607
 1234SOL     OW 4600   6.827   3.346   6.658
 1234SOL    HW1 4601   6.912   3.344   6.711
 1234SOL    HW2 4602   6.789   3.254   6.652
 1235SOL     OW 4603   6.118   4.994   0.204
 1235SOL    HW1 4604   6.186   4.923   0.187
 1235SOL    HW2 4605   6.039   4.980   0.144
 1236SOL     OW 4606   3.092   1.407   0.018
 1236SOL    HW1 4607   3.087   1.379   6.952
 1236SOL    HW2 4608   3.008   1.382   0.066
 1237SOL     OW 4609   1.357   0.692   4.666
 1237SOL    HW1 4610   1.410   0.777   4.661
 1237SOL    HW2 4611   1.383   0.642   4.748
 1238SOL     OW 4612   0.459   0.113   3.114
 1238SOL    HW1 4613   0.462   0.087   3.017
 1238SOL    HW2 4614   0.464   0.213   3.121
 1239SOL     OW 4615   7.028   5.259   4.458
 1239SOL    HW1 4616   7.025   5.237   4.555
 1239SOL    HW2 4617   6.953   5.211   4.411
 1240SOL     OW 4618   5.902   5.615   3.225
 1240SOL    HW1 4619   5.924   5.643   3.132
 1240SOL    HW2 4620   5.887   5.696   3.282
 1241SOL     OW 4621   6.975   5.512   4.356
 1241SOL    HW1 4622   6.994   5.415   4.366
 1241SOL    HW2 4623   6.909   5.526   4.282
 1242SOL     OW 4624   1.116   3.400   6.973
 1242SOL    HW1 4625   1.100   3.309   7.012
 1242SOL    HW2 4626   1.203   3.401   6.925
 1243SOL     OW 4627   0.946   3.640   5.715
 1243SOL    HW1 4628   0.987   3.696   5.643
 1243SOL    HW2 4629   0.995   3.655   5.801
 1244SOL     OW 4630   5.650   6.622   5.337
 1244SOL    HW1 4631   5.604   6.592   5.253
 1244SOL    HW2 4632   5.609   6.707   5.369
 1245SOL     OW 4633   5.241   5.714   1.166
 1245SOL    HW1 4634   5.249   5.746   1.072
 1245SOL    HW2 4635   5.280   5.782   1.228
 1246SOL     OW 4636   4.828   1.370   0.860
 1246SOL    HW1 4637   4.740   1.354   0.816
 1246SOL    HW2 4638   4.874   1.282   0.874
 1247SOL     OW 4639   6.622   6.860   3.846
 1247SOL    HW1 4640   6.607   6.762   3.859
 1247SOL    HW2 4641   6.669   6.875   3.759
 1248SOL     OW 4642   0.043   6.659   4.653
 1248SOL    HW1 4643   7.023   6.633   4.570
 1248SOL    HW2 4644   7.015   6.720   4.708
 1249SOL     OW 4645   0.433   4.735   1.283
 1249SOL    HW1 4646   0.436   4.747   1.383
 1249SOL    HW2 4647   0.516   4.688   1.253
 1250SOL     OW 4648   5.596   4.068   5.078
 1250SOL    HW1 4649   5.555   4.151   5.041
 1250SOL    HW2 4650   5.691   4.062   5.049
 1251SOL     OW 4651   2.084   1.198   3.079
 1251SOL    HW1 4652   2.138   1.114   3.073
 1251SOL    HW2 4653   2.141   1.275   3.052
 1252SOL     OW 4654   2.934   5.320   0.114
 1252SOL    HW1 4655   2.913   5.327   0.016
 1252SOL    HW2 4656   2.989   5.399   0.142
 1253SOL     OW 4657   3.284   0.398   0.748
 1253SOL    HW1 4658   3.325   0.425   0.661
 1253SOL    HW2 4659   3.203   0.454   0.766
 1254SOL     OW 4660   6.219   1.827   2.854
 1254SOL    HW1 4661   6.292   1.788   2.909
 1254SOL    HW2 4662   6.245   1.825   2.757
 1255SOL     OW 4663   5.772   2.493   4.895
 1255SOL    HW1 4664   5.693   2.552   4.881
 1255SOL    HW2 4665   5.747   2.415   4.952
 1256SOL     OW 4666   7.009   5.891   4.088
 1256SOL    HW1 4667   6.950   5.930   4.017
 1256SOL    HW2 4668   0.076   5.899   4.060
 1257SOL     OW 4669   0.826   4.505   3.744
 1257SOL    HW1 4670   0.862   4.550   3.826
 1257SOL    HW2 4671   0.742   4.456   3.766
 1258SOL     OW 4672   2.188   6.228   3.501
 1258SOL    HW1 4673   2.129   6.260   3.427
 1258SOL    HW2 4674   2.133   6.183   3.571
 1259SOL     OW 4675   4.457   0.458   5.130
 1259SOL    HW1 4676   4.487   0.503   5.214
 1259SOL    HW2 4677   4.414   0.525   5.069
 1260SOL     OW 4678   2.384   0.614   2.047
 1260SOL    HW1 4679   2.423   0.667   2.122
 1260SOL    HW2 4680   2.442   0.535   2.028
 1261SOL     OW 4681   0.208   3.511   6.643
 1261SOL    HW1 4682   0.151   3.489   6.564
 1261SOL    HW2 4683   0.301   3.476   6.628
 1262SOL     OW 4684   4.856   5.063   1.182
 1262SOL    HW1 4685   4.762   5.098   1.182
 1262SOL    HW2 4686   4.920   5.139   1.177
 1263SOL     OW 4687   6.580   2.106   0.996
 1263SOL    HW1 4688   6.626   2.063   0.919
 1263SOL    HW2 4689   6.511   2.045   1.033
 1264SOL     OW 4690   0.783   4.596   3.492
 1264SOL    HW1 4691   0.861   4.651   3.462
 1264SOL    HW2 4692   0.789   4.582   3.591
 1265SOL     OW 4693   0.470   3.468   4.540
 1265SOL    HW1 4694   0.419   3.400   4.486
 1265SOL    HW2 4695   0.533   3.517   4.480
 1266SOL     OW 4696   2.984   0.991   5.477
 1266SOL    HW1 4697   2.963   1.037   5.391
 1266SOL    HW2 4698   3.006   0.895   5.459
 1267SOL     OW 4699   0.030   5.389   2.848
 1267SOL    HW1 4700   0.103   5.404   2.781
 1267SOL    HW2 4701   7.014   5.302   2.830
 1268SOL     OW 4702   5.697   2.289   6.691
 1268SOL    HW1 4703   5.691   2.386   6.668
 1268SOL    HW2 4704   5.608   2.246   6.677
 1269SOL     OW 4705   6.768   6.630   4.907
 1269SOL    HW1 4706   6.791   6.714   4.857
 1269SOL    HW2 4707   6.698   6.650   4.976
 1270SOL     OW 4708   1.792   4.002   4.306
 1270SOL    HW1 4709   1.764   4.080   4.361
 1270SOL    HW2 4710   1.851   3.942   4.360
 1271SOL     OW 4711   3.390   1.808   3.083
 1271SOL    HW1 4712   3.316   1.811   3.151
 1271SOL    HW2 4713   3.353   1.835   2.993
 1272SOL     OW 4714   0.642   5.801   0.988
 1272SOL    HW1 4715   0.624   5.710   1.025
 1272SOL    HW2 4716   0.715   5.796   0.921
 1273SOL     OW 4717   2.397   4.383   0.607
 1273SOL    HW1 4718   2.436   4.369   0.698
 1273SOL    HW2 4719   2.433   4.314   0.545
 1274SOL     OW 4720   0.145   3.051   1.659
 1274SOL    HW1 4721   0.175   2.960   1.688
 1274SOL    HW2 4722   0.205   3.120   1.700
 1275SOL     OW 4723   4.434   0.561   3.805
 1275SOL    HW1 4724   4.517   0.578   3.859
 1275SOL    HW2 4725   4.460   0.529   3.714
 1276SOL     OW 4726   6.770   0.541   2.802
 1276SOL    HW1 4727   6.755   0.465   2.864
 1276SOL    HW2 4728   6.704   0.614   2.821
 1277SOL     OW 4729   0.343   0.970   4.901
 1277SOL    HW1 4730   0.319   0.884   4.947
 1277SOL    HW2 4731   0.404   1.024   4.960
 1278SOL     OW 4732   2.051   1.780   5.645
 1278SOL    HW1 4733   1.996   1.862   5.662
 1278SOL    HW2 4734   1.992   1.700   5.637
 1279SOL     OW 4735   2.667   6.677   0.450
 1279SOL    HW1 4736   2.668   6.749   0.520
 1279SOL    HW2 4737   2.579   6.629   0.453
 1280SOL     OW 4738   2.196   0.627   2.724
 1280SOL    HW1 4739   2.121   0.586   2.777
 1280SOL    HW2 4740   2.218   0.569   2.647
 1281SOL     OW 4741   1.347   5.949   3.057
 1281SOL    HW1 4742   1.365   6.029   3.115
 1281SOL    HW2 4743   1.253   5.951   3.026
 1282SOL     OW 4744   0.276   1.332   0.983
 1282SOL    HW1 4745   0.337   1.280   0.923
 1282SOL    HW2 4746   0.248   1.275   1.060
 1283SOL     OW 4747   5.561   3.748   5.657
 1283SOL    HW1 4748   5.510   3.671   5.620
 1283SOL    HW2 4749   5.517   3.781   5.740
 1284SOL     OW 4750   3.115   2.497   1.690
 1284SOL    HW1 4751   3.065   2.446   1.760
 1284SOL    HW2 4752   3.166   2.434   1.632
 1285SOL     OW 4753   5.661   3.160   6.367
 1285SOL    HW1 4754   5.614   3.145   6.454
 1285SOL    HW2 4755   5.666   3.073   6.316
 1286SOL     OW 4756   5.054   4.614   2.305
 1286SOL    HW1 4757   4.981   4.680   2.287
 1286SOL    HW2 4758   5.051   4.587   2.401
 1287SOL     OW 4759   6.180   4.826   6.326
 1287SOL    HW1 4760   6.151   4.897   6.261
 1287SOL    HW2 4761   6.101   4.772   6.354
 1288SOL     OW 4762   0.269   3.150   0.487
 1288SOL    HW1 4763   0.349   3.166   0.428
 1288SOL    HW2 4764   0.208   3.228   0.482
 1289SOL     OW 4765   0.340   6.125   1.689
 1289SOL    HW1 4766   0.417   6.166   1.639
 1289SOL    HW2 4767   0.314   6.185   1.765
 1290SOL     OW 4768   0.249   0.356   6.575
 1290SOL    HW1 4769   0.253   0.362   6.675
 1290SOL    HW2 4770   0.299   0.433   6.535
 1291SOL     OW 4771   2.092   4.750   6.380
 1291SOL    HW1 4772   2.174   4.781   6.427
 1291SOL    HW2 4773   2.017   4.814   6.398
 1292SOL     OW 4774   6.941   4.459   1.815
 1292SOL    HW1 4775   7.014   4.475   1.748
 1292SOL    HW2 4776   6.969   4.498   1.903
 1293SOL     OW 4777   2.506   0.904   6.172
 1293SOL    HW1 4778   2.434   0.875   6.109
 1293SOL    HW2 4779   2.570   0.964   6.124
 1294SOL     OW 4780   6.992   3.188   1.862
 1294SOL    HW1 4781   6.934   3.111   1.835
 1294SOL    HW2 4782   0.042   3.193   1.802
 1295SOL     OW 4783   6.302   4.022   2.772
 1295SOL    HW1 4784   6.368   4.097   2.761
 1295SOL    HW2 4785   6.245   4.016   2.690
 1296SOL     OW 4786   3.500   1.524   6.274
 1296SOL    HW1 4787   3.426   1.473   6.229
 1296SOL    HW2 4788   3.588   1.483   6.251
 1297SOL     OW 4789   5.954   1.841   5.645
 1297SOL    HW1 4790   5.875   1.901   5.655
 1297SOL    HW2 4791   5.932   1.750   5.679
 1298SOL     OW 4792   6.176   3.141   4.063
 1298SOL    HW1 4793   6.101   3.157   3.999
 1298SOL    HW2 4794   6.159   3.056   4.113
 1299SOL     OW 4795   2.130   4.254   3.223
 1299SOL    HW1 4796   2.202   4.323   3.213
 1299SOL    HW2 4797   2.172   4.165   3.243
 1300SOL     OW 4798   2.903   3.654   2.040
 1300SOL    HW1 4799   2.910   3.693   2.132
 1300SOL    HW2 4800   2.837   3.707   1.986
 1301SOL     OW 4801   1.326   6.621   2.537
 1301SOL    HW1 4802   1.305   6.687   2.608
 1301SOL    HW2 4803   1.384   6.664   2.468
 1302SOL     OW 4804   2.088   6.907   4.519
 1302SOL    HW1 4805   2.175   6.922   4.566
 1302SOL    HW2 4806   2.016   6.959   4.566
 1303SOL     OW 4807   3.850   1.256   0.918
 1303SOL    HW1 4808   3.924   1.190   0.909
 1303SOL    HW2 4809   3.865   1.332   0.854
 1304SOL     OW 4810   1.221   0.794   6.280
 1304SOL    HW1 4811   1.157   0.864   6.314
 1304SOL    HW2 4812   1.277   0.833   6.207
 1305SOL     OW 4813   5.237   5.944   4.852
 1305SOL    HW1 4814   5.248   6.041   4.830
 1305SOL    HW2 4815   5.324   5.908   4.886
 1306SOL     OW 4816   1.211   3.620   5.271
 1306SOL    HW1 4817   1.166   3.627   5.182
 1306SOL    HW2 4818   1.194   3.530   5.311
 1307SOL     OW 4819   1.701   3.063   5.165
 1307SOL    HW1 4820   1.702   3.089   5.261
 1307SOL    HW2 4821   1.786   3.093   5.121
 1308SOL     OW 4822   3.919   6.119   4.436
 1308SOL    HW1 4823   4.002   6.089   4.388
 1308SOL    HW2 4824   3.843   6.057   4.414
 1309SOL     OW 4825   5.805   3.318   5.444
 1309SOL    HW1 4826   5.816   3.289   5.539
 1309SOL    HW2 4827   5.708   3.328   5.423
 1310SOL     OW 4828   5.660   3.684   4.904
 1310SOL    HW1 4829   5.698   3.664   4.813
 1310SOL    HW2 4830   5.609   3.770   4.901
 1311SOL     OW 4831   5.661   6.972   4.056
 1311SOL    HW1 4832   5.625   6.942   4.144
 1311SOL    HW2 4833   5.685   0.040   4.062
 1312SOL     OW 4834   0.687   1.038   6.580
 1312SOL    HW1 4835   0.657   1.126   6.544
 1312SOL    HW2 4836   0.786   1.030   6.571
 1313SOL     OW 4837   2.834   5.707   5.369
 1313SOL    HW1 4838   2.933   5.695   5.360
 1313SOL    HW2 4839   2.800   5.650   5.445
 1314SOL     OW 4840   1.885   1.406   5.885
 1314SOL    HW1 4841   1.855   1.498   5.858
 1314SOL    HW2 4842   1.966   1.414   5.944
 1315SOL     OW 4843   1.343   1.334   0.715
 1315SOL    HW1 4844   1.267   1.308   0.655
 1315SOL    HW2 4845   1.334   1.285   0.802
 1316SOL     OW 4846   1.887   6.826   3.050
 1316SOL    HW1 4847   1.945   6.869   2.981
 1316SOL    HW2 4848   1.847   6.896   3.109
 1317SOL     OW 4849   0.847   4.514   4.901
 1317SOL    HW1 4850   0.833   4.419   4.872
 1317SOL    HW2 4851   0.759   4.561   4.906
 1318SOL     OW 4852   0.633   1.094   0.536
 1318SOL    HW1 4853   0.689   1.027   0.487
 1318SOL    HW2 4854   0.539   1.060   0.543
 1319SOL     OW 4855   6.143   1.072   0.141
 1319SOL    HW1 4856   6.086   1.032   0.070
 1319SOL    HW2 4857   6.235   1.031   0.138
 1320SOL     OW 4858   5.580   4.311   0.331
 1320SOL    HW1 4859   5.526   4.369   0.392
 1320SOL    HW2 4860   5.590   4.356   0.242
 1321SOL     OW 4861   4.562   3.110   6.962
 1321SOL    HW1 4862   4.508   3.193   6.949
 1321SOL    HW2 4863   4.517   3.051   0.001
 1322SOL     OW 4864   5.545   0.970   2.930
 1322SOL    HW1 4865   5.576   1.065   2.932
 1322SOL    HW2 4866   5.448   0.965   2.954
 1323SOL     OW 4867   5.641   1.504   5.476
 1323SOL    HW1 4868   5.694   1.496   5.561
 1323SOL    HW2 4869   5.681   1.444   5.407
 1324SOL     OW 4870   1.740   2.142   2.226
 1324SOL    HW1 4871   1.745   2.204   2.305
 1324SOL    HW2 4872   1.808   2.070   2.235
 1325SOL     OW 4873   1.807   0.167   2.911
 1325SOL    HW1 4874   1.907   0.173   2.903
 1325SOL    HW2 4875   1.771   0.256   2.938
 1326SOL     OW 4876   4.896   2.580   4.691
 1326SOL    HW1 4877   4.879   2.679   4.696
 1326SOL    HW2 4878   4.955   2.553   4.766
 1327SOL     OW 4879   2.193   5.145   2.844
 1327SOL    HW1 4880   2.198   5.244   2.826
 1327SOL    HW2 4881   2.190   5.130   2.942
 1328SOL     OW 4882   1.268   2.059   6.980
 1328SOL    HW1 4883   1.187   2.038   6.926
 1328SOL    HW2 4884   1.350   2.043   6.925
 1329SOL     OW 4885   6.845   1.346   0.967
 1329SOL    HW1 4886   6.820   1.265   0.913
 1329SOL    HW2 4887   6.779   1.419   0.951
 1330SOL     OW 4888   6.620   6.849   0.900
 1330SOL    HW1 4889   6.682   6.788   0.850
 1330SOL    HW2 4890   6.537   6.799   0.925
 1331SOL     OW 4891   5.377   1.370   2.926
 1331SOL    HW1 4892   5.473   1.393   2.917
 1331SOL    HW2 4893   5.325   1.413   2.853
 1332SOL     OW 4894   3.921   0.830   1.045
 1332SOL    HW1 4895   3.902   0.738   1.079
 1332SOL    HW2 4896   3.859   0.851   0.969
 1333SOL     OW 4897   3.600   4.212   5.141
 1333SOL    HW1 4898   3.697   4.195   5.153
 1333SOL    HW2 4899   3.563   4.148   5.073
 1334SOL     OW 4900   1.510   2.747   5.311
 1334SOL    HW1 4901   1.543   2.787   5.396
 1334SOL    HW2 4902   1.522   2.648   5.314
 1335SOL     OW 4903   2.368   6.460   2.426
 1335SOL    HW1 4904   2.441   6.400   2.459
 1335SOL    HW2 4905   2.403   6.517   2.351
 1336SOL     OW 4906   1.301   1.473   0.012
 1336SOL    HW1 4907   1.341   1.443   6.955
 1336SOL    HW2 4908   1.256   1.561   7.028
 1337SOL     OW 4909   1.660   2.829   5.554
 1337SOL    HW1 4910   1.745   2.875   5.526
 1337SOL    HW2 4911   1.633   2.861   5.644
 1338SOL     OW 4912   4.478   3.747   6.323
 1338SOL    HW1 4913   4.465   3.667   6.381
 1338SOL    HW2 4914   4.531   3.816   6.373
 1339SOL     OW 4915   6.984   5.142   6.700
 1339SOL    HW1 4916   6.935   5.057   6.719
 1339SOL    HW2 4917   0.013   5.130   6.619
 1340SOL     OW 4918   0.875   1.970   1.054
 1340SOL    HW1 4919   0.901   1.984   0.959
 1340SOL    HW2 4920   0.926   1.894   1.092
 1341SOL     OW 4921   4.134   1.196   5.057
 1341SOL    HW1 4922   4.042   1.175   5.024
 1341SOL    HW2 4923   4.148   1.295   5.054
 1342SOL     OW 4924   1.694   5.843   6.157
 1342SOL    HW1 4925   1.641   5.759   6.169
 1342SOL    HW2 4926   1.741   5.840   6.068
 1343SOL     OW 4927   3.514   6.575   2.178
 1343SOL    HW1 4928   3.449   6.644   2.147
 1343SOL    HW2 4929   3.589   6.620   2.228
 1344SOL     OW 4930   6.521   2.171   3.053
 1344SOL    HW1 4931   6.599   2.146   3.110
 1344SOL    HW2 4932   6.555   2.206   2.965
 1345SOL     OW 4933   0.656   1.319   3.723
 1345SOL    HW1 4934   0.669   1.281   3.631
 1345SOL    HW2 4935   0.742   1.312   3.774
 1346SOL     OW 4936   0.938   6.649   3.109
 1346SOL    HW1 4937   0.907   6.618   3.199
 1346SOL    HW2 4938   0.869   6.709   3.069
 1347SOL     OW 4939   6.606   6.289   3.739
 1347SOL    HW1 4940   6.562   6.378   3.754
 1347SOL    HW2 4941   6.590   6.230   3.818
 1348SOL     OW 4942   6.000   5.101   4.216
 1348SOL    HW1 4943   5.978   5.006   4.192
 1348SOL    HW2 4944   6.071   5.135   4.155
 1349SOL     OW 4945   4.684   2.515   6.884
 1349SOL    HW1 4946   4.618   2.444   6.860
 1349SOL    HW2 4947   4.772   2.494   6.842
 1350SOL     OW 4948   3.648   4.825   6.685
 1350SOL    HW1 4949   3.620   4.778   6.601
 1350SOL    HW2 4950   3.578   4.812   6.755
 1351SOL     OW 4951   1.324   0.485   3.235
 1351SOL    HW1 4952   1.377   0.535   3.303
 1351SOL    HW2 4953   1.302   0.547   3.159
 1352SOL     OW 4954   6.869   0.519   3.680
 1352SOL    HW1 4955   6.783   0.559   3.646
 1352SOL    HW2 4956   6.927   0.495   3.602
 1353SOL     OW 4957   6.507   4.671   5.493
 1353SOL    HW1 4958   6.545   4.669   5.586
 1353SOL    HW2 4959   6.431   4.606   5.487
 1354SOL     OW 4960   6.503   0.993   1.192
 1354SOL    HW1 4961   6.451   1.019   1.110
 1354SOL    HW2 4962   6.444   0.999   1.272
 1355SOL     OW 4963   5.147   4.117   0.817
 1355SOL    HW1 4964   5.236   4.097   0.777
 1355SOL    HW2 4965   5.079   4.127   0.743
 1356SOL     OW 4966   3.679   4.133   3.095
 1356SOL    HW1 4967   3.760   4.114   3.039
 1356SOL    HW2 4968   3.600   4.087   3.055
 1357SOL     OW 4969   2.831   3.225   6.071
 1357SOL    HW1 4970   2.818   3.140   6.122
 1357SOL    HW2 4971   2.841   3.205   5.974
 1358SOL     OW 4972   2.179   2.907   6.450
 1358SOL    HW1 4973   2.168   2.988   6.391
 1358SOL    HW2 4974   2.091   2.880   6.487
 1359SOL     OW 4975   6.392   3.578   1.788
 1359SOL    HW1 4976   6.345   3.647   1.732
 1359SOL    HW2 4977   6.491   3.583   1.772
 1360SOL     OW 4978   3.934   3.532   2.611
 1360SOL    HW1 4979   3.878   3.475   2.551
 1360SOL    HW2 4980   3.978   3.604   2.557
 1361SOL     OW 4981   0.873   0.195   5.829
 1361SOL    HW1 4982   0.862   0.224   5.733
 1361SOL    HW2 4983   0.891   0.097   5.832
 1362SOL     OW 4984   2.887   3.398   5.466
 1362SOL    HW1 4985   2.834   3.316   5.486
 1362SOL    HW2 4986   2.985   3.377   5.476
 1363SOL     OW 4987   6.747   6.167   3.501
 1363SOL    HW1 4988   6.700   6.158   3.589
 1363SOL    HW2 4989   6.840   6.129   3.509
 1364SOL     OW 4990   6.914   3.144   0.634
 1364SOL    HW1 4991   6.970   3.137   0.717
 1364SOL    HW2 4992   6.896   3.240   0.613
 1365SOL     OW 4993   1.364   3.893   5.699
 1365SOL    HW1 4994   1.317   3.970   5.742
 1365SOL    HW2 4995   1.339   3.888   5.603
 1366SOL     OW 4996   7.023   3.031   1.254
 1366SOL    HW1 4997   7.010   3.129   1.267
 1366SOL    HW2 4998   0.076   3.015   1.199
 1367SOL     OW 4999   1.469   5.089   3.751
 1367SOL    HW1 5000   1.545   5.107   3.689
 1367SOL    HW2 5001   1.455   5.168   3.811
 1368SOL     OW 5002   6.507   6.576   4.383
 1368SOL    HW1 5003   6.570   6.610   4.313
 1368SOL    HW2 5004   6.417   6.618   4.370
 1369SOL     OW 5005   2.250   5.949   1.356
 1369SOL    HW1 5006   2.183   5.912   1.421
 1369SOL    HW2 5007   2.226   6.043   1.334
 1370SOL     OW 5008   0.366   2.047   3.681
 1370SOL    HW1 5009   0.340   2.133   3.725
 1370SOL    HW2 5010   0.394   1.981   3.751
 1371SOL     OW 5011   5.368   1.128   4.808
 1371SOL    HW1 5012   5.384   1.039   4.851
 1371SOL    HW2 5013   5.270   1.141   4.794
 1372SOL     OW 5014   6.379   2.482   0.823
 1372SOL    HW1 5015   6.433   2.526   0.751
 1372SOL    HW2 5016   6.311   2.547   0.858
 1373SOL     OW 5017   4.769   2.494   0.942
 1373SOL    HW1 5018   4.742   2.562   1.009
 1373SOL    HW2 5019   4.804   2.413   0.988
 1374SOL     OW 5020   5.410   4.064   0.708
 1374SOL    HW1 5021   5.485   4.085   0.644
 1374SOL    HW2 5022   5.447   4.016   0.788
 1375SOL     OW 5023   6.839   5.820   6.273
 1375SOL    HW1 5024   6.842   5.919   6.258
 1375SOL    HW2 5025   6.866   5.773   6.188
 1376SOL     OW 5026   3.012   4.487   5.877
 1376SOL    HW1 5027   2.951   4.566   5.889
 1376SOL    HW2 5028   3.025   4.469   5.779
 1377SOL     OW 5029   1.234   2.543   4.325
 1377SOL    HW1 5030   1.286   2.463   4.296
 1377SOL    HW2 5031   1.270   2.577   4.412
 1378SOL     OW 5032   4.323   2.274   4.928
 1378SOL    HW1 5033   4.270   2.348   4.970
 1378SOL    HW2 5034   4.368   2.221   4.999
 1379SOL     OW 5035   5.063   5.713   2.093
 1379SOL    HW1 5036   5.032   5.648   2.024
 1379SOL    HW2 5037   5.041   5.678   2.184
 1380SOL     OW 5038   6.648   6.443   2.516
 1380SOL    HW1 5039   6.579   6.465   2.447
 1380SOL    HW2 5040   6.706   6.523   2.531
 1381SOL     OW 5041   5.826   2.084   6.122
 1381SOL    HW1 5042   5.816   1.985   6.133
 1381SOL    HW2 5043   5.812   2.128   6.211
 1382SOL     OW 5044   4.515   3.293   1.502
 1382SOL    HW1 5045   4.572   3.370   1.472
 1382SOL    HW2 5046   4.426   3.327   1.532
 1383SOL     OW 5047   1.471   6.292   1.575
 1383SOL    HW1 5048   1.450   6.211   1.521
 1383SOL    HW2 5049   1.438   6.279   1.669
 1384SOL     OW 5050   4.483   7.013   0.941
 1384SOL    HW1 5051   4.566   6.984   0.989
 1384SOL    HW2 5052   4.492   6.992   0.844
 1385SOL     OW 5053   2.318   5.398   3.878
 1385SOL    HW1 5054   2.370   5.448   3.948
 1385SOL    HW2 5055   2.348   5.303   3.875
 1386SOL     OW 5056   2.860   6.477   3.682
 1386SOL    HW1 5057   2.912   6.530   3.748
 1386SOL    HW2 5058   2.840   6.533   3.602
 1387SOL     OW 5059   3.628   5.896   1.530
 1387SOL    HW1 5060   3.706   5.839   1.505
 1387SOL    HW2 5061   3.618   5.970   1.463
 1388SOL     OW 5062   6.297   6.610   1.188
 1388SOL    HW1 5063   6.367   6.646   1.248
 1388SOL    HW2 5064   6.338   6.582   1.101
 1389SOL     OW 5065   5.860   1.419   2.999
 1389SOL    HW1 5066   5.830   1.513   3.016
 1389SOL    HW2 5067   5.898   1.413   2.907
 1390SOL     OW 5068   0.458   3.852   0.087
 1390SOL    HW1 5069   0.534   3.860   0.022
 1390SOL    HW2 5070   0.372   3.860   0.037
 1391SOL     OW 5071   6.640   0.732   3.885
 1391SOL    HW1 5072   6.592   0.794   3.948
 1391SOL    HW2 5073   6.712   0.782   3.838
 1392SOL     OW 5074   4.845   5.777   6.064
 1392SOL    HW1 5075   4.786   5.779   6.145
 1392SOL    HW2 5076   4.844   5.686   6.024
 1393SOL     OW 5077   6.014   5.389   5.009
 1393SOL    HW1 5078   6.028   5.422   5.102
 1393SOL    HW2 5079   5.917   5.374   4.993
 1394SOL     OW 5080   3.218   5.850   4.824
 1394SOL    HW1 5081   3.302   5.857   4.878
 1394SOL    HW2 5082   3.141   5.831   4.885
 1395SOL     OW 5083   2.375   4.699   6.179
 1395SOL    HW1 5084   2.404   4.793   6.161
 1395SOL    HW2 5085   2.276   4.692   6.174
 1396SOL     OW 5086   2.048   0.991   4.314
 1396SOL    HW1 5087   2.123   0.955   4.257
 1396SOL    HW2 5088   2.012   0.917   4.372
 1397SOL     OW 5089   0.119   0.311   3.887
 1397SOL    HW1 5090   0.082   0.218   3.895
 1397SOL    HW2 5091   0.137   0.331   3.791
 1398SOL     OW 5092   2.165   1.034   5.991
 1398SOL    HW1 5093   2.180   1.055   6.088
 1398SOL    HW2 5094   2.108   1.105   5.950
 1399SOL     OW 5095   4.051   6.934   0.945
 1399SOL    HW1 5096   4.128   6.954   1.006
 1399SOL    HW2 5097   4.003   6.853   0.978
 1400SOL     OW 5098   6.765   1.809   2.793
 1400SOL    HW1 5099   6.792   1.838   2.701
 1400SOL    HW2 5100   6.808   1.869   2.861
 1401SOL     OW 5101   6.942   1.588   4.619
 1401SOL    HW1 5102   0.002   1.617   4.654
 1401SOL    HW2 5103   6.883   1.563   4.696
 1402SOL     OW 5104   0.854   4.373   0.659
 1402SOL    HW1 5105   0.862   4.466   0.695
 1402SOL    HW2 5106   0.758   4.348   0.651
 1403SOL     OW 5107   2.870   1.579   1.856
 1403SOL    HW1 5108   2.970   1.587   1.852
 1403SOL    HW2 5109   2.833   1.582   1.763
 1404SOL     OW 5110   5.357   6.717   0.012
 1404SOL    HW1 5111   5.453   6.695   0.030
 1404SOL    HW2 5112   5.315   6.755   0.094
 1405SOL     OW 5113   2.076   3.357   1.375
 1405SOL    HW1 5114   2.143   3.414   1.421
 1405SOL    HW2 5115   2.054   3.278   1.432
 1406SOL     OW 5116   1.485   5.518   1.526
 1406SOL    HW1 5117   1.474   5.528   1.427
 1406SOL    HW2 5118   1.582   5.518   1.548
 1407SOL     OW 5119   0.766   2.090   2.320
 1407SOL    HW1 5120   0.708   2.015   2.287
 1407SOL    HW2 5121   0.840   2.053   2.377
 1408SOL     OW 5122   5.066   0.924   6.021
 1408SOL    HW1 5123   5.005   0.938   6.099
 1408SOL    HW2 5124   5.105   0.832   6.025
 1409SOL     OW 5125   0.666   6.919   5.088
 1409SOL    HW1 5126   0.574   6.932   5.053
 1409SOL    HW2 5127   0.677   6.970   5.174
 1410SOL     OW 5128   2.202   3.882   6.627
 1410SOL    HW1 5129   2.241   3.866   6.536
 1410SOL    HW2 5130   2.259   3.948   6.676
 1411SOL     OW 5131   2.808   6.695   2.512
 1411SOL    HW1 5132   2.822   6.678   2.415
 1411SOL    HW2 5133   2.868   6.635   2.565
 1412SOL     OW 5134   0.534   2.374   1.108
 1412SOL    HW1 5135   0.468   2.388   1.034
 1412SOL    HW2 5136   0.535   2.454   1.167
 1413SOL     OW 5137   2.159   1.256   4.853
 1413SOL    HW1 5138   2.166   1.213   4.943
 1413SOL    HW2 5139   2.195   1.349   4.857
 1414SOL     OW 5140   2.517   0.630   1.047
 1414SOL    HW1 5141   2.487   0.709   0.994
 1414SOL    HW2 5142   2.582   0.660   1.118
 1415SOL     OW 5143   2.490   1.033   4.668
 1415SOL    HW1 5144   2.554   1.105   4.695
 1415SOL    HW2 5145   2.483   0.965   4.740
 1416SOL     OW 5146   4.451   4.567   4.387
 1416SOL    HW1 5147   4.448   4.595   4.483
 1416SOL    HW2 5148   4.389   4.625   4.333
 1417SOL     OW 5149   2.454   1.492   7.023
 1417SOL    HW1 5150   2.553   1.502   7.025
 1417SOL    HW2 5151   2.418   1.533   6.940
 1418SOL     OW 5152   3.270   3.774   3.762
 1418SOL    HW1 5153   3.266   3.868   3.726
 1418SOL    HW2 5154   3.245   3.710   3.690
 1419SOL     OW 5155   2.689   6.541   4.426
 1419SOL    HW1 5156   2.784   6.530   4.456
 1419SOL    HW2 5157   2.643   6.453   4.428
 1420SOL     OW 5158   2.147   6.929   1.543
 1420SOL    HW1 5159   2.096   7.003   1.498
 1420SOL    HW2 5160   2.176   6.862   1.474
 1421SOL     OW 5161   2.086   3.272   3.495
 1421SOL    HW1 5162   2.137   3.197   3.536
 1421SOL    HW2 5163   2.112   3.358   3.539
 1422SOL     OW 5164   2.172   3.908   1.457
 1422SOL    HW1 5165   2.083   3.945   1.428
 1422SOL    HW2 5166   2.196   3.945   1.546
 1423SOL     OW 5167   5.357   6.669   3.140
 1423SOL    HW1 5168   5.342   6.768   3.133
 1423SOL    HW2 5169   5.447   6.647   3.101
 1424SOL     OW 5170   6.756   3.979   4.467
 1424SOL    HW1 5171   6.819   3.953   4.394
 1424SOL    HW2 5172   6.712   4.065   4.444
 1425SOL     OW 5173   1.173   6.274   4.646
 1425SOL    HW1 5174   1.206   6.242   4.734
 1425SOL    HW2 5175   1.245   6.326   4.600
 1426SOL     OW 5176   1.059   2.199   5.659
 1426SOL    HW1 5177   1.029   2.140   5.583
 1426SOL    HW2 5178   1.047   2.150   5.745
 1427SOL     OW 5179   0.057   6.824   3.190
 1427SOL    HW1 5180   0.094   6.779   3.271
 1427SOL    HW2 5181   0.131   6.836   3.123
 1428SOL     OW 5182   5.499   2.804   0.542
 1428SOL    HW1 5183   5.546   2.887   0.512
 1428SOL    HW2 5184   5.471   2.751   0.461
 1429SOL     OW 5185   5.508   1.993   0.371
 1429SOL    HW1 5186   5.520   1.919   0.437
 1429SOL    HW2 5187   5.597   2.036   0.353
 1430SOL     OW 5188   1.716   4.711   4.273
 1430SOL    HW1 5189   1.775   4.772   4.326
 1430SOL    HW2 5190   1.622   4.716   4.308
 1431SOL     OW 5191   2.044   2.097   1.281
 1431SOL    HW1 5192   2.042   2.011   1.229
 1431SOL    HW2 5193   2.095   2.166   1.231
 1432SOL     OW 5194   3.536   1.572   2.832
 1432SOL    HW1 5195   3.615   1.573   2.894
 1432SOL    HW2 5196   3.452   1.587   2.884
 1433SOL     OW 5197   4.067   1.380   4.122
 1433SOL    HW1 5198   4.084   1.449   4.192
 1433SOL    HW2 5199   4.153   1.343   4.089
 1434SOL     OW 5200   6.742   1.137   5.881
 1434SOL    HW1 5201   6.807   1.067   5.912
 1434SOL    HW2 5202   6.772   1.172   5.792
 1435SOL     OW 5203   5.762   0.795   2.136
 1435SOL    HW1 5204   5.753   0.888   2.171
 1435SOL    HW2 5205   5.850   0.756   2.166
 1436SOL     OW 5206   6.288   3.858   0.542
 1436SOL    HW1 5207   6.291   3.943   0.489
 1436SOL    HW2 5208   6.328   3.874   0.632
 1437SOL     OW 5209   2.381   2.601   3.743
 1437SOL    HW1 5210   2.384   2.506   3.774
 1437SOL    HW2 5211   2.290   2.638   3.761
 1438SOL     OW 5212   2.963   6.890   1.265
 1438SOL    HW1 5213   3.050   6.930   1.235
 1438SOL    HW2 5214   2.968   6.791   1.257
 1439SOL     OW 5215   0.036   5.700   1.093
 1439SOL    HW1 5216   0.119   5.675   1.144
 1439SOL    HW2 5217   0.040   5.658   1.002
 1440SOL     OW 5218   3.156   4.023   0.657
 1440SOL    HW1 5219   3.126   3.941   0.609
 1440SOL    HW2 5220   3.093   4.042   0.732
 1441SOL     OW 5221   5.885   0.390   2.831
 1441SOL    HW1 5222   5.847   0.307   2.790
 1441SOL    HW2 5223   5.972   0.369   2.875
 1442SOL     OW 5224   6.680   5.696   6.968
 1442SOL    HW1 5225   6.660   5.634   6.893
 1442SOL    HW2 5226   6.737   5.650   0.007
 1443SOL     OW 5227   0.722   2.619   2.324
 1443SOL    HW1 5228   0.690   2.525   2.308
 1443SOL    HW2 5229   0.645   2.682   2.318
 1444SOL     OW 5230   5.516   6.294   0.570
 1444SOL    HW1 5231   5.454   6.229   0.613
 1444SOL    HW2 5232   5.464   6.364   0.523
 1445SOL     OW 5233   1.057   3.027   2.218
 1445SOL    HW1 5234   1.004   3.030   2.133
 1445SOL    HW2 5235   1.003   3.068   2.291
 1446SOL     OW 5236   6.145   0.711   6.597
 1446SOL    HW1 5237   6.203   0.714   6.515
 1446SOL    HW2 5238   6.106   0.619   6.606
 1447SOL     OW 5239   5.758   5.642   4.293
 1447SOL    HW1 5240   5.684   5.609   4.235
 1447SOL    HW2 5241   5.789   5.569   4.353
 1448SOL     OW 5242   6.634   3.034   5.189
 1448SOL    HW1 5243   6.623   2.937   5.167
 1448SOL    HW2 5244   6.730   3.059   5.180
 1449SOL     OW 5245   1.656   4.197   5.645
 1449SOL    HW1 5246   1.579   4.218   5.585
 1449SOL    HW2 5247   1.649   4.103   5.677
 1450SOL     OW 5248   1.113   2.000   0.208
 1450SOL    HW1 5249   1.020   2.034   0.221
 1450SOL    HW2 5250   1.145   2.026   0.116
 1451SOL     OW 5251   1.592   6.479   2.344
 1451SOL    HW1 5252   1.533   6.541   2.292
 1451SOL    HW2 5253   1.679   6.524   2.363
 1452SOL     OW 5254   4.403   2.648   5.274
 1452SOL    HW1 5255   4.316   2.681   5.238
 1452SOL    HW2 5256   4.476   2.712   5.251
 1453SOL     OW 5257   0.341   4.098   5.677
 1453SOL    HW1 5258   0.245   4.111   5.700
 1453SOL    HW2 5259   0.393   4.181   5.701
 1454SOL     OW 5260   1.729   1.759   2.256
 1454SOL    HW1 5261   1.783   1.828   2.305
 1454SOL    HW2 5262   1.783   1.723   2.180
 1455SOL     OW 5263   1.817   7.008   2.187
 1455SOL    HW1 5264   1.758   6.941   2.143
 1455SOL    HW2 5265   1.797   0.070   2.150
 1456SOL     OW 5266   6.250   6.831   6.029
 1456SOL    HW1 5267   6.190   6.852   5.951
 1456SOL    HW2 5268   6.222   6.744   6.069
 1457SOL     OW 5269   1.600   5.201   0.017
 1457SOL    HW1 5270   1.694   5.169   0.024
 1457SOL    HW2 5271   1.594   5.274   6.979
 1458SOL     OW 5272   5.294   4.819   5.196
 1458SOL    HW1 5273   5.384   4.783   5.170
 1458SOL    HW2 5274   5.272   4.896   5.137
 1459SOL     OW 5275   4.056   6.729   5.904
 1459SOL    HW1 5276   4.031   6.637   5.874
 1459SOL    HW2 5277   4.146   6.752   5.868
 1460SOL     OW 5278   2.107   6.999   5.162
 1460SOL    HW1 5279   2.057   0.030   5.224
 1460SOL    HW2 5280   2.201   6.988   5.195
 1461SOL     OW 5281   0.075   3.889   3.525
 1461SOL    HW1 5282   0.002   3.894   3.594
 1461SOL    HW2 5283   0.151   3.835   3.560
 1462SOL     OW 5284   1.411   1.015   6.747
 1462SOL    HW1 5285   1.395   0.969   6.660
 1462SOL    HW2 5286   1.505   0.998   6.777
 1463SOL     OW 5287   1.094   4.780   5.693
 1463SOL    HW1 5288   1.069   4.832   5.611
 1463SOL    HW2 5289   1.184   4.739   5.680
 1464SOL     OW 5290   6.741   5.110   2.239
 1464SOL    HW1 5291   6.766   5.204   2.215
 1464SOL    HW2 5292   6.818   5.049   2.221
 1465SOL     OW 5293   1.507   1.455   4.026
 1465SOL    HW1 5294   1.427   1.410   3.989
 1465SOL    HW2 5295   1.480   1.510   4.106
 1466SOL     OW 5296   3.808   1.579   2.182
 1466SOL    HW1 5297   3.742   1.507   2.158
 1466SOL    HW2 5298   3.771   1.668   2.156
 1467SOL     OW 5299   1.956   1.327   3.989
 1467SOL    HW1 5300   2.026   1.281   3.933
 1467SOL    HW2 5301   1.921   1.262   4.057
 1468SOL     OW 5302   2.292   5.784   1.889
 1468SOL    HW1 5303   2.255   5.877   1.895
 1468SOL    HW2 5304   2.227   5.726   1.840
 1469SOL     OW 5305   6.873   6.609   2.511
 1469SOL    HW1 5306   6.929   6.577   2.435
 1469SOL    HW2 5307   6.923   6.595   2.597
 1470SOL     OW 5308   0.063   2.018   2.276
 1470SOL    HW1 5309   0.163   2.026   2.278
 1470SOL    HW2 5310   0.024   2.099   2.233
 1471SOL     OW 5311   0.858   0.214   0.316
 1471SOL    HW1 5312   0.818   0.305   0.306
 1471SOL    HW2 5313   0.822   0.171   0.398
 1472SOL     OW 5314   3.429   5.653   0.254
 1472SOL    HW1 5315   3.430   5.644   0.354
 1472SOL    HW2 5316   3.373   5.579   0.215
 1473SOL     OW 5317   2.447   6.115   5.065
 1473SOL    HW1 5318   2.445   6.035   5.125
 1473SOL    HW2 5319   2.494   6.092   4.980
 1474SOL     OW 5320   4.402   4.563   1.169
 1474SOL    HW1 5321   4.430   4.568   1.265
 1474SOL    HW2 5322   4.366   4.472   1.150
 1475SOL     OW 5323   5.331   0.791   0.140
 1475SOL    HW1 5324   5.308   0.778   0.044
 1475SOL    HW2 5325   5.256   0.756   0.197
 1476SOL     OW 5326   2.460   1.063   1.022
 1476SOL    HW1 5327   2.472   1.110   1.109
 1476SOL    HW2 5328   2.439   1.130   0.950
 1477SOL     OW 5329   3.270   6.773   6.907
 1477SOL    HW1 5330   3.237   6.827   6.830
 1477SOL    HW2 5331   3.196   6.759   6.973
 1478SOL     OW 5332   5.885   5.728   5.274
 1478SOL    HW1 5333   5.962   5.702   5.216
 1478SOL    HW2 5334   5.900   5.696   5.367
 1479SOL     OW 5335   3.225   3.011   1.522
 1479SOL    HW1 5336   3.324   2.996   1.516
 1479SOL    HW2 5337   3.179   2.923   1.527
 1480SOL     OW 5338   2.558   0.040   4.812
 1480SOL    HW1 5339   2.509   0.100   4.875
 1480SOL    HW2 5340   2.645   0.013   4.854
 1481SOL     OW 5341   5.938   3.526   5.261
 1481SOL    HW1 5342   5.850   3.494   5.295
 1481SOL    HW2 5343   5.927   3.565   5.170
 1482SOL     OW 5344   4.500   0.698   1.302
 1482SOL    HW1 5345   4.580   0.736   1.255
 1482SOL    HW2 5346   4.511   0.710   1.401
 1483SOL     OW 5347   5.995   2.254   5.138
 1483SOL    HW1 5348   6.076   2.304   5.109
 1483SOL    HW2 5349   6.007   2.156   5.118
 1484SOL     OW 5350   4.790   4.915   4.047
 1484SOL    HW1 5351   4.868   4.924   3.985
 1484SOL    HW2 5352   4.750   4.824   4.037
 1485SOL     OW 5353   5.214   0.779   4.210
 1485SOL    HW1 5354   5.122   0.739   4.207
 1485SOL    HW2 5355   5.282   0.705   4.219
 1486SOL     OW 5356   5.025   0.570   3.111
 1486SOL    HW1 5357   5.096   0.567   3.040
 1486SOL    HW2 5358   5.063   0.535   3.197
 1487SOL     OW 5359   0.152   1.463   0.312
 1487SOL    HW1 5360   0.137   1.560   0.327
 1487SOL    HW2 5361   0.093   1.431   0.237
 1488SOL     OW 5362   4.776   0.254   3.352
 1488SOL    HW1 5363   4.679   0.233   3.343
 1488SOL    HW2 5364   4.797   0.337   3.300
 1489SOL     OW 5365   3.804   4.730   5.928
 1489SOL    HW1 5366   3.817   4.814   5.981
 1489SOL    HW2 5367   3.798   4.754   5.831
 1490SOL     OW 5368   0.106   3.453   0.690
 1490SOL    HW1 5369   0.198   3.467   0.726
 1490SOL    HW2 5370   0.042   3.441   0.766
 1491SOL     OW 5371   6.697   3.710   2.927
 1491SOL    HW1 5372   6.755   3.690   2.849
 1491SOL    HW2 5373   6.601   3.709   2.898
 1492SOL     OW 5374   6.159   0.266   2.544
 1492SOL    HW1 5375   6.081   0.212   2.512
 1492SOL    HW2 5376   6.197   0.318   2.467
 1493SOL     OW 5377   3.623   0.737   6.351
 1493SOL    HW1 5378   3.598   0.644   6.325
 1493SOL    HW2 5379   3.723   0.747   6.346
 1494SOL     OW 5380   6.112   2.932   6.659
 1494SOL    HW1 5381   6.064   3.018   6.642
 1494SOL    HW2 5382   6.099   2.905   6.755
 1495SOL     OW 5383   6.728   4.406   4.965
 1495SOL    HW1 5384   6.693   4.396   4.872
 1495SOL    HW2 5385   6.732   4.503   4.988
 1496SOL     OW 5386   1.210   0.644   0.361
 1496SOL    HW1 5387   1.138   0.713   0.374
 1496SOL    HW2 5388   1.173   0.568   0.309
 1497SOL     OW 5389   5.064   3.066   2.042
 1497SOL    HW1 5390   5.097   2.972   2.055
 1497SOL    HW2 5391   4.970   3.073   2.076
 1498SOL     OW 5392   2.835   4.203   0.766
 1498SOL    HW1 5393   2.834   4.202   0.666
 1498SOL    HW2 5394   2.877   4.119   0.800
 1499SOL     OW 5395   0.361   3.190   6.262
 1499SOL    HW1 5396   0.369   3.093   6.286
 1499SOL    HW2 5397   0.384   3.203   6.166
 1500SOL     OW 5398   0.576   6.575   6.918
 1500SOL    HW1 5399   0.559   6.599   7.014
 1500SOL    HW2 5400   0.499   6.605   6.862
 1501SOL     OW 5401   6.065   1.858   6.154
 1501SOL    HW1 5402   6.118   1.785   6.111
 1501SOL    HW2 5403   6.127   1.927   6.190
 1502SOL     OW 5404   5.181   1.354   6.791
 1502SOL    HW1 5405   5.162   1.367   6.694
 1502SOL    HW2 5406   5.130   1.274   6.824
 1503SOL     OW 5407   0.752   3.113   2.654
 1503SOL    HW1 5408   0.704   3.102   2.741
 1503SOL    HW2 5409   0.698   3.070   2.581
 1504SOL     OW 5410   0.792   0.299   3.108
 1504SOL    HW1 5411   0.864   0.367   3.125
 1504SOL    HW2 5412   0.793   0.231   3.182
 1505SOL     OW 5413   5.271   0.015   5.592
 1505SOL    HW1 5414   5.216   0.081   5.540
 1505SOL    HW2 5415   5.247   0.021   5.689
 1506SOL     OW 5416   1.084   0.063   6.856
 1506SOL    HW1 5417   0.985   0.066   6.842
 1506SOL    HW2 5418   1.130   0.089   6.771
 1507SOL     OW 5419   0.059   1.981   5.412
 1507SOL    HW1 5420   0.029   2.064   5.458
 1507SOL    HW2 5421   0.133   1.939   5.464
 1508SOL     OW 5422   6.395   1.679   1.265
 1508SOL    HW1 5423   6.378   1.662   1.362
 1508SOL    HW2 5424   6.460   1.611   1.230
 1509SOL     OW 5425   4.741   1.950   4.689
 1509SOL    HW1 5426   4.803   1.875   4.665
 1509SOL    HW2 5427   4.719   2.002   4.606
 1510SOL     OW 5428   5.633   6.872   4.682
 1510SOL    HW1 5429   5.539   6.886   4.651
 1510SOL    HW2 5430   5.639   6.788   4.735
 1511SOL     OW 5431   3.861   3.345   4.092
 1511SOL    HW1 5432   3.835   3.301   4.006
 1511SOL    HW2 5433   3.919   3.424   4.072
 1512SOL     OW 5434   6.397   5.412   1.781
 1512SOL    HW1 5435   6.495   5.405   1.801
 1512SOL    HW2 5436   6.368   5.334   1.726
 1513SOL     OW 5437   3.330   0.259   4.687
 1513SOL    HW1 5438   3.241   0.230   4.651
 1513SOL    HW2 5439   3.334   0.359   4.688
 1514SOL     OW 5440   4.243   2.866   5.907
 1514SOL    HW1 5441   4.153   2.877   5.864
 1514SOL    HW2 5442   4.286   2.783   5.872
 1515SOL     OW 5443   6.213   1.282   2.572
 1515SOL    HW1 5444   6.135   1.233   2.534
 1515SOL    HW2 5445   6.290   1.220   2.582
 1516SOL     OW 5446   5.274   5.256   5.227
 1516SOL    HW1 5447   5.369   5.251   5.258
 1516SOL    HW2 5448   5.250   5.352   5.208
 1517SOL     OW 5449   4.423   6.031   2.729
 1517SOL    HW1 5450   4.330   6.007   2.703
 1517SOL    HW2 5451   4.437   6.012   2.826
 1518SOL     OW 5452   6.618   3.062   0.598
 1518SOL    HW1 5453   6.717   3.061   0.582
 1518SOL    HW2 5454   6.600   3.095   0.691
 1519SOL     OW 5455   6.565   4.634   1.085
 1519SOL    HW1 5456   6.625   4.561   1.054
 1519SOL    HW2 5457   6.605   4.678   1.166
 1520SOL     OW 5458   0.650   4.719   1.678
 1520SOL    HW1 5459   0.683   4.628   1.652
 1520SOL    HW2 5460   0.637   4.723   1.777
 1521SOL     OW 5461   2.027   4.905   6.826
 1521SOL    HW1 5462   2.106   4.945   6.780
 1521SOL    HW2 5463   2.046   4.896   6.924
 1522SOL     OW 5464   6.069   5.482   4.767
 1522SOL    HW1 5465   6.040   5.464   4.861
 1522SOL    HW2 5466   6.123   5.566   4.763
 1523SOL     OW 5467   3.522   6.473   6.435
 1523SOL    HW1 5468   3.430   6.442   6.411
 1523SOL    HW2 5469   3.518   6.565   6.474
 1524SOL     OW 5470   2.701   1.944   2.997
 1524SOL    HW1 5471   2.732   2.038   3.011
 1524SOL    HW2 5472   2.685   1.900   3.085
 1525SOL     OW 5473   5.702   2.919   0.358
 1525SOL    HW1 5474   5.740   2.842   0.306
 1525SOL    HW2 5475   5.702   3.000   0.300
 1526SOL     OW 5476   0.014   0.754   6.685
 1526SOL    HW1 5477   0.004   0.671   6.738
 1526SOL    HW2 5478   0.083   0.813   6.728
 1527SOL     OW 5479   3.582   1.060   4.505
 1527SOL    HW1 5480   3.518   1.053   4.429
 1527SOL    HW2 5481   3.557   1.137   4.563
 1528SOL     OW 5482   4.088   4.660   1.791
 1528SOL    HW1 5483   4.182   4.664   1.825
 1528SOL    HW2 5484   4.076   4.575   1.739
 1529SOL     OW 5485   4.828   1.065   0.089
 1529SOL    HW1 5486   4.860   1.157   0.065
 1529SOL    HW2 5487   4.906   1.002   0.089
 1530SOL     OW 5488   3.088   1.496   1.316
 1530SOL    HW1 5489   3.072   1.500   1.414
 1530SOL    HW2 5490   3.026   1.429   1.275
 1531SOL     OW 5491   4.634   0.627   4.906
 1531SOL    HW1 5492   4.645   0.725   4.893
 1531SOL    HW2 5493   4.539   0.606   4.929
 1532SOL     OW 5494   3.524   4.289   6.065
 1532SOL    HW1 5495   3.448   4.321   6.009
 1532SOL    HW2 5496   3.563   4.206   6.025
 1533SOL     OW 5497   5.575   5.483   0.010
 1533SOL    HW1 5498   5.480   5.471   0.039
 1533SOL    HW2 5499   5.635   5.429   0.069
 1534SOL     OW 5500   3.135   5.790   6.223
 1534SOL    HW1 5501   3.230   5.765   6.203
 1534SOL    HW2 5502   3.102   5.738   6.301
 1535SOL     OW 5503   5.560   5.813   4.590
 1535SOL    HW1 5504   5.530   5.883   4.655
 1535SOL    HW2 5505   5.597   5.735   4.641
 1536SOL     OW 5506   3.961   4.896   6.305
 1536SOL    HW1 5507   3.948   4.920   6.209
 1536SOL    HW2 5508   3.949   4.797   6.316
 1537SOL     OW 5509   4.432   6.024   4.091
 1537SOL    HW1 5510   4.472   5.970   4.165
 1537SOL    HW2 5511   4.505   6.068   4.038
 1538SOL     OW 5512   3.540   6.721   6.524
 1538SOL    HW1 5513   3.634   6.705   6.555
 1538SOL    HW2 5514   3.525   6.819   6.513
 1539SOL     OW 5515   5.021   3.416   2.194
 1539SOL    HW1 5516   4.943   3.424   2.256
 1539SOL    HW2 5517   4.992   3.376   2.107
 1540SOL     OW 5518   0.289   6.811   5.524
 1540SOL    HW1 5519   0.256   6.903   5.503
 1540SOL    HW2 5520   0.344   6.777   5.448
 1541SOL     OW 5521   3.467   3.291   3.996
 1541SOL    HW1 5522   3.542   3.344   4.035
 1541SOL    HW2 5523   3.415   3.349   3.932
 1542SOL     OW 5524   6.759   0.317   2.019
 1542SOL    HW1 5525   6.727   0.265   1.940
 1542SOL    HW2 5526   6.786   0.409   1.990
 1543SOL     OW 5527   3.720   5.139   4.985
 1543SOL    HW1 5528   3.739   5.224   5.035
 1543SOL    HW2 5529   3.634   5.148   4.935
 1544SOL     OW 5530   3.859   4.049   3.756
 1544SOL    HW1 5531   3.870   4.115   3.681
 1544SOL    HW2 5532   3.870   3.956   3.721
 1545SOL     OW 5533   4.677   0.564   2.542
 1545SOL    HW1 5534   4.599   0.583   2.601
 1545SOL    HW2 5535   4.666   0.613   2.455
 1546SOL     OW 5536   5.338   6.287   5.730
 1546SOL    HW1 5537   5.378   6.256   5.644
 1546SOL    HW2 5538   5.410   6.306   5.796
 1547SOL     OW 5539   1.214   3.430   0.797
 1547SOL    HW1 5540   1.168   3.456   0.881
 1547SOL    HW2 5541   1.313   3.431   0.811
 1548SOL     OW 5542   5.002   4.057   7.003
 1548SOL    HW1 5543   5.041   4.024   6.918
 1548SOL    HW2 5544   5.075   4.070   0.041
 1549SOL     OW 5545   3.669   1.125   2.173
 1549SOL    HW1 5546   3.659   1.109   2.074
 1549SOL    HW2 5547   3.762   1.159   2.192
 1550SOL     OW 5548   3.280   3.688   1.448
 1550SOL    HW1 5549   3.364   3.654   1.489
 1550SOL    HW2 5550   3.238   3.616   1.393
 1551SOL     OW 5551   1.820   4.677   6.816
 1551SOL    HW1 5552   1.733   4.721   6.837
 1551SOL    HW2 5553   1.891   4.747   6.805
 1552SOL     OW 5554   1.616   5.647   0.773
 1552SOL    HW1 5555   1.611   5.698   0.687
 1552SOL    HW2 5556   1.592   5.552   0.756
 1553SOL     OW 5557   6.944   1.664   6.501
 1553SOL    HW1 5558   6.855   1.702   6.526
 1553SOL    HW2 5559   7.015   1.733   6.517
 1554SOL     OW 5560   3.479   2.098   3.514
 1554SOL    HW1 5561   3.575   2.076   3.534
 1554SOL    HW2 5562   3.471   2.128   3.419
 1555SOL     OW 5563   5.669   3.436   6.872
 1555SOL    HW1 5564   5.701   3.354   6.823
 1555SOL    HW2 5565   5.576   3.421   6.904
 1556SOL     OW 5566   1.670   1.522   6.327
 1556SOL    HW1 5567   1.672   1.577   6.410
 1556SOL    HW2 5568   1.663   1.582   6.247
 1557SOL     OW 5569   2.155   2.977   5.625
 1557SOL    HW1 5570   2.170   3.019   5.535
 1557SOL    HW2 5571   2.146   3.048   5.694
 1558SOL     OW 5572   6.125   0.877   4.821
 1558SOL    HW1 5573   6.113   0.784   4.788
 1558SOL    HW2 5574   6.220   0.905   4.809
 1559SOL     OW 5575   1.745   3.058   6.836
 1559SOL    HW1 5576   1.726   2.987   6.903
 1559SOL    HW2 5577   1.670   3.124   6.835
 1560SOL     OW 5578   6.947   0.621   5.752
 1560SOL    HW1 5579   6.858   0.576   5.762
 1560SOL    HW2 5580   6.999   0.576   5.680
 1561SOL     OW 5581   4.957   6.275   3.716
 1561SOL    HW1 5582   4.942   6.316   3.626
 1561SOL    HW2 5583   5.012   6.337   3.772
 1562SOL     OW 5584   4.915   6.152   2.623
 1562SOL    HW1 5585   4.951   6.071   2.668
 1562SOL    HW2 5586   4.874   6.126   2.535
 1563SOL     OW 5587   2.952   0.752   5.309
 1563SOL    HW1 5588   2.978   0.697   5.230
 1563SOL    HW2 5589   2.853   0.745   5.323
 1564SOL     OW 5590   1.299   0.675   3.516
 1564SOL    HW1 5591   1.229   0.610   3.488
 1564SOL    HW2 5592   1.386   0.651   3.473
 1565SOL     OW 5593   4.741   4.605   3.313
 1565SOL    HW1 5594   4.661   4.560   3.273
 1565SOL    HW2 5595   4.818   4.598   3.249
 1566SOL     OW 5596   5.751   4.458   2.721
 1566SOL    HW1 5597   5.669   4.482   2.772
 1566SOL    HW2 5598   5.792   4.375   2.759
 1567SOL     OW 5599   6.699   6.026   0.936
 1567SOL    HW1 5600   6.754   5.977   0.868
 1567SOL    HW2 5601   6.751   6.035   1.021
 1568SOL     OW 5602   1.198   7.014   0.062
 1568SOL    HW1 5603   1.144   7.016   0.146
 1568SOL    HW2 5604   1.144   0.023   7.016
 1569SOL     OW 5605   4.396   6.043   3.217
 1569SOL    HW1 5606   4.406   5.986   3.299
 1569SOL    HW2 5607   4.337   6.122   3.239
 1570SOL     OW 5608   1.668   6.852   0.765
 1570SOL    HW1 5609   1.728   6.920   0.723
 1570SOL    HW2 5610   1.700   6.761   0.740
 1571SOL     OW 5611   5.791   2.795   0.862
 1571SOL    HW1 5612   5.792   2.734   0.941
 1571SOL    HW2 5613   5.754   2.747   0.782
 1572SOL     OW 5614   0.336   0.390   1.695
 1572SOL    HW1 5615   0.294   0.303   1.722
 1572SOL    HW2 5616   0.434   0.385   1.713
 1573SOL     OW 5617   5.209   1.913   1.886
 1573SOL    HW1 5618   5.248   2.005   1.893
 1573SOL    HW2 5619   5.197   1.889   1.790
 1574SOL     OW 5620   6.355   1.584   1.846
 1574SOL    HW1 5621   6.395   1.510   1.900
 1574SOL    HW2 5622   6.408   1.667   1.859
 1575SOL     OW 5623   2.819   1.538   0.473
 1575SOL    HW1 5624   2.899   1.478   0.477
 1575SOL    HW2 5625   2.743   1.495   0.522
 1576SOL     OW 5626   6.223   6.543   4.320
 1576SOL    HW1 5627   6.186   6.635   4.306
 1576SOL    HW2 5628   6.210   6.516   4.415
 1577SOL     OW 5629   2.927   1.870   4.410
 1577SOL    HW1 5630   2.931   1.877   4.510
 1577SOL    HW2 5631   3.015   1.896   4.371
 1578SOL     OW 5632   6.118   3.568   5.573
 1578SOL    HW1 5633   6.126   3.480   5.526
 1578SOL    HW2 5634   6.207   3.594   5.610
 1579SOL     OW 5635   0.017   1.529   3.496
 1579SOL    HW1 5636   0.058   1.621   3.496
 1579SOL    HW2 5637   6.992   1.517   3.579
 1580SOL     OW 5638   2.795   3.778   5.266
 1580SOL    HW1 5639   2.841   3.828   5.192
 1580SOL    HW2 5640   2.718   3.833   5.300
 1581SOL     OW 5641   0.387   4.503   4.841
 1581SOL    HW1 5642   0.396   4.413   4.797
 1581SOL    HW2 5643   0.295   4.512   4.878
 1582SOL     OW 5644   1.335   6.704   4.659
 1582SOL    HW1 5645   1.352   6.618   4.610
 1582SOL    HW2 5646   1.363   6.781   4.603
 1583SOL     OW 5647   1.053   2.944   4.436
 1583SOL    HW1 5648   1.045   3.041   4.417
 1583SOL    HW2 5649   0.988   2.893   4.379
 1584SOL     OW 5650   1.784   6.810   4.701
 1584SOL    HW1 5651   1.781   6.818   4.800
 1584SOL    HW2 5652   1.718   6.874   4.661
 1585SOL     OW 5653   5.599   1.719   3.342
 1585SOL    HW1 5654   5.540   1.757   3.272
 1585SOL    HW2 5655   5.692   1.710   3.306
 1586SOL     OW 5656   3.624   4.113   1.940
 1586SOL    HW1 5657   3.617   4.197   1.886
 1586SOL    HW2 5658   3.709   4.066   1.917
 1587SOL     OW 5659   2.890   4.653   0.032
 1587SOL    HW1 5660   2.828   4.576   0.020
 1587SOL    HW2 5661   2.981   4.628   7.028
 1588SOL     OW 5662   4.559   1.580   3.319
 1588SOL    HW1 5663   4.557   1.630   3.406
 1588SOL    HW2 5664   4.480   1.519   3.314
 1589SOL     OW 5665   5.625   4.071   3.601
 1589SOL    HW1 5666   5.688   4.137   3.642
 1589SOL    HW2 5667   5.543   4.119   3.568
 1590SOL     OW 5668   2.209   6.899   5.977
 1590SOL    HW1 5669   2.170   6.972   6.033
 1590SOL    HW2 5670   2.147   6.880   5.900
 1591SOL     OW 5671   1.578   5.146   2.968
 1591SOL    HW1 5672   1.572   5.236   2.925
 1591SOL    HW2 5673   1.498   5.131   3.026
 1592SOL     OW 5674   2.600   4.096   1.667
 1592SOL    HW1 5675   2.676   4.046   1.626
 1592SOL    HW2 5676   2.619   4.194   1.665
 1593SOL     OW 5677   0.779   6.493   3.362
 1593SOL    HW1 5678   0.684   6.491   3.333
 1593SOL    HW2 5679   0.783   6.514   3.460
 1594SOL     OW 5680   0.411   4.879   2.979
 1594SOL    HW1 5681   0.354   4.942   3.032
 1594SOL    HW2 5682   0.487   4.848   3.035
 1595SOL     OW 5683   0.339   4.907   6.181
 1595SOL    HW1 5684   0.347   4.939   6.087
 1595SOL    HW2 5685   0.318   4.984   6.241
 1596SOL     OW 5686   1.248   3.471   6.130
 1596SOL    HW1 5687   1.310   3.507   6.060
 1596SOL    HW2 5688   1.231   3.374   6.112
 1597SOL     OW 5689   3.100   5.502   0.756
 1597SOL    HW1 5690   3.053   5.556   0.686
 1597SOL    HW2 5691   3.176   5.556   0.794
 1598SOL     OW 5692   0.527   4.225   0.408
 1598SOL    HW1 5693   0.478   4.146   0.370
 1598SOL    HW2 5694   0.588   4.194   0.481
 1599SOL     OW 5695   4.589   3.683   5.544
 1599SOL    HW1 5696   4.676   3.698   5.591
 1599SOL    HW2 5697   4.603   3.626   5.464
 1600SOL     OW 5698   5.070   1.938   4.680
 1600SOL    HW1 5699   5.093   1.985   4.765
 1600SOL    HW2 5700   5.010   1.860   4.700
 1601SOL     OW 5701   0.700   5.159   4.910
 1601SOL    HW1 5702   0.798   5.156   4.889
 1601SOL    HW2 5703   0.654   5.083   4.865
 1602SOL     OW 5704   1.972   5.736   4.161
 1602SOL    HW1 5705   1.972   5.832   4.133
 1602SOL    HW2 5706   2.025   5.682   4.096
 1603SOL     OW 5707   1.084   6.318   1.826
 1603SOL    HW1 5708   1.178   6.295   1.798
 1603SOL    HW2 5709   1.023   6.242   1.802
 1604SOL     OW 5710   5.705   4.975   6.842
 1604SOL    HW1 5711   5.640   4.907   6.878
 1604SOL    HW2 5712   5.776   4.929   6.790
 1605SOL     OW 5713   6.619   0.180   1.803
 1605SOL    HW1 5714   6.601   0.235   1.721
 1605SOL    HW2 5715   6.562   0.097   1.800
 1606SOL     OW 5716   4.492   0.646   5.337
 1606SOL    HW1 5717   4.520   0.689   5.423
 1606SOL    HW2 5718   4.400   0.677   5.313
 1607SOL     OW 5719   5.175   2.781   1.046
 1607SOL    HW1 5720   5.095   2.807   1.101
 1607SOL    HW2 5721   5.210   2.861   0.997
 1608SOL     OW 5722   1.631   0.179   5.702
 1608SOL    HW1 5723   1.587   0.122   5.771
 1608SOL    HW2 5724   1.678   0.255   5.746
 1609SOL     OW 5725   5.046   1.377   6.530
 1609SOL    HW1 5726   5.021   1.335   6.443
 1609SOL    HW2 5727   4.984   1.453   6.549
 1610SOL     OW 5728   5.519   4.209   5.386
 1610SOL    HW1 5729   5.604   4.262   5.388
 1610SOL    HW2 5730   5.456   4.251   5.321
 1611SOL     OW 5731   3.955   3.661   1.900
 1611SOL    HW1 5732   3.963   3.573   1.854
 1611SOL    HW2 5733   4.033   3.719   1.875
 1612SOL     OW 5734   2.633   0.706   5.295
 1612SOL    HW1 5735   2.636   0.785   5.356
 1612SOL    HW2 5736   2.621   0.623   5.350
 1613SOL     OW 5737   2.308   5.829   0.813
 1613SOL    HW1 5738   2.285   5.747   0.864
 1613SOL    HW2 5739   2.242   5.841   0.738
 1614SOL     OW 5740   6.606   4.208   0.306
 1614SOL    HW1 5741   6.579   4.281   0.243
 1614SOL    HW2 5742   6.558   4.218   0.392
 1615SOL     OW 5743   6.490   4.805   1.553
 1615SOL    HW1 5744   6.555   4.768   1.620
 1615SOL    HW2 5745   6.536   4.816   1.465
 1616SOL     OW 5746   4.739   1.905   5.947
 1616SOL    HW1 5747   4.653   1.860   5.924
 1616SOL    HW2 5748   4.751   1.986   5.890
 1617SOL     OW 5749   6.121   6.979   1.450
 1617SOL    HW1 5750   6.081   0.015   1.385
 1617SOL    HW2 5751   6.068   6.895   1.450
 1618SOL     OW 5752   0.634   3.984   1.232
 1618SOL    HW1 5753   0.729   3.991   1.205
 1618SOL    HW2 5754   0.624   4.016   1.327
 1619SOL     OW 5755   1.633   2.924   4.394
 1619SOL    HW1 5756   1.599   2.952   4.484
 1619SOL    HW2 5757   1.647   2.825   4.393
 1620SOL     OW 5758   1.907   5.567   0.796
 1620SOL    HW1 5759   1.851   5.498   0.751
 1620SOL    HW2 5760   1.851   5.648   0.816
 1621SOL     OW 5761   0.425   1.005   0.118
 1621SOL    HW1 5762   0.512   1.025   0.162
 1621SOL    HW2 5763   0.418   0.907   0.100
 1622SOL     OW 5764   1.449   2.084   4.692
 1622SOL    HW1 5765   1.450   2.184   4.695
 1622SOL    HW2 5766   1.540   2.049   4.714
 1623SOL     OW 5767   2.490   2.760   6.034
 1623SOL    HW1 5768   2.558   2.805   6.092
 1623SOL    HW2 5769   2.528   2.675   5.999
 1624SOL     OW 5770   2.514   0.768   5.856
 1624SOL    HW1 5771   2.532   0.671   5.866
 1624SOL    HW2 5772   2.600   0.819   5.864
 1625SOL     OW 5773   1.433   5.285   2.415
 1625SOL    HW1 5774   1.403   5.371   2.455
 1625SOL    HW2 5775   1.502   5.303   2.345
 1626SOL     OW 5776   2.424   1.619   6.774
 1626SOL    HW1 5777   2.418   1.568   6.688
 1626SOL    HW2 5778   2.500   1.683   6.769
 1627SOL     OW 5779   6.958   2.152   4.401
 1627SOL    HW1 5780   7.024   2.112   4.337
 1627SOL    HW2 5781   6.866   2.141   4.364
 1628SOL     OW 5782   4.168   4.914   6.463
 1628SOL    HW1 5783   4.171   4.821   6.499
 1628SOL    HW2 5784   4.089   4.924   6.404
 1629SOL     OW 5785   2.704   2.415   3.895
 1629SOL    HW1 5786   2.748   2.365   3.820
 1629SOL    HW2 5787   2.759   2.404   3.978
 1630SOL     OW 5788   0.771   6.386   5.798
 1630SOL    HW1 5789   0.717   6.304   5.814
 1630SOL    HW2 5790   0.774   6.442   5.881
 1631SOL     OW 5791   6.498   0.460   5.959
 1631SOL    HW1 5792   6.498   0.388   5.889
 1631SOL    HW2 5793   6.411   0.459   6.007
 1632SOL     OW 5794   0.058   1.162   6.890
 1632SOL    HW1 5795   0.135   1.223   6.910
 1632SOL    HW2 5796   7.023   1.164   6.966
 1633SOL     OW 5797   5.408   2.505   3.251
 1633SOL    HW1 5798   5.417   2.483   3.348
 1633SOL    HW2 5799   5.312   2.498   3.224
 1634SOL     OW 5800   4.242   5.944   5.581
 1634SOL    HW1 5801   4.338   5.964   5.604
 1634SOL    HW2 5802   4.219   5.852   5.610
 1635SOL     OW 5803   6.356   5.373   4.642
 1635SOL    HW1 5804   6.380   5.310   4.716
 1635SOL    HW2 5805   6.272   5.422   4.665
 1636SOL     OW 5806   2.096   4.372   1.389
 1636SOL    HW1 5807   2.180   4.407   1.348
 1636SOL    HW2 5808   2.020   4.432   1.367
 1637SOL     OW 5809   6.614   1.633   2.900
 1637SOL    HW1 5810   6.635   1.615   2.996
 1637SOL    HW2 5811   6.666   1.713   2.869
 1638SOL     OW 5812   0.868   3.771   3.778
 1638SOL    HW1 5813   0.924   3.734   3.703
 1638SOL    HW2 5814   0.926   3.785   3.858
 1639SOL     OW 5815   5.175   6.317   2.596
 1639SOL    HW1 5816   5.149   6.351   2.506
 1639SOL    HW2 5817   5.169   6.392   2.662
 1640SOL     OW 5818   5.877   1.864   0.249
 1640SOL    HW1 5819   5.809   1.823   0.310
 1640SOL    HW2 5820   5.830   1.905   0.171
 1641SOL     OW 5821   6.013   2.857   3.430
 1641SOL    HW1 5822   6.020   2.834   3.333
 1641SOL    HW2 5823   6.103   2.884   3.465
 1642SOL     OW 5824   6.817   3.282   0.175
 1642SOL    HW1 5825   6.813   3.297   0.076
 1642SOL    HW2 5826   6.735   3.231   0.204
 1643SOL     OW 5827   3.063   6.247   4.328
 1643SOL    HW1 5828   3.022   6.195   4.254
 1643SOL    HW2 5829   3.159   6.219   4.340
 1644SOL     OW 5830   2.341   2.461   1.033
 1644SOL    HW1 5831   2.248   2.488   1.058
 1644SOL    HW2 5832   2.404   2.534   1.057
 1645SOL     OW 5833   3.106   6.349   5.117
 1645SOL    HW1 5834   3.124   6.385   5.025
 1645SOL    HW2 5835   3.026   6.289   5.114
 1646SOL     OW 5836   2.919   5.330   1.206
 1646SOL    HW1 5837   2.975   5.411   1.227
 1646SOL    HW2 5838   2.914   5.317   1.107
 1647SOL     OW 5839   5.520   2.301   4.296
 1647SOL    HW1 5840   5.484   2.311   4.388
 1647SOL    HW2 5841   5.447   2.315   4.229
 1648SOL     OW 5842   5.443   6.334   1.693
 1648SOL    HW1 5843   5.537   6.341   1.726
 1648SOL    HW2 5844   5.437   6.261   1.624
 1649SOL     OW 5845   3.357   0.485   3.097
 1649SOL    HW1 5846   3.314   0.567   3.135
 1649SOL    HW2 5847   3.301   0.450   3.022
 1650SOL     OW 5848   3.036   6.817   4.202
 1650SOL    HW1 5849   3.120   6.775   4.167
 1650SOL    HW2 5850   2.964   6.749   4.206
 1651SOL     OW 5851   0.738   0.612   1.144
 1651SOL    HW1 5852   0.701   0.523   1.116
 1651SOL    HW2 5853   0.699   0.638   1.232
 1652SOL     OW 5854   1.481   2.252   1.232
 1652SOL    HW1 5855   1.500   2.303   1.149
 1652SOL    HW2 5856   1.522   2.161   1.226
 1653SOL     OW 5857   0.553   5.673   1.345
 1653SOL    HW1 5858   0.522   5.579   1.332
 1653SOL    HW2 5859   0.518   5.731   1.271
 1654SOL     OW 5860   0.115   3.045   2.067
 1654SOL    HW1 5861   0.075   3.125   2.023
 1654SOL    HW2 5862   0.213   3.059   2.081
 1655SOL     OW 5863   5.560   3.960   6.099
 1655SOL    HW1 5864   5.621   3.885   6.125
 1655SOL    HW2 5865   5.615   4.040   6.075
 1656SOL     OW 5866   1.869   4.204   3.242
 1656SOL    HW1 5867   1.806   4.282   3.237
 1656SOL    HW2 5868   1.963   4.236   3.232
 1657SOL     OW 5869   0.244   1.530   4.992
 1657SOL    HW1 5870   0.182   1.471   4.939
 1657SOL    HW2 5871   0.190   1.598   5.041
 1658SOL     OW 5872   6.801   6.929   2.786
 1658SOL    HW1 5873   6.822   6.838   2.822
 1658SOL    HW2 5874   6.817   6.998   2.857
 1659SOL     OW 5875   3.701   1.810   6.308
 1659SOL    HW1 5876   3.683   1.824   6.211
 1659SOL    HW2 5877   3.615   1.792   6.356
 1660SOL     OW 5878   1.170   5.464   3.685
 1660SOL    HW1 5879   1.236   5.468   3.760
 1660SOL    HW2 5880   1.219   5.450   3.599
 1661SOL     OW 5881   3.436   1.761   1.710
 1661SOL    HW1 5882   3.453   1.665   1.691
 1661SOL    HW2 5883   3.522   1.812   1.710
 1662SOL     OW 5884   6.147   1.029   3.559
 1662SOL    HW1 5885   6.217   1.026   3.488
 1662SOL    HW2 5886   6.180   1.084   3.636
 1663SOL     OW 5887   2.600   0.442   3.195
 1663SOL    HW1 5888   2.536   0.369   3.219
 1663SOL    HW2 5889   2.605   0.507   3.271
 1664SOL     OW 5890   1.874   0.464   4.046
 1664SOL    HW1 5891   1.943   0.433   3.980
 1664SOL    HW2 5892   1.817   0.534   4.003
 1665SOL     OW 5893   6.872   1.613   3.295
 1665SOL    HW1 5894   6.876   1.555   3.213
 1665SOL    HW2 5895   6.932   1.575   3.366
 1666SOL     OW 5896   6.035   2.768   0.692
 1666SOL    HW1 5897   6.118   2.743   0.642
 1666SOL    HW2 5898   6.054   2.767   0.790
 1667SOL     OW 5899   5.438   6.734   0.604
 1667SOL    HW1 5900   5.399   6.660   0.549
 1667SOL    HW2 5901   5.409   6.822   0.567
 1668SOL     OW 5902   4.798   6.592   5.298
 1668SOL    HW1 5903   4.699   6.584   5.285
 1668SOL    HW2 5904   4.831   6.674   5.253
 1669SOL     OW 5905   6.189   6.522   0.271
 1669SOL    HW1 5906   6.246   6.460   0.324
 1669SOL    HW2 5907   6.245   6.595   0.232
 1670SOL     OW 5908   6.922   5.784   5.995
 1670SOL    HW1 5909   6.955   5.740   5.912
 1670SOL    HW2 5910   6.938   5.883   5.989
 1671SOL     OW 5911   4.199   2.396   1.277
 1671SOL    HW1 5912   4.111   2.420   1.317
 1671SOL    HW2 5913   4.229   2.468   1.215
 1672SOL     OW 5914   2.132   3.770   2.975
 1672SOL    HW1 5915   2.128   3.863   2.938
 1672SOL    HW2 5916   2.135   3.774   3.075
 1673SOL     OW 5917   0.591   2.548   4.799
 1673SOL    HW1 5918   0.626   2.463   4.761
 1673SOL    HW2 5919   0.492   2.542   4.808
 1674SOL     OW 5920   1.534   3.813   1.556
 1674SOL    HW1 5921   1.577   3.851   1.639
 1674SOL    HW2 5922   1.507   3.718   1.574
 1675SOL     OW 5923   4.269   0.216   6.624
 1675SOL    HW1 5924   4.264   0.155   6.545
 1675SOL    HW2 5925   4.352   0.271   6.619
 1676SOL     OW 5926   3.119   1.441   2.880
 1676SOL    HW1 5927   3.103   1.345   2.904
 1676SOL    HW2 5928   3.157   1.447   2.788
 1677SOL     OW 5929   4.688   2.205   5.334
 1677SOL    HW1 5930   4.758   2.267   5.297
 1677SOL    HW2 5931   4.720   2.111   5.328
 1678SOL     OW 5932   5.785   4.721   4.227
 1678SOL    HW1 5933   5.773   4.657   4.151
 1678SOL    HW2 5934   5.696   4.739   4.270
 1679SOL     OW 5935   1.800   3.875   5.520
 1679SOL    HW1 5936   1.885   3.822   5.522
 1679SOL    HW2 5937   1.777   3.898   5.426
 1680SOL     OW 5938   0.778   1.316   4.416
 1680SOL    HW1 5939   0.850   1.294   4.351
 1680SOL    HW2 5940   0.783   1.254   4.494
 1681SOL     OW 5941   6.595   5.568   1.391
 1681SOL    HW1 5942   6.499   5.551   1.414
 1681SOL    HW2 5943   6.613   5.534   1.299
 1682SOL     OW 5944   0.207   2.992   4.993
 1682SOL    HW1 5945   0.212   3.054   4.915
 1682SOL    HW2 5946   0.210   2.898   4.961
 1683SOL     OW 5947   4.400   5.092   0.688
 1683SOL    HW1 5948   4.360   5.005   0.717
 1683SOL    HW2 5949   4.413   5.152   0.767
 1684SOL     OW 5950   1.235   6.261   3.412
 1684SOL    HW1 5951   1.179   6.302   3.339
 1684SOL    HW2 5952   1.176   6.215   3.478
 1685SOL     OW 5953   1.790   1.122   6.586
 1685SOL    HW1 5954   1.776   1.023   6.592
 1685SOL    HW2 5955   1.776   1.153   6.492
 1686SOL     OW 5956   2.038   5.627   5.812
 1686SOL    HW1 5957   2.007   5.569   5.887
 1686SOL    HW2 5958   1.960   5.679   5.777
 1687SOL     OW 5959   1.995   2.973   1.827
 1687SOL    HW1 5960   2.030   3.061   1.793
 1687SOL    HW2 5961   2.027   2.958   1.920
 1688SOL     OW 5962   1.244   1.899   3.528
 1688SOL    HW1 5963   1.207   1.887   3.620
 1688SOL    HW2 5964   1.312   1.829   3.509
 1689SOL     OW 5965   3.292   1.145   2.020
 1689SOL    HW1 5966   3.363   1.080   2.047
 1689SOL    HW2 5967   3.331   1.236   2.012
 1690SOL     OW 5968   1.338   2.252   3.394
 1690SOL    HW1 5969   1.348   2.351   3.381
 1690SOL    HW2 5970   1.316   2.234   3.490
 1691SOL     OW 5971   5.468   3.939   3.358
 1691SOL    HW1 5972   5.507   4.018   3.405
 1691SOL    HW2 5973   5.445   3.965   3.264
 1692SOL     OW 5974   0.069   0.157   1.232
 1692SOL    HW1 5975   7.025   0.158   1.300
 1692SOL    HW2 5976   0.106   0.065   1.223
 1693SOL     OW 5977   1.770   2.839   3.193
 1693SOL    HW1 5978   1.745   2.935   3.178
 1693SOL    HW2 5979   1.860   2.835   3.237
 1694SOL     OW 5980   3.866   6.184   3.989
 1694SOL    HW1 5981   3.843   6.211   3.896
 1694SOL    HW2 5982   3.949   6.232   4.018
 1695SOL     OW 5983   2.576   1.380   4.425
 1695SOL    HW1 5984   2.555   1.388   4.522
 1695SOL    HW2 5985   2.499   1.338   4.377
 1696SOL     OW 5986   5.143   5.543   0.841
 1696SOL    HW1 5987   5.240   5.517   0.843
 1696SOL    HW2 5988   5.133   5.633   0.799
 1697SOL     OW 5989   0.310   6.731   1.299
 1697SOL    HW1 5990   0.305   6.656   1.233
 1697SOL    HW2 5991   0.343   6.696   1.387
 1698SOL     OW 5992   4.521   1.789   1.062
 1698SOL    HW1 5993   4.492   1.695   1.042
 1698SOL    HW2 5994   4.562   1.829   0.981
 1699SOL     OW 5995   2.790   1.906   1.960
 1699SOL    HW1 5996   2.811   1.836   1.892
 1699SOL    HW2 5997   2.817   1.996   1.925
 1700SOL     OW 5998   6.396   2.148   3.452
 1700SOL    HW1 5999   6.344   2.080   3.402
 1700SOL    HW2 6000   6.372   2.143   3.549
 1701SOL     OW 6001   5.288   2.714   4.721
 1701SOL    HW1 6002   5.289   2.619   4.691
 1701SOL    HW2 6003   5.242   2.770   4.652
 1702SOL     OW 6004   6.503   3.646   0.527
 1702SOL    HW1 6005   6.504   3.547   0.536
 1702SOL    HW2 6006   6.434   3.684   0.589
 1703SOL     OW 6007   3.251   4.072   2.764
 1703SOL    HW1 6008   3.172   4.134   2.765
 1703SOL    HW2 6009   3.223   3.980   2.792
 1704SOL     OW 6010   0.473   1.175   0.862
 1704SOL    HW1 6011   0.497   1.146   0.769
 1704SOL    HW2 6012   0.483   1.099   0.925
 1705SOL     OW 6013   3.267   2.070   1.889
 1705SOL    HW1 6014   3.320   2.135   1.835
 1705SOL    HW2 6015   3.329   2.003   1.931
 1706SOL     OW 6016   3.847   6.854   1.481
 1706SOL    HW1 6017   3.944   6.873   1.491
 1706SOL    HW2 6018   3.813   6.895   1.396
 1707SOL     OW 6019   4.060   1.632   2.052
 1707SOL    HW1 6020   4.000   1.584   2.116
 1707SOL    HW2 6021   4.128   1.685   2.104
 1708SOL     OW 6022   5.955   6.083   3.128
 1708SOL    HW1 6023   5.999   6.040   3.050
 1708SOL    HW2 6024   6.013   6.158   3.162
 1709SOL     OW 6025   2.659   6.463   1.830
 1709SOL    HW1 6026   2.671   6.364   1.841
 1709SOL    HW2 6027   2.581   6.493   1.884
 1710SOL     OW 6028   6.708   4.263   3.894
 1710SOL    HW1 6029   6.699   4.338   3.829
 1710SOL    HW2 6030   6.737   4.180   3.847
 1711SOL     OW 6031   1.845   4.554   5.332
 1711SOL    HW1 6032   1.912   4.504   5.278
 1711SOL    HW2 6033   1.825   4.503   5.416
 1712SOL     OW 6034   0.580   3.446   6.340
 1712SOL    HW1 6035   0.553   3.370   6.281
 1712SOL    HW2 6036   0.680   3.456   6.338
 1713SOL     OW 6037   2.813   2.073   1.307
 1713SOL    HW1 6038   2.785   2.031   1.220
 1713SOL    HW2 6039   2.904   2.114   1.296
 1714SOL     OW 6040   3.899   1.604   5.963
 1714SOL    HW1 6041   3.830   1.539   5.995
 1714SOL    HW2 6042   3.860   1.662   5.891
 1715SOL     OW 6043   7.028   3.513   2.928
 1715SOL    HW1 6044   0.035   3.541   2.839
 1715SOL    HW2 6045   6.944   3.461   2.914
 1716SOL     OW 6046   5.950   6.294   1.605
 1716SOL    HW1 6047   5.922   6.319   1.512
 1716SOL    HW2 6048   6.010   6.214   1.601
 1717SOL     OW 6049   2.609   6.283   6.459
 1717SOL    HW1 6050   2.543   6.281   6.535
 1717SOL    HW2 6051   2.619   6.377   6.427
 1718SOL     OW 6052   1.915   2.387   0.565
 1718SOL    HW1 6053   1.980   2.356   0.495
 1718SOL    HW2 6054   1.823   2.355   0.541
 1719SOL     OW 6055   2.394   3.793   1.121
 1719SOL    HW1 6056   2.343   3.768   1.204
 1719SOL    HW2 6057   2.456   3.718   1.097
 1720SOL     OW 6058   6.557   1.850   1.534
 1720SOL    HW1 6059   6.577   1.752   1.524
 1720SOL    HW2 6060   6.631   1.894   1.583
 1721SOL     OW 6061   1.510   6.819   2.378
 1721SOL    HW1 6062   1.574   6.895   2.388
 1721SOL    HW2 6063   1.529   6.770   2.294
 1722SOL     OW 6064   5.348   1.220   3.337
 1722SOL    HW1 6065   5.439   1.256   3.360
 1722SOL    HW2 6066   5.279   1.289   3.354
 1723SOL     OW 6067   6.706   2.052   3.705
 1723SOL    HW1 6068   6.743   1.975   3.652
 1723SOL    HW2 6069   6.718   2.137   3.654
 1724SOL     OW 6070   6.036   1.147   0.919
 1724SOL    HW1 6071   5.999   1.170   0.829
 1724SOL    HW2 6072   6.062   1.231   0.967
 1725SOL     OW 6073   3.365   4.467   0.518
 1725SOL    HW1 6074   3.304   4.392   0.544
 1725SOL    HW2 6075   3.391   4.518   0.600
 1726SOL     OW 6076   6.935   4.546   4.620
 1726SOL    HW1 6077   6.921   4.448   4.611
 1726SOL    HW2 6078   6.883   4.594   4.549
 1727SOL     OW 6079   3.539   3.006   3.939
 1727SOL    HW1 6080   3.597   3.087   3.953
 1727SOL    HW2 6081   3.497   2.981   4.026
 1728SOL     OW 6082   4.981   4.742   4.258
 1728SOL    HW1 6083   4.918   4.811   4.293
 1728SOL    HW2 6084   4.935   4.687   4.188
 1729SOL     OW 6085   2.093   3.712   3.808
 1729SOL    HW1 6086   2.033   3.775   3.760
 1729SOL    HW2 6087   2.120   3.751   3.896
 1730SOL     OW 6088   6.469   0.533   5.097
 1730SOL    HW1 6089   6.563   0.516   5.066
 1730SOL    HW2 6090   6.428   0.603   5.039
 1731SOL     OW 6091   1.189   5.158   2.386
 1731SOL    HW1 6092   1.192   5.082   2.321
 1731SOL    HW2 6093   1.282   5.185   2.410
 1732SOL     OW 6094   2.056   4.044   6.221
 1732SOL    HW1 6095   2.060   4.089   6.131
 1732SOL    HW2 6096   2.040   4.113   6.291
 1733SOL     OW 6097   1.770   3.201   2.201
 1733SOL    HW1 6098   1.843   3.248   2.151
 1733SOL    HW2 6099   1.681   3.235   2.168
 1734SOL     OW 6100   4.686   3.156   1.657
 1734SOL    HW1 6101   4.643   3.088   1.717
 1734SOL    HW2 6102   4.616   3.203   1.604
 1735SOL     OW 6103   5.934   5.459   1.743
 1735SOL    HW1 6104   5.902   5.368   1.714
 1735SOL    HW2 6105   5.894   5.481   1.832
 1736SOL     OW 6106   4.898   2.004   0.077
 1736SOL    HW1 6107   4.857   1.917   0.049
 1736SOL    HW2 6108   4.974   2.026   0.016
 1737SOL     OW 6109   3.149   0.261   3.891
 1737SOL    HW1 6110   3.241   0.297   3.901
 1737SOL    HW2 6111   3.139   0.220   3.800
 1738SOL     OW 6112   2.126   2.709   3.761
 1738SOL    HW1 6113   2.103   2.756   3.676
 1738SOL    HW2 6114   2.165   2.774   3.825
 1739SOL     OW 6115   4.769   2.418   5.030
 1739SOL    HW1 6116   4.722   2.507   5.036
 1739SOL    HW2 6117   4.772   2.388   4.935
 1740SOL     OW 6118   0.183   0.920   6.844
 1740SOL    HW1 6119   0.282   0.924   6.856
 1740SOL    HW2 6120   0.145   1.012   6.855
 1741SOL     OW 6121   2.407   1.165   2.571
 1741SOL    HW1 6122   2.424   1.069   2.593
 1741SOL    HW2 6123   2.494   1.209   2.545
 1742SOL     OW 6124   3.732   5.941   5.721
 1742SOL    HW1 6125   3.806   5.877   5.741
 1742SOL    HW2 6126   3.648   5.890   5.704
 1743SOL     OW 6127   2.306   1.466   2.530
 1743SOL    HW1 6128   2.352   1.377   2.529
 1743SOL    HW2 6129   2.334   1.519   2.451
 1744SOL     OW 6130   1.409   6.812   1.800
 1744SOL    HW1 6131   1.426   6.763   1.886
 1744SOL    HW2 6132   1.495   6.825   1.751
 1745SOL     OW 6133   6.762   1.437   4.780
 1745SOL    HW1 6134   6.789   1.501   4.852
 1745SOL    HW2 6135   6.797   1.346   4.801
 1746SOL     OW 6136   2.590   5.840   5.647
 1746SOL    HW1 6137   2.605   5.882   5.557
 1746SOL    HW2 6138   2.529   5.761   5.637
 1747SOL     OW 6139   5.122   6.735   2.892
 1747SOL    HW1 6140   5.072   6.816   2.860
 1747SOL    HW2 6141   5.108   6.724   2.991
 1748SOL     OW 6142   6.989   0.794   4.118
 1748SOL    HW1 6143   0.052   0.832   4.111
 1748SOL    HW2 6144   6.993   0.705   4.164
 1749SOL     OW 6145   3.515   6.698   5.571
 1749SOL    HW1 6146   3.560   6.671   5.486
 1749SOL    HW2 6147   3.544   6.790   5.596
 1750SOL     OW 6148   5.586   1.377   3.345
 1750SOL    HW1 6149   5.607   1.420   3.257
 1750SOL    HW2 6150   5.570   1.447   3.414
 1751SOL     OW 6151   2.995   4.969   4.587
 1751SOL    HW1 6152   2.965   4.894   4.646
 1751SOL    HW2 6153   2.968   5.056   4.628
 1752SOL     OW 6154   6.689   2.396   1.748
 1752SOL    HW1 6155   6.590   2.390   1.736
 1752SOL    HW2 6156   6.719   2.489   1.730
 1753SOL     OW 6157   0.676   1.314   0.325
 1753SOL    HW1 6158   0.690   1.298   0.422
 1753SOL    HW2 6159   0.584   1.351   0.310
 1754SOL     OW 6160   3.707   3.227   0.921
 1754SOL    HW1 6161   3.693   3.325   0.939
 1754SOL    HW2 6162   3.655   3.201   0.840
 1755SOL     OW 6163   5.664   5.031   2.121
 1755SOL    HW1 6164   5.584   5.065   2.072
 1755SOL    HW2 6165   5.745   5.039   2.064
 1756SOL     OW 6166   5.252   4.615   5.772
 1756SOL    HW1 6167   5.196   4.556   5.714
 1756SOL    HW2 6168   5.315   4.560   5.825
 1757SOL     OW 6169   2.062   6.685   4.769
 1757SOL    HW1 6170   2.064   6.753   4.695
 1757SOL    HW2 6171   2.011   6.605   4.738
 1758SOL     OW 6172   2.849   0.529   3.751
 1758SOL    HW1 6173   2.881   0.462   3.683
 1758SOL    HW2 6174   2.757   0.558   3.728
 1759SOL     OW 6175   0.214   5.487   6.322
 1759SOL    HW1 6176   0.144   5.535   6.268
 1759SOL    HW2 6177   0.252   5.549   6.390
 1760SOL     OW 6178   6.032   1.722   1.399
 1760SOL    HW1 6179   6.093   1.728   1.478
 1760SOL    HW2 6180   6.067   1.780   1.326
 1761SOL     OW 6181   6.640   6.877   0.557
 1761SOL    HW1 6182   6.607   6.960   0.602
 1761SOL    HW2 6183   6.658   6.807   0.626
 1762SOL     OW 6184   6.440   1.821   4.954
 1762SOL    HW1 6185   6.462   1.810   4.857
 1762SOL    HW2 6186   6.516   1.789   5.009
 1763SOL     OW 6187   1.479   3.870   4.227
 1763SOL    HW1 6188   1.529   3.914   4.301
 1763SOL    HW2 6189   1.515   3.778   4.212
 1764SOL     OW 6190   1.952   3.384   2.668
 1764SOL    HW1 6191   1.921   3.328   2.745
 1764SOL    HW2 6192   2.005   3.461   2.702
 1765SOL     OW 6193   3.448   2.065   6.992
 1765SOL    HW1 6194   3.512   1.996   7.028
 1765SOL    HW2 6195   3.435   2.051   6.894
 1766SOL     OW 6196   5.394   2.954   3.843
 1766SOL    HW1 6197   5.444   2.894   3.906
 1766SOL    HW2 6198   5.379   3.043   3.888
 1767SOL     OW 6199   5.285   4.187   2.652
 1767SOL    HW1 6200   5.331   4.260   2.601
 1767SOL    HW2 6201   5.186   4.192   2.635
 1768SOL     OW 6202   4.060   0.724   4.991
 1768SOL    HW1 6203   3.976   0.734   4.938
 1768SOL    HW2 6204   4.097   0.815   5.012
 1769SOL     OW 6205   4.168   2.307   4.148
 1769SOL    HW1 6206   4.174   2.396   4.104
 1769SOL    HW2 6207   4.248   2.292   4.205
 1770SOL     OW 6208   1.747   6.047   5.324
 1770SOL    HW1 6209   1.775   6.098   5.406
 1770SOL    HW2 6210   1.810   6.069   5.249
 1771SOL     OW 6211   2.901   5.271   6.775
 1771SOL    HW1 6212   2.823   5.333   6.764
 1771SOL    HW2 6213   2.979   5.322   6.812
 1772SOL     OW 6214   3.514   6.380   3.763
 1772SOL    HW1 6215   3.522   6.305   3.829
 1772SOL    HW2 6216   3.604   6.419   3.746
 1773SOL     OW 6217   2.208   5.039   5.730
 1773SOL    HW1 6218   2.177   5.110   5.794
 1773SOL    HW2 6219   2.274   5.078   5.666
 1774SOL     OW 6220   4.701   6.151   1.590
 1774SOL    HW1 6221   4.666   6.233   1.545
 1774SOL    HW2 6222   4.796   6.136   1.565
 1775SOL     OW 6223   1.818   4.226   3.567
 1775SOL    HW1 6224   1.771   4.236   3.655
 1775SOL    HW2 6225   1.756   4.252   3.493
 1776SOL     OW 6226   3.176   0.116   3.647
 1776SOL    HW1 6227   3.241   0.168   3.591
 1776SOL    HW2 6228   3.224   0.044   3.697
 1777SOL     OW 6229   3.607   5.462   5.749
 1777SOL    HW1 6230   3.578   5.366   5.755
 1777SOL    HW2 6231   3.669   5.474   5.672
 1778SOL     OW 6232   4.288   3.595   5.498
 1778SOL    HW1 6233   4.241   3.639   5.422
 1778SOL    HW2 6234   4.385   3.584   5.475
 1779SOL     OW 6235   4.380   0.881   4.426
 1779SOL    HW1 6236   4.336   0.825   4.355
 1779SOL    HW2 6237   4.405   0.824   4.503
 1780SOL     OW 6238   3.365   2.914   6.696
 1780SOL    HW1 6239   3.401   3.003   6.666
 1780SOL    HW2 6240   3.287   2.889   6.638
 1781SOL     OW 6241   4.505   5.991   3.621
 1781SOL    HW1 6242   4.541   5.926   3.687
 1781SOL    HW2 6243   4.553   6.079   3.630
 1782SOL     OW 6244   2.996   1.855   2.536
 1782SOL    HW1 6245   3.030   1.946   2.511
 1782SOL    HW2 6246   2.974   1.852   2.633
 1783SOL     OW 6247   1.672   5.237   6.340
 1783SOL    HW1 6248   1.695   5.172   6.412
 1783SOL    HW2 6249   1.590   5.205   6.292
 1784SOL     OW 6250   4.227   1.230   5.799
 1784SOL    HW1 6251   4.166   1.297   5.841
 1784SOL    HW2 6252   4.225   1.240   5.700
 1785SOL     OW 6253   6.257   3.902   3.608
 1785SOL    HW1 6254   6.166   3.879   3.575
 1785SOL    HW2 6255   6.276   3.998   3.590
 1786SOL     OW 6256   1.929   2.322   0.042
 1786SOL    HW1 6257   1.866   2.395   0.070
 1786SOL    HW2 6258   2.022   2.360   0.035
 1787SOL     OW 6259   3.340   1.031   5.124
 1787SOL    HW1 6260   3.281   1.089   5.068
 1787SOL    HW2 6261   3.355   0.944   5.078
 1788SOL     OW 6262   2.965   2.977   6.869
 1788SOL    HW1 6263   2.951   2.994   6.966
 1788SOL    HW2 6264   2.956   2.879   6.850
 1789SOL     OW 6265   6.135   2.012   3.247
 1789SOL    HW1 6266   6.114   1.947   3.174
 1789SOL    HW2 6267   6.051   2.042   3.292
 1790SOL     OW 6268   4.275   5.865   3.920
 1790SOL    HW1 6269   4.183   5.855   3.960
 1790SOL    HW2 6270   4.314   5.952   3.948
 1791SOL     OW 6271   5.997   0.750   3.126
 1791SOL    HW1 6272   5.943   0.833   3.133
 1791SOL    HW2 6273   6.058   0.743   3.205
 1792SOL     OW 6274   6.869   3.262   4.906
 1792SOL    HW1 6275   6.857   3.241   5.003
 1792SOL    HW2 6276   6.912   3.353   4.897
 1793SOL     OW 6277   6.442   6.965   3.183
 1793SOL    HW1 6278   6.439   6.934   3.279
 1793SOL    HW2 6279   6.443   6.885   3.123
 1794SOL     OW 6280   5.382   5.969   5.775
 1794SOL    HW1 6281   5.403   5.886   5.827
 1794SOL    HW2 6282   5.286   5.994   5.790
 1795SOL     OW 6283   1.098   2.040   0.580
 1795SOL    HW1 6284   1.197   2.033   0.566
 1795SOL    HW2 6285   1.067   2.129   0.548
 1796SOL     OW 6286   2.294   0.787   4.454
 1796SOL    HW1 6287   2.323   0.858   4.390
 1796SOL    HW2 6288   2.373   0.752   4.504
 1797SOL     OW 6289   1.391   6.592   0.054
 1797SOL    HW1 6290   1.330   6.530   0.103
 1797SOL    HW2 6291   1.338   6.658   0.002
 1798SOL     OW 6292   5.358   2.542   3.680
 1798SOL    HW1 6293   5.298   2.604   3.628
 1798SOL    HW2 6294   5.311   2.455   3.693
 1799SOL     OW 6295   7.007   2.018   6.030
 1799SOL    HW1 6296   7.003   1.937   6.087
 1799SOL    HW2 6297   0.041   2.085   6.070
 1800SOL     OW 6298   3.825   4.919   1.984
 1800SOL    HW1 6299   3.848   4.860   1.907
 1800SOL    HW2 6300   3.728   4.910   2.005
 1801SOL     OW 6301   0.385   0.616   1.969
 1801SOL    HW1 6302   0.390   0.517   1.984
 1801SOL    HW2 6303   0.424   0.663   2.048
 1802SOL     OW 6304   5.433   5.391   3.462
 1802SOL    HW1 6305   5.417   5.388   3.364
 1802SOL    HW2 6306   5.531   5.394   3.480
 1803SOL     OW 6307   0.761   5.827   6.718
 1803SOL    HW1 6308   0.706   5.746   6.698
 1803SOL    HW2 6309   0.759   5.846   6.816
 1804SOL     OW 6310   2.627   4.034   5.380
 1804SOL    HW1 6311   2.563   3.980   5.433
 1804SOL    HW2 6312   2.589   4.051   5.289
 1805SOL     OW 6313   6.228   3.854   5.909
 1805SOL    HW1 6314   6.274   3.883   5.826
 1805SOL    HW2 6315   6.163   3.780   5.888
 1806SOL     OW 6316   0.122   0.651   0.387
 1806SOL    HW1 6317   0.039   0.624   0.338
 1806SOL    HW2 6318   0.100   0.720   0.456
 1807SOL     OW 6319   5.572   2.671   4.844
 1807SOL    HW1 6320   5.492   2.683   4.786
 1807SOL    HW2 6321   5.601   2.759   4.880
 1808SOL     OW 6322   0.385   4.568   5.931
 1808SOL    HW1 6323   0.427   4.482   5.962
 1808SOL    HW2 6324   0.454   4.622   5.882
 1809SOL     OW 6325   1.961   2.268   4.657
 1809SOL    HW1 6326   1.988   2.362   4.636
 1809SOL    HW2 6327   1.987   2.246   4.751
 1810SOL     OW 6328   2.809   6.746   3.409
 1810SOL    HW1 6329   2.751   6.679   3.456
 1810SOL    HW2 6330   2.776   6.838   3.431
 1811SOL     OW 6331   6.133   5.629   3.668
 1811SOL    HW1 6332   6.037   5.635   3.693
 1811SOL    HW2 6333   6.155   5.701   3.602
 1812SOL     OW 6334   4.440   6.320   5.067
 1812SOL    HW1 6335   4.494   6.319   4.983
 1812SOL    HW2 6336   4.491   6.276   5.141
 1813SOL     OW 6337   6.640   5.071   1.205
 1813SOL    HW1 6338   6.551   5.085   1.248
 1813SOL    HW2 6339   6.706   5.136   1.242
 1814SOL     OW 6340   6.128   0.841   1.354
 1814SOL    HW1 6341   6.115   0.776   1.429
 1814SOL    HW2 6342   6.217   0.885   1.363
 1815SOL     OW 6343   0.027   2.179   2.564
 1815SOL    HW1 6344   0.004   2.127   2.482
 1815SOL    HW2 6345   0.103   2.135   2.612
 1816SOL     OW 6346   2.969   2.885   1.028
 1816SOL    HW1 6347   2.917   2.865   0.945
 1816SOL    HW2 6348   3.006   2.978   1.023
 1817SOL     OW 6349   2.786   0.039   2.588
 1817SOL    HW1 6350   2.872   0.051   2.636
 1817SOL    HW2 6351   2.749   0.128   2.561
 1818SOL     OW 6352   1.431   0.268   2.729
 1818SOL    HW1 6353   1.360   0.281   2.799
 1818SOL    HW2 6354   1.521   0.279   2.771
 1819SOL     OW 6355   1.624   4.266   1.436
 1819SOL    HW1 6356   1.641   4.185   1.492
 1819SOL    HW2 6357   1.525   4.276   1.421
 1820SOL     OW 6358   4.548   1.198   2.301
 1820SOL    HW1 6359   4.460   1.179   2.345
 1820SOL    HW2 6360   4.614   1.226   2.371
 1821SOL     OW 6361   0.579   1.221   2.174
 1821SOL    HW1 6362   0.630   1.138   2.152
 1821SOL    HW2 6363   0.640   1.290   2.211
 1822SOL     OW 6364   2.725   3.171   0.971
 1822SOL    HW1 6365   2.797   3.237   0.993
 1822SOL    HW2 6366   2.703   3.178   0.874
 1823SOL     OW 6367   3.110   5.928   3.057
 1823SOL    HW1 6368   3.113   5.946   2.959
 1823SOL    HW2 6369   3.116   5.829   3.073
 1824SOL     OW 6370   3.102   2.471   0.896
 1824SOL    HW1 6371   3.092   2.547   0.960
 1824SOL    HW2 6372   3.083   2.385   0.942
 1825SOL     OW 6373   1.381   0.994   2.869
 1825SOL    HW1 6374   1.391   0.898   2.842
 1825SOL    HW2 6375   1.386   1.001   2.969
 1826SOL     OW 6376   3.212   0.559   1.291
 1826SOL    HW1 6377   3.252   0.590   1.377
 1826SOL    HW2 6378   3.256   0.607   1.215
 1827SOL     OW 6379   0.073   5.623   2.438
 1827SOL    HW1 6380   0.034   5.621   2.530
 1827SOL    HW2 6381   0.106   5.531   2.413
 1828SOL     OW 6382   0.669   2.819   0.642
 1828SOL    HW1 6383   0.703   2.741   0.589
 1828SOL    HW2 6384   0.620   2.882   0.582
 1829SOL     OW 6385   4.078   0.081   3.426
 1829SOL    HW1 6386   3.979   0.083   3.410
 1829SOL    HW2 6387   4.116   0.172   3.414
 1830SOL     OW 6388   5.448   5.961   4.185
 1830SOL    HW1 6389   5.391   6.029   4.139
 1830SOL    HW2 6390   5.392   5.906   4.247
 1831SOL     OW 6391   5.779   0.186   2.673
 1831SOL    HW1 6392   5.795   0.231   2.585
 1831SOL    HW2 6393   5.696   0.131   2.668
 1832SOL     OW 6394   5.517   1.508   0.852
 1832SOL    HW1 6395   5.476   1.593   0.818
 1832SOL    HW2 6396   5.614   1.508   0.829
 1833SOL     OW 6397   5.754   1.282   5.349
 1833SOL    HW1 6398   5.680   1.231   5.395
 1833SOL    HW2 6399   5.836   1.225   5.347
 1834SOL     OW 6400   3.084   3.755   0.420
 1834SOL    HW1 6401   3.115   3.686   0.484
 1834SOL    HW2 6402   3.162   3.811   0.390
 1835SOL     OW 6403   1.414   4.218   1.638
 1835SOL    HW1 6404   1.386   4.285   1.568
 1835SOL    HW2 6405   1.413   4.261   1.728
 1836SOL     OW 6406   5.791   1.587   0.835
 1836SOL    HW1 6407   5.782   1.584   0.935
 1836SOL    HW2 6408   5.783   1.681   0.803
 1837SOL     OW 6409   0.730   2.485   3.666
 1837SOL    HW1 6410   0.729   2.391   3.700
 1837SOL    HW2 6411   0.747   2.484   3.567
 1838SOL     OW 6412   0.028   1.903   3.975
 1838SOL    HW1 6413   0.077   1.977   4.022
 1838SOL    HW2 6414   6.960   1.928   3.966
 1839SOL     OW 6415   4.476   2.367   5.162
 1839SOL    HW1 6416   4.574   2.373   5.142
 1839SOL    HW2 6417   4.426   2.434   5.107
 1840SOL     OW 6418   3.848   5.832   1.114
 1840SOL    HW1 6419   3.800   5.781   1.044
 1840SOL    HW2 6420   3.791   5.908   1.146
 1841SOL     OW 6421   2.247   2.723   4.238
 1841SOL    HW1 6422   2.240   2.771   4.326
 1841SOL    HW2 6423   2.155   2.712   4.199
 1842SOL     OW 6424   1.168   5.644   0.424
 1842SOL    HW1 6425   1.152   5.725   0.367
 1842SOL    HW2 6426   1.233   5.667   0.496
 1843SOL     OW 6427   0.682   1.946   4.506
 1843SOL    HW1 6428   0.682   1.935   4.406
 1843SOL    HW2 6429   0.635   2.031   4.530
 1844SOL     OW 6430   3.762   0.410   5.583
 1844SOL    HW1 6431   3.845   0.464   5.588
 1844SOL    HW2 6432   3.735   0.399   5.487
 1845SOL     OW 6433   2.264   0.083   5.438
 1845SOL    HW1 6434   2.313   0.130   5.511
 1845SOL    HW2 6435   2.321   0.080   5.355
 1846SOL     OW 6436   3.853   1.629   0.166
 1846SOL    HW1 6437   3.753   1.635   0.163
 1846SOL    HW2 6438   3.888   1.692   0.235
 1847SOL     OW 6439   1.446   1.281   6.872
 1847SOL    HW1 6440   1.540   1.280   6.837
 1847SOL    HW2 6441   1.395   1.204   6.835
 1848SOL     OW 6442   1.278   6.945   2.077
 1848SOL    HW1 6443   1.236   6.920   1.990
 1848SOL    HW2 6444   1.323   0.005   2.068
 1849SOL     OW 6445   3.824   1.584   0.663
 1849SOL    HW1 6446   3.889   1.586   0.587
 1849SOL    HW2 6447   3.740   1.540   0.634
 1850SOL     OW 6448   6.467   3.077   2.451
 1850SOL    HW1 6449   6.443   3.173   2.437
 1850SOL    HW2 6450   6.383   3.023   2.458
 1851SOL     OW 6451   0.405   1.542   1.088
 1851SOL    HW1 6452   0.370   1.455   1.054
 1851SOL    HW2 6453   0.422   1.604   1.012
 1852SOL     OW 6454   5.651   3.748   1.213
 1852SOL    HW1 6455   5.670   3.654   1.239
 1852SOL    HW2 6456   5.662   3.759   1.114
 1853SOL     OW 6457   0.600   2.945   2.098
 1853SOL    HW1 6458   0.597   2.882   2.176
 1853SOL    HW2 6459   0.682   3.000   2.104
 1854SOL     OW 6460   2.861   5.879   3.207
 1854SOL    HW1 6461   2.958   5.904   3.201
 1854SOL    HW2 6462   2.805   5.957   3.177
 1855SOL     OW 6463   4.505   4.177   6.774
 1855SOL    HW1 6464   4.483   4.105   6.708
 1855SOL    HW2 6465   4.444   4.170   6.852
 1856SOL     OW 6466   6.644   3.583   5.401
 1856SOL    HW1 6467   6.562   3.634   5.373
 1856SOL    HW2 6468   6.721   3.611   5.345
 1857SOL     OW 6469   3.364   1.030   6.004
 1857SOL    HW1 6470   3.432   0.993   6.069
 1857SOL    HW2 6471   3.391   1.006   5.911
 1858SOL     OW 6472   5.995   2.768   3.898
 1858SOL    HW1 6473   6.057   2.837   3.861
 1858SOL    HW2 6474   5.982   2.695   3.831
 1859SOL     OW 6475   4.179   1.524   3.243
 1859SOL    HW1 6476   4.185   1.595   3.312
 1859SOL    HW2 6477   4.231   1.444   3.272
 1860SOL     OW 6478   6.368   0.416   3.665
 1860SOL    HW1 6479   6.356   0.353   3.741
 1860SOL    HW2 6480   6.360   0.366   3.578
 1861SOL     OW 6481   4.923   6.607   2.664
 1861SOL    HW1 6482   4.958   6.568   2.750
 1861SOL    HW2 6483   4.996   6.657   2.618
 1862SOL     OW 6484   2.241   0.198   6.422
 1862SOL    HW1 6485   2.269   0.292   6.407
 1862SOL    HW2 6486   2.230   0.181   6.520
 1863SOL     OW 6487   2.251   2.032   0.157
 1863SOL    HW1 6488   2.347   2.044   0.133
 1863SOL    HW2 6489   2.220   1.943   0.126
 1864SOL     OW 6490   1.073   6.620   5.833
 1864SOL    HW1 6491   0.987   6.629   5.783
 1864SOL    HW2 6492   1.131   6.553   5.787
 1865SOL     OW 6493   3.571   6.959   5.654
 1865SOL    HW1 6494   3.501   7.010   5.704
 1865SOL    HW2 6495   3.632   7.022   5.608
 1866SOL     OW 6496   4.144   5.096   3.213
 1866SOL    HW1 6497   4.136   5.007   3.258
 1866SOL    HW2 6498   4.148   5.083   3.114
 1867SOL     OW 6499   1.026   4.701   0.349
 1867SOL    HW1 6500   1.027   4.724   0.446
 1867SOL    HW2 6501   1.118   4.679   0.319
 1868SOL     OW 6502   4.852   3.923   0.701
 1868SOL    HW1 6503   4.809   3.842   0.661
 1868SOL    HW2 6504   4.795   3.957   0.776
 1869SOL     OW 6505   6.699   2.050   5.334
 1869SOL    HW1 6506   6.655   2.020   5.419
 1869SOL    HW2 6507   6.637   2.110   5.284
 1870SOL     OW 6508   1.946   3.349   5.914
 1870SOL    HW1 6509   2.000   3.373   5.994
 1870SOL    HW2 6510   1.852   3.331   5.941
 1871SOL     OW 6511   0.955   0.286   6.546
 1871SOL    HW1 6512   1.055   0.275   6.548
 1871SOL    HW2 6513   0.924   0.327   6.632
 1872SOL     OW 6514   3.591   3.287   6.901
 1872SOL    HW1 6515   3.644   3.235   6.835
 1872SOL    HW2 6516   3.618   3.383   6.897
 1873SOL     OW 6517   4.900   1.259   5.164
 1873SOL    HW1 6518   4.848   1.173   5.160
 1873SOL    HW2 6519   4.886   1.302   5.253
 1874SOL     OW 6520   2.577   0.867   0.873
 1874SOL    HW1 6521   2.557   0.906   0.783
 1874SOL    HW2 6522   2.542   0.928   0.944
 1875SOL     OW 6523   0.256   1.346   6.937
 1875SOL    HW1 6524   0.325   1.398   6.987
 1875SOL    HW2 6525   0.296   1.309   6.854
 1876SOL     OW 6526   3.877   0.151   5.885
 1876SOL    HW1 6527   3.820   0.207   5.945
 1876SOL    HW2 6528   3.899   0.064   5.930
 1877SOL     OW 6529   0.674   0.353   2.506
 1877SOL    HW1 6530   0.645   0.448   2.514
 1877SOL    HW2 6531   0.693   0.316   2.597
 1878SOL     OW 6532   6.450   1.639   3.693
 1878SOL    HW1 6533   6.515   1.568   3.664
 1878SOL    HW2 6534   6.451   1.714   3.628
 1879SOL     OW 6535   1.090   4.314   3.933
 1879SOL    HW1 6536   1.132   4.279   4.016
 1879SOL    HW2 6537   1.022   4.248   3.899
 1880SOL     OW 6538   6.913   1.670   4.910
 1880SOL    HW1 6539   6.887   1.750   4.965
 1880SOL    HW2 6540   6.989   1.623   4.955
 1881SOL     OW 6541   6.058   2.344   3.056
 1881SOL    HW1 6542   6.082   2.370   2.962
 1881SOL    HW2 6543   6.118   2.270   3.087
 1882SOL     OW 6544   1.056   4.226   6.727
 1882SOL    HW1 6545   1.111   4.221   6.811
 1882SOL    HW2 6546   1.116   4.217   6.648
 1883SOL     OW 6547   0.047   2.179   3.179
 1883SOL    HW1 6548   7.027   2.247   3.124
 1883SOL    HW2 6549   0.096   2.116   3.118
 1884SOL     OW 6550   0.202   1.757   0.343
 1884SOL    HW1 6551   0.134   1.741   0.414
 1884SOL    HW2 6552   0.278   1.811   0.380
 1885SOL     OW 6553   2.222   1.950   6.402
 1885SOL    HW1 6554   2.303   1.980   6.452
 1885SOL    HW2 6555   2.149   2.017   6.414
 1886SOL     OW 6556   1.459   0.290   1.783
 1886SOL    HW1 6557   1.477   0.222   1.854
 1886SOL    HW2 6558   1.463   0.381   1.823
 1887SOL     OW 6559   0.519   5.311   5.417
 1887SOL    HW1 6560   0.525   5.229   5.360
 1887SOL    HW2 6561   0.509   5.285   5.513
 1888SOL     OW 6562   3.251   2.605   6.557
 1888SOL    HW1 6563   3.219   2.689   6.513
 1888SOL    HW2 6564   3.256   2.620   6.656
 1889SOL     OW 6565   0.252   3.814   5.289
 1889SOL    HW1 6566   0.274   3.748   5.361
 1889SOL    HW2 6567   0.246   3.906   5.328
 1890SOL     OW 6568   1.399   5.762   3.950
 1890SOL    HW1 6569   1.424   5.821   3.874
 1890SOL    HW2 6570   1.333   5.810   4.008
 1891SOL     OW 6571   4.729   2.844   1.410
 1891SOL    HW1 6572   4.661   2.910   1.377
 1891SOL    HW2 6573   4.682   2.766   1.451
 1892SOL     OW 6574   1.099   6.860   2.245
 1892SOL    HW1 6575   1.191   6.877   2.210
 1892SOL    HW2 6576   1.036   6.852   2.168
 1893SOL     OW 6577   3.360   3.340   1.644
 1893SOL    HW1 6578   3.273   3.385   1.665
 1893SOL    HW2 6579   3.343   3.263   1.583
 1894SOL     OW 6580   3.904   3.036   3.770
 1894SOL    HW1 6581   3.822   3.001   3.725
 1894SOL    HW2 6582   3.985   3.016   3.714
 1895SOL     OW 6583   4.253   0.149   0.857
 1895SOL    HW1 6584   4.267   0.189   0.767
 1895SOL    HW2 6585   4.312   0.068   0.868
 1896SOL     OW 6586   5.706   1.974   1.393
 1896SOL    HW1 6587   5.619   1.980   1.443
 1896SOL    HW2 6588   5.735   1.878   1.389
 1897SOL     OW 6589   2.263   5.200   1.745
 1897SOL    HW1 6590   2.188   5.255   1.780
 1897SOL    HW2 6591   2.266   5.206   1.646
 1898SOL     OW 6592   2.333   5.083   3.927
 1898SOL    HW1 6593   2.322   5.078   4.026
 1898SOL    HW2 6594   2.277   5.012   3.884
 1899SOL     OW 6595   0.184   1.725   0.803
 1899SOL    HW1 6596   0.222   1.795   0.864
 1899SOL    HW2 6597   0.113   1.674   0.851
 1900SOL     OW 6598   2.232   0.449   0.006
 1900SOL    HW1 6599   2.299   0.377   7.018
 1900SOL    HW2 6600   2.276   0.539   7.027
 1901SOL     OW 6601   2.002   2.288   0.904
 1901SOL    HW1 6602   2.077   2.250   0.959
 1901SOL    HW2 6603   2.014   2.262   0.809
 1902SOL     OW 6604   2.213   1.079   4.664
 1902SOL    HW1 6605   2.196   1.154   4.728
 1902SOL    HW2 6606   2.311   1.061   4.659
 1903SOL     OW 6607   0.623   2.948   2.837
 1903SOL    HW1 6608   0.656   2.870   2.784
 1903SOL    HW2 6609   0.639   2.932   2.934
 1904SOL     OW 6610   5.821   5.129   3.440
 1904SOL    HW1 6611   5.870   5.207   3.402
 1904SOL    HW2 6612   5.849   5.115   3.535
 1905SOL     OW 6613   0.564   0.230   3.373
 1905SOL    HW1 6614   0.527   0.295   3.307
 1905SOL    HW2 6615   0.505   0.149   3.377
 1906SOL     OW 6616   3.443   0.524   5.666
 1906SOL    HW1 6617   3.480   0.527   5.574
 1906SOL    HW2 6618   3.517   0.511   5.732
 1907SOL     OW 6619   4.286   2.144   1.540
 1907SOL    HW1 6620   4.341   2.061   1.552
 1907SOL    HW2 6621   4.201   2.136   1.593
 1908SOL     OW 6622   3.719   5.811   6.492
 1908SOL    HW1 6623   3.647   5.880   6.482
 1908SOL    HW2 6624   3.690   5.741   6.557
 1909SOL     OW 6625   0.732   2.974   3.586
 1909SOL    HW1 6626   0.817   3.012   3.623
 1909SOL    HW2 6627   0.658   3.040   3.598
 1910SOL     OW 6628   0.088   5.397   5.942
 1910SOL    HW1 6629   0.068   5.391   5.844
 1910SOL    HW2 6630   0.151   5.324   5.967
 1911SOL     OW 6631   0.358   3.735   4.753
 1911SOL    HW1 6632   0.410   3.813   4.786
 1911SOL    HW2 6633   0.419   3.670   4.709
 1912SOL     OW 6634   2.810   5.963   1.710
 1912SOL    HW1 6635   2.881   6.022   1.750
 1912SOL    HW2 6636   2.733   6.019   1.679
 1913SOL     OW 6637   2.860   0.642   4.967
 1913SOL    HW1 6638   2.950   0.635   5.009
 1913SOL    HW2 6639   2.827   0.550   4.943
 1914SOL     OW 6640   3.431   3.081   7.013
 1914SOL    HW1 6641   3.495   3.009   0.010
 1914SOL    HW2 6642   3.481   3.162   6.984
 1915SOL     OW 6643   4.507   2.808   6.192
 1915SOL    HW1 6644   4.550   2.858   6.268
 1915SOL    HW2 6645   4.438   2.746   6.227
 1916SOL     OW 6646   4.870   6.265   0.981
 1916SOL    HW1 6647   4.904   6.269   0.887
 1916SOL    HW2 6648   4.828   6.353   1.005
 1917SOL     OW 6649   2.081   3.533   0.113
 1917SOL    HW1 6650   2.046   3.624   0.092
 1917SOL    HW2 6651   2.055   3.470   0.040
 1918SOL     OW 6652   0.421   0.587   5.030
 1918SOL    HW1 6653   0.339   0.643   5.024
 1918SOL    HW2 6654   0.492   0.636   5.081
 1919SOL     OW 6655   2.017   1.444   1.751
 1919SOL    HW1 6656   1.982   1.479   1.665
 1919SOL    HW2 6657   1.949   1.383   1.792
 1920SOL     OW 6658   6.416   4.007   3.316
 1920SOL    HW1 6659   6.498   4.021   3.260
 1920SOL    HW2 6660   6.406   3.910   3.338
 1921SOL     OW 6661   1.956   2.907   0.230
 1921SOL    HW1 6662   2.000   2.982   0.278
 1921SOL    HW2 6663   1.885   2.944   0.170
 1922SOL     OW 6664   2.884   3.362   1.748
 1922SOL    HW1 6665   2.890   3.459   1.773
 1922SOL    HW2 6666   2.799   3.345   1.699
 1923SOL     OW 6667   3.940   1.940   6.542
 1923SOL    HW1 6668   3.920   1.845   6.521
 1923SOL    HW2 6669   3.975   1.986   6.460
 1924SOL     OW 6670   4.435   7.005   0.638
 1924SOL    HW1 6671   4.417   0.031   0.557
 1924SOL    HW2 6672   4.499   6.931   0.615
 1925SOL     OW 6673   1.371   4.963   1.636
 1925SOL    HW1 6674   1.420   4.898   1.579
 1925SOL    HW2 6675   1.379   5.055   1.597
 1926SOL     OW 6676   3.262   0.229   2.250
 1926SOL    HW1 6677   3.305   0.235   2.340
 1926SOL    HW2 6678   3.261   0.133   2.220
 1927SOL     OW 6679   2.006   4.033   0.622
 1927SOL    HW1 6680   1.965   4.111   0.668
 1927SOL    HW2 6681   1.965   3.949   0.656
 1928SOL     OW 6682   5.395   4.499   4.488
 1928SOL    HW1 6683   5.309   4.535   4.450
 1928SOL    HW2 6684   5.398   4.400   4.475
 1929SOL     OW 6685   2.104   0.782   2.005
 1929SOL    HW1 6686   2.180   0.756   2.065
 1929SOL    HW2 6687   2.075   0.875   2.026
 1930SOL     OW 6688   5.586   3.146   6.637
 1930SOL    HW1 6689   5.522   3.094   6.694
 1930SOL    HW2 6690   5.679   3.131   6.669
 1931SOL     OW 6691   1.029   2.016   6.853
 1931SOL    HW1 6692   0.938   2.043   6.883
 1931SOL    HW2 6693   1.022   1.939   6.789
 1932SOL     OW 6694   4.830   2.820   3.395
 1932SOL    HW1 6695   4.879   2.810   3.482
 1932SOL    HW2 6696   4.788   2.911   3.391
 1933SOL     OW 6697   1.298   2.460   0.700
 1933SOL    HW1 6698   1.325   2.382   0.756
 1933SOL    HW2 6699   1.268   2.427   0.610
 1934SOL     OW 6700   0.063   1.071   5.269
 1934SOL    HW1 6701   0.123   1.083   5.349
 1934SOL    HW2 6702   0.072   1.150   5.209
 1935SOL     OW 6703   4.215   4.994   3.657
 1935SOL    HW1 6704   4.198   5.030   3.566
 1935SOL    HW2 6705   4.219   5.070   3.723
 1936SOL     OW 6706   4.924   3.585   4.346
 1936SOL    HW1 6707   4.988   3.631   4.284
 1936SOL    HW2 6708   4.836   3.633   4.345
 1937SOL     OW 6709   4.261   6.316   0.221
 1937SOL    HW1 6710   4.270   6.253   0.299
 1937SOL    HW2 6711   4.344   6.311   0.166
 1938SOL     OW 6712   1.164   2.163   0.970
 1938SOL    HW1 6713   1.129   2.072   0.947
 1938SOL    HW2 6714   1.261   2.168   0.949
 1939SOL     OW 6715   0.487   6.089   4.279
 1939SOL    HW1 6716   0.389   6.105   4.274
 1939SOL    HW2 6717   0.534   6.146   4.212
 1940SOL     OW 6718   6.005   4.095   1.244
 1940SOL    HW1 6719   6.009   4.009   1.193
 1940SOL    HW2 6720   6.026   4.077   1.340
 1941SOL     OW 6721   0.978   3.112   3.587
 1941SOL    HW1 6722   1.075   3.084   3.588
 1941SOL    HW2 6723   0.971   3.209   3.565
 1942SOL     OW 6724   5.348   4.215   2.915
 1942SOL    HW1 6725   5.397   4.300   2.933
 1942SOL    HW2 6726   5.339   4.201   2.816
 1943SOL     OW 6727   1.190   1.384   2.944
 1943SOL    HW1 6728   1.284   1.353   2.955
 1943SOL    HW2 6729   1.136   1.313   2.898
 1944SOL     OW 6730   6.415   4.543   6.970
 1944SOL    HW1 6731   6.430   4.498   6.882
 1944SOL    HW2 6732   6.444   4.483   0.015
 1945SOL     OW 6733   3.940   6.328   1.151
 1945SOL    HW1 6734   3.855   6.307   1.103
 1945SOL    HW2 6735   3.920   6.348   1.247
 1946SOL     OW 6736   6.297   6.485   1.685
 1946SOL    HW1 6737   6.336   6.440   1.605
 1946SOL    HW2 6738   6.208   6.524   1.662
 1947SOL     OW 6739   6.217   5.589   4.424
 1947SOL    HW1 6740   6.163   5.668   4.397
 1947SOL    HW2 6741   6.297   5.620   4.475
 1948SOL     OW 6742   5.781   5.076   2.984
 1948SOL    HW1 6743   5.759   5.014   2.909
 1948SOL    HW2 6744   5.720   5.056   3.062
 1949SOL     OW 6745   4.083   3.861   0.403
 1949SOL    HW1 6746   4.182   3.857   0.387
 1949SOL    HW2 6747   4.045   3.941   0.356
 1950SOL     OW 6748   4.023   3.238   3.453
 1950SOL    HW1 6749   3.998   3.298   3.529
 1950SOL    HW2 6750   4.039   3.293   3.371
 1951SOL     OW 6751   7.019   4.301   6.017
 1951SOL    HW1 6752   0.040   4.387   6.020
 1951SOL    HW2 6753   0.042   4.230   6.065
 1952SOL     OW 6754   5.449   4.611   1.444
 1952SOL    HW1 6755   5.387   4.680   1.482
 1952SOL    HW2 6756   5.469   4.633   1.349
 1953SOL     OW 6757   6.942   1.444   6.364
 1953SOL    HW1 6758   6.853   1.453   6.318
 1953SOL    HW2 6759   6.955   1.523   6.425
 1954SOL     OW 6760   5.354   0.177   1.412
 1954SOL    HW1 6761   5.302   0.126   1.344
 1954SOL    HW2 6762   5.443   0.204   1.374
 1955SOL     OW 6763   0.164   0.933   1.274
 1955SOL    HW1 6764   0.218   0.859   1.313
 1955SOL    HW2 6765   0.135   0.909   1.181
 1956SOL     OW 6766   4.510   6.960   2.593
 1956SOL    HW1 6767   4.555   6.876   2.622
 1956SOL    HW2 6768   4.580   0.001   2.575
 1957SOL     OW 6769   5.188   3.449   4.121
 1957SOL    HW1 6770   5.146   3.361   4.145
 1957SOL    HW2 6771   5.206   3.501   4.205
 1958SOL     OW 6772   4.619   1.394   1.600
 1958SOL    HW1 6773   4.579   1.358   1.684
 1958SOL    HW2 6774   4.546   1.429   1.541
 1959SOL     OW 6775   6.529   6.365   4.094
 1959SOL    HW1 6776   6.523   6.279   4.043
 1959SOL    HW2 6777   6.527   6.346   4.192
 1960SOL     OW 6778   0.228   3.179   2.745
 1960SOL    HW1 6779   0.190   3.179   2.652
 1960SOL    HW2 6780   0.155   3.198   2.811
 1961SOL     OW 6781   6.331   4.385   4.440
 1961SOL    HW1 6782   6.378   4.427   4.362
 1961SOL    HW2 6783   6.258   4.326   4.406
 1962SOL     OW 6784   1.129   6.181   2.324
 1962SOL    HW1 6785   1.223   6.199   2.354
 1962SOL    HW2 6786   1.120   6.203   2.227
 1963SOL     OW 6787   1.007   1.773   1.207
 1963SOL    HW1 6788   0.942   1.700   1.228
 1963SOL    HW2 6789   1.060   1.794   1.289
 1964SOL     OW 6790   5.246   4.504   1.799
 1964SOL    HW1 6791   5.273   4.580   1.859
 1964SOL    HW2 6792   5.167   4.531   1.744
 1965SOL     OW 6793   1.739   3.519   4.566
 1965SOL    HW1 6794   1.696   3.460   4.635
 1965SOL    HW2 6795   1.796   3.588   4.612
 1966SOL     OW 6796   1.523   4.851   0.862
 1966SOL    HW1 6797   1.608   4.862   0.810
 1966SOL    HW2 6798   1.543   4.854   0.960
 1967SOL     OW 6799   6.443   2.525   4.182
 1967SOL    HW1 6800   6.441   2.448   4.119
 1967SOL    HW2 6801   6.447   2.610   4.130
 1968SOL     OW 6802   2.612   0.947   5.480
 1968SOL    HW1 6803   2.602   1.039   5.518
 1968SOL    HW2 6804   2.540   0.888   5.517
 1969SOL     OW 6805   3.242   0.573   1.577
 1969SOL    HW1 6806   3.149   0.609   1.580
 1969SOL    HW2 6807   3.251   0.498   1.642
 1970SOL     OW 6808   6.807   6.986   5.636
 1970SOL    HW1 6809   6.900   7.012   5.662
 1970SOL    HW2 6810   6.810   6.936   5.549
 1971SOL     OW 6811   0.744   0.038   5.304
 1971SOL    HW1 6812   0.779   0.110   5.243
 1971SOL    HW2 6813   0.685   0.080   5.373
 1972SOL     OW 6814   5.709   2.579   1.533
 1972SOL    HW1 6815   5.718   2.632   1.448
 1972SOL    HW2 6816   5.636   2.618   1.589
 1973SOL     OW 6817   2.382   3.946   1.754
 1973SOL    HW1 6818   2.465   3.996   1.727
 1973SOL    HW2 6819   2.353   3.976   1.844
 1974SOL     OW 6820   4.782   6.560   4.778
 1974SOL    HW1 6821   4.700   6.562   4.721
 1974SOL    HW2 6822   4.826   6.649   4.777
 1975SOL     OW 6823   1.803   3.052   4.160
 1975SOL    HW1 6824   1.890   3.072   4.116
 1975SOL    HW2 6825   1.782   2.954   4.151
 1976SOL     OW 6826   5.334   6.751   6.311
 1976SOL    HW1 6827   5.295   6.683   6.249
 1976SOL    HW2 6828   5.283   6.750   6.397
 1977SOL     OW 6829   2.353   3.314   6.175
 1977SOL    HW1 6830   2.374   3.280   6.083
 1977SOL    HW2 6831   2.368   3.412   6.179
 1978SOL     OW 6832   1.728   6.129   3.102
 1978SOL    HW1 6833   1.652   6.083   3.056
 1978SOL    HW2 6834   1.733   6.224   3.072
 1979SOL     OW 6835   5.911   4.981   0.054
 1979SOL    HW1 6836   5.844   5.040   0.009
 1979SOL    HW2 6837   5.887   4.885   0.039
 1980SOL     OW 6838   3.627   0.382   2.859
 1980SOL    HW1 6839   3.673   0.296   2.884
 1980SOL    HW2 6840   3.690   0.440   2.809
 1981SOL     OW 6841   5.563   2.752   2.542
 1981SOL    HW1 6842   5.619   2.739   2.461
 1981SOL    HW2 6843   5.468   2.728   2.522
 1982SOL     OW 6844   6.855   3.892   4.178
 1982SOL    HW1 6845   6.931   3.874   4.116
 1982SOL    HW2 6846   6.769   3.884   4.128
 1983SOL     OW 6847   0.653   0.352   1.142
 1983SOL    HW1 6848   0.630   0.278   1.079
 1983SOL    HW2 6849   0.741   0.333   1.185
 1984SOL     OW 6850   5.403   2.494   5.089
 1984SOL    HW1 6851   5.440   2.401   5.086
 1984SOL    HW2 6852   5.311   2.493   5.127
 1985SOL     OW 6853   6.939   5.772   2.047
 1985SOL    HW1 6854   6.855   5.737   2.088
 1985SOL    HW2 6855   6.999   5.695   2.024
 1986SOL     OW 6856   2.680   1.275   6.442
 1986SOL    HW1 6857   2.676   1.191   6.497
 1986SOL    HW2 6858   2.772   1.285   6.404
 1987SOL     OW 6859   2.263   1.616   3.846
 1987SOL    HW1 6860   2.253   1.699   3.791
 1987SOL    HW2 6861   2.226   1.538   3.796
 1988SOL     OW 6862   6.588   1.260   1.375
 1988SOL    HW1 6863   6.607   1.265   1.278
 1988SOL    HW2 6864   6.598   1.351   1.416
 1989SOL     OW 6865   2.638   6.279   4.544
 1989SOL    HW1 6866   2.643   6.198   4.486
 1989SOL    HW2 6867   2.543   6.305   4.558
 1990SOL     OW 6868   3.839   0.066   0.541
 1990SOL    HW1 6869   3.822   0.122   0.623
 1990SOL    HW2 6870   3.834   6.999   0.566
 1991SOL     OW 6871   2.606   4.617   0.336
 1991SOL    HW1 6872   2.610   4.716   0.352
 1991SOL    HW2 6873   2.591   4.599   0.239
 1992SOL     OW 6874   6.785   0.040   0.886
 1992SOL    HW1 6875   6.868   7.014   0.879
 1992SOL    HW2 6876   6.705   7.013   0.865
 1993SOL     OW 6877   2.946   1.911   4.671
 1993SOL    HW1 6878   3.001   1.989   4.702
 1993SOL    HW2 6879   2.849   1.936   4.672
 1994SOL     OW 6880   4.823   2.184   0.736
 1994SOL    HW1 6881   4.881   2.225   0.805
 1994SOL    HW2 6882   4.812   2.086   0.755
 1995SOL     OW 6883   5.799   3.353   4.507
 1995SOL    HW1 6884   5.826   3.266   4.467
 1995SOL    HW2 6885   5.735   3.338   4.582
 1996SOL     OW 6886   2.845   1.349   1.237
 1996SOL    HW1 6887   2.809   1.272   1.290
 1996SOL    HW2 6888   2.861   1.320   1.142
 1997SOL     OW 6889   3.212   1.445   4.173
 1997SOL    HW1 6890   3.173   1.395   4.251
 1997SOL    HW2 6891   3.174   1.537   4.170
 1998SOL     OW 6892   1.202   3.181   0.646
 1998SOL    HW1 6893   1.193   3.249   0.719
 1998SOL    HW2 6894   1.295   3.145   0.645
 1999SOL     OW 6895   0.206   0.730   5.015
 1999SOL    HW1 6896   0.134   0.786   5.055
 1999SOL    HW2 6897   0.204   0.740   4.915
 2000SOL     OW 6898   3.893   3.924   6.087
 2000SOL    HW1 6899   3.828   3.939   6.012
 2000SOL    HW2 6900   3.954   3.848   6.064
 2001SOL     OW 6901   1.396   2.129   0.181
 2001SOL    HW1 6902   1.399   2.046   0.237
 2001SOL    HW2 6903   1.343   2.110   0.098
 2002SOL     OW 6904   1.119   5.709   0.991
 2002SOL    HW1 6905   1.132   5.626   0.937
 2002SOL    HW2 6906   1.174   5.703   1.075
 2003SOL     OW 6907   6.697   5.389   1.813
 2003SOL    HW1 6908   6.678   5.436   1.900
 2003SOL    HW2 6909   6.683   5.291   1.825
 2004SOL     OW 6910   4.490   1.119   3.885
 2004SOL    HW1 6911   4.454   1.041   3.834
 2004SOL    HW2 6912   4.557   1.167   3.829
 2005SOL     OW 6913   6.830   5.524   0.100
 2005SOL    HW1 6914   6.856   5.431   0.128
 2005SOL    HW2 6915   6.900   5.589   0.130
 2006SOL     OW 6916   5.022   6.995   4.277
 2006SOL    HW1 6917   4.939   0.002   4.320
 2006SOL    HW2 6918   5.063   0.036   4.219
 2007SOL     OW 6919   5.624   4.128   1.111
 2007SOL    HW1 6920   5.667   4.217   1.126
 2007SOL    HW2 6921   5.658   4.063   1.179
 2008SOL     OW 6922   1.974   3.657   4.049
 2008SOL    HW1 6923   2.031   3.715   4.107
 2008SOL    HW2 6924   1.970   3.696   3.957
 2009SOL     OW 6925   5.462   5.887   1.744
 2009SOL    HW1 6926   5.469   5.928   1.653
 2009SOL    HW2 6927   5.372   5.908   1.783
 2010SOL     OW 6928   1.806   1.799   1.542
 2010SOL    HW1 6929   1.742   1.847   1.603
 2010SOL    HW2 6930   1.900   1.814   1.574
 2011SOL     OW 6931   6.639   0.253   5.300
 2011SOL    HW1 6932   6.592   0.167   5.282
 2011SOL    HW2 6933   6.577   0.316   5.347
 2012SOL     OW 6934   1.449   3.842   2.234
 2012SOL    HW1 6935   1.546   3.830   2.213
 2012SOL    HW2 6936   1.429   3.939   2.246
 2013SOL     OW 6937   0.085   3.127   3.194
 2013SOL    HW1 6938   0.120   3.218   3.214
 2013SOL    HW2 6939   0.065   3.080   3.280
 2014SOL     OW 6940   3.007   0.465   2.910
 2014SOL    HW1 6941   2.961   0.438   2.995
 2014SOL    HW2 6942   2.957   0.427   2.832
 2015SOL     OW 6943   3.848   0.474   1.069
 2015SOL    HW1 6944   3.944   0.479   1.043
 2015SOL    HW2 6945   3.835   0.403   1.139
 2016SOL     OW 6946   1.678   5.820   5.747
 2016SOL    HW1 6947   1.661   5.724   5.768
 2016SOL    HW2 6948   1.594   5.862   5.713
 2017SOL     OW 6949   4.150   0.477   3.634
 2017SOL    HW1 6950   4.131   0.379   3.630
 2017SOL    HW2 6951   4.204   0.504   3.555
 2018SOL     OW 6952   6.951   2.440   3.913
 2018SOL    HW1 6953   0.008   2.407   3.951
 2018SOL    HW2 6954   6.895   2.481   3.985
 2019SOL     OW 6955   6.595   4.552   6.299
 2019SOL    HW1 6956   6.656   4.474   6.313
 2019SOL    HW2 6957   6.650   4.633   6.275
 2020SOL     OW 6958   1.313   6.131   6.425
 2020SOL    HW1 6959   1.268   6.044   6.406
 2020SOL    HW2 6960   1.299   6.193   6.348
 2021SOL     OW 6961   5.744   6.925   3.145
 2021SOL    HW1 6962   5.705   6.859   3.080
 2021SOL    HW2 6963   5.834   6.954   3.113
 2022SOL     OW 6964   1.611   4.172   4.979
 2022SOL    HW1 6965   1.687   4.235   4.994
 2022SOL    HW2 6966   1.646   4.078   4.979
 2023SOL     OW 6967   6.870   6.874   6.423
 2023SOL    HW1 6968   6.963   6.907   6.407
 2023SOL    HW2 6969   6.845   6.810   6.350
 2024SOL     OW 6970   0.541   5.823   4.315
 2024SOL    HW1 6971   0.512   5.765   4.239
 2024SOL    HW2 6972   0.504   5.915   4.304
 2025SOL     OW 6973   3.217   0.926   3.300
 2025SOL    HW1 6974   3.290   0.981   3.340
 2025SOL    HW2 6975   3.180   0.864   3.368
 2026SOL     OW 6976   6.085   1.442   6.258
 2026SOL    HW1 6977   6.147   1.501   6.310
 2026SOL    HW2 6978   6.120   1.348   6.260
 2027SOL     OW 6979   0.746   5.937   1.684
 2027SOL    HW1 6980   0.789   5.871   1.622
 2027SOL    HW2 6981   0.651   5.950   1.658
 2028SOL     OW 6982   3.775   5.550   2.932
 2028SOL    HW1 6983   3.711   5.515   3.000
 2028SOL    HW2 6984   3.803   5.476   2.871
 2029SOL     OW 6985   6.655   1.685   0.091
 2029SOL    HW1 6986   6.556   1.693   0.089
 2029SOL    HW2 6987   6.687   1.646   0.005
 2030SOL     OW 6988   3.191   6.436   2.839
 2030SOL    HW1 6989   3.151   6.383   2.914
 2030SOL    HW2 6990   3.258   6.501   2.876
 2031SOL     OW 6991   6.839   5.758   2.911
 2031SOL    HW1 6992   6.882   5.848   2.916
 2031SOL    HW2 6993   6.774   5.756   2.835
 2032SOL     OW 6994   3.547   1.849   0.471
 2032SOL    HW1 6995   3.489   1.782   0.425
 2032SOL    HW2 6996   3.606   1.894   0.403
 2033SOL     OW 6997   1.286   1.072   0.374
 2033SOL    HW1 6998   1.317   0.977   0.363
 2033SOL    HW2 6999   1.306   1.123   0.290
 2034SOL     OW 7000   1.574   5.389   5.596
 2034SOL    HW1 7001   1.565   5.308   5.538
 2034SOL    HW2 7002   1.489   5.402   5.647
 2035SOL     OW 7003   6.451   0.586   2.243
 2035SOL    HW1 7004   6.512   0.658   2.213
 2035SOL    HW2 7005   6.471   0.502   2.193
 2036SOL     OW 7006   1.117   3.259   3.100
 2036SOL    HW1 7007   1.201   3.286   3.052
 2036SOL    HW2 7008   1.095   3.164   3.079
 2037SOL     OW 7009   6.985   2.536   6.145
 2037SOL    HW1 7010   6.901   2.545   6.199
 2037SOL    HW2 7011   6.992   2.442   6.110
 2038SOL     OW 7012   2.498   1.202   7.006
 2038SOL    HW1 7013   2.508   1.160   0.067
 2038SOL    HW2 7014   2.494   1.301   7.015
 2039SOL     OW 7015   0.223   5.702   2.232
 2039SOL    HW1 7016   0.212   5.655   2.144
 2039SOL    HW2 7017   0.163   5.660   2.300
 2040SOL     OW 7018   2.000   2.459   6.778
 2040SOL    HW1 7019   2.047   2.449   6.690
 2040SOL    HW2 7020   2.060   2.505   6.843
 2041SOL     OW 7021   1.916   6.717   5.360
 2041SOL    HW1 7022   1.988   6.771   5.404
 2041SOL    HW2 7023   1.828   6.763   5.371
 2042SOL     OW 7024   4.988   0.191   6.029
 2042SOL    HW1 7025   4.978   0.124   6.102
 2042SOL    HW2 7026   5.005   0.281   6.068
 2043SOL     OW 7027   6.324   2.510   1.832
 2043SOL    HW1 7028   6.360   2.444   1.766
 2043SOL    HW2 7029   6.396   2.574   1.859
 2044SOL     OW 7030   5.799   1.168   1.740
 2044SOL    HW1 7031   5.720   1.143   1.796
 2044SOL    HW2 7032   5.768   1.208   1.654
 2045SOL     OW 7033   1.736   5.782   5.236
 2045SOL    HW1 7034   1.693   5.862   5.278
 2045SOL    HW2 7035   1.710   5.700   5.287
 2046SOL     OW 7036   6.854   1.821   5.398
 2046SOL    HW1 7037   6.799   1.891   5.352
 2046SOL    HW2 7038   6.949   1.852   5.405
 2047SOL     OW 7039   6.213   2.133   0.944
 2047SOL    HW1 7040   6.240   2.037   0.948
 2047SOL    HW2 7041   6.266   2.186   1.010
 2048SOL     OW 7042   0.356   1.957   4.758
 2048SOL    HW1 7043   0.317   1.902   4.684
 2048SOL    HW2 7044   0.304   1.941   4.842
 2049SOL     OW 7045   4.560   1.241   4.831
 2049SOL    HW1 7046   4.509   1.254   4.746
 2049SOL    HW2 7047   4.499   1.207   4.903
 2050SOL     OW 7048   6.981   2.061   4.669
 2050SOL    HW1 7049   6.964   2.118   4.749
 2050SOL    HW2 7050   6.965   2.114   4.585
 2051SOL     OW 7051   2.144   6.506   6.736
 2051SOL    HW1 7052   2.169   6.584   6.793
 2051SOL    HW2 7053   2.075   6.533   6.669
 2052SOL     OW 7054   1.585   3.159   0.917
 2052SOL    HW1 7055   1.673   3.185   0.875
 2052SOL    HW2 7056   1.599   3.143   1.015
 2053SOL     OW 7057   0.630   5.578   4.511
 2053SOL    HW1 7058   0.667   5.594   4.420
 2053SOL    HW2 7059   0.596   5.484   4.518
 2054SOL     OW 7060   3.636   2.825   2.311
 2054SOL    HW1 7061   3.670   2.815   2.217
 2054SOL    HW2 7062   3.678   2.756   2.369
 2055SOL     OW 7063   0.025   2.847   5.143
 2055SOL    HW1 7064   0.096   2.879   5.207
 2055SOL    HW2 7065   0.033   2.897   5.057
 2056SOL     OW 7066   4.483   4.880   1.153
 2056SOL    HW1 7067   4.389   4.849   1.138
 2056SOL    HW2 7068   4.528   4.892   1.064
 2057SOL     OW 7069   5.509   2.786   4.052
 2057SOL    HW1 7070   5.512   2.819   4.147
 2057SOL    HW2 7071   5.525   2.687   4.050
 2058SOL     OW 7072   0.455   6.091   2.803
 2058SOL    HW1 7073   0.544   6.120   2.839
 2058SOL    HW2 7074   0.407   6.170   2.765
 2059SOL     OW 7075   2.479   0.508   5.465
 2059SOL    HW1 7076   2.444   0.483   5.375
 2059SOL    HW2 7077   2.516   0.427   5.510
 2060SOL     OW 7078   0.851   3.266   0.489
 2060SOL    HW1 7079   0.859   3.282   0.588
 2060SOL    HW2 7080   0.779   3.325   0.452
 2061SOL     OW 7081   1.896   2.846   2.682
 2061SOL    HW1 7082   1.832   2.910   2.640
 2061SOL    HW2 7083   1.920   2.775   2.616
 2062SOL     OW 7084   6.616   5.027   5.140
 2062SOL    HW1 7085   6.715   5.035   5.131
 2062SOL    HW2 7086   6.594   4.970   5.220
 2063SOL     OW 7087   1.641   6.330   5.486
 2063SOL    HW1 7088   1.569   6.262   5.492
 2063SOL    HW2 7089   1.714   6.307   5.550
 2064SOL     OW 7090   1.109   3.964   3.881
 2064SOL    HW1 7091   1.154   3.964   3.970
 2064SOL    HW2 7092   1.178   3.966   3.809
 2065SOL     OW 7093   5.304   2.924   5.367
 2065SOL    HW1 7094   5.354   2.838   5.355
 2065SOL    HW2 7095   5.216   2.919   5.320
 2066SOL     OW 7096   5.951   3.750   5.470
 2066SOL    HW1 7097   6.017   3.681   5.497
 2066SOL    HW2 7098   5.907   3.722   5.384
 2067SOL     OW 7099   6.397   4.791   2.328
 2067SOL    HW1 7100   6.308   4.801   2.372
 2067SOL    HW2 7101   6.437   4.702   2.353
 2068SOL     OW 7102   3.737   1.397   4.145
 2068SOL    HW1 7103   3.780   1.425   4.230
 2068SOL    HW2 7104   3.695   1.477   4.101
 2069SOL     OW 7105   0.046   1.710   4.157
 2069SOL    HW1 7106   0.144   1.694   4.166
 2069SOL    HW2 7107   0.030   1.784   4.092
 2070SOL     OW 7108   1.580   3.187   1.529
 2070SOL    HW1 7109   1.513   3.212   1.599
 2070SOL    HW2 7110   1.534   3.142   1.453
 2071SOL     OW 7111   6.454   1.379   6.276
 2071SOL    HW1 7112   6.400   1.458   6.305
 2071SOL    HW2 7113   6.469   1.319   6.354
 2072SOL     OW 7114   3.726   4.730   5.304
 2072SOL    HW1 7115   3.742   4.798   5.233
 2072SOL    HW2 7116   3.813   4.710   5.350
 2073SOL     OW 7117   3.819   6.021   6.097
 2073SOL    HW1 7118   3.824   6.108   6.146
 2073SOL    HW2 7119   3.873   5.953   6.146
 2074SOL     OW 7120   1.626   3.362   5.933
 2074SOL    HW1 7121   1.635   3.460   5.953
 2074SOL    HW2 7122   1.536   3.345   5.892
 2075SOL     OW 7123   6.803   2.438   2.028
 2075SOL    HW1 7124   6.737   2.498   2.073
 2075SOL    HW2 7125   6.776   2.423   1.933
 2076SOL     OW 7126   5.939   6.993   5.000
 2076SOL    HW1 7127   5.907   0.034   4.936
 2076SOL    HW2 7128   6.038   7.001   5.011
 2077SOL     OW 7129   0.307   2.464   1.471
 2077SOL    HW1 7130   0.269   2.453   1.379
 2077SOL    HW2 7131   0.237   2.504   1.530
 2078SOL     OW 7132   1.606   5.029   5.804
 2078SOL    HW1 7133   1.643   4.991   5.720
 2078SOL    HW2 7134   1.520   4.982   5.826
 2079SOL     OW 7135   4.970   0.711   2.056
 2079SOL    HW1 7136   4.878   0.718   2.018
 2079SOL    HW2 7137   4.964   0.678   2.150
 2080SOL     OW 7138   2.922   2.256   4.507
 2080SOL    HW1 7139   2.885   2.349   4.513
 2080SOL    HW2 7140   2.894   2.204   4.588
 2081SOL     OW 7141   0.168   6.696   3.416
 2081SOL    HW1 7142   0.251   6.752   3.413
 2081SOL    HW2 7143   0.187   6.611   3.465
 2082SOL     OW 7144   0.667   6.202   2.263
 2082SOL    HW1 7145   0.724   6.139   2.316
 2082SOL    HW2 7146   0.651   6.285   2.315
 2083SOL     OW 7147   0.500   6.347   3.493
 2083SOL    HW1 7148   0.514   6.250   3.471
 2083SOL    HW2 7149   0.493   6.399   3.408
 2084SOL     OW 7150   1.192   1.633   1.033
 2084SOL    HW1 7151   1.142   1.718   1.048
 2084SOL    HW2 7152   1.139   1.556   1.069
 2085SOL     OW 7153   4.846   6.121   0.603
 2085SOL    HW1 7154   4.755   6.079   0.610
 2085SOL    HW2 7155   4.877   6.118   0.508
 2086SOL     OW 7156   3.640   6.824   0.021
 2086SOL    HW1 7157   3.627   6.921   0.005
 2086SOL    HW2 7158   3.602   6.772   6.973
 2087SOL     OW 7159   4.148   1.995   6.772
 2087SOL    HW1 7160   4.080   1.977   6.701
 2087SOL    HW2 7161   4.187   1.908   6.803
 2088SOL     OW 7162   0.573   5.866   6.471
 2088SOL    HW1 7163   0.646   5.925   6.506
 2088SOL    HW2 7164   0.507   5.849   6.544
 2089SOL     OW 7165   3.933   2.666   5.355
 2089SOL    HW1 7166   4.017   2.631   5.312
 2089SOL    HW2 7167   3.922   2.763   5.333
 2090SOL     OW 7168   4.607   3.220   5.342
 2090SOL    HW1 7169   4.653   3.179   5.421
 2090SOL    HW2 7170   4.665   3.209   5.261
 2091SOL     OW 7171   6.586   5.927   1.856
 2091SOL    HW1 7172   6.673   5.907   1.812
 2091SOL    HW2 7173   6.512   5.919   1.790
 2092SOL     OW 7174   4.908   3.995   1.124
 2092SOL    HW1 7175   4.891   3.898   1.104
 2092SOL    HW2 7176   5.007   4.012   1.121
 2093SOL     OW 7177   3.835   2.138   2.228
 2093SOL    HW1 7178   3.794   2.177   2.146
 2093SOL    HW2 7179   3.781   2.165   2.308
 2094SOL     OW 7180   5.992   2.905   0.178
 2094SOL    HW1 7181   6.064   2.966   0.211
 2094SOL    HW2 7182   6.001   2.815   0.222
 2095SOL     OW 7183   6.015   6.172   3.808
 2095SOL    HW1 7184   5.926   6.144   3.770
 2095SOL    HW2 7185   6.006   6.261   3.851
 2096SOL     OW 7186   4.676   6.549   2.414
 2096SOL    HW1 7187   4.680   6.467   2.471
 2096SOL    HW2 7188   4.581   6.566   2.387
 2097SOL     OW 7189   2.311   4.421   6.555
 2097SOL    HW1 7190   2.267   4.487   6.617
 2097SOL    HW2 7191   2.286   4.442   6.461
 2098SOL     OW 7192   4.146   5.847   3.247
 2098SOL    HW1 7193   4.168   5.798   3.163
 2098SOL    HW2 7194   4.081   5.920   3.227
 2099SOL     OW 7195   4.168   1.666   0.262
 2099SOL    HW1 7196   4.181   1.619   0.175
 2099SOL    HW2 7197   4.256   1.673   0.310
 2100SOL     OW 7198   5.191   1.267   0.602
 2100SOL    HW1 7199   5.289   1.248   0.614
 2100SOL    HW2 7200   5.142   1.180   0.592
 2101SOL     OW 7201   0.288   6.077   1.121
 2101SOL    HW1 7202   0.224   6.059   1.196
 2101SOL    HW2 7203   0.371   6.120   1.158
 2102SOL     OW 7204   3.878   2.968   1.584
 2102SOL    HW1 7205   3.929   2.990   1.667
 2102SOL    HW2 7206   3.785   2.941   1.607
 2103SOL     OW 7207   3.262   4.770   0.040
 2103SOL    HW1 7208   3.280   4.856   0.086
 2103SOL    HW2 7209   3.253   4.697   0.107
 2104SOL     OW 7210   2.093   4.424   2.717
 2104SOL    HW1 7211   2.096   4.439   2.815
 2104SOL    HW2 7212   2.161   4.482   2.672
 2105SOL     OW 7213   4.999   4.519   0.333
 2105SOL    HW1 7214   4.906   4.502   0.301
 2105SOL    HW2 7215   5.004   4.609   0.377
 2106SOL     OW 7216   5.369   3.350   1.320
 2106SOL    HW1 7217   5.391   3.446   1.338
 2106SOL    HW2 7218   5.395   3.294   1.399
 2107SOL     OW 7219   5.305   3.558   6.186
 2107SOL    HW1 7220   5.226   3.618   6.175
 2107SOL    HW2 7221   5.344   3.538   6.097
 2108SOL     OW 7222   5.750   6.573   5.817
 2108SOL    HW1 7223   5.849   6.560   5.824
 2108SOL    HW2 7224   5.705   6.535   5.898
 2109SOL     OW 7225   3.276   5.202   2.328
 2109SOL    HW1 7226   3.231   5.117   2.301
 2109SOL    HW2 7227   3.232   5.238   2.410
 2110SOL     OW 7228   4.270   1.015   6.651
 2110SOL    HW1 7229   4.370   1.008   6.658
 2110SOL    HW2 7230   4.228   0.958   6.721
 2111SOL     OW 7231   0.818   2.933   5.980
 2111SOL    HW1 7232   0.837   3.008   6.044
 2111SOL    HW2 7233   0.850   2.847   6.019
 2112SOL     OW 7234   5.920   0.977   0.033
 2112SOL    HW1 7235   5.854   0.980   0.107
 2112SOL    HW2 7236   5.872   0.991   6.975
 2113SOL     OW 7237   1.697   6.930   4.038
 2113SOL    HW1 7238   1.614   6.960   4.085
 2113SOL    HW2 7239   1.673   6.883   3.953
 2114SOL     OW 7240   2.737   3.001   0.154
 2114SOL    HW1 7241   2.820   3.055   0.168
 2114SOL    HW2 7242   2.752   2.907   0.183
 2115SOL     OW 7243   1.050   4.776   2.592
 2115SOL    HW1 7244   0.956   4.747   2.610
 2115SOL    HW2 7245   1.071   4.856   2.648
 2116SOL     OW 7246   1.158   2.505   0.416
 2116SOL    HW1 7247   1.167   2.602   0.394
 2116SOL    HW2 7248   1.193   2.450   0.340
 2117SOL     OW 7249   5.728   2.616   2.386
 2117SOL    HW1 7250   5.802   2.591   2.448
 2117SOL    HW2 7251   5.662   2.541   2.380
 2118SOL     OW 7252   6.795   3.693   2.664
 2118SOL    HW1 7253   6.872   3.656   2.613
 2118SOL    HW2 7254   6.727   3.730   2.600
 2119SOL     OW 7255   2.492   0.436   6.551
 2119SOL    HW1 7256   2.528   0.425   6.459
 2119SOL    HW2 7257   2.555   0.394   6.617
 2120SOL     OW 7258   6.946   2.237   2.179
 2120SOL    HW1 7259   6.942   2.324   2.129
 2120SOL    HW2 7260   6.853   2.209   2.202
 2121SOL     OW 7261   1.844   1.134   5.905
 2121SOL    HW1 7262   1.856   1.234   5.908
 2121SOL    HW2 7263   1.768   1.108   5.966
 2122SOL     OW 7264   5.990   0.327   5.750
 2122SOL    HW1 7265   6.009   0.425   5.757
 2122SOL    HW2 7266   5.970   0.290   5.840
 2123SOL     OW 7267   0.485   5.943   2.581
 2123SOL    HW1 7268   0.444   5.853   2.589
 2123SOL    HW2 7269   0.497   5.983   2.672
 2124SOL     OW 7270   3.609   2.812   5.895
 2124SOL    HW1 7271   3.552   2.814   5.977
 2124SOL    HW2 7272   3.627   2.717   5.869
 2125SOL     OW 7273   1.673   5.832   3.438
 2125SOL    HW1 7274   1.582   5.822   3.397
 2125SOL    HW2 7275   1.724   5.902   3.388
 2126SOL     OW 7276   3.576   3.569   0.642
 2126SOL    HW1 7277   3.610   3.662   0.655
 2126SOL    HW2 7278   3.628   3.525   0.569
 2127SOL     OW 7279   0.105   2.687   5.944
 2127SOL    HW1 7280   0.038   2.620   5.978
 2127SOL    HW2 7281   0.150   2.650   5.863
 2128SOL     OW 7282   5.951   3.887   0.978
 2128SOL    HW1 7283   5.951   3.789   0.955
 2128SOL    HW2 7284   5.876   3.932   0.930
 2129SOL     OW 7285   5.215   3.913   3.840
 2129SOL    HW1 7286   5.219   3.932   3.742
 2129SOL    HW2 7287   5.139   3.851   3.860
 2130SOL     OW 7288   2.485   1.267   1.268
 2130SOL    HW1 7289   2.577   1.239   1.294
 2130SOL    HW2 7290   2.489   1.334   1.194
 2131SOL     OW 7291   5.682   1.868   5.888
 2131SOL    HW1 7292   5.606   1.837   5.831
 2131SOL    HW2 7293   5.733   1.939   5.840
 2132SOL     OW 7294   2.799   1.573   6.569
 2132SOL    HW1 7295   2.753   1.568   6.481
 2132SOL    HW2 7296   2.760   1.505   6.631
 2133SOL     OW 7297   2.361   1.536   1.967
 2133SOL    HW1 7298   2.353   1.463   2.035
 2133SOL    HW2 7299   2.448   1.584   1.980
 2134SOL     OW 7300   0.307   6.832   4.231
 2134SOL    HW1 7301   0.383   6.892   4.257
 2134SOL    HW2 7302   0.342   6.755   4.178
 2135SOL     OW 7303   1.139   1.466   3.612
 2135SOL    HW1 7304   1.191   1.522   3.676
 2135SOL    HW2 7305   1.176   1.372   3.611
 2136SOL     OW 7306   1.084   3.638   5.037
 2136SOL    HW1 7307   1.053   3.712   4.978
 2136SOL    HW2 7308   1.075   3.551   4.989
 2137SOL     OW 7309   1.138   6.171   5.378
 2137SOL    HW1 7310   1.081   6.141   5.455
 2137SOL    HW2 7311   1.096   6.251   5.336
 2138SOL     OW 7312   0.246   2.724   0.796
 2138SOL    HW1 7313   0.197   2.729   0.883
 2138SOL    HW2 7314   0.227   2.806   0.742
 2139SOL     OW 7315   2.667   0.820   4.058
 2139SOL    HW1 7316   2.611   0.748   4.017
 2139SOL    HW2 7317   2.660   0.814   4.158
 2140SOL     OW 7318   2.558   6.229   2.927
 2140SOL    HW1 7319   2.646   6.244   2.883
 2140SOL    HW2 7320   2.500   6.173   2.867
 2141SOL     OW 7321   6.502   2.602   1.235
 2141SOL    HW1 7322   6.545   2.525   1.187
 2141SOL    HW2 7323   6.436   2.646   1.174
 2142SOL     OW 7324   1.476   1.974   3.105
 2142SOL    HW1 7325   1.549   2.016   3.159
 2142SOL    HW2 7326   1.389   1.985   3.152
 2143SOL     OW 7327   4.082   6.565   1.393
 2143SOL    HW1 7328   4.058   6.468   1.400
 2143SOL    HW2 7329   4.143   6.590   1.468
 2144SOL     OW 7330   1.281   0.646   3.010
 2144SOL    HW1 7331   1.365   0.669   2.961
 2144SOL    HW2 7332   1.248   0.727   3.059
 2145SOL     OW 7333   2.970   5.684   3.863
 2145SOL    HW1 7334   2.972   5.639   3.774
 2145SOL    HW2 7335   3.038   5.757   3.866
 2146SOL     OW 7336   2.765   3.657   1.664
 2146SOL    HW1 7337   2.772   3.754   1.641
 2146SOL    HW2 7338   2.671   3.636   1.691
 2147SOL     OW 7339   0.442   1.930   6.980
 2147SOL    HW1 7340   0.506   1.899   6.910
 2147SOL    HW2 7341   0.388   2.006   6.945
 2148SOL     OW 7342   4.986   3.770   3.875
 2148SOL    HW1 7343   4.997   3.671   3.886
 2148SOL    HW2 7344   4.954   3.790   3.783
 2149SOL     OW 7345   4.037   0.633   1.695
 2149SOL    HW1 7346   4.009   0.539   1.712
 2149SOL    HW2 7347   4.061   0.644   1.599
 2150SOL     OW 7348   3.985   1.747   2.801
 2150SOL    HW1 7349   4.076   1.738   2.762
 2150SOL    HW2 7350   3.960   1.662   2.848
 2151SOL     OW 7351   3.733   2.564   5.825
 2151SOL    HW1 7352   3.816   2.537   5.875
 2151SOL    HW2 7353   3.751   2.559   5.727
 2152SOL     OW 7354   6.139   6.779   2.227
 2152SOL    HW1 7355   6.194   6.812   2.304
 2152SOL    HW2 7356   6.189   6.706   2.180
 2153SOL     OW 7357   4.521   1.602   3.906
 2153SOL    HW1 7358   4.605   1.549   3.920
 2153SOL    HW2 7359   4.535   1.696   3.937
 2154SOL     OW 7360   3.072   5.390   4.596
 2154SOL    HW1 7361   2.975   5.386   4.619
 2154SOL    HW2 7362   3.108   5.480   4.619
 2155SOL     OW 7363   2.187   4.856   0.216
 2155SOL    HW1 7364   2.196   4.762   0.183
 2155SOL    HW2 7365   2.211   4.859   0.313
 2156SOL     OW 7366   1.660   0.450   1.582
 2156SOL    HW1 7367   1.567   0.413   1.588
 2156SOL    HW2 7368   1.664   0.519   1.510
 2157SOL     OW 7369   0.009   1.433   5.261
 2157SOL    HW1 7370   6.952   1.405   5.219
 2157SOL    HW2 7371   0.030   1.527   5.236
 2158SOL     OW 7372   3.855   0.149   1.071
 2158SOL    HW1 7373   3.946   0.152   1.113
 2158SOL    HW2 7374   3.793   0.206   1.124
 2159SOL     OW 7375   1.405   6.951   5.045
 2159SOL    HW1 7376   1.497   6.984   5.024
 2159SOL    HW2 7377   1.391   6.862   5.002
 2160SOL     OW 7378   3.812   4.191   1.110
 2160SOL    HW1 7379   3.777   4.266   1.165
 2160SOL    HW2 7380   3.801   4.105   1.159
 2161SOL     OW 7381   4.895   3.765   3.236
 2161SOL    HW1 7382   4.810   3.714   3.249
 2161SOL    HW2 7383   4.874   3.854   3.195
 2162SOL     OW 7384   2.260   0.493   6.739
 2162SOL    HW1 7385   2.266   0.409   6.793
 2162SOL    HW2 7386   2.332   0.492   6.669
 2163SOL     OW 7387   1.698   0.076   0.228
 2163SOL    HW1 7388   1.664   0.112   0.315
 2163SOL    HW2 7389   1.621   0.041   0.174
 2164SOL     OW 7390   2.022   0.494   6.476
 2164SOL    HW1 7391   2.063   0.580   6.508
 2164SOL    HW2 7392   2.042   0.421   6.541
 2165SOL     OW 7393   1.460   0.720   2.831
 2165SOL    HW1 7394   1.428   0.635   2.790
 2165SOL    HW2 7395   1.542   0.751   2.784
 2166SOL     OW 7396   1.211   2.011   5.431
 2166SOL    HW1 7397   1.210   1.929   5.373
 2166SOL    HW2 7398   1.148   2.079   5.393
 2167SOL     OW 7399   2.396   0.817   2.232
 2167SOL    HW1 7400   2.462   0.821   2.307
 2167SOL    HW2 7401   2.420   0.885   2.162
 2168SOL     OW 7402   5.877   3.638   4.424
 2168SOL    HW1 7403   5.855   3.546   4.393
 2168SOL    HW2 7404   5.936   3.683   4.358
 2169SOL     OW 7405   5.283   2.841   5.869
 2169SOL    HW1 7406   5.209   2.908   5.872
 2169SOL    HW2 7407   5.296   2.810   5.774
 2170SOL     OW 7408   4.817   4.748   5.363
 2170SOL    HW1 7409   4.917   4.741   5.360
 2170SOL    HW2 7410   4.790   4.813   5.433
 2171SOL     OW 7411   6.581   3.100   6.959
 2171SOL    HW1 7412   6.522   3.025   6.990
 2171SOL    HW2 7413   6.613   3.081   6.866
 2172SOL     OW 7414   3.358   1.636   0.412
 2172SOL    HW1 7415   3.350   1.629   0.511
 2172SOL    HW2 7416   3.267   1.647   0.372
 2173SOL     OW 7417   4.145   0.378   5.788
 2173SOL    HW1 7418   4.077   0.314   5.823
 2173SOL    HW2 7419   4.211   0.329   5.731
 2174SOL     OW 7420   6.563   4.641   4.784
 2174SOL    HW1 7421   6.469   4.611   4.768
 2174SOL    HW2 7422   6.563   4.729   4.831
 2175SOL     OW 7423   2.652   0.130   2.980
 2175SOL    HW1 7424   2.596   0.064   3.029
 2175SOL    HW2 7425   2.749   0.112   2.997
 2176SOL     OW 7426   2.107   2.352   2.392
 2176SOL    HW1 7427   2.090   2.429   2.330
 2176SOL    HW2 7428   2.032   2.286   2.384
 2177SOL     OW 7429   6.401   1.941   1.334
 2177SOL    HW1 7430   6.444   1.913   1.420
 2177SOL    HW2 7431   6.370   1.860   1.285
 2178SOL     OW 7432   1.088   5.198   0.263
 2178SOL    HW1 7433   1.057   5.294   0.262
 2178SOL    HW2 7434   1.050   5.150   0.184
 2179SOL     OW 7435   1.201   5.632   4.128
 2179SOL    HW1 7436   1.227   5.727   4.114
 2179SOL    HW2 7437   1.225   5.604   4.221
 2180SOL     OW 7438   3.104   3.836   2.740
 2180SOL    HW1 7439   3.083   3.741   2.717
 2180SOL    HW2 7440   3.057   3.861   2.825
 2181SOL     OW 7441   4.876   5.525   5.669
 2181SOL    HW1 7442   4.883   5.625   5.675
 2181SOL    HW2 7443   4.965   5.484   5.688
 2182SOL     OW 7444   6.964   3.676   6.832
 2182SOL    HW1 7445   6.966   3.648   6.736
 2182SOL    HW2 7446   6.958   3.776   6.836
 2183SOL     OW 7447   3.234   2.961   0.319
 2183SOL    HW1 7448   3.288   2.880   0.296
 2183SOL    HW2 7449   3.279   3.043   0.283
 2184SOL     OW 7450   3.662   1.337   6.532
 2184SOL    HW1 7451   3.756   1.370   6.534
 2184SOL    HW2 7452   3.612   1.378   6.609
 2185SOL     OW 7453   1.669   0.617   0.552
 2185SOL    HW1 7454   1.587   0.594   0.606
 2185SOL    HW2 7455   1.662   0.711   0.520
 2186SOL     OW 7456   0.230   4.521   2.692
 2186SOL    HW1 7457   0.247   4.529   2.594
 2186SOL    HW2 7458   0.218   4.612   2.731
 2187SOL     OW 7459   6.227   1.693   1.050
 2187SOL    HW1 7460   6.287   1.689   1.130
 2187SOL    HW2 7461   6.148   1.751   1.071
 2188SOL     OW 7462   5.450   6.493   3.518
 2188SOL    HW1 7463   5.377   6.435   3.482
 2188SOL    HW2 7464   5.528   6.436   3.545
 2189SOL     OW 7465   2.135   0.410   5.962
 2189SOL    HW1 7466   2.231   0.413   5.988
 2189SOL    HW2 7467   2.084   0.478   6.016
 2190SOL     OW 7468   6.433   2.355   1.628
 2190SOL    HW1 7469   6.458   2.443   1.587
 2190SOL    HW2 7470   6.402   2.293   1.556
 2191SOL     OW 7471   3.392   2.914   6.331
 2191SOL    HW1 7472   3.423   2.982   6.397
 2191SOL    HW2 7473   3.297   2.934   6.304
 2192SOL     OW 7474   4.143   6.179   5.281
 2192SOL    HW1 7475   4.082   6.198   5.359
 2192SOL    HW2 7476   4.113   6.096   5.235
 2193SOL     OW 7477   0.987   5.317   5.490
 2193SOL    HW1 7478   0.949   5.352   5.575
 2193SOL    HW2 7479   1.023   5.393   5.436
 2194SOL     OW 7480   2.294   6.277   0.497
 2194SOL    HW1 7481   2.236   6.269   0.578
 2194SOL    HW2 7482   2.390   6.281   0.525
 2195SOL     OW 7483   1.401   5.502   2.577
 2195SOL    HW1 7484   1.337   5.511   2.653
 2195SOL    HW2 7485   1.408   5.590   2.529
 2196SOL     OW 7486   3.467   1.684   5.559
 2196SOL    HW1 7487   3.430   1.602   5.516
 2196SOL    HW2 7488   3.566   1.686   5.547
 2197SOL     OW 7489   4.952   4.495   1.634
 2197SOL    HW1 7490   4.958   4.499   1.535
 2197SOL    HW2 7491   4.876   4.552   1.665
 2198SOL     OW 7492   6.783   4.340   0.034
 2198SOL    HW1 7493   6.740   4.261   7.020
 2198SOL    HW2 7494   6.780   4.418   7.001
 2199SOL     OW 7495   4.606   6.824   0.555
 2199SOL    HW1 7496   4.563   6.782   0.474
 2199SOL    HW2 7497   4.704   6.836   0.538
 2200SOL     OW 7498   4.176   0.773   4.684
 2200SOL    HW1 7499   4.240   0.843   4.716
 2200SOL    HW2 7500   4.084   0.810   4.682
 2201SOL     OW 7501   6.093   3.158   2.373
 2201SOL    HW1 7502   6.171   3.143   2.312
 2201SOL    HW2 7503   6.062   3.253   2.364
 2202SOL     OW 7504   3.700   5.492   3.964
 2202SOL    HW1 7505   3.699   5.574   4.021
 2202SOL    HW2 7506   3.728   5.413   4.020
 2203SOL     OW 7507   3.575   2.057   3.184
 2203SOL    HW1 7508   3.632   2.053   3.103
 2203SOL    HW2 7509   3.479   2.066   3.157
 2204SOL     OW 7510   3.010   1.946   0.142
 2204SOL    HW1 7511   2.952   1.872   0.175
 2204SOL    HW2 7512   3.089   1.956   0.202
 2205SOL     OW 7513   1.768   6.852   0.350
 2205SOL    HW1 7514   1.723   6.920   0.292
 2205SOL    HW2 7515   1.783   6.890   0.441
 2206SOL     OW 7516   3.232   3.623   6.992
 2206SOL    HW1 7517   3.197   3.610   6.899
 2206SOL    HW2 7518   3.223   3.719   7.018
 2207SOL     OW 7519   1.592   4.815   6.542
 2207SOL    HW1 7520   1.521   4.866   6.493
 2207SOL    HW2 7521   1.618   4.735   6.487
 2208SOL     OW 7522   0.275   3.626   2.185
 2208SOL    HW1 7523   0.250   3.537   2.222
 2208SOL    HW2 7524   0.375   3.635   2.184
 2209SOL     OW 7525   1.321   5.414   6.411
 2209SOL    HW1 7526   1.314   5.346   6.338
 2209SOL    HW2 7527   1.356   5.370   6.494
 2210SOL     OW 7528   0.937   5.839   3.384
 2210SOL    HW1 7529   0.946   5.866   3.480
 2210SOL    HW2 7530   1.027   5.811   3.349
 2211SOL     OW 7531   6.310   1.283   5.439
 2211SOL    HW1 7532   6.391   1.290   5.498
 2211SOL    HW2 7533   6.330   1.222   5.362
 2212SOL     OW 7534   1.188   0.340   6.102
 2212SOL    HW1 7535   1.122   0.378   6.038
 2212SOL    HW2 7536   1.175   0.241   6.108
 2213SOL     OW 7537   4.292   2.286   3.517
 2213SOL    HW1 7538   4.356   2.356   3.552
 2213SOL    HW2 7539   4.340   2.228   3.452
 2214SOL     OW 7540   5.265   0.232   4.446
 2214SOL    HW1 7541   5.271   0.132   4.441
 2214SOL    HW2 7542   5.333   0.266   4.511
 2215SOL     OW 7543   6.868   2.259   5.415
 2215SOL    HW1 7544   6.797   2.204   5.373
 2215SOL    HW2 7545   6.944   2.271   5.351
 2216SOL     OW 7546   0.986   6.710   0.754
 2216SOL    HW1 7547   0.923   6.636   0.736
 2216SOL    HW2 7548   1.060   6.710   0.686
 2217SOL     OW 7549   4.693   0.030   1.317
 2217SOL    HW1 7550   4.637   0.104   1.354
 2217SOL    HW2 7551   4.725   7.001   1.392
 2218SOL     OW 7552   0.862   5.533   6.340
 2218SOL    HW1 7553   0.796   5.458   6.345
 2218SOL    HW2 7554   0.908   5.543   6.428
 2219SOL     OW 7555   1.590   4.028   2.954
 2219SOL    HW1 7556   1.515   4.017   2.889
 2219SOL    HW2 7557   1.558   4.080   3.033
 2220SOL     OW 7558   0.421   2.119   5.387
 2220SOL    HW1 7559   0.431   2.181   5.465
 2220SOL    HW2 7560   0.388   2.030   5.419
 2221SOL     OW 7561   6.727   1.974   1.307
 2221SOL    HW1 7562   6.789   2.022   1.368
 2221SOL    HW2 7563   6.641   2.026   1.299
 2222SOL     OW 7564   4.858   6.926   2.313
 2222SOL    HW1 7565   4.878   6.829   2.300
 2222SOL    HW2 7566   4.771   6.948   2.267
 2223SOL     OW 7567   5.761   5.283   4.157
 2223SOL    HW1 7568   5.836   5.234   4.201
 2223SOL    HW2 7569   5.674   5.238   4.180
 2224SOL     OW 7570   2.315   4.677   1.718
 2224SOL    HW1 7571   2.371   4.705   1.796
 2224SOL    HW2 7572   2.244   4.613   1.750
 2225SOL     OW 7573   6.520   5.030   2.395
 2225SOL    HW1 7574   6.607   5.032   2.345
 2225SOL    HW2 7575   6.473   4.943   2.376
 2226SOL     OW 7576   3.815   2.912   1.157
 2226SOL    HW1 7577   3.824   2.819   1.193
 2226SOL    HW2 7578   3.869   2.974   1.213
 2227SOL     OW 7579   6.659   4.003   5.959
 2227SOL    HW1 7580   6.619   4.092   5.981
 2227SOL    HW2 7581   6.672   3.951   6.044
 2228SOL     OW 7582   3.036   4.832   6.128
 2228SOL    HW1 7583   3.101   4.757   6.118
 2228SOL    HW2 7584   2.978   4.817   6.208
 2229SOL     OW 7585   4.646   1.096   3.198
 2229SOL    HW1 7586   4.592   1.137   3.124
 2229SOL    HW2 7587   4.672   1.003   3.174
 2230SOL     OW 7588   0.688   5.770   4.996
 2230SOL    HW1 7589   0.716   5.681   5.033
 2230SOL    HW2 7590   0.759   5.804   4.935
 2231SOL     OW 7591   2.030   0.312   1.881
 2231SOL    HW1 7592   1.967   0.380   1.844
 2231SOL    HW2 7593   2.055   0.247   1.809
 2232SOL     OW 7594   6.757   2.826   2.629
 2232SOL    HW1 7595   6.716   2.868   2.548
 2232SOL    HW2 7596   6.720   2.870   2.711
 2233SOL     OW 7597   3.476   6.400   0.010
 2233SOL    HW1 7598   3.415   6.470   0.046
 2233SOL    HW2 7599   3.452   6.380   6.944
 2234SOL     OW 7600   3.603   1.325   0.726
 2234SOL    HW1 7601   3.570   1.239   0.765
 2234SOL    HW2 7602   3.579   1.329   0.629
 2235SOL     OW 7603   1.009   0.018   0.686
 2235SOL    HW1 7604   0.970   6.998   0.763
 2235SOL    HW2 7605   1.085   6.995   0.648
 2236SOL     OW 7606   0.703   4.622   1.265
 2236SOL    HW1 7607   0.763   4.703   1.263
 2236SOL    HW2 7608   0.734   4.560   1.338
 2237SOL     OW 7609   6.931   2.984   4.843
 2237SOL    HW1 7610   6.933   2.962   4.745
 2237SOL    HW2 7611   6.911   3.081   4.855
 2238SOL     OW 7612   0.382   5.771   1.818
 2238SOL    HW1 7613   0.470   5.753   1.861
 2238SOL    HW2 7614   0.385   5.861   1.772
 2239SOL     OW 7615   3.762   4.898   3.505
 2239SOL    HW1 7616   3.745   4.859   3.596
 2239SOL    HW2 7617   3.684   4.954   3.478
 2240SOL     OW 7618   6.633   4.980   3.042
 2240SOL    HW1 7619   6.722   4.946   3.072
 2240SOL    HW2 7620   6.631   5.080   3.050
 2241SOL     OW 7621   6.856   6.511   1.965
 2241SOL    HW1 7622   6.826   6.444   2.033
 2241SOL    HW2 7623   6.804   6.498   1.881
 2242SOL     OW 7624   4.815   2.371   3.055
 2242SOL    HW1 7625   4.782   2.378   2.961
 2242SOL    HW2 7626   4.889   2.304   3.060
 2243SOL     OW 7627   2.015   5.872   5.176
 2243SOL    HW1 7628   2.030   5.971   5.178
 2243SOL    HW2 7629   1.917   5.853   5.171
 2244SOL     OW 7630   2.340   0.453   4.387
 2244SOL    HW1 7631   2.298   0.399   4.460
 2244SOL    HW2 7632   2.425   0.493   4.420
 2245SOL     OW 7633   0.458   1.580   2.727
 2245SOL    HW1 7634   0.486   1.554   2.635
 2245SOL    HW2 7635   0.475   1.677   2.741
 2246SOL     OW 7636   1.172   3.874   6.323
 2246SOL    HW1 7637   1.089   3.913   6.363
 2246SOL    HW2 7638   1.208   3.936   6.254
 2247SOL     OW 7639   2.005   2.592   6.365
 2247SOL    HW1 7640   1.944   2.661   6.404
 2247SOL    HW2 7641   1.955   2.539   6.296
 2248SOL     OW 7642   4.770   4.148   5.409
 2248SOL    HW1 7643   4.777   4.248   5.406
 2248SOL    HW2 7644   4.780   4.117   5.503
 2249SOL     OW 7645   5.548   6.023   3.500
 2249SOL    HW1 7646   5.580   5.930   3.482
 2249SOL    HW2 7647   5.479   6.048   3.432
 2250SOL     OW 7648   6.393   4.309   0.873
 2250SOL    HW1 7649   6.329   4.279   0.802
 2250SOL    HW2 7650   6.479   4.259   0.866
 2251SOL     OW 7651   5.705   1.016   0.214
 2251SOL    HW1 7652   5.612   0.996   0.243
 2251SOL    HW2 7653   5.712   1.113   0.189
 2252SOL     OW 7654   5.324   2.751   4.988
 2252SOL    HW1 7655   5.327   2.654   5.012
 2252SOL    HW2 7656   5.318   2.761   4.889
 2253SOL     OW 7657   2.543   2.937   6.734
 2253SOL    HW1 7658   2.624   2.881   6.713
 2253SOL    HW2 7659   2.559   2.988   6.818
 2254SOL     OW 7660   2.261   3.800   6.359
 2254SOL    HW1 7661   2.190   3.754   6.306
 2254SOL    HW2 7662   2.273   3.894   6.326
 2255SOL     OW 7663   5.999   2.556   2.138
 2255SOL    HW1 7664   6.076   2.613   2.110
 2255SOL    HW2 7665   5.919   2.580   2.083
 2256SOL     OW 7666   4.099   4.764   2.181
 2256SOL    HW1 7667   4.013   4.740   2.138
 2256SOL    HW2 7668   4.174   4.751   2.116
 2257SOL     OW 7669   1.490   4.020   3.860
 2257SOL    HW1 7670   1.484   3.922   3.839
 2257SOL    HW2 7671   1.577   4.040   3.904
 2258SOL     OW 7672   1.537   5.482   5.106
 2258SOL    HW1 7673   1.601   5.512   5.035
 2258SOL    HW2 7674   1.579   5.494   5.196
 2259SOL     OW 7675   5.242   3.891   6.989
 2259SOL    HW1 7676   5.153   3.851   7.010
 2259SOL    HW2 7677   5.315   3.828   7.014
 2260SOL     OW 7678   5.264   5.072   1.543
 2260SOL    HW1 7679   5.235   4.977   1.530
 2260SOL    HW2 7680   5.238   5.126   1.463
 2261SOL     OW 7681   5.761   6.275   0.478
 2261SOL    HW1 7682   5.666   6.298   0.501
 2261SOL    HW2 7683   5.816   6.359   0.477
 2262SOL     OW 7684   4.841   2.653   3.870
 2262SOL    HW1 7685   4.775   2.610   3.931
 2262SOL    HW2 7686   4.808   2.743   3.843
 2263SOL     OW 7687   1.501   5.331   5.994
 2263SOL    HW1 7688   1.591   5.320   5.953
 2263SOL    HW2 7689   1.433   5.345   5.922
 2264SOL     OW 7690   2.934   3.418   3.675
 2264SOL    HW1 7691   2.840   3.391   3.655
 2264SOL    HW2 7692   2.986   3.339   3.708
 2265SOL     OW 7693   0.088   0.289   1.961
 2265SOL    HW1 7694   0.035   0.234   2.025
 2265SOL    HW2 7695   0.091   0.384   1.993
 2266SOL     OW 7696   5.935   0.426   0.601
 2266SOL    HW1 7697   5.932   0.474   0.689
 2266SOL    HW2 7698   5.847   0.382   0.584
 2267SOL     OW 7699   5.968   2.623   5.315
 2267SOL    HW1 7700   5.963   2.563   5.394
 2267SOL    HW2 7701   6.047   2.599   5.259
 2268SOL     OW 7702   0.156   6.399   0.328
 2268SOL    HW1 7703   0.145   6.494   0.358
 2268SOL    HW2 7704   0.188   6.398   0.233
 2269SOL     OW 7705   6.620   5.467   5.988
 2269SOL    HW1 7706   6.673   5.434   5.910
 2269SOL    HW2 7707   6.627   5.566   5.994
 2270SOL     OW 7708   3.113   3.517   1.966
 2270SOL    HW1 7709   3.038   3.576   1.995
 2270SOL    HW2 7710   3.091   3.422   1.986
 2271SOL     OW 7711   5.842   4.685   1.886
 2271SOL    HW1 7712   5.889   4.765   1.848
 2271SOL    HW2 7713   5.827   4.618   1.813
 2272SOL     OW 7714   5.579   1.932   5.525
 2272SOL    HW1 7715   5.549   1.873   5.450
 2272SOL    HW2 7716   5.544   1.895   5.611
 2273SOL     OW 7717   0.839   1.230   3.494
 2273SOL    HW1 7718   0.778   1.204   3.419
 2273SOL    HW2 7719   0.864   1.326   3.485
 2274SOL     OW 7720   1.400   3.442   4.896
 2274SOL    HW1 7721   1.412   3.415   4.991
 2274SOL    HW2 7722   1.389   3.541   4.891
 2275SOL     OW 7723   5.434   6.036   4.481
 2275SOL    HW1 7724   5.435   5.948   4.434
 2275SOL    HW2 7725   5.527   6.071   4.488
 2276SOL     OW 7726   4.323   4.306   1.127
 2276SOL    HW1 7727   4.298   4.266   1.214
 2276SOL    HW2 7728   4.347   4.233   1.062
 2277SOL     OW 7729   3.239   3.310   6.665
 2277SOL    HW1 7730   3.221   3.264   6.751
 2277SOL    HW2 7731   3.285   3.397   6.682
 2278SOL     OW 7732   5.242   6.103   1.418
 2278SOL    HW1 7733   5.336   6.120   1.447
 2278SOL    HW2 7734   5.242   6.060   1.328
 2279SOL     OW 7735   5.605   2.948   4.880
 2279SOL    HW1 7736   5.534   2.989   4.823
 2279SOL    HW2 7737   5.575   2.947   4.976
 2280SOL     OW 7738   6.225   6.104   5.617
 2280SOL    HW1 7739   6.159   6.167   5.575
 2280SOL    HW2 7740   6.316   6.145   5.613
 2281SOL     OW 7741   3.700   1.871   1.665
 2281SOL    HW1 7742   3.685   1.904   1.572
 2281SOL    HW2 7743   3.754   1.787   1.662
 2282SOL     OW 7744   5.172   5.727   3.355
 2282SOL    HW1 7745   5.233   5.799   3.322
 2282SOL    HW2 7746   5.214   5.683   3.434
 2283SOL     OW 7747   0.064   3.486   3.639
 2283SOL    HW1 7748   0.132   3.413   3.642
 2283SOL    HW2 7749   7.020   3.461   3.576
 2284SOL     OW 7750   2.478   1.953   1.492
 2284SOL    HW1 7751   2.447   2.028   1.550
 2284SOL    HW2 7752   2.578   1.945   1.499
 2285SOL     OW 7753   0.905   3.397   0.741
 2285SOL    HW1 7754   0.820   3.376   0.789
 2285SOL    HW2 7755   0.982   3.389   0.805
 2286SOL     OW 7756   6.169   6.095   4.489
 2286SOL    HW1 7757   6.197   6.013   4.539
 2286SOL    HW2 7758   6.112   6.069   4.411
 2287SOL     OW 7759   2.564   2.592   1.670
 2287SOL    HW1 7760   2.584   2.550   1.581
 2287SOL    HW2 7761   2.650   2.603   1.721
 2288SOL     OW 7762   7.029   6.343   2.565
 2288SOL    HW1 7763   7.006   6.257   2.520
 2288SOL    HW2 7764   7.001   6.339   2.661
 2289SOL     OW 7765   5.750   1.848   2.644
 2289SOL    HW1 7766   5.825   1.782   2.653
 2289SOL    HW2 7767   5.665   1.800   2.623
 2290SOL     OW 7768   3.160   3.954   3.308
 2290SOL    HW1 7769   3.213   4.016   3.250
 2290SOL    HW2 7770   3.223   3.899   3.363
 2291SOL     OW 7771   2.060   2.442   1.245
 2291SOL    HW1 7772   2.089   2.535   1.223
 2291SOL    HW2 7773   2.140   2.388   1.274
 2292SOL     OW 7774   4.277   1.935   2.854
 2292SOL    HW1 7775   4.230   2.014   2.892
 2292SOL    HW2 7776   4.265   1.933   2.755
 2293SOL     OW 7777   5.456   1.286   0.659
 2293SOL    HW1 7778   5.524   1.310   0.588
 2293SOL    HW2 7779   5.470   1.344   0.739
 2294SOL     OW 7780   1.161   2.765   6.580
 2294SOL    HW1 7781   1.242   2.822   6.593
 2294SOL    HW2 7782   1.189   2.672   6.557
 2295SOL     OW 7783   6.906   6.976   2.068
 2295SOL    HW1 7784   6.992   6.926   2.076
 2295SOL    HW2 7785   6.835   6.930   2.121
 2296SOL     OW 7786   2.642   5.503   3.437
 2296SOL    HW1 7787   2.598   5.423   3.397
 2296SOL    HW2 7788   2.613   5.513   3.533
 2297SOL     OW 7789   4.492   5.114   5.455
 2297SOL    HW1 7790   4.393   5.106   5.451
 2297SOL    HW2 7791   4.527   5.064   5.535
 2298SOL     OW 7792   3.869   2.977   4.639
 2298SOL    HW1 7793   3.848   2.912   4.712
 2298SOL    HW2 7794   3.936   2.936   4.576
 2299SOL     OW 7795   5.445   2.963   5.112
 2299SOL    HW1 7796   5.417   2.958   5.208
 2299SOL    HW2 7797   5.405   2.886   5.062
 2300SOL     OW 7798   3.825   6.368   2.874
 2300SOL    HW1 7799   3.884   6.431   2.822
 2300SOL    HW2 7800   3.834   6.388   2.972
 2301SOL     OW 7801   3.421   2.917   4.618
 2301SOL    HW1 7802   3.359   2.842   4.593
 2301SOL    HW2 7803   3.489   2.928   4.546
 2302SOL     OW 7804   4.468   1.824   0.177
 2302SOL    HW1 7805   4.458   1.923   0.184
 2302SOL    HW2 7806   4.508   1.788   0.261
 2303SOL     OW 7807   2.446   2.138   0.727
 2303SOL    HW1 7808   2.527   2.163   0.780
 2303SOL    HW2 7809   2.474   2.104   0.637
 2304SOL     OW 7810   6.304   6.102   2.872
 2304SOL    HW1 7811   6.326   6.138   2.781
 2304SOL    HW2 7812   6.222   6.046   2.867
 2305SOL     OW 7813   1.345   1.399   5.257
 2305SOL    HW1 7814   1.339   1.437   5.165
 2305SOL    HW2 7815   1.429   1.346   5.267
 2306SOL     OW 7816   2.525   4.775   3.376
 2306SOL    HW1 7817   2.559   4.862   3.412
 2306SOL    HW2 7818   2.556   4.700   3.435
 2307SOL     OW 7819   1.321   2.590   5.690
 2307SOL    HW1 7820   1.299   2.592   5.788
 2307SOL    HW2 7821   1.312   2.681   5.652
 2308SOL     OW 7822   2.579   4.662   1.969
 2308SOL    HW1 7823   2.527   4.606   2.034
 2308SOL    HW2 7824   2.677   4.643   1.980
 2309SOL     OW 7825   1.225   6.489   4.264
 2309SOL    HW1 7826   1.163   6.429   4.313
 2309SOL    HW2 7827   1.251   6.447   4.177
 2310SOL     OW 7828   4.102   6.978   1.433
 2310SOL    HW1 7829   4.124   0.029   1.490
 2310SOL    HW2 7830   4.150   6.986   1.346
 2311SOL     OW 7831   2.724   5.997   0.930
 2311SOL    HW1 7832   2.665   5.995   1.011
 2311SOL    HW2 7833   2.792   6.070   0.941
 2312SOL     OW 7834   3.819   5.468   2.499
 2312SOL    HW1 7835   3.785   5.374   2.505
 2312SOL    HW2 7836   3.760   5.529   2.552
 2313SOL     OW 7837   5.026   4.949   2.326
 2313SOL    HW1 7838   4.967   4.878   2.365
 2313SOL    HW2 7839   5.062   5.007   2.399
 2314SOL     OW 7840   3.239   5.879   3.565
 2314SOL    HW1 7841   3.230   5.858   3.662
 2314SOL    HW2 7842   3.335   5.873   3.538
 2315SOL     OW 7843   3.898   3.290   6.088
 2315SOL    HW1 7844   3.884   3.216   6.023
 2315SOL    HW2 7845   3.989   3.283   6.128
 2316SOL     OW 7846   5.382   2.754   3.129
 2316SOL    HW1 7847   5.394   2.755   3.030
 2316SOL    HW2 7848   5.394   2.661   3.163
 2317SOL     OW 7849   2.008   4.552   3.358
 2317SOL    HW1 7850   1.999   4.493   3.438
 2317SOL    HW2 7851   2.103   4.581   3.348
 2318SOL     OW 7852   0.310   0.886   3.325
 2318SOL    HW1 7853   0.239   0.904   3.257
 2318SOL    HW2 7854   0.368   0.967   3.335
 2319SOL     OW 7855   1.454   5.044   4.344
 2319SOL    HW1 7856   1.442   4.945   4.335
 2319SOL    HW2 7857   1.504   5.079   4.266
 2320SOL     OW 7858   6.971   2.871   4.192
 2320SOL    HW1 7859   6.951   2.879   4.094
 2320SOL    HW2 7860   6.915   2.798   4.231
 2321SOL     OW 7861   3.258   6.938   4.965
 2321SOL    HW1 7862   3.330   6.921   4.898
 2321SOL    HW2 7863   3.214   6.852   4.990
 2322SOL     OW 7864   1.243   1.030   5.314
 2322SOL    HW1 7865   1.325   0.994   5.358
 2322SOL    HW2 7866   1.244   1.130   5.320
 2323SOL     OW 7867   4.414   5.944   2.244
 2323SOL    HW1 7868   4.436   5.967   2.339
 2323SOL    HW2 7869   4.499   5.934   2.192
 2324SOL     OW 7870   0.478   5.672   2.648
 2324SOL    HW1 7871   0.571   5.643   2.672
 2324SOL    HW2 7872   0.433   5.598   2.599
 2325SOL     OW 7873   1.167   3.931   1.062
 2325SOL    HW1 7874   1.194   3.968   1.151
 2325SOL    HW2 7875   1.241   3.945   0.997
 2326SOL     OW 7876   1.212   5.192   6.829
 2326SOL    HW1 7877   1.127   5.142   6.814
 2326SOL    HW2 7878   1.214   5.229   6.922
 2327SOL     OW 7879   4.970   2.715   3.622
 2327SOL    HW1 7880   5.057   2.764   3.619
 2327SOL    HW2 7881   4.944   2.698   3.717
 2328SOL     OW 7882   4.637   1.156   2.840
 2328SOL    HW1 7883   4.632   1.255   2.856
 2328SOL    HW2 7884   4.730   1.125   2.858
 2329SOL     OW 7885   1.189   5.898   3.769
 2329SOL    HW1 7886   1.277   5.899   3.722
 2329SOL    HW2 7887   1.151   5.805   3.766
 2330SOL     OW 7888   0.952   4.373   2.697
 2330SOL    HW1 7889   1.035   4.366   2.752
 2330SOL    HW2 7890   0.884   4.429   2.746
 2331SOL     OW 7891   0.565   4.324   5.395
 2331SOL    HW1 7892   0.502   4.397   5.421
 2331SOL    HW2 7893   0.626   4.357   5.323
 2332SOL     OW 7894   5.311   1.911   5.996
 2332SOL    HW1 7895   5.301   1.892   6.093
 2332SOL    HW2 7896   5.361   1.997   5.984
 2333SOL     OW 7897   1.192   5.755   3.327
 2333SOL    HW1 7898   1.196   5.700   3.244
 2333SOL    HW2 7899   1.281   5.800   3.341
 2334SOL     OW 7900   3.162   7.003   6.758
 2334SOL    HW1 7901   3.130   0.041   6.825
 2334SOL    HW2 7902   3.092   6.990   6.687
 2335SOL     OW 7903   4.909   0.001   3.275
 2335SOL    HW1 7904   4.881   0.069   3.343
 2335SOL    HW2 7905   4.879   6.939   3.305
 2336SOL     OW 7906   4.987   1.021   5.779
 2336SOL    HW1 7907   4.899   0.978   5.756
 2336SOL    HW2 7908   5.029   0.970   5.854
 2337SOL     OW 7909   5.164   6.975   3.235
 2337SOL    HW1 7910   5.177   6.943   3.328
 2337SOL    HW2 7911   5.067   6.998   3.221
 2338SOL     OW 7912   0.515   6.982   6.347
 2338SOL    HW1 7913   0.598   6.997   6.402
 2338SOL    HW2 7914   0.455   0.033   6.355
 2339SOL     OW 7915   3.690   4.690   0.098
 2339SOL    HW1 7916   3.626   4.701   0.174
 2339SOL    HW2 7917   3.645   4.715   0.013
 2340SOL     OW 7918   3.736   5.766   4.653
 2340SOL    HW1 7919   3.696   5.715   4.729
 2340SOL    HW2 7920   3.729   5.865   4.671
 2341SOL     OW 7921   5.205   5.319   1.042
 2341SOL    HW1 7922   5.249   5.296   1.129
 2341SOL    HW2 7923   5.264   5.381   0.990
 2342SOL     OW 7924   6.322   0.306   5.123
 2342SOL    HW1 7925   6.379   0.388   5.117
 2342SOL    HW2 7926   6.365   0.232   5.071
 2343SOL     OW 7927   1.304   5.531   0.890
 2343SOL    HW1 7928   1.330   5.559   0.798
 2343SOL    HW2 7929   1.342   5.441   0.910
 2344SOL     OW 7930   1.848   1.966   1.959
 2344SOL    HW1 7931   1.778   1.894   1.962
 2344SOL    HW2 7932   1.803   2.055   1.943
 2345SOL     OW 7933   1.892   0.804   4.491
 2345SOL    HW1 7934   1.960   0.731   4.481
 2345SOL    HW2 7935   1.800   0.765   4.482
 2346SOL     OW 7936   5.458   3.861   5.872
 2346SOL    HW1 7937   5.496   3.883   5.961
 2346SOL    HW2 7938   5.398   3.935   5.841
 2347SOL     OW 7939   1.677   2.618   1.726
 2347SOL    HW1 7940   1.697   2.670   1.809
 2347SOL    HW2 7941   1.658   2.523   1.749
 2348SOL     OW 7942   2.566   6.271   2.535
 2348SOL    HW1 7943   2.586   6.257   2.632
 2348SOL    HW2 7944   2.608   6.198   2.481
 2349SOL     OW 7945   6.247   6.539   6.078
 2349SOL    HW1 7946   6.250   6.545   6.178
 2349SOL    HW2 7947   6.332   6.497   6.045
 2350SOL     OW 7948   2.646   0.504   5.825
 2350SOL    HW1 7949   2.722   0.560   5.791
 2350SOL    HW2 7950   2.620   0.438   5.755
 2351SOL     OW 7951   2.507   5.333   4.081
 2351SOL    HW1 7952   2.604   5.312   4.075
 2351SOL    HW2 7953   2.493   5.432   4.077
 2352SOL     OW 7954   0.857   4.284   3.197
 2352SOL    HW1 7955   0.802   4.265   3.278
 2352SOL    HW2 7956   0.831   4.373   3.159
 2353SOL     OW 7957   2.682   4.551   5.901
 2353SOL    HW1 7958   2.729   4.493   5.835
 2353SOL    HW2 7959   2.738   4.633   5.919
 2354SOL     OW 7960   3.205   1.879   0.621
 2354SOL    HW1 7961   3.267   1.820   0.673
 2354SOL    HW2 7962   3.257   1.941   0.563
 2355SOL     OW 7963   0.497   6.422   0.375
 2355SOL    HW1 7964   0.532   6.371   0.454
 2355SOL    HW2 7965   0.518   6.371   0.291
 2356SOL     OW 7966   2.599   5.137   2.979
 2356SOL    HW1 7967   2.548   5.051   2.985
 2356SOL    HW2 7968   2.568   5.199   3.051
 2357SOL     OW 7969   6.150   4.329   2.245
 2357SOL    HW1 7970   6.174   4.322   2.148
 2357SOL    HW2 7971   6.219   4.283   2.300
 2358SOL     OW 7972   3.540   1.272   5.708
 2358SOL    HW1 7973   3.632   1.285   5.746
 2358SOL    HW2 7974   3.512   1.177   5.720
 2359SOL     OW 7975   1.679   1.592   5.250
 2359SOL    HW1 7976   1.684   1.647   5.333
 2359SOL    HW2 7977   1.605   1.525   5.258
 2360SOL     OW 7978   4.664   4.567   0.684
 2360SOL    HW1 7979   4.642   4.607   0.772
 2360SOL    HW2 7980   4.700   4.637   0.623
 2361SOL     OW 7981   3.223   6.986   2.224
 2361SOL    HW1 7982   3.268   6.925   2.159
 2361SOL    HW2 7983   3.129   6.955   2.240
 2362SOL     OW 7984   4.127   5.584   4.433
 2362SOL    HW1 7985   4.071   5.513   4.476
 2362SOL    HW2 7986   4.173   5.545   4.353
 2363SOL     OW 7987   3.344   3.233   0.535
 2363SOL    HW1 7988   3.312   3.139   0.525
 2363SOL    HW2 7989   3.360   3.273   0.445
 2364SOL     OW 7990   4.231   2.010   1.893
 2364SOL    HW1 7991   4.172   1.930   1.881
 2364SOL    HW2 7992   4.323   1.988   1.863
 2365SOL     OW 7993   5.564   3.525   4.410
 2365SOL    HW1 7994   5.527   3.596   4.350
 2365SOL    HW2 7995   5.649   3.489   4.372
 2366SOL     OW 7996   2.523   4.387   5.208
 2366SOL    HW1 7997   2.607   4.346   5.243
 2366SOL    HW2 7998   2.444   4.344   5.251
 2367SOL     OW 7999   0.930   4.253   6.026
 2367SOL    HW1 8000   0.932   4.162   5.984
 2367SOL    HW2 8001   0.896   4.246   6.120
 2368SOL     OW 8002   5.237   0.362   4.199
 2368SOL    HW1 8003   5.317   0.422   4.195
 2368SOL    HW2 8004   5.241   0.307   4.282
 2369SOL     OW 8005   2.810   1.017   3.522
 2369SOL    HW1 8006   2.725   1.063   3.547
 2369SOL    HW2 8007   2.858   1.070   3.453
 2370SOL     OW 8008   5.180   3.203   1.550
 2370SOL    HW1 8009   5.184   3.301   1.571
 2370SOL    HW2 8010   5.193   3.150   1.633
 2371SOL     OW 8011   0.655   6.686   2.794
 2371SOL    HW1 8012   0.669   6.588   2.781
 2371SOL    HW2 8013   0.641   6.730   2.705
 2372SOL     OW 8014   6.713   1.393   6.204
 2372SOL    HW1 8015   6.614   1.404   6.211
 2372SOL    HW2 8016   6.742   1.411   6.110
 2373SOL     OW 8017   6.359   7.022   6.238
 2373SOL    HW1 8018   6.322   6.952   6.177
 2373SOL    HW2 8019   6.443   6.989   6.280
 2374SOL     OW 8020   6.141   6.533   2.909
 2374SOL    HW1 8021   6.236   6.519   2.882
 2374SOL    HW2 8022   6.105   6.614   2.863
 2375SOL     OW 8023   0.756   0.492   4.265
 2375SOL    HW1 8024   0.677   0.542   4.231
 2375SOL    HW2 8025   0.777   0.521   4.358
 2376SOL     OW 8026   6.265   2.195   3.097
 2376SOL    HW1 8027   6.363   2.177   3.093
 2376SOL    HW2 8028   6.220   2.127   3.154
 2377SOL     OW 8029   4.329   4.942   5.749
 2377SOL    HW1 8030   4.258   4.909   5.687
 2377SOL    HW2 8031   4.336   5.042   5.741
 2378SOL     OW 8032   6.703   1.546   0.783
 2378SOL    HW1 8033   6.765   1.516   0.710
 2378SOL    HW2 8034   6.613   1.506   0.768
 2379SOL     OW 8035   6.963   5.183   0.477
 2379SOL    HW1 8036   6.876   5.163   0.522
 2379SOL    HW2 8037   6.981   5.112   0.409
 2380SOL     OW 8038   5.026   4.373   4.956
 2380SOL    HW1 8039   4.928   4.392   4.959
 2380SOL    HW2 8040   5.050   4.331   4.869
 2381SOL     OW 8041   2.726   5.379   5.012
 2381SOL    HW1 8042   2.702   5.295   4.962
 2381SOL    HW2 8043   2.825   5.393   5.006
 2382SOL     OW 8044   1.420   6.221   2.104
 2382SOL    HW1 8045   1.320   6.212   2.103
 2382SOL    HW2 8046   1.459   6.148   2.161
 2383SOL     OW 8047   5.010   5.799   4.817
 2383SOL    HW1 8048   5.094   5.852   4.831
 2383SOL    HW2 8049   4.953   5.845   4.749
 2384SOL     OW 8050   0.936   1.620   1.713
 2384SOL    HW1 8051   0.995   1.680   1.767
 2384SOL    HW2 8052   0.884   1.675   1.648
 2385SOL     OW 8053   0.438   1.813   0.960
 2385SOL    HW1 8054   0.496   1.890   0.986
 2385SOL    HW2 8055   0.491   1.747   0.907
 2386SOL     OW 8056   3.935   5.744   4.222
 2386SOL    HW1 8057   3.996   5.666   4.208
 2386SOL    HW2 8058   3.977   5.809   4.285
 2387SOL     OW 8059   1.026   1.849   3.372
 2387SOL    HW1 8060   1.024   1.940   3.331
 2387SOL    HW2 8061   1.098   1.846   3.442
 2388SOL     OW 8062   6.901   2.117   6.349
 2388SOL    HW1 8063   6.932   2.192   6.407
 2388SOL    HW2 8064   6.979   2.057   6.329
 2389SOL     OW 8065   5.134   4.637   3.888
 2389SOL    HW1 8066   5.114   4.696   3.809
 2389SOL    HW2 8067   5.052   4.629   3.945
 2390SOL     OW 8068   4.849   3.669   5.662
 2390SOL    HW1 8069   4.827   3.571   5.664
 2390SOL    HW2 8070   4.896   3.694   5.747
 2391SOL     OW 8071   3.356   3.596   5.733
 2391SOL    HW1 8072   3.394   3.617   5.643
 2391SOL    HW2 8073   3.283   3.661   5.754
 2392SOL     OW 8074   3.330   5.598   5.217
 2392SOL    HW1 8075   3.255   5.645   5.171
 2392SOL    HW2 8076   3.294   5.541   5.291
 2393SOL     OW 8077   3.732   5.541   1.310
 2393SOL    HW1 8078   3.641   5.574   1.284
 2393SOL    HW2 8079   3.738   5.443   1.291
 2394SOL     OW 8080   0.579   3.378   3.367
 2394SOL    HW1 8081   0.602   3.475   3.362
 2394SOL    HW2 8082   0.645   3.325   3.313
 2395SOL     OW 8083   0.449   3.197   5.992
 2395SOL    HW1 8084   0.493   3.243   5.914
 2395SOL    HW2 8085   0.481   3.103   5.997
 2396SOL     OW 8086   6.120   1.169   4.893
 2396SOL    HW1 8087   6.183   1.093   4.881
 2396SOL    HW2 8088   6.118   1.195   4.989
 2397SOL     OW 8089   0.609   4.912   5.538
 2397SOL    HW1 8090   0.617   4.825   5.488
 2397SOL    HW2 8091   0.700   4.942   5.566
 2398SOL     OW 8092   2.428   5.597   4.109
 2398SOL    HW1 8093   2.501   5.622   4.173
 2398SOL    HW2 8094   2.444   5.642   4.021
 2399SOL     OW 8095   2.690   2.293   3.598
 2399SOL    HW1 8096   2.647   2.203   3.585
 2399SOL    HW2 8097   2.620   2.360   3.621
 2400SOL     OW 8098   1.527   3.598   0.191
 2400SOL    HW1 8099   1.516   3.621   0.287
 2400SOL    HW2 8100   1.513   3.679   0.135
 2401SOL     OW 8101   3.724   0.023   4.858
 2401SOL    HW1 8102   3.760   0.105   4.902
 2401SOL    HW2 8103   3.793   6.981   4.859
 2402SOL     OW 8104   0.982   2.566   2.471
 2402SOL    HW1 8105   1.042   2.642   2.494
 2402SOL    HW2 8106   0.896   2.602   2.434
 2403SOL     OW 8107   3.494   3.583   2.381
 2403SOL    HW1 8108   3.528   3.489   2.379
 2403SOL    HW2 8109   3.409   3.587   2.434
 2404SOL     OW 8110   6.764   1.010   1.144
 2404SOL    HW1 8111   6.670   0.986   1.169
 2404SOL    HW2 8112   6.784   1.103   1.174
 2405SOL     OW 8113   2.512   4.191   0.448
 2405SOL    HW1 8114   2.522   4.104   0.400
 2405SOL    HW2 8115   2.601   4.237   0.453
 2406SOL     OW 8116   1.878   0.253   4.239
 2406SOL    HW1 8117   1.886   0.329   4.174
 2406SOL    HW2 8118   1.782   0.230   4.251
 2407SOL     OW 8119   3.701   1.569   3.486
 2407SOL    HW1 8120   3.676   1.485   3.439
 2407SOL    HW2 8121   3.620   1.626   3.501
 2408SOL     OW 8122   2.192   6.352   3.839
 2408SOL    HW1 8123   2.242   6.436   3.859
 2408SOL    HW2 8124   2.112   6.373   3.781
 2409SOL     OW 8125   2.422   2.442   0.770
 2409SOL    HW1 8126   2.389   2.451   0.864
 2409SOL    HW2 8127   2.395   2.352   0.734
 2410SOL     OW 8128   6.392   3.425   5.820
 2410SOL    HW1 8129   6.408   3.421   5.721
 2410SOL    HW2 8130   6.434   3.345   5.863
 2411SOL     OW 8131   3.030   3.649   6.728
 2411SOL    HW1 8132   2.971   3.570   6.748
 2411SOL    HW2 8133   3.009   3.723   6.793
 2412SOL     OW 8134   2.619   2.297   6.680
 2412SOL    HW1 8135   2.636   2.376   6.622
 2412SOL    HW2 8136   2.570   2.227   6.628
 2413SOL     OW 8137   6.717   2.517   6.678
 2413SOL    HW1 8138   6.646   2.541   6.745
 2413SOL    HW2 8139   6.797   2.483   6.727
 2414SOL     OW 8140   5.811   2.581   4.278
 2414SOL    HW1 8141   5.751   2.638   4.334
 2414SOL    HW2 8142   5.759   2.504   4.242
 2415SOL     OW 8143   2.794   6.339   0.771
 2415SOL    HW1 8144   2.702   6.343   0.810
 2415SOL    HW2 8145   2.826   6.244   0.771
 2416SOL     OW 8146   0.150   3.405   3.128
 2416SOL    HW1 8147   0.112   3.442   3.043
 2416SOL    HW2 8148   0.094   3.436   3.205
 2417SOL     OW 8149   3.914   2.656   0.493
 2417SOL    HW1 8150   4.013   2.644   0.503
 2417SOL    HW2 8151   3.871   2.654   0.583
 2418SOL     OW 8152   4.892   4.248   5.871
 2418SOL    HW1 8153   4.864   4.191   5.949
 2418SOL    HW2 8154   4.844   4.218   5.789
 2419SOL     OW 8155   2.042   6.707   4.330
 2419SOL    HW1 8156   2.065   6.791   4.379
 2419SOL    HW2 8157   2.014   6.729   4.237
 2420SOL     OW 8158   3.506   5.361   2.480
 2420SOL    HW1 8159   3.499   5.324   2.572
 2420SOL    HW2 8160   3.470   5.294   2.415
 2421SOL     OW 8161   3.092   0.172   4.585
 2421SOL    HW1 8162   3.051   0.263   4.588
 2421SOL    HW2 8163   3.021   0.103   4.593
 2422SOL     OW 8164   3.760   6.699   2.278
 2422SOL    HW1 8165   3.755   6.739   2.187
 2422SOL    HW2 8166   3.855   6.681   2.302
 2423SOL     OW 8167   1.669   5.682   2.021
 2423SOL    HW1 8168   1.625   5.704   2.108
 2423SOL    HW2 8169   1.623   5.731   1.947
 2424SOL     OW 8170   5.118   0.545   6.811
 2424SOL    HW1 8171   5.080   0.617   6.752
 2424SOL    HW2 8172   5.211   0.571   6.839
 2425SOL     OW 8173   4.337   5.466   5.503
 2425SOL    HW1 8174   4.334   5.379   5.454
 2425SOL    HW2 8175   4.363   5.539   5.440
 2426SOL     OW 8176   1.090   5.129   5.654
 2426SOL    HW1 8177   1.093   5.195   5.729
 2426SOL    HW2 8178   1.079   5.177   5.567
 2427SOL     OW 8179   4.896   6.925   6.569
 2427SOL    HW1 8180   4.818   6.951   6.625
 2427SOL    HW2 8181   4.871   6.930   6.473
 2428SOL     OW 8182   0.417   1.414   3.834
 2428SOL    HW1 8183   0.429   1.410   3.933
 2428SOL    HW2 8184   0.500   1.384   3.788
 2429SOL     OW 8185   5.460   5.153   2.360
 2429SOL    HW1 8186   5.387   5.159   2.292
 2429SOL    HW2 8187   5.528   5.224   2.343
 2430SOL     OW 8188   5.762   2.582   0.281
 2430SOL    HW1 8189   5.813   2.566   0.366
 2430SOL    HW2 8190   5.820   2.634   0.217
 2431SOL     OW 8191   6.208   1.988   1.864
 2431SOL    HW1 8192   6.149   2.033   1.797
 2431SOL    HW2 8193   6.153   1.934   1.927
 2432SOL     OW 8194   3.292   5.648   2.030
 2432SOL    HW1 8195   3.346   5.700   2.096
 2432SOL    HW2 8196   3.290   5.552   2.057
 2433SOL     OW 8197   6.673   5.819   0.379
 2433SOL    HW1 8198   6.605   5.815   0.306
 2433SOL    HW2 8199   6.718   5.909   0.377
 2434SOL     OW 8200   3.723   1.991   2.951
 2434SOL    HW1 8201   3.811   1.989   2.903
 2434SOL    HW2 8202   3.651   2.016   2.887
 2435SOL     OW 8203   5.473   0.363   6.532
 2435SOL    HW1 8204   5.385   0.321   6.553
 2435SOL    HW2 8205   5.547   0.308   6.571
 2436SOL     OW 8206   1.136   1.511   1.373
 2436SOL    HW1 8207   1.134   1.607   1.403
 2436SOL    HW2 8208   1.227   1.473   1.389
 2437SOL     OW 8209   6.476   6.037   2.467
 2437SOL    HW1 8210   6.563   5.991   2.450
 2437SOL    HW2 8211   6.401   5.979   2.439
 2438SOL     OW 8212   3.561   2.108   4.554
 2438SOL    HW1 8213   3.568   2.127   4.456
 2438SOL    HW2 8214   3.468   2.129   4.585
 2439SOL     OW 8215   0.403   5.210   6.525
 2439SOL    HW1 8216   0.431   5.302   6.501
 2439SOL    HW2 8217   0.468   5.144   6.486
 2440SOL     OW 8218   3.991   1.071   4.714
 2440SOL    HW1 8219   4.080   1.104   4.682
 2440SOL    HW2 8220   3.928   1.063   4.637
 2441SOL     OW 8221   5.711   0.202   6.600
 2441SOL    HW1 8222   5.634   0.159   6.647
 2441SOL    HW2 8223   5.760   0.134   6.546
 2442SOL     OW 8224   5.161   3.676   1.841
 2442SOL    HW1 8225   5.192   3.752   1.784
 2442SOL    HW2 8226   5.062   3.664   1.830
 2443SOL     OW 8227   2.367   0.687   0.045
 2443SOL    HW1 8228   2.410   0.740   7.001
 2443SOL    HW2 8229   2.405   0.715   0.134
 2444SOL     OW 8230   4.714   5.406   0.598
 2444SOL    HW1 8231   4.699   5.309   0.613
 2444SOL    HW2 8232   4.809   5.429   0.621
 2445SOL     OW 8233   7.017   1.806   1.613
 2445SOL    HW1 8234   6.917   1.817   1.610
 2445SOL    HW2 8235   0.025   1.860   1.689
 2446SOL     OW 8236   1.213   2.984   1.915
 2446SOL    HW1 8237   1.148   2.909   1.930
 2446SOL    HW2 8238   1.165   3.071   1.925
 2447SOL     OW 8239   2.034   0.883   0.543
 2447SOL    HW1 8240   2.045   0.905   0.446
 2447SOL    HW2 8241   2.118   0.905   0.592
 2448SOL     OW 8242   6.008   1.922   4.273
 2448SOL    HW1 8243   5.964   1.949   4.359
 2448SOL    HW2 8244   6.068   1.996   4.242
 2449SOL     OW 8245   2.148   4.529   1.855
 2449SOL    HW1 8246   2.140   4.449   1.795
 2449SOL    HW2 8247   2.208   4.507   1.932
 2450SOL     OW 8248   2.640   5.138   6.731
 2450SOL    HW1 8249   2.572   5.201   6.694
 2450SOL    HW2 8250   2.731   5.177   6.719
 2451SOL     OW 8251   0.703   0.110   3.968
 2451SOL    HW1 8252   0.711   0.146   3.875
 2451SOL    HW2 8253   0.760   0.165   4.029
 2452SOL     OW 8254   2.428   2.675   3.288
 2452SOL    HW1 8255   2.418   2.653   3.191
 2452SOL    HW2 8256   2.392   2.767   3.305
 2453SOL     OW 8257   6.708   1.987   0.763
 2453SOL    HW1 8258   6.780   1.920   0.780
 2453SOL    HW2 8259   6.663   1.966   0.676
 2454SOL     OW 8260   3.372   5.645   0.531
 2454SOL    HW1 8261   3.360   5.716   0.600
 2454SOL    HW2 8262   3.433   5.574   0.566
 2455SOL     OW 8263   2.843   1.294   0.125
 2455SOL    HW1 8264   2.837   1.212   0.068
 2455SOL    HW2 8265   2.804   1.275   0.215
 2456SOL     OW 8266   0.979   3.887   6.744
 2456SOL    HW1 8267   0.968   3.982   6.714
 2456SOL    HW2 8268   0.919   3.868   6.821
 2457SOL     OW 8269   5.737   1.405   5.899
 2457SOL    HW1 8270   5.642   1.402   5.930
 2457SOL    HW2 8271   5.796   1.440   5.972
 2458SOL     OW 8272   0.756   0.547   2.732
 2458SOL    HW1 8273   0.828   0.508   2.790
 2458SOL    HW2 8274   0.797   0.610   2.667
 2459SOL     OW 8275   2.821   5.336   6.360
 2459SOL    HW1 8276   2.786   5.426   6.335
 2459SOL    HW2 8277   2.879   5.345   6.441
 2460SOL     OW 8278   0.750   0.987   6.928
 2460SOL    HW1 8279   0.727   1.029   7.016
 2460SOL    HW2 8280   0.744   1.056   6.855
 2461SOL     OW 8281   4.404   0.093   4.383
 2461SOL    HW1 8282   4.408   7.029   4.348
 2461SOL    HW2 8283   4.372   0.155   4.311
 2462SOL     OW 8284   0.521   4.640   0.343
 2462SOL    HW1 8285   0.505   4.644   0.441
 2462SOL    HW2 8286   0.595   4.575   0.324
 2463SOL     OW 8287   6.723   1.711   0.374
 2463SOL    HW1 8288   6.638   1.723   0.426
 2463SOL    HW2 8289   6.702   1.710   0.276
 2464SOL     OW 8290   0.513   2.717   3.135
 2464SOL    HW1 8291   0.568   2.753   3.210
 2464SOL    HW2 8292   0.570   2.710   3.053
 2465SOL     OW 8293   6.627   5.688   6.386
 2465SOL    HW1 8294   6.692   5.725   6.319
 2465SOL    HW2 8295   6.577   5.612   6.345
 2466SOL     OW 8296   1.674   1.747   1.943
 2466SOL    HW1 8297   1.729   1.663   1.951
 2466SOL    HW2 8298   1.588   1.735   1.993
 2467SOL     OW 8299   4.405   2.002   6.132
 2467SOL    HW1 8300   4.364   1.971   6.046
 2467SOL    HW2 8301   4.334   2.035   6.194
 2468SOL     OW 8302   4.027   0.439   6.424
 2468SOL    HW1 8303   4.091   0.459   6.498
 2468SOL    HW2 8304   3.964   0.367   6.453
 2469SOL     OW 8305   4.315   3.121   5.782
 2469SOL    HW1 8306   4.268   3.038   5.811
 2469SOL    HW2 8307   4.249   3.187   5.748
 2470SOL     OW 8308   4.086   4.692   6.009
 2470SOL    HW1 8309   3.995   4.731   5.995
 2470SOL    HW2 8310   4.089   4.646   6.097
 2471SOL     OW 8311   3.633   0.232   0.740
 2471SOL    HW1 8312   3.685   0.202   0.820
 2471SOL    HW2 8313   3.535   0.219   0.758
 2472SOL     OW 8314   4.503   2.396   3.696
 2472SOL    HW1 8315   4.602   2.403   3.692
 2472SOL    HW2 8316   4.476   2.334   3.770
 2473SOL     OW 8317   1.370   4.726   4.845
 2473SOL    HW1 8318   1.454   4.761   4.885
 2473SOL    HW2 8319   1.292   4.756   4.900
 2474SOL     OW 8320   1.380   5.520   0.630
 2474SOL    HW1 8321   1.458   5.541   0.572
 2474SOL    HW2 8322   1.369   5.421   0.636
 2475SOL     OW 8323   4.545   0.566   0.778
 2475SOL    HW1 8324   4.599   0.645   0.750
 2475SOL    HW2 8325   4.586   0.524   0.859
 2476SOL     OW 8326   5.657   0.648   2.615
 2476SOL    HW1 8327   5.598   0.658   2.695
 2476SOL    HW2 8328   5.749   0.622   2.644
 2477SOL     OW 8329   4.024   0.742   3.479
 2477SOL    HW1 8330   4.112   0.727   3.436
 2477SOL    HW2 8331   4.027   0.709   3.574
 2478SOL     OW 8332   4.495   0.980   2.158
 2478SOL    HW1 8333   4.537   1.056   2.208
 2478SOL    HW2 8334   4.476   1.008   2.064
 2479SOL     OW 8335   1.361   2.526   1.505
 2479SOL    HW1 8336   1.378   2.558   1.412
 2479SOL    HW2 8337   1.299   2.448   1.503
 2480SOL     OW 8338   3.885   2.761   1.391
 2480SOL    HW1 8339   3.790   2.743   1.364
 2480SOL    HW2 8340   3.886   2.814   1.476
 2481SOL     OW 8341   2.530   0.285   1.582
 2481SOL    HW1 8342   2.615   0.337   1.584
 2481SOL    HW2 8343   2.468   0.325   1.515
 2482SOL     OW 8344   5.416   3.501   0.248
 2482SOL    HW1 8345   5.396   3.414   0.203
 2482SOL    HW2 8346   5.338   3.528   0.305
 2483SOL     OW 8347   1.583   1.874   0.245
 2483SOL    HW1 8348   1.490   1.879   0.283
 2483SOL    HW2 8349   1.648   1.857   0.319
 2484SOL     OW 8350   3.203   0.938   0.211
 2484SOL    HW1 8351   3.136   0.865   0.203
 2484SOL    HW2 8352   3.263   0.937   0.131
 2485SOL     OW 8353   4.968   3.265   0.300
 2485SOL    HW1 8354   5.031   3.223   0.365
 2485SOL    HW2 8355   5.017   3.286   0.215
 2486SOL     OW 8356   0.582   5.572   5.866
 2486SOL    HW1 8357   0.526   5.630   5.807
 2486SOL    HW2 8358   0.537   5.559   5.954
 2487SOL     OW 8359   3.972   6.124   0.307
 2487SOL    HW1 8360   3.978   6.208   0.360
 2487SOL    HW2 8361   3.947   6.145   0.212
 2488SOL     OW 8362   0.583   3.266   2.046
 2488SOL    HW1 8363   0.599   3.292   1.951
 2488SOL    HW2 8364   0.667   3.226   2.084
 2489SOL     OW 8365   0.967   6.121   3.142
 2489SOL    HW1 8366   0.871   6.147   3.130
 2489SOL    HW2 8367   0.980   6.081   3.233
 2490SOL     OW 8368   0.806   5.902   1.241
 2490SOL    HW1 8369   0.787   5.996   1.268
 2490SOL    HW2 8370   0.779   5.888   1.146
 2491SOL     OW 8371   3.586   4.549   1.169
 2491SOL    HW1 8372   3.591   4.639   1.124
 2491SOL    HW2 8373   3.521   4.491   1.121
 2492SOL     OW 8374   4.522   3.191   1.115
 2492SOL    HW1 8375   4.426   3.205   1.140
 2492SOL    HW2 8376   4.548   3.096   1.134
 2493SOL     OW 8377   6.895   6.816   1.166
 2493SOL    HW1 8378   6.947   6.809   1.251
 2493SOL    HW2 8379   6.811   6.868   1.182
 2494SOL     OW 8380   5.779   3.798   2.186
 2494SOL    HW1 8381   5.782   3.800   2.286
 2494SOL    HW2 8382   5.794   3.891   2.151
 2495SOL     OW 8383   5.723   5.560   3.492
 2495SOL    HW1 8384   5.774   5.504   3.428
 2495SOL    HW2 8385   5.656   5.615   3.442
 2496SOL     OW 8386   0.300   3.181   6.601
 2496SOL    HW1 8387   0.373   3.246   6.577
 2496SOL    HW2 8388   0.246   3.161   6.520
 2497SOL     OW 8389   0.559   0.122   0.993
 2497SOL    HW1 8390   0.580   0.074   1.078
 2497SOL    HW2 8391   0.478   0.081   0.950
 2498SOL     OW 8392   3.160   2.156   5.475
 2498SOL    HW1 8393   3.227   2.161   5.402
 2498SOL    HW2 8394   3.086   2.094   5.449
 2499SOL     OW 8395   6.027   3.418   2.379
 2499SOL    HW1 8396   5.954   3.428   2.312
 2499SOL    HW2 8397   6.108   3.469   2.349
 2500SOL     OW 8398   3.966   3.925   6.567
 2500SOL    HW1 8399   3.925   4.002   6.616
 2500SOL    HW2 8400   3.959   3.940   6.469
 2501SOL     OW 8401   5.307   5.659   6.932
 2501SOL    HW1 8402   5.307   5.580   6.993
 2501SOL    HW2 8403   5.353   5.635   6.846
 2502SOL     OW 8404   1.764   0.677   4.826
 2502SOL    HW1 8405   1.811   0.756   4.867
 2502SOL    HW2 8406   1.668   0.700   4.812
 2503SOL     OW 8407   2.830   6.599   4.767
 2503SOL    HW1 8408   2.830   6.500   4.755
 2503SOL    HW2 8409   2.806   6.621   4.862
 2504SOL     OW 8410   3.701   5.736   3.149
 2504SOL    HW1 8411   3.712   5.692   3.060
 2504SOL    HW2 8412   3.705   5.835   3.138
 2505SOL     OW 8413   0.396   6.549   2.732
 2505SOL    HW1 8414   0.380   6.626   2.671
 2505SOL    HW2 8415   0.482   6.504   2.707
 2506SOL     OW 8416   6.695   2.901   6.338
 2506SOL    HW1 8417   6.785   2.881   6.299
 2506SOL    HW2 8418   6.682   2.849   6.422
 2507SOL     OW 8419   6.457   3.352   7.003
 2507SOL    HW1 8420   6.519   3.430   7.000
 2507SOL    HW2 8421   6.506   3.269   6.978
 2508SOL     OW 8422   2.830   1.783   3.613
 2508SOL    HW1 8423   2.818   1.847   3.537
 2508SOL    HW2 8424   2.904   1.720   3.592
 2509SOL     OW 8425   6.980   4.684   1.179
 2509SOL    HW1 8426   0.049   4.701   1.174
 2509SOL    HW2 8427   6.941   4.685   1.087
 2510SOL     OW 8428   2.934   4.784   1.164
 2510SOL    HW1 8429   3.029   4.753   1.169
 2510SOL    HW2 8430   2.872   4.706   1.176
 2511SOL     OW 8431   2.865   1.689   3.864
 2511SOL    HW1 8432   2.847   1.734   3.777
 2511SOL    HW2 8433   2.787   1.702   3.926
 2512SOL     OW 8434   4.447   3.928   5.518
 2512SOL    HW1 8435   4.501   3.844   5.523
 2512SOL    HW2 8436   4.404   3.945   5.607
 2513SOL     OW 8437   1.876   5.193   4.567
 2513SOL    HW1 8438   1.817   5.251   4.623
 2513SOL    HW2 8439   1.870   5.222   4.472
 2514SOL     OW 8440   0.505   3.860   5.195
 2514SOL    HW1 8441   0.521   3.945   5.245
 2514SOL    HW2 8442   0.409   3.834   5.202
 2515SOL     OW 8443   2.217   6.245   0.251
 2515SOL    HW1 8444   2.208   6.145   0.242
 2515SOL    HW2 8445   2.250   6.267   0.342
 2516SOL     OW 8446   4.849   1.632   2.455
 2516SOL    HW1 8447   4.807   1.707   2.507
 2516SOL    HW2 8448   4.796   1.616   2.371
 2517SOL     OW 8449   1.172   0.548   6.426
 2517SOL    HW1 8450   1.190   0.632   6.374
 2517SOL    HW2 8451   1.084   0.510   6.398
 2518SOL     OW 8452   1.307   5.598   1.250
 2518SOL    HW1 8453   1.332   5.522   1.189
 2518SOL    HW2 8454   1.389   5.653   1.269
 2519SOL     OW 8455   3.907   0.397   1.926
 2519SOL    HW1 8456   3.854   0.333   1.871
 2519SOL    HW2 8457   3.864   0.487   1.923
 2520SOL     OW 8458   3.266   1.835   0.963
 2520SOL    HW1 8459   3.345   1.822   1.023
 2520SOL    HW2 8460   3.249   1.752   0.911
 2521SOL     OW 8461   3.122   0.570   5.504
 2521SOL    HW1 8462   3.043   0.545   5.447
 2521SOL    HW2 8463   3.094   0.570   5.600
 2522SOL     OW 8464   0.836   1.353   5.543
 2522SOL    HW1 8465   0.767   1.303   5.595
 2522SOL    HW2 8466   0.800   1.444   5.519
 2523SOL     OW 8467   1.106   2.607   0.833
 2523SOL    HW1 8468   1.034   2.542   0.807
 2523SOL    HW2 8469   1.194   2.576   0.795
 2524SOL     OW 8470   0.127   6.871   5.141
 2524SOL    HW1 8471   0.152   6.777   5.164
 2524SOL    HW2 8472   0.137   6.886   5.043
 2525SOL     OW 8473   1.004   2.518   5.482
 2525SOL    HW1 8474   1.079   2.452   5.474
 2525SOL    HW2 8475   1.026   2.600   5.430
 2526SOL     OW 8476   1.436   4.479   6.636
 2526SOL    HW1 8477   1.371   4.512   6.704
 2526SOL    HW2 8478   1.446   4.380   6.644
 2527SOL     OW 8479   6.037   6.556   5.839
 2527SOL    HW1 8480   6.117   6.502   5.865
 2527SOL    HW2 8481   6.057   6.607   5.755
 2528SOL     OW 8482   5.716   4.951   6.468
 2528SOL    HW1 8483   5.756   5.004   6.393
 2528SOL    HW2 8484   5.787   4.925   6.533
 2529SOL     OW 8485   6.829   6.164   6.973
 2529SOL    HW1 8486   6.820   6.081   6.918
 2529SOL    HW2 8487   6.749   6.223   6.957
 2530SOL     OW 8488   2.485   6.045   4.803
 2530SOL    HW1 8489   2.410   6.019   4.742
 2530SOL    HW2 8490   2.571   6.010   4.766
 2531SOL     OW 8491   5.617   6.037   4.748
 2531SOL    HW1 8492   5.642   6.079   4.661
 2531SOL    HW2 8493   5.661   6.087   4.822
 2532SOL     OW 8494   0.265   6.200   0.473
 2532SOL    HW1 8495   0.228   6.287   0.440
 2532SOL    HW2 8496   0.189   6.137   0.493
 2533SOL     OW 8497   4.097   0.131   3.711
 2533SOL    HW1 8498   4.196   0.130   3.702
 2533SOL    HW2 8499   4.055   0.097   3.627
 2534SOL     OW 8500   3.756   1.425   1.778
 2534SOL    HW1 8501   3.805   1.460   1.858
 2534SOL    HW2 8502   3.796   1.337   1.751
 2535SOL     OW 8503   3.535   3.602   5.941
 2535SOL    HW1 8504   3.615   3.542   5.930
 2535SOL    HW2 8505   3.467   3.580   5.871
 2536SOL     OW 8506   1.469   1.364   6.571
 2536SOL    HW1 8507   1.478   1.271   6.533
 2536SOL    HW2 8508   1.548   1.419   6.543
 2537SOL     OW 8509   3.438   0.278   6.423
 2537SOL    HW1 8510   3.356   0.319   6.465
 2537SOL    HW2 8511   3.410   0.209   6.356
 2538SOL     OW 8512   0.633   4.316   3.794
 2538SOL    HW1 8513   0.719   4.265   3.788
 2538SOL    HW2 8514   0.583   4.307   3.708
 2539SOL     OW 8515   5.486   1.184   4.243
 2539SOL    HW1 8516   5.407   1.144   4.195
 2539SOL    HW2 8517   5.522   1.117   4.308
 2540SOL     OW 8518   3.994   2.016   2.896
 2540SOL    HW1 8519   4.054   2.051   2.969
 2540SOL    HW2 8520   4.021   1.923   2.873
 2541SOL     OW 8521   3.648   0.831   4.670
 2541SOL    HW1 8522   3.661   0.913   4.615
 2541SOL    HW2 8523   3.601   0.855   4.755
 2542SOL     OW 8524   3.599   3.373   6.198
 2542SOL    HW1 8525   3.511   3.400   6.160
 2542SOL    HW2 8526   3.673   3.410   6.142
 2543SOL     OW 8527   0.267   0.705   3.681
 2543SOL    HW1 8528   0.283   0.634   3.613
 2543SOL    HW2 8529   0.171   0.733   3.678
 2544SOL     OW 8530   0.714   5.998   0.695
 2544SOL    HW1 8531   0.660   6.013   0.612
 2544SOL    HW2 8532   0.734   5.901   0.706
 2545SOL     OW 8533   1.670   6.916   1.968
 2545SOL    HW1 8534   1.707   6.938   1.877
 2545SOL    HW2 8535   1.632   6.823   1.967
 2546SOL     OW 8536   6.600   1.681   2.094
 2546SOL    HW1 8537   6.624   1.765   2.045
 2546SOL    HW2 8538   6.501   1.668   2.091
 2547SOL     OW 8539   0.339   4.176   6.909
 2547SOL    HW1 8540   0.432   4.170   6.873
 2547SOL    HW2 8541   0.341   4.174   7.009
 2548SOL     OW 8542   1.081   6.832   4.750
 2548SOL    HW1 8543   1.144   6.904   4.721
 2548SOL    HW2 8544   1.119   6.782   4.827
 2549SOL     OW 8545   0.951   0.369   0.938
 2549SOL    HW1 8546   0.867   0.323   0.908
 2549SOL    HW2 8547   1.015   0.301   0.974
 2550SOL     OW 8548   6.997   0.135   6.919
 2550SOL    HW1 8549   6.946   0.204   6.970
 2550SOL    HW2 8550   6.938   0.095   6.848
 2551SOL     OW 8551   3.318   4.849   0.400
 2551SOL    HW1 8552   3.388   4.836   0.470
 2551SOL    HW2 8553   3.336   4.786   0.324
 2552SOL     OW 8554   1.842   6.195   4.372
 2552SOL    HW1 8555   1.778   6.185   4.296
 2552SOL    HW2 8556   1.884   6.106   4.391
 2553SOL     OW 8557   4.208   3.617   5.817
 2553SOL    HW1 8558   4.156   3.674   5.755
 2553SOL    HW2 8559   4.306   3.631   5.801
 2554SOL     OW 8560   2.822   0.380   0.454
 2554SOL    HW1 8561   2.851   0.323   0.376
 2554SOL    HW2 8562   2.878   0.358   0.534
 2555SOL     OW 8563   6.097   0.865   5.125
 2555SOL    HW1 8564   6.094   0.871   5.025
 2555SOL    HW2 8565   6.129   0.774   5.152
 2556SOL     OW 8566   4.137   6.583   0.257
 2556SOL    HW1 8567   4.231   6.549   0.259
 2556SOL    HW2 8568   4.075   6.512   0.293
 2557SOL     OW 8569   2.155   4.014   0.375
 2557SOL    HW1 8570   2.119   4.018   0.468
 2557SOL    HW2 8571   2.222   3.940   0.368
 2558SOL     OW 8572   5.016   1.384   4.934
 2558SOL    HW1 8573   5.102   1.429   4.958
 2558SOL    HW2 8574   4.977   1.340   5.015
 2559SOL     OW 8575   0.985   4.135   5.446
 2559SOL    HW1 8576   0.918   4.060   5.449
 2559SOL    HW2 8577   1.005   4.158   5.351
 2560SOL     OW 8578   5.631   2.324   5.403
 2560SOL    HW1 8579   5.661   2.371   5.320
 2560SOL    HW2 8580   5.709   2.280   5.447
 2561SOL     OW 8581   2.826   5.323   5.380
 2561SOL    HW1 8582   2.760   5.249   5.379
 2561SOL    HW2 8583   2.790   5.399   5.434
 2562SOL     OW 8584   2.747   5.255   1.499
 2562SOL    HW1 8585   2.659   5.211   1.479
 2562SOL    HW2 8586   2.813   5.232   1.428
 2563SOL     OW 8587   3.337   1.615   0.682
 2563SOL    HW1 8588   3.419   1.620   0.740
 2563SOL    HW2 8589   3.256   1.613   0.740
 2564SOL     OW 8590   2.288   5.726   6.797
 2564SOL    HW1 8591   2.247   5.645   6.756
 2564SOL    HW2 8592   2.217   5.791   6.822
 2565SOL     OW 8593   1.224   6.908   6.512
 2565SOL    HW1 8594   1.195   6.836   6.574
 2565SOL    HW2 8595   1.240   6.992   6.563
 2566SOL     OW 8596   2.279   0.315   0.846
 2566SOL    HW1 8597   2.277   0.238   0.782
 2566SOL    HW2 8598   2.254   0.399   0.798
 2567SOL     OW 8599   1.223   0.519   0.806
 2567SOL    HW1 8600   1.183   0.562   0.886
 2567SOL    HW2 8601   1.322   0.534   0.806
 2568SOL     OW 8602   4.285   1.841   6.453
 2568SOL    HW1 8603   4.262   1.779   6.528
 2568SOL    HW2 8604   4.360   1.802   6.399
 2569SOL     OW 8605   3.056   0.418   2.266
 2569SOL    HW1 8606   3.112   0.343   2.231
 2569SOL    HW2 8607   3.083   0.440   2.359
 2570SOL     OW 8608   5.701   0.010   6.166
 2570SOL    HW1 8609   5.737   6.956   6.124
 2570SOL    HW2 8610   5.698   0.084   6.099
 2571SOL     OW 8611   2.230   4.621   4.803
 2571SOL    HW1 8612   2.312   4.569   4.828
 2571SOL    HW2 8613   2.174   4.636   4.885
 2572SOL     OW 8614   2.959   5.900   1.236
 2572SOL    HW1 8615   2.973   5.881   1.334
 2572SOL    HW2 8616   2.946   5.998   1.223
 2573SOL     OW 8617   0.433   1.647   1.768
 2573SOL    HW1 8618   0.390   1.709   1.834
 2573SOL    HW2 8619   0.471   1.700   1.692
 2574SOL     OW 8620   5.755   3.999   0.818
 2574SOL    HW1 8621   5.667   4.047   0.818
 2574SOL    HW2 8622   5.748   3.917   0.760
 2575SOL     OW 8623   5.130   6.194   0.471
 2575SOL    HW1 8624   5.076   6.244   0.539
 2575SOL    HW2 8625   5.152   6.254   0.394
 2576SOL     OW 8626   4.552   6.649   4.603
 2576SOL    HW1 8627   4.505   6.566   4.572
 2576SOL    HW2 8628   4.602   6.689   4.526
 2577SOL     OW 8629   4.027   6.640   2.221
 2577SOL    HW1 8630   4.082   6.636   2.305
 2577SOL    HW2 8631   3.994   6.548   2.198
 2578SOL     OW 8632   4.308   1.603   4.103
 2578SOL    HW1 8633   4.358   1.661   4.038
 2578SOL    HW2 8634   4.323   1.507   4.080
 2579SOL     OW 8635   1.426   6.781   3.298
 2579SOL    HW1 8636   1.347   6.825   3.254
 2579SOL    HW2 8637   1.414   6.682   3.296
 2580SOL     OW 8638   2.594   4.341   6.073
 2580SOL    HW1 8639   2.595   4.423   6.015
 2580SOL    HW2 8640   2.624   4.366   6.166
 2581SOL     OW 8641   2.429   5.127   2.260
 2581SOL    HW1 8642   2.338   5.098   2.231
 2581SOL    HW2 8643   2.495   5.054   2.244
 2582SOL     OW 8644   0.203   3.971   1.175
 2582SOL    HW1 8645   0.184   3.874   1.170
 2582SOL    HW2 8646   0.184   4.014   1.087
 2583SOL     OW 8647   0.794   1.384   6.643
 2583SOL    HW1 8648   0.716   1.436   6.679
 2583SOL    HW2 8649   0.766   1.334   6.561
 2584SOL     OW 8650   4.840   5.520   5.947
 2584SOL    HW1 8651   4.874   5.433   5.984
 2584SOL    HW2 8652   4.859   5.523   5.849
 2585SOL     OW 8653   3.362   3.368   0.778
 2585SOL    HW1 8654   3.331   3.317   0.698
 2585SOL    HW2 8655   3.460   3.384   0.771
 2586SOL     OW 8656   3.321   0.617   5.336
 2586SOL    HW1 8657   3.248   0.590   5.398
 2586SOL    HW2 8658   3.362   0.702   5.369
 2587SOL     OW 8659   5.876   0.960   3.497
 2587SOL    HW1 8660   5.973   0.980   3.514
 2587SOL    HW2 8661   5.832   1.040   3.457
 2588SOL     OW 8662   4.311   1.861   5.919
 2588SOL    HW1 8663   4.325   1.764   5.938
 2588SOL    HW2 8664   4.346   1.883   5.828
 2589SOL     OW 8665   1.508   6.435   5.761
 2589SOL    HW1 8666   1.487   6.521   5.807
 2589SOL    HW2 8667   1.438   6.368   5.782
 2590SOL     OW 8668   4.048   5.193   0.314
 2590SOL    HW1 8669   4.134   5.219   0.357
 2590SOL    HW2 8670   4.066   5.124   0.243
 2591SOL     OW 8671   0.004   4.666   3.371
 2591SOL    HW1 8672   0.061   4.684   3.290
 2591SOL    HW2 8673   7.028   4.749   3.427
 2592SOL     OW 8674   3.520   4.714   6.909
 2592SOL    HW1 8675   3.508   4.619   6.882
 2592SOL    HW2 8676   3.441   4.744   6.963
 2593SOL     OW 8677   3.801   5.591   0.667
 2593SOL    HW1 8678   3.831   5.685   0.676
 2593SOL    HW2 8679   3.805   5.564   0.570
 2594SOL     OW 8680   2.427   3.944   5.608
 2594SOL    HW1 8681   2.456   4.031   5.647
 2594SOL    HW2 8682   2.435   3.872   5.677
 2595SOL     OW 8683   6.865   0.908   3.853
 2595SOL    HW1 8684   6.934   0.959   3.801
 2595SOL    HW2 8685   6.905   0.871   3.936
 2596SOL     OW 8686   2.817   2.205   1.722
 2596SOL    HW1 8687   2.836   2.241   1.814
 2596SOL    HW2 8688   2.830   2.278   1.655
 2597SOL     OW 8689   0.295   5.251   6.195
 2597SOL    HW1 8690   0.354   5.282   6.120
 2597SOL    HW2 8691   0.263   5.331   6.247
 2598SOL     OW 8692   6.822   1.559   2.215
 2598SOL    HW1 8693   6.742   1.595   2.167
 2598SOL    HW2 8694   6.802   1.552   2.312
 2599SOL     OW 8695   1.701   5.836   0.532
 2599SOL    HW1 8696   1.712   5.752   0.478
 2599SOL    HW2 8697   1.782   5.894   0.520
 2600SOL     OW 8698   5.459   2.337   4.563
 2600SOL    HW1 8699   5.549   2.370   4.589
 2600SOL    HW2 8700   5.389   2.394   4.606
 2601SOL     OW 8701   1.506   1.470   1.077
 2601SOL    HW1 8702   1.549   1.396   1.130
 2601SOL    HW2 8703   1.473   1.541   1.140
 2602SOL     OW 8704   1.597   4.826   5.094
 2602SOL    HW1 8705   1.652   4.853   5.015
 2602SOL    HW2 8706   1.596   4.727   5.102
 2603SOL     OW 8707   3.115   1.171   2.944
 2603SOL    HW1 8708   3.107   1.088   2.888
 2603SOL    HW2 8709   3.054   1.163   3.023
 2604SOL     OW 8710   4.914   2.202   2.626
 2604SOL    HW1 8711   4.886   2.261   2.702
 2604SOL    HW2 8712   4.939   2.259   2.548
 2605SOL     OW 8713   1.620   2.971   2.540
 2605SOL    HW1 8714   1.665   3.055   2.511
 2605SOL    HW2 8715   1.634   2.900   2.471
 2606SOL     OW 8716   5.861   5.099   1.978
 2606SOL    HW1 8717   5.956   5.110   2.009
 2606SOL    HW2 8718   5.860   5.051   1.890
 2607SOL     OW 8719   0.700   1.487   1.457
 2607SOL    HW1 8720   0.703   1.431   1.374
 2607SOL    HW2 8721   0.686   1.428   1.536
 2608SOL     OW 8722   3.813   5.537   0.373
 2608SOL    HW1 8723   3.911   5.556   0.367
 2608SOL    HW2 8724   3.789   5.465   0.309
 2609SOL     OW 8725   5.909   1.526   2.038
 2609SOL    HW1 8726   5.951   1.437   2.021
 2609SOL    HW2 8727   5.899   1.541   2.136
 2610SOL     OW 8728   0.567   4.852   4.385
 2610SOL    HW1 8729   0.545   4.835   4.481
 2610SOL    HW2 8730   0.666   4.867   4.375
 2611SOL     OW 8731   4.686   6.545   0.039
 2611SOL    HW1 8732   4.693   6.496   6.982
 2611SOL    HW2 8733   4.707   6.483   0.115
 2612SOL     OW 8734   5.817   6.846   4.334
 2612SOL    HW1 8735   5.833   6.860   4.432
 2612SOL    HW2 8736   5.726   6.881   4.311
 2613SOL     OW 8737   2.416   5.219   6.572
 2613SOL    HW1 8738   2.462   5.198   6.486
 2613SOL    HW2 8739   2.319   5.200   6.563
 2614SOL     OW 8740   5.953   1.536   6.575
 2614SOL    HW1 8741   5.969   1.606   6.505
 2614SOL    HW2 8742   5.880   1.475   6.545
 2615SOL     OW 8743   0.888   3.292   1.222
 2615SOL    HW1 8744   0.891   3.374   1.165
 2615SOL    HW2 8745   0.929   3.216   1.173
 2616SOL     OW 8746   1.291   1.807   6.001
 2616SOL    HW1 8747   1.317   1.720   6.043
 2616SOL    HW2 8748   1.281   1.877   6.072
 2617SOL     OW 8749   4.783   0.732   0.806
 2617SOL    HW1 8750   4.766   0.735   0.905
 2617SOL    HW2 8751   4.852   0.800   0.782
 2618SOL     OW 8752   0.977   6.471   4.682
 2618SOL    HW1 8753   0.966   6.512   4.772
 2618SOL    HW2 8754   1.039   6.393   4.688
 2619SOL     OW 8755   4.355   1.868   1.513
 2619SOL    HW1 8756   4.286   1.798   1.496
 2619SOL    HW2 8757   4.429   1.857   1.447
 2620SOL     OW 8758   6.736   0.201   2.494
 2620SOL    HW1 8759   6.660   0.136   2.496
 2620SOL    HW2 8760   6.776   0.203   2.403
 2621SOL     OW 8761   1.173   4.748   2.359
 2621SOL    HW1 8762   1.138   4.778   2.448
 2621SOL    HW2 8763   1.184   4.827   2.299
 2622SOL     OW 8764   3.322   3.325   5.673
 2622SOL    HW1 8765   3.364   3.268   5.744
 2622SOL    HW2 8766   3.319   3.420   5.704
 2623SOL     OW 8767   0.361   0.488   4.636
 2623SOL    HW1 8768   0.447   0.457   4.596
 2623SOL    HW2 8769   0.333   0.424   4.708
 2624SOL     OW 8770   6.219   2.243   4.524
 2624SOL    HW1 8771   6.241   2.313   4.593
 2624SOL    HW2 8772   6.299   2.226   4.467
 2625SOL     OW 8773   2.285   4.763   5.257
 2625SOL    HW1 8774   2.198   4.809   5.274
 2625SOL    HW2 8775   2.268   4.666   5.243
 2626SOL     OW 8776   6.506   6.846   5.942
 2626SOL    HW1 8777   6.411   6.836   5.974
 2626SOL    HW2 8778   6.515   6.800   5.854
 2627SOL     OW 8779   0.864   0.640   6.399
 2627SOL    HW1 8780   0.809   0.685   6.330
 2627SOL    HW2 8781   0.904   0.556   6.361
 2628SOL     OW 8782   1.923   3.672   4.687
 2628SOL    HW1 8783   1.906   3.680   4.785
 2628SOL    HW2 8784   1.986   3.596   4.670
 2629SOL     OW 8785   4.070   3.430   3.250
 2629SOL    HW1 8786   3.974   3.458   3.247
 2629SOL    HW2 8787   4.095   3.386   3.164
 2630SOL     OW 8788   3.675   1.627   4.037
 2630SOL    HW1 8789   3.685   1.701   4.102
 2630SOL    HW2 8790   3.624   1.658   3.957
 2631SOL     OW 8791   5.737   0.637   6.745
 2631SOL    HW1 8792   5.785   0.668   6.663
 2631SOL    HW2 8793   5.766   0.544   6.767
 2632SOL     OW 8794   6.254   3.484   1.317
 2632SOL    HW1 8795   6.343   3.484   1.363
 2632SOL    HW2 8796   6.187   3.534   1.373
 2633SOL     OW 8797   6.551   2.212   5.181
 2633SOL    HW1 8798   6.565   2.282   5.111
 2633SOL    HW2 8799   6.480   2.148   5.152
 2634SOL     OW 8800   0.843   5.945   3.629
 2634SOL    HW1 8801   0.747   5.917   3.637
 2634SOL    HW2 8802   0.864   6.011   3.701
 2635SOL     OW 8803   6.315   5.489   3.927
 2635SOL    HW1 8804   6.306   5.499   4.026
 2635SOL    HW2 8805   6.230   5.455   3.888
 2636SOL     OW 8806   3.723   1.095   6.859
 2636SOL    HW1 8807   3.691   1.047   6.940
 2636SOL    HW2 8808   3.745   1.030   6.787
 2637SOL     OW 8809   6.417   1.602   4.026
 2637SOL    HW1 8810   6.426   1.626   3.930
 2637SOL    HW2 8811   6.323   1.619   4.056
 2638SOL     OW 8812   0.361   0.150   4.548
 2638SOL    HW1 8813   0.292   0.187   4.485
 2638SOL    HW2 8814   0.426   0.094   4.498
 2639SOL     OW 8815   4.968   5.246   5.501
 2639SOL    HW1 8816   4.939   5.262   5.595
 2639SOL    HW2 8817   4.887   5.238   5.442
 2640SOL     OW 8818   0.117   0.178   5.163
 2640SOL    HW1 8819   0.206   0.207   5.126
 2640SOL    HW2 8820   0.088   0.094   5.118
 2641SOL     OW 8821   4.693   2.269   1.236
 2641SOL    HW1 8822   4.709   2.364   1.263
 2641SOL    HW2 8823   4.597   2.247   1.253
 2642SOL     OW 8824   6.324   0.519   3.294
 2642SOL    HW1 8825   6.308   0.435   3.345
 2642SOL    HW2 8826   6.421   0.526   3.270
 2643SOL     OW 8827   1.437   3.368   3.972
 2643SOL    HW1 8828   1.425   3.381   4.070
 2643SOL    HW2 8829   1.396   3.280   3.945
 2644SOL     OW 8830   4.749   5.542   5.038
 2644SOL    HW1 8831   4.732   5.519   4.942
 2644SOL    HW2 8832   4.684   5.612   5.067
 2645SOL     OW 8833   5.398   4.779   3.737
 2645SOL    HW1 8834   5.386   4.723   3.819
 2645SOL    HW2 8835   5.366   4.728   3.657
 2646SOL     OW 8836   0.512   3.636   6.754
 2646SOL    HW1 8837   0.423   3.680   6.766
 2646SOL    HW2 8838   0.568   3.691   6.692
 2647SOL     OW 8839   5.573   6.723   1.786
 2647SOL    HW1 8840   5.523   6.711   1.872
 2647SOL    HW2 8841   5.523   6.677   1.712
 2648SOL     OW 8842   0.416   6.690   4.029
 2648SOL    HW1 8843   0.406   6.647   3.939
 2648SOL    HW2 8844   0.485   6.762   4.024
 2649SOL     OW 8845   5.205   3.313   1.867
 2649SOL    HW1 8846   5.266   3.353   1.935
 2649SOL    HW2 8847   5.114   3.301   1.906
 2650SOL     OW 8848   2.882   5.704   4.677
 2650SOL    HW1 8849   2.804   5.733   4.732
 2650SOL    HW2 8850   2.858   5.619   4.629
 2651SOL     OW 8851   3.567   1.334   6.820
 2651SOL    HW1 8852   3.476   1.329   6.779
 2651SOL    HW2 8853   3.607   1.242   6.823
 2652SOL     OW 8854   5.082   3.774   5.537
 2652SOL    HW1 8855   4.986   3.765   5.561
 2652SOL    HW2 8856   5.129   3.688   5.554
 2653SOL     OW 8857   3.438   6.076   5.611
 2653SOL    HW1 8858   3.462   6.171   5.632
 2653SOL    HW2 8859   3.394   6.035   5.691
 2654SOL     OW 8860   5.520   6.462   0.974
 2654SOL    HW1 8861   5.606   6.453   0.924
 2654SOL    HW2 8862   5.475   6.547   0.948
 2655SOL     OW 8863   4.724   5.949   3.347
 2655SOL    HW1 8864   4.714   6.003   3.263
 2655SOL    HW2 8865   4.814   5.967   3.387
 2656SOL     OW 8866   3.600   5.385   3.734
 2656SOL    HW1 8867   3.632   5.386   3.829
 2656SOL    HW2 8868   3.527   5.318   3.724
 2657SOL     OW 8869   2.210   3.263   0.648
 2657SOL    HW1 8870   2.304   3.292   0.630
 2657SOL    HW2 8871   2.203   3.164   0.634
 2658SOL     OW 8872   4.946   4.385   6.981
 2658SOL    HW1 8873   4.880   4.441   6.931
 2658SOL    HW2 8874   4.915   4.290   6.982
 2659SOL     OW 8875   4.814   2.851   4.780
 2659SOL    HW1 8876   4.724   2.824   4.812
 2659SOL    HW2 8877   4.811   2.872   4.683
 2660SOL     OW 8878   0.557   0.997   1.079
 2660SOL    HW1 8879   0.564   0.902   1.048
 2660SOL    HW2 8880   0.472   1.009   1.131
 2661SOL     OW 8881   1.461   0.618   2.012
 2661SOL    HW1 8882   1.445   0.652   1.920
 2661SOL    HW2 8883   1.549   0.571   2.015
 2662SOL     OW 8884   2.588   0.669   3.663
 2662SOL    HW1 8885   2.549   0.760   3.659
 2662SOL    HW2 8886   2.604   0.635   3.570
 2663SOL     OW 8887   3.719   6.311   5.653
 2663SOL    HW1 8888   3.782   6.282   5.725
 2663SOL    HW2 8889   3.627   6.277   5.674
 2664SOL     OW 8890   3.716   3.112   5.966
 2664SOL    HW1 8891   3.761   3.023   5.971
 2664SOL    HW2 8892   3.619   3.101   5.988
 2665SOL     OW 8893   2.464   3.381   5.344
 2665SOL    HW1 8894   2.482   3.293   5.389
 2665SOL    HW2 8895   2.551   3.427   5.326
 2666SOL     OW 8896   1.771   3.438   1.883
 2666SOL    HW1 8897   1.853   3.445   1.827
 2666SOL    HW2 8898   1.727   3.349   1.868
 2667SOL     OW 8899   0.591   5.249   3.611
 2667SOL    HW1 8900   0.528   5.325   3.620
 2667SOL    HW2 8901   0.657   5.251   3.686
 2668SOL     OW 8902   5.783   2.887   4.055
 2668SOL    HW1 8903   5.855   2.819   4.038
 2668SOL    HW2 8904   5.696   2.853   4.017
 2669SOL     OW 8905   2.842   5.799   6.512
 2669SOL    HW1 8906   2.903   5.873   6.538
 2669SOL    HW2 8907   2.752   5.814   6.553
 2670SOL     OW 8908   6.236   1.922   5.335
 2670SOL    HW1 8909   6.151   1.903   5.385
 2670SOL    HW2 8910   6.314   1.894   5.391
 2671SOL     OW 8911   4.181   6.130   6.230
 2671SOL    HW1 8912   4.166   6.031   6.232
 2671SOL    HW2 8913   4.187   6.162   6.136
 2672SOL     OW 8914   3.304   0.450   1.811
 2672SOL    HW1 8915   3.288   0.508   1.890
 2672SOL    HW2 8916   3.401   0.453   1.786
 2673SOL     OW 8917   5.352   1.231   2.575
 2673SOL    HW1 8918   5.328   1.327   2.587
 2673SOL    HW2 8919   5.359   1.187   2.665
 2674SOL     OW 8920   1.855   5.116   3.773
 2674SOL    HW1 8921   1.878   5.022   3.798
 2674SOL    HW2 8922   1.878   5.177   3.849
 2675SOL     OW 8923   0.351   6.953   3.704
 2675SOL    HW1 8924   0.358   6.874   3.643
 2675SOL    HW2 8925   0.305   6.926   3.788
 2676SOL     OW 8926   2.904   3.402   2.485
 2676SOL    HW1 8927   2.831   3.409   2.417
 2676SOL    HW2 8928   2.992   3.400   2.437
 2677SOL     OW 8929   3.459   4.557   0.788
 2677SOL    HW1 8930   3.548   4.573   0.745
 2677SOL    HW2 8931   3.437   4.634   0.848
 2678SOL     OW 8932   0.034   2.832   1.944
 2678SOL    HW1 8933   0.062   2.909   2.002
 2678SOL    HW2 8934   6.964   2.828   1.941
 2679SOL     OW 8935   1.900   5.174   2.857
 2679SOL    HW1 8936   1.994   5.148   2.881
 2679SOL    HW2 8937   1.860   5.104   2.799
 2680SOL     OW 8938   1.057   2.632   0.120
 2680SOL    HW1 8939   1.027   2.703   0.184
 2680SOL    HW2 8940   1.047   2.542   0.162
 2681SOL     OW 8941   1.318   2.982   5.256
 2681SOL    HW1 8942   1.382   3.031   5.196
 2681SOL    HW2 8943   1.337   2.884   5.252
 2682SOL     OW 8944   4.976   4.190   2.671
 2682SOL    HW1 8945   4.941   4.154   2.584
 2682SOL    HW2 8946   4.990   4.289   2.661
 2683SOL     OW 8947   2.005   4.300   2.479
 2683SOL    HW1 8948   1.955   4.213   2.484
 2683SOL    HW2 8949   2.000   4.346   2.568
 2684SOL     OW 8950   5.380   6.609   1.624
 2684SOL    HW1 8951   5.406   6.515   1.646
 2684SOL    HW2 8952   5.281   6.617   1.621
 2685SOL     OW 8953   6.775   4.888   4.605
 2685SOL    HW1 8954   6.775   4.816   4.675
 2685SOL    HW2 8955   6.799   4.849   4.517
 2686SOL     OW 8956   0.872   1.456   5.214
 2686SOL    HW1 8957   0.899   1.420   5.303
 2686SOL    HW2 8958   0.839   1.550   5.226
 2687SOL     OW 8959   3.770   6.636   1.227
 2687SOL    HW1 8960   3.837   6.623   1.300
 2687SOL    HW2 8961   3.747   6.734   1.219
 2688SOL     OW 8962   3.263   2.204   0.815
 2688SOL    HW1 8963   3.205   2.266   0.868
 2688SOL    HW2 8964   3.263   2.114   0.858
 2689SOL     OW 8965   0.749   4.241   2.544
 2689SOL    HW1 8966   0.805   4.298   2.604
 2689SOL    HW2 8967   0.777   4.146   2.553
 2690SOL     OW 8968   2.910   3.090   6.485
 2690SOL    HW1 8969   2.950   3.181   6.496
 2690SOL    HW2 8970   2.810   3.098   6.486
 2691SOL     OW 8971   0.247   4.946   4.411
 2691SOL    HW1 8972   0.294   5.009   4.349
 2691SOL    HW2 8973   0.156   4.926   4.376
 2692SOL     OW 8974   2.649   6.065   3.259
 2692SOL    HW1 8975   2.623   6.033   3.350
 2692SOL    HW2 8976   2.666   6.163   3.261
 2693SOL     OW 8977   2.027   5.145   4.291
 2693SOL    HW1 8978   2.014   5.240   4.320
 2693SOL    HW2 8979   2.124   5.122   4.294
 2694SOL     OW 8980   4.023   6.082   3.107
 2694SOL    HW1 8981   4.119   6.107   3.115
 2694SOL    HW2 8982   3.994   6.092   3.012
 2695SOL     OW 8983   5.980   6.975   3.014
 2695SOL    HW1 8984   5.997   0.041   3.038
 2695SOL    HW2 8985   5.979   6.965   2.914
 2696SOL     OW 8986   4.943   3.892   6.357
 2696SOL    HW1 8987   4.848   3.862   6.358
 2696SOL    HW2 8988   4.948   3.989   6.381
 2697SOL     OW 8989   4.403   1.431   1.387
 2697SOL    HW1 8990   4.335   1.403   1.454
 2697SOL    HW2 8991   4.360   1.488   1.317
 2698SOL     OW 8992   1.600   5.077   6.768
 2698SOL    HW1 8993   1.594   5.124   6.857
 2698SOL    HW2 8994   1.589   4.979   6.781
 2699SOL     OW 8995   2.970   5.825   1.503
 2699SOL    HW1 8996   2.899   5.878   1.549
 2699SOL    HW2 8997   3.009   5.759   1.568
 2700SOL     OW 8998   2.324   1.893   0.736
 2700SOL    HW1 8999   2.317   1.834   0.816
 2700SOL    HW2 9000   2.367   1.980   0.762
 2701SOL     OW 9001   5.147   2.706   5.520
 2701SOL    HW1 9002   5.225   2.648   5.542
 2701SOL    HW2 9003   5.110   2.681   5.431
 2702SOL     OW 9004   1.191   1.849   3.783
 2702SOL    HW1 9005   1.120   1.886   3.843
 2702SOL    HW2 9006   1.279   1.892   3.803
 2703SOL     OW 9007   1.510   6.012   0.974
 2703SOL    HW1 9008   1.558   6.004   1.061
 2703SOL    HW2 9009   1.453   5.931   0.960
 2704SOL     OW 9010   6.795   5.579   2.587
 2704SOL    HW1 9011   6.805   5.481   2.571
 2704SOL    HW2 9012   6.869   5.612   2.644
 2705SOL     OW 9013   6.530   1.248   6.009
 2705SOL    HW1 9014   6.508   1.191   6.087
 2705SOL    HW2 9015   6.610   1.212   5.962
 2706SOL     OW 9016   6.139   4.190   4.827
 2706SOL    HW1 9017   6.039   4.196   4.833
 2706SOL    HW2 9018   6.165   4.158   4.737
 2707SOL     OW 9019   3.828   6.201   3.715
 2707SOL    HW1 9020   3.769   6.160   3.646
 2707SOL    HW2 9021   3.904   6.249   3.670
 2708SOL     OW 9022   6.500   2.698   0.201
 2708SOL    HW1 9023   6.471   2.724   0.293
 2708SOL    HW2 9024   6.599   2.694   0.197
 2709SOL     OW 9025   4.991   6.445   5.994
 2709SOL    HW1 9026   5.041   6.362   5.970
 2709SOL    HW2 9027   5.013   6.517   5.929
 2710SOL     OW 9028   1.747   3.116   3.620
 2710SOL    HW1 9029   1.822   3.080   3.565
 2710SOL    HW2 9030   1.783   3.154   3.705
 2711SOL     OW 9031   2.884   1.509   3.373
 2711SOL    HW1 9032   2.930   1.524   3.460
 2711SOL    HW2 9033   2.931   1.560   3.301
 2712SOL     OW 9034   3.096   5.639   1.786
 2712SOL    HW1 9035   3.119   5.566   1.721
 2712SOL    HW2 9036   3.172   5.651   1.850
 2713SOL     OW 9037   4.100   4.271   6.401
 2713SOL    HW1 9038   4.052   4.189   6.371
 2713SOL    HW2 9039   4.096   4.278   6.501
 2714SOL     OW 9040   4.351   3.650   6.856
 2714SOL    HW1 9041   4.277   3.622   6.796
 2714SOL    HW2 9042   4.313   3.695   6.937
 2715SOL     OW 9043   5.263   1.761   1.260
 2715SOL    HW1 9044   5.210   1.828   1.311
 2715SOL    HW2 9045   5.213   1.734   1.178
 2716SOL     OW 9046   4.619   2.659   2.930
 2716SOL    HW1 9047   4.693   2.696   2.987
 2716SOL    HW2 9048   4.640   2.675   2.834
 2717SOL     OW 9049   0.178   6.982   2.037
 2717SOL    HW1 9050   0.152   0.034   2.089
 2717SOL    HW2 9051   0.261   7.001   1.985
 2718SOL     OW 9052   6.856   1.037   5.398
 2718SOL    HW1 9053   6.946   1.053   5.359
 2718SOL    HW2 9054   6.849   0.942   5.428
 2719SOL     OW 9055   1.606   4.154   1.946
 2719SOL    HW1 9056   1.566   4.245   1.944
 2719SOL    HW2 9057   1.609   4.121   2.040
 2720SOL     OW 9058   1.250   0.077   4.653
 2720SOL    HW1 9059   1.298   0.116   4.731
 2720SOL    HW2 9060   1.309   0.010   4.607
 2721SOL     OW 9061   3.341   6.769   2.062
 2721SOL    HW1 9062   3.335   6.837   1.988
 2721SOL    HW2 9063   3.274   6.697   2.046
 2722SOL     OW 9064   5.031   5.675   6.354
 2722SOL    HW1 9065   4.998   5.589   6.316
 2722SOL    HW2 9066   5.130   5.683   6.340
 2723SOL     OW 9067   3.143   6.364   6.678
 2723SOL    HW1 9068   3.141   6.285   6.617
 2723SOL    HW2 9069   3.074   6.431   6.648
 2724SOL     OW 9070   1.251   5.575   6.845
 2724SOL    HW1 9071   1.181   5.635   6.884
 2724SOL    HW2 9072   1.210   5.520   6.772
 2725SOL     OW 9073   5.574   4.114   4.421
 2725SOL    HW1 9074   5.592   4.019   4.444
 2725SOL    HW2 9075   5.586   4.171   4.503
 2726SOL     OW 9076   0.722   2.363   1.790
 2726SOL    HW1 9077   0.673   2.366   1.877
 2726SOL    HW2 9078   0.658   2.381   1.715
 2727SOL     OW 9079   1.756   4.342   3.895
 2727SOL    HW1 9080   1.706   4.402   3.833
 2727SOL    HW2 9081   1.757   4.382   3.987
 2728SOL     OW 9082   5.305   5.725   6.316
 2728SOL    HW1 9083   5.389   5.731   6.262
 2728SOL    HW2 9084   5.298   5.805   6.376
 2729SOL     OW 9085   6.581   6.295   6.903
 2729SOL    HW1 9086   6.525   6.331   6.978
 2729SOL    HW2 9087   6.526   6.291   6.819
 2730SOL     OW 9088   0.916   5.635   1.181
 2730SOL    HW1 9089   0.967   5.673   1.104
 2730SOL    HW2 9090   0.865   5.708   1.226
 2731SOL     OW 9091   3.027   3.546   3.324
 2731SOL    HW1 9092   3.123   3.562   3.302
 2731SOL    HW2 9093   2.973   3.624   3.293
 2732SOL     OW 9094   5.005   2.198   1.561
 2732SOL    HW1 9095   4.973   2.281   1.515
 2732SOL    HW2 9096   4.929   2.157   1.612
 2733SOL     OW 9097   6.667   1.152   5.229
 2733SOL    HW1 9098   6.678   1.241   5.275
 2733SOL    HW2 9099   6.729   1.085   5.270
 2734SOL     OW 9100   3.421   6.180   1.449
 2734SOL    HW1 9101   3.380   6.245   1.385
 2734SOL    HW2 9102   3.352   6.116   1.481
 2735SOL     OW 9103   1.673   2.327   0.472
 2735SOL    HW1 9104   1.668   2.250   0.536
 2735SOL    HW2 9105   1.669   2.293   0.378
 2736SOL     OW 9106   5.698   5.988   4.093
 2736SOL    HW1 9107   5.604   5.965   4.118
 2736SOL    HW2 9108   5.740   5.911   4.045
 2737SOL     OW 9109   2.988   2.547   5.994
 2737SOL    HW1 9110   2.971   2.499   5.908
 2737SOL    HW2 9111   2.998   2.481   6.068
 2738SOL     OW 9112   6.274   6.900   1.960
 2738SOL    HW1 9113   6.194   6.899   1.899
 2738SOL    HW2 9114   6.279   6.813   2.009
 2739SOL     OW 9115   0.986   5.184   1.217
 2739SOL    HW1 9116   1.081   5.215   1.225
 2739SOL    HW2 9117   0.932   5.252   1.166
 2740SOL     OW 9118   0.436   5.172   2.300
 2740SOL    HW1 9119   0.460   5.078   2.277
 2740SOL    HW2 9120   0.518   5.221   2.331
 2741SOL     OW 9121   0.969   1.647   4.852
 2741SOL    HW1 9122   1.057   1.650   4.898
 2741SOL    HW2 9123   0.939   1.741   4.832
 2742SOL     OW 9124   2.730   5.134   1.797
 2742SOL    HW1 9125   2.666   5.071   1.841
 2742SOL    HW2 9126   2.696   5.158   1.706
 2743SOL     OW 9127   6.963   4.808   2.497
 2743SOL    HW1 9128   6.866   4.820   2.521
 2743SOL    HW2 9129   6.975   4.719   2.454
 2744SOL     OW 9130   3.766   3.601   2.100
 2744SOL    HW1 9131   3.722   3.677   2.146
 2744SOL    HW2 9132   3.829   3.636   2.031
 2745SOL     OW 9133   6.716   1.413   5.292
 2745SOL    HW1 9134   6.770   1.470   5.354
 2745SOL    HW2 9135   6.653   1.471   5.240
 2746SOL     OW 9136   0.494   1.316   4.360
 2746SOL    HW1 9137   0.420   1.341   4.424
 2746SOL    HW2 9138   0.580   1.357   4.391
 2747SOL     OW 9139   4.617   5.594   6.761
 2747SOL    HW1 9140   4.548   5.576   6.831
 2747SOL    HW2 9141   4.677   5.515   6.752
 2748SOL     OW 9142   4.557   0.492   1.573
 2748SOL    HW1 9143   4.543   0.431   1.495
 2748SOL    HW2 9144   4.487   0.473   1.642
 2749SOL     OW 9145   1.386   4.139   0.393
 2749SOL    HW1 9146   1.438   4.059   0.424
 2749SOL    HW2 9147   1.311   4.156   0.457
 2750SOL     OW 9148   2.570   4.750   1.571
 2750SOL    HW1 9149   2.618   4.708   1.648
 2750SOL    HW2 9150   2.482   4.705   1.556
 2751SOL     OW 9151   1.523   1.990   1.293
 2751SOL    HW1 9152   1.605   1.956   1.339
 2751SOL    HW2 9153   1.474   1.915   1.250
 2752SOL     OW 9154   4.164   4.530   6.327
 2752SOL    HW1 9155   4.072   4.568   6.314
 2752SOL    HW2 9156   4.158   4.431   6.336
 2753SOL     OW 9157   6.470   6.002   5.199
 2753SOL    HW1 9158   6.396   6.036   5.258
 2753SOL    HW2 9159   6.528   5.940   5.251
 2754SOL     OW 9160   0.803   0.029   6.802
 2754SOL    HW1 9161   0.759   0.081   6.875
 2754SOL    HW2 9162   0.757   0.046   6.715
 2755SOL     OW 9163   3.198   6.901   3.045
 2755SOL    HW1 9164   3.179   6.992   3.083
 2755SOL    HW2 9165   3.287   6.902   3.000
 2756SOL     OW 9166   4.430   6.606   0.357
 2756SOL    HW1 9167   4.365   6.606   0.433
 2756SOL    HW2 9168   4.485   6.522   0.361
 2757SOL     OW 9169   1.971   5.668   0.421
 2757SOL    HW1 9170   1.896   5.677   0.355
 2757SOL    HW2 9171   1.945   5.601   0.491
 2758SOL     OW 9172   5.023   0.325   4.483
 2758SOL    HW1 9173   4.984   0.373   4.405
 2758SOL    HW2 9174   5.108   0.279   4.456
 2759SOL     OW 9175   4.953   6.566   4.047
 2759SOL    HW1 9176   4.949   6.467   4.057
 2759SOL    HW2 9177   4.965   6.590   3.951
 2760SOL     OW 9178   1.290   5.554   1.823
 2760SOL    HW1 9179   1.330   5.512   1.905
 2760SOL    HW2 9180   1.353   5.545   1.747
 2761SOL     OW 9181   2.074   4.840   4.061
 2761SOL    HW1 9182   2.114   4.915   4.115
 2761SOL    HW2 9183   1.977   4.857   4.049
 2762SOL     OW 9184   0.874   0.940   5.202
 2762SOL    HW1 9185   0.844   0.940   5.107
 2762SOL    HW2 9186   0.796   0.961   5.262
 2763SOL     OW 9187   5.727   2.171   3.588
 2763SOL    HW1 9188   5.744   2.243   3.655
 2763SOL    HW2 9189   5.671   2.099   3.631
 2764SOL     OW 9190   6.214   0.528   1.241
 2764SOL    HW1 9191   6.148   0.598   1.268
 2764SOL    HW2 9192   6.263   0.495   1.322
 2765SOL     OW 9193   5.039   0.604   0.956
 2765SOL    HW1 9194   5.133   0.589   0.926
 2765SOL    HW2 9195   4.977   0.584   0.881
 2766SOL     OW 9196   5.310   1.708   0.712
 2766SOL    HW1 9197   5.242   1.752   0.770
 2766SOL    HW2 9198   5.264   1.658   0.639
 2767SOL     OW 9199   7.019   5.365   6.852
 2767SOL    HW1 9200   6.991   5.283   6.803
 2767SOL    HW2 9201   0.012   5.438   6.787
 2768SOL     OW 9202   5.141   0.670   0.295
 2768SOL    HW1 9203   5.195   0.590   0.321
 2768SOL    HW2 9204   5.067   0.641   0.234
 2769SOL     OW 9205   0.001   4.287   3.964
 2769SOL    HW1 9206   6.981   4.361   3.919
 2769SOL    HW2 9207   0.066   4.246   3.900
 2770SOL     OW 9208   1.968   5.493   6.044
 2770SOL    HW1 9209   1.920   5.422   6.095
 2770SOL    HW2 9210   2.060   5.506   6.082
 2771SOL     OW 9211   5.355   1.323   2.060
 2771SOL    HW1 9212   5.336   1.247   1.998
 2771SOL    HW2 9213   5.454   1.336   2.067
 2772SOL     OW 9214   4.300   2.186   1.082
 2772SOL    HW1 9215   4.306   2.262   1.148
 2772SOL    HW2 9216   4.319   2.100   1.129
 2773SOL     OW 9217   4.960   3.364   6.203
 2773SOL    HW1 9218   4.885   3.318   6.250
 2773SOL    HW2 9219   4.970   3.457   6.239
 2774SOL     OW 9220   7.020   3.110   2.924
 2774SOL    HW1 9221   0.027   3.102   3.017
 2774SOL    HW2 9222   6.948   3.180   2.923
 2775SOL     OW 9223   0.015   5.467   0.381
 2775SOL    HW1 9224   6.958   5.517   0.380
 2775SOL    HW2 9225   0.004   5.381   0.432
 2776SOL     OW 9226   4.763   5.674   5.454
 2776SOL    HW1 9227   4.841   5.702   5.398
 2776SOL    HW2 9228   4.795   5.647   5.545
 2777SOL     OW 9229   3.138   1.505   2.062
 2777SOL    HW1 9230   3.168   1.526   1.969
 2777SOL    HW2 9231   3.161   1.580   2.123
 2778SOL     OW 9232   1.598   1.508   4.934
 2778SOL    HW1 9233   1.677   1.460   4.897
 2778SOL    HW2 9234   1.626   1.567   5.010
 2779SOL     OW 9235   4.620   0.147   0.484
 2779SOL    HW1 9236   4.520   0.154   0.477
 2779SOL    HW2 9237   4.653   0.075   0.422
 2780SOL     OW 9238   6.387   5.533   5.512
 2780SOL    HW1 9239   6.323   5.458   5.495
 2780SOL    HW2 9240   6.339   5.607   5.560
 2781SOL     OW 9241   5.961   5.769   2.103
 2781SOL    HW1 9242   6.016   5.811   2.030
 2781SOL    HW2 9243   5.925   5.681   2.071
 2782SOL     OW 9244   2.926   2.800   6.067
 2782SOL    HW1 9245   2.951   2.707   6.042
 2782SOL    HW2 9246   2.909   2.805   6.166
 2783SOL     OW 9247   5.848   3.312   4.929
 2783SOL    HW1 9248   5.880   3.404   4.953
 2783SOL    HW2 9249   5.875   3.247   5.000
 2784SOL     OW 9250   2.738   1.620   1.624
 2784SOL    HW1 9251   2.715   1.598   1.530
 2784SOL    HW2 9252   2.659   1.662   1.669
 2785SOL     OW 9253   5.914   1.308   0.193
 2785SOL    HW1 9254   5.905   1.217   0.234
 2785SOL    HW2 9255   6.003   1.316   0.148
 2786SOL     OW 9256   4.334   6.472   1.603
 2786SOL    HW1 9257   4.431   6.494   1.612
 2786SOL    HW2 9258   4.324   6.377   1.573
 2787SOL     OW 9259   2.169   3.136   6.246
 2787SOL    HW1 9260   2.240   3.205   6.232
 2787SOL    HW2 9261   2.091   3.177   6.293
 2788SOL     OW 9262   1.962   4.022   0.188
 2788SOL    HW1 9263   2.025   3.999   0.262
 2788SOL    HW2 9264   1.885   4.075   0.225
 2789SOL     OW 9265   1.568   2.634   3.663
 2789SOL    HW1 9266   1.580   2.560   3.729
 2789SOL    HW2 9267   1.471   2.644   3.642
 2790SOL     OW 9268   3.044   5.257   3.065
 2790SOL    HW1 9269   3.103   5.261   2.984
 2790SOL    HW2 9270   3.006   5.165   3.074
 2791SOL     OW 9271   1.362   4.569   4.615
 2791SOL    HW1 9272   1.403   4.618   4.692
 2791SOL    HW2 9273   1.274   4.531   4.643
 2792SOL     OW 9274   0.961   6.951   5.050
 2792SOL    HW1 9275   0.868   6.939   5.085
 2792SOL    HW2 9276   0.958   7.009   4.968
 2793SOL     OW 9277   5.066   2.778   2.750
 2793SOL    HW1 9278   5.039   2.683   2.734
 2793SOL    HW2 9279   5.087   2.791   2.847
 2794SOL     OW 9280   6.833   2.671   0.631
 2794SOL    HW1 9281   6.826   2.729   0.712
 2794SOL    HW2 9282   6.925   2.679   0.593
 2795SOL     OW 9283   2.823   3.517   0.951
 2795SOL    HW1 9284   2.858   3.439   0.898
 2795SOL    HW2 9285   2.768   3.484   1.027
 2796SOL     OW 9286   6.835   4.466   2.524
 2796SOL    HW1 9287   6.801   4.401   2.591
 2796SOL    HW2 9288   6.759   4.521   2.489
 2797SOL     OW 9289   4.826   5.648   4.464
 2797SOL    HW1 9290   4.882   5.645   4.381
 2797SOL    HW2 9291   4.736   5.611   4.445
 2798SOL     OW 9292   1.345   4.339   1.889
 2798SOL    HW1 9293   1.308   4.254   1.927
 2798SOL    HW2 9294   1.275   4.410   1.891
 2799SOL     OW 9295   0.237   5.797   0.072
 2799SOL    HW1 9296   0.334   5.783   0.055
 2799SOL    HW2 9297   0.184   5.730   0.020
 2800SOL     OW 9298   4.441   4.424   6.641
 2800SOL    HW1 9299   4.439   4.418   6.541
 2800SOL    HW2 9300   4.456   4.333   6.679
 2801SOL     OW 9301   4.304   5.792   4.494
 2801SOL    HW1 9302   4.212   5.761   4.517
 2801SOL    HW2 9303   4.331   5.755   4.405
 2802SOL     OW 9304   4.882   3.171   6.657
 2802SOL    HW1 9305   4.914   3.259   6.622
 2802SOL    HW2 9306   4.912   3.098   6.595
 2803SOL     OW 9307   2.783   5.614   6.289
 2803SOL    HW1 9308   2.721   5.680   6.246
 2803SOL    HW2 9309   2.858   5.664   6.334
 2804SOL     OW 9310   6.888   4.286   4.535
 2804SOL    HW1 9311   6.939   4.303   4.451
 2804SOL    HW2 9312   6.791   4.273   4.513
 2805SOL     OW 9313   4.925   3.373   1.302
 2805SOL    HW1 9314   4.913   3.280   1.336
 2805SOL    HW2 9315   4.961   3.430   1.376
 2806SOL     OW 9316   6.132   4.985   3.592
 2806SOL    HW1 9317   6.050   5.004   3.646
 2806SOL    HW2 9318   6.141   5.053   3.519
 2807SOL     OW 9319   5.714   5.005   3.972
 2807SOL    HW1 9320   5.676   5.087   3.929
 2807SOL    HW2 9321   5.682   4.924   3.921
 2808SOL     OW 9322   4.456   2.463   2.506
 2808SOL    HW1 9323   4.424   2.495   2.595
 2808SOL    HW2 9324   4.556   2.465   2.504
 2809SOL     OW 9325   6.659   2.817   1.297
 2809SOL    HW1 9326   6.608   2.903   1.289
 2809SOL    HW2 9327   6.599   2.740   1.278
 2810SOL     OW 9328   2.993   6.428   4.509
 2810SOL    HW1 9329   3.008   6.358   4.440
 2810SOL    HW2 9330   2.929   6.393   4.578
 2811SOL     OW 9331   0.775   0.756   3.672
 2811SOL    HW1 9332   0.809   0.747   3.766
 2811SOL    HW2 9333   0.734   0.670   3.643
 2812SOL     OW 9334   6.066   3.644   0.888
 2812SOL    HW1 9335   6.135   3.637   0.960
 2812SOL    HW2 9336   6.003   3.566   0.895
 2813SOL     OW 9337   6.330   6.714   5.661
 2813SOL    HW1 9338   6.261   6.778   5.694
 2813SOL    HW2 9339   6.419   6.760   5.659
 2814SOL     OW 9340   4.299   2.927   6.997
 2814SOL    HW1 9341   4.369   2.861   6.969
 2814SOL    HW2 9342   4.216   2.878   7.024
 2815SOL     OW 9343   0.273   1.918   5.074
 2815SOL    HW1 9344   0.353   1.930   5.133
 2815SOL    HW2 9345   0.236   2.008   5.049
 2816SOL     OW 9346   6.853   6.236   4.070
 2816SOL    HW1 9347   6.855   6.231   3.970
 2816SOL    HW2 9348   6.760   6.217   4.102
 2817SOL     OW 9349   1.974   0.376   1.387
 2817SOL    HW1 9350   2.018   0.348   1.302
 2817SOL    HW2 9351   1.941   0.470   1.379
 2818SOL     OW 9352   6.711   5.877   6.575
 2818SOL    HW1 9353   6.802   5.902   6.541
 2818SOL    HW2 9354   6.684   5.789   6.535
 2819SOL     OW 9355   0.049   2.038   1.175
 2819SOL    HW1 9356   0.093   2.097   1.108
 2819SOL    HW2 9357   0.113   2.020   1.250
 2820SOL     OW 9358   1.126   1.955   2.663
 2820SOL    HW1 9359   1.208   1.906   2.691
 2820SOL    HW2 9360   1.087   2.003   2.741
 2821SOL     OW 9361   3.905   3.719   6.943
 2821SOL    HW1 9362   3.970   3.754   6.875
 2821SOL    HW2 9363   3.955   3.689   7.025
 2822SOL     OW 9364   4.183   2.408   0.191
 2822SOL    HW1 9365   4.089   2.444   0.195
 2822SOL    HW2 9366   4.206   2.386   0.096
 2823SOL     OW 9367   2.373   6.305   1.196
 2823SOL    HW1 9368   2.433   6.282   1.120
 2823SOL    HW2 9369   2.335   6.396   1.182
 2824SOL     OW 9370   2.364   1.314   4.268
 2824SOL    HW1 9371   2.347   1.388   4.204
 2824SOL    HW2 9372   2.278   1.285   4.310
 2825SOL     OW 9373   6.991   0.271   0.273
 2825SOL    HW1 9374   6.950   0.295   0.361
 2825SOL    HW2 9375   6.958   0.334   0.202
 2826SOL     OW 9376   5.433   2.160   6.642
 2826SOL    HW1 9377   5.362   2.101   6.604
 2826SOL    HW2 9378   5.391   2.230   6.700
 2827SOL     OW 9379   5.731   1.060   5.887
 2827SOL    HW1 9380   5.760   0.987   5.949
 2827SOL    HW2 9381   5.785   1.143   5.905
 2828SOL     OW 9382   3.196   0.966   6.847
 2828SOL    HW1 9383   3.256   1.018   6.908
 2828SOL    HW2 9384   3.249   0.931   6.770
 2829SOL     OW 9385   3.115   4.220   6.102
 2829SOL    HW1 9386   3.178   4.149   6.132
 2829SOL    HW2 9387   3.029   4.212   6.153
 2830SOL     OW 9388   0.480   3.387   6.615
 2830SOL    HW1 9389   0.505   3.467   6.670
 2830SOL    HW2 9390   0.530   3.389   6.528
 2831SOL     OW 9391   6.997   6.076   3.612
 2831SOL    HW1 9392   0.050   6.064   3.668
 2831SOL    HW2 9393   6.965   5.986   3.581
 2832SOL     OW 9394   0.262   1.070   1.651
 2832SOL    HW1 9395   0.196   1.006   1.690
 2832SOL    HW2 9396   0.218   1.125   1.580
 2833SOL     OW 9397   5.273   2.809   2.044
 2833SOL    HW1 9398   5.203   2.775   2.106
 2833SOL    HW2 9399   5.240   2.804   1.950
 2834SOL     OW 9400   2.895   0.151   6.014
 2834SOL    HW1 9401   2.936   0.218   6.075
 2834SOL    HW2 9402   2.940   0.062   6.027
 2835SOL     OW 9403   0.108   0.579   1.967
 2835SOL    HW1 9404   0.205   0.603   1.972
 2835SOL    HW2 9405   0.059   0.621   2.043
 2836SOL     OW 9406   6.878   0.151   1.446
 2836SOL    HW1 9407   6.816   0.178   1.372
 2836SOL    HW2 9408   6.927   0.231   1.479
 2837SOL     OW 9409   6.012   3.710   3.327
 2837SOL    HW1 9410   5.955   3.719   3.246
 2837SOL    HW2 9411   6.074   3.789   3.332
 2838SOL     OW 9412   1.650   4.102   1.687
 2838SOL    HW1 9413   1.643   4.093   1.786
 2838SOL    HW2 9414   1.566   4.141   1.651
 2839SOL     OW 9415   5.570   1.079   1.846
 2839SOL    HW1 9416   5.564   0.987   1.883
 2839SOL    HW2 9417   5.495   1.094   1.781
 2840SOL     OW 9418   0.568   0.665   4.197
 2840SOL    HW1 9419   0.509   0.634   4.122
 2840SOL    HW2 9420   0.541   0.758   4.223
 2841SOL     OW 9421   0.063   0.841   5.892
 2841SOL    HW1 9422   0.026   0.763   5.841
 2841SOL    HW2 9423   7.017   0.890   5.937
 2842SOL     OW 9424   0.150   2.094   4.234
 2842SOL    HW1 9425   0.170   2.191   4.250
 2842SOL    HW2 9426   0.235   2.044   4.219
 2843SOL     OW 9427   3.495   1.796   3.520
 2843SOL    HW1 9428   3.590   1.819   3.497
 2843SOL    HW2 9429   3.435   1.872   3.493
 2844SOL     OW 9430   1.577   4.721   0.436
 2844SOL    HW1 9431   1.660   4.776   0.445
 2844SOL    HW2 9432   1.596   4.640   0.380
 2845SOL     OW 9433   1.098   3.231   0.393
 2845SOL    HW1 9434   1.001   3.253   0.408
 2845SOL    HW2 9435   1.139   3.201   0.479
 2846SOL     OW 9436   4.854   1.585   6.577
 2846SOL    HW1 9437   4.806   1.671   6.558
 2846SOL    HW2 9438   4.840   1.559   6.672
 2847SOL     OW 9439   5.101   3.596   3.166
 2847SOL    HW1 9440   5.074   3.519   3.107
 2847SOL    HW2 9441   5.018   3.640   3.201
 2848SOL     OW 9442   0.653   4.494   6.249
 2848SOL    HW1 9443   0.608   4.405   6.253
 2848SOL    HW2 9444   0.648   4.530   6.156
 2849SOL     OW 9445   3.646   0.061   1.517
 2849SOL    HW1 9446   3.718   7.023   1.528
 2849SOL    HW2 9447   3.640   0.117   1.600
 2850SOL     OW 9448   3.385   6.992   2.444
 2850SOL    HW1 9449   3.306   6.983   2.384
 2850SOL    HW2 9450   3.436   0.046   2.420
 2851SOL     OW 9451   0.488   3.549   5.864
 2851SOL    HW1 9452   0.400   3.526   5.906
 2851SOL    HW2 9453   0.539   3.464   5.846
 2852SOL     OW 9454   5.456   4.527   0.457
 2852SOL    HW1 9455   5.440   4.451   0.520
 2852SOL    HW2 9456   5.491   4.606   0.508
 2853SOL     OW 9457   2.582   2.059   0.514
 2853SOL    HW1 9458   2.681   2.071   0.520
 2853SOL    HW2 9459   2.562   1.978   0.459
 2854SOL     OW 9460   3.210   1.922   4.393
 2854SOL    HW1 9461   3.231   1.993   4.460
 2854SOL    HW2 9462   3.260   1.940   4.308
 2855SOL     OW 9463   2.269   1.081   6.261
 2855SOL    HW1 9464   2.346   1.144   6.264
 2855SOL    HW2 9465   2.303   0.987   6.272
 2856SOL     OW 9466   2.217   2.756   5.990
 2856SOL    HW1 9467   2.151   2.815   6.036
 2856SOL    HW2 9468   2.308   2.772   6.027
 2857SOL     OW 9469   3.439   1.879   2.291
 2857SOL    HW1 9470   3.354   1.830   2.273
 2857SOL    HW2 9471   3.517   1.816   2.287
 2858SOL     OW 9472   6.173   3.435   1.687
 2858SOL    HW1 9473   6.112   3.375   1.738
 2858SOL    HW2 9474   6.233   3.484   1.750
 2859SOL     OW 9475   5.308   2.201   0.779
 2859SOL    HW1 9476   5.273   2.157   0.696
 2859SOL    HW2 9477   5.291   2.300   0.774
 2860SOL     OW 9478   3.504   1.709   1.085
 2860SOL    HW1 9479   3.506   1.653   1.168
 2860SOL    HW2 9480   3.534   1.655   1.007
 2861SOL     OW 9481   4.658   5.350   5.660
 2861SOL    HW1 9482   4.733   5.414   5.674
 2861SOL    HW2 9483   4.584   5.396   5.611
 2862SOL     OW 9484   5.179   1.837   3.059
 2862SOL    HW1 9485   5.189   1.887   2.973
 2862SOL    HW2 9486   5.107   1.769   3.051
 2863SOL     OW 9487   5.699   1.352   6.904
 2863SOL    HW1 9488   5.689   1.385   6.998
 2863SOL    HW2 9489   5.796   1.341   6.882
 2864SOL     OW 9490   3.739   0.787   1.327
 2864SOL    HW1 9491   3.790   0.703   1.348
 2864SOL    HW2 9492   3.682   0.812   1.405
 2865SOL     OW 9493   5.022   3.992   5.702
 2865SOL    HW1 9494   5.063   3.911   5.660
 2865SOL    HW2 9495   5.092   4.063   5.711
 2866SOL     OW 9496   6.403   6.076   0.152
 2866SOL    HW1 9497   6.383   6.055   0.248
 2866SOL    HW2 9498   6.486   6.029   0.124
 2867SOL     OW 9499   5.708   3.838   2.441
 2867SOL    HW1 9500   5.753   3.862   2.527
 2867SOL    HW2 9501   5.609   3.845   2.453
 2868SOL     OW 9502   0.431   2.994   5.148
 2868SOL    HW1 9503   0.337   2.994   5.112
 2868SOL    HW2 9504   0.450   2.905   5.190
 2869SOL     OW 9505   6.027   1.299   3.450
 2869SOL    HW1 9506   6.071   1.212   3.472
 2869SOL    HW2 9507   5.928   1.287   3.450
 2870SOL     OW 9508   7.020   1.408   4.411
 2870SOL    HW1 9509   6.960   1.468   4.465
 2870SOL    HW2 9510   7.001   1.312   4.434
 2871SOL     OW 9511   1.645   1.395   0.036
 2871SOL    HW1 9512   1.705   1.463   7.024
 2871SOL    HW2 9513   1.575   1.367   6.998
 2872SOL     OW 9514   2.349   1.812   3.440
 2872SOL    HW1 9515   2.380   1.717   3.448
 2872SOL    HW2 9516   2.288   1.821   3.361
 2873SOL     OW 9517   1.424   5.230   3.186
 2873SOL    HW1 9518   1.460   5.319   3.162
 2873SOL    HW2 9519   1.455   5.205   3.278
 2874SOL     OW 9520   4.351   5.214   2.956
 2874SOL    HW1 9521   4.426   5.271   2.924
 2874SOL    HW2 9522   4.364   5.191   3.052
 2875SOL     OW 9523   4.661   6.210   6.634
 2875SOL    HW1 9524   4.576   6.162   6.612
 2875SOL    HW2 9525   4.713   6.226   6.550
 2876SOL     OW 9526   0.847   7.004   1.804
 2876SOL    HW1 9527   0.835   0.074   1.811
 2876SOL    HW2 9528   0.942   6.984   1.783
 2877SOL     OW 9529   3.466   2.750   5.473
 2877SOL    HW1 9530   3.565   2.737   5.474
 2877SOL    HW2 9531   3.423   2.681   5.416
 2878SOL     OW 9532   3.696   5.018   4.663
 2878SOL    HW1 9533   3.615   5.011   4.605
 2878SOL    HW2 9534   3.683   5.092   4.730
 2879SOL     OW 9535   5.459   5.178   0.157
 2879SOL    HW1 9536   5.541   5.234   0.171
 2879SOL    HW2 9537   5.435   5.179   0.060
 2880SOL     OW 9538   5.899   6.684   0.724
 2880SOL    HW1 9539   5.903   6.590   0.690
 2880SOL    HW2 9540   5.947   6.690   0.811
 2881SOL     OW 9541   5.961   6.383   1.319
 2881SOL    HW1 9542   6.052   6.364   1.282
 2881SOL    HW2 9543   5.918   6.457   1.268
 2882SOL     OW 9544   0.739   3.494   2.234
 2882SOL    HW1 9545   0.817   3.505   2.295
 2882SOL    HW2 9546   0.658   3.468   2.287
 2883SOL     OW 9547   5.323   6.723   4.209
 2883SOL    HW1 9548   5.251   6.782   4.174
 2883SOL    HW2 9549   5.369   6.677   4.133
 2884SOL     OW 9550   0.735   5.540   2.770
 2884SOL    HW1 9551   0.789   5.528   2.854
 2884SOL    HW2 9552   0.793   5.523   2.691
 2885SOL     OW 9553   0.372   2.998   2.466
 2885SOL    HW1 9554   0.331   3.001   2.558
 2885SOL    HW2 9555   0.342   2.915   2.419
 2886SOL     OW 9556   1.997   3.795   0.010
 2886SOL    HW1 9557   1.911   3.753   7.010
 2886SOL    HW2 9558   1.978   3.882   0.054
 2887SOL     OW 9559   1.672   0.060   5.045
 2887SOL    HW1 9560   1.697   0.114   4.965
 2887SOL    HW2 9561   1.687   6.992   5.025
 2888SOL     OW 9562   0.614   5.037   6.520
 2888SOL    HW1 9563   0.569   4.965   6.573
 2888SOL    HW2 9564   0.713   5.022   6.521
 2889SOL     OW 9565   1.337   0.806   2.499
 2889SOL    HW1 9566   1.322   0.725   2.555
 2889SOL    HW2 9567   1.334   0.780   2.402
 2890SOL     OW 9568   2.918   0.283   0.707
 2890SOL    HW1 9569   2.958   0.315   0.793
 2890SOL    HW2 9570   2.819   0.273   0.719
 2891SOL     OW 9571   2.280   4.330   3.793
 2891SOL    HW1 9572   2.329   4.406   3.837
 2891SOL    HW2 9573   2.287   4.340   3.694
 2892SOL     OW 9574   5.727   3.870   0.404
 2892SOL    HW1 9575   5.777   3.797   0.448
 2892SOL    HW2 9576   5.670   3.833   0.331
 2893SOL     OW 9577   0.738   6.685   4.944
 2893SOL    HW1 9578   0.703   6.767   4.990
 2893SOL    HW2 9579   0.666   6.616   4.938
 2894SOL     OW 9580   3.015   2.690   6.810
 2894SOL    HW1 9581   3.056   2.598   6.806
 2894SOL    HW2 9582   3.019   2.723   6.905
 2895SOL     OW 9583   4.052   3.032   6.649
 2895SOL    HW1 9584   3.993   3.051   6.571
 2895SOL    HW2 9585   4.125   2.969   6.623
 2896SOL     OW 9586   2.928   5.107   6.267
 2896SOL    HW1 9587   2.899   5.191   6.312
 2896SOL    HW2 9588   2.939   5.035   6.334
 2897SOL     OW 9589   2.985   5.947   3.482
 2897SOL    HW1 9590   3.082   5.923   3.482
 2897SOL    HW2 9591   2.943   5.919   3.396
 2898SOL     OW 9592   4.629   5.233   3.425
 2898SOL    HW1 9593   4.720   5.260   3.395
 2898SOL    HW2 9594   4.579   5.313   3.460
 2899SOL     OW 9595   0.531   2.007   0.198
 2899SOL    HW1 9596   0.459   1.998   0.267
 2899SOL    HW2 9597   0.492   2.000   0.107
 2900SOL     OW 9598   1.253   4.932   5.330
 2900SOL    HW1 9599   1.161   4.898   5.349
 2900SOL    HW2 9600   1.282   4.993   5.404
 2901SOL     OW 9601   1.299   0.485   2.512
 2901SOL    HW1 9602   1.235   0.525   2.578
 2901SOL    HW2 9603   1.279   0.388   2.502
 2902SOL     OW 9604   5.729   5.983   0.861
 2902SOL    HW1 9605   5.786   5.901   0.854
 2902SOL    HW2 9606   5.788   6.064   0.862
 2903SOL     OW 9607   3.314   0.231   1.506
 2903SOL    HW1 9608   3.370   0.165   1.457
 2903SOL    HW2 9609   3.327   0.322   1.467
 2904SOL     OW 9610   2.079   3.211   5.445
 2904SOL    HW1 9611   2.116   3.162   5.367
 2904SOL    HW2 9612   2.094   3.310   5.433
 2905SOL     OW 9613   0.764   2.421   3.398
 2905SOL    HW1 9614   0.845   2.422   3.339
 2905SOL    HW2 9615   0.694   2.362   3.357
 2906SOL     OW 9616   5.186   5.442   2.998
 2906SOL    HW1 9617   5.121   5.397   2.937
 2906SOL    HW2 9618   5.258   5.485   2.944
 2907SOL     OW 9619   6.798   0.970   4.260
 2907SOL    HW1 9620   6.853   0.914   4.198
 2907SOL    HW2 9621   6.807   1.066   4.235
 2908SOL     OW 9622   4.180   6.828   4.003
 2908SOL    HW1 9623   4.241   6.889   4.053
 2908SOL    HW2 9624   4.099   6.878   3.973
 2909SOL     OW 9625   0.529   6.114   3.341
 2909SOL    HW1 9626   0.452   6.101   3.278
 2909SOL    HW2 9627   0.570   6.025   3.362
 2910SOL     OW 9628   4.179   6.547   4.434
 2910SOL    HW1 9629   4.141   6.537   4.526
 2910SOL    HW2 9630   4.114   6.510   4.367
 2911SOL     OW 9631   2.260   5.149   3.500
 2911SOL    HW1 9632   2.164   5.165   3.524
 2911SOL    HW2 9633   2.287   5.213   3.428
 2912SOL     OW 9634   3.965   6.071   6.917
 2912SOL    HW1 9635   4.037   6.041   6.979
 2912SOL    HW2 9636   3.911   6.143   6.960
 2913SOL     OW 9637   1.929   4.994   2.314
 2913SOL    HW1 9638   2.005   5.055   2.337
 2913SOL    HW2 9639   1.935   4.912   2.370
 2914SOL     OW 9640   5.769   5.571   6.134
 2914SOL    HW1 9641   5.723   5.485   6.113
 2914SOL    HW2 9642   5.865   5.554   6.156
 2915SOL     OW 9643   4.694   1.559   5.016
 2915SOL    HW1 9644   4.656   1.477   5.056
 2915SOL    HW2 9645   4.767   1.534   4.952
 2916SOL     OW 9646   6.301   5.345   5.972
 2916SOL    HW1 9647   6.394   5.313   5.953
 2916SOL    HW2 9648   6.284   5.430   5.923
 2917SOL     OW 9649   4.385   0.473   1.803
 2917SOL    HW1 9650   4.334   0.448   1.885
 2917SOL    HW2 9651   4.483   0.471   1.822
 2918SOL     OW 9652   0.597   3.595   2.967
 2918SOL    HW1 9653   0.539   3.525   3.007
 2918SOL    HW2 9654   0.661   3.553   2.903
 2919SOL     OW 9655   6.392   0.910   0.186
 2919SOL    HW1 9656   6.469   0.938   0.130
 2919SOL    HW2 9657   6.423   0.894   0.280
 2920SOL     OW 9658   3.364   2.136   2.330
 2920SOL    HW1 9659   3.391   2.186   2.248
 2920SOL    HW2 9660   3.383   2.039   2.318
 2921SOL     OW 9661   0.252   0.545   3.070
 2921SOL    HW1 9662   0.192   0.490   3.012
 2921SOL    HW2 9663   0.265   0.635   3.029
 2922SOL     OW 9664   5.908   6.705   0.106
 2922SOL    HW1 9665   5.948   6.643   0.173
 2922SOL    HW2 9666   5.846   6.769   0.151
 2923SOL     OW 9667   0.037   4.891   1.732
 2923SOL    HW1 9668   0.136   4.901   1.724
 2923SOL    HW2 9669   0.001   4.847   1.650
 2924SOL     OW 9670   6.823   2.114   6.634
 2924SOL    HW1 9671   6.752   2.176   6.668
 2924SOL    HW2 9672   6.875   2.159   6.562
 2925SOL     OW 9673   5.365   0.940   3.367
 2925SOL    HW1 9674   5.399   0.903   3.453
 2925SOL    HW2 9675   5.389   1.036   3.360
 2926SOL     OW 9676   6.850   1.338   5.062
 2926SOL    HW1 9677   6.830   1.244   5.034
 2926SOL    HW2 9678   6.789   1.364   5.137
 2927SOL     OW 9679   2.301   1.907   2.020
 2927SOL    HW1 9680   2.390   1.912   1.977
 2927SOL    HW2 9681   2.230   1.893   1.950
 2928SOL     OW 9682   6.644   2.472   6.151
 2928SOL    HW1 9683   6.638   2.511   6.058
 2928SOL    HW2 9684   6.552   2.467   6.190
 2929SOL     OW 9685   0.634   1.208   5.715
 2929SOL    HW1 9686   0.687   1.242   5.793
 2929SOL    HW2 9687   0.624   1.109   5.722
 2930SOL     OW 9688   4.811   6.435   5.058
 2930SOL    HW1 9689   4.815   6.487   4.973
 2930SOL    HW2 9690   4.846   6.490   5.133
 2931SOL     OW 9691   5.758   6.473   6.744
 2931SOL    HW1 9692   5.787   6.378   6.735
 2931SOL    HW2 9693   5.832   6.527   6.784
 2932SOL     OW 9694   1.544   4.869   2.073
 2932SOL    HW1 9695   1.588   4.903   1.991
 2932SOL    HW2 9696   1.552   4.769   2.077
 2933SOL     OW 9697   5.513   3.303   2.987
 2933SOL    HW1 9698   5.600   3.262   2.961
 2933SOL    HW2 9699   5.480   3.260   3.071
 2934SOL     OW 9700   3.849   1.062   0.231
 2934SOL    HW1 9701   3.767   1.031   0.183
 2934SOL    HW2 9702   3.863   1.160   0.212
 2935SOL     OW 9703   6.106   3.056   1.649
 2935SOL    HW1 9704   6.074   3.087   1.739
 2935SOL    HW2 9705   6.151   2.967   1.658
 2936SOL     OW 9706   5.234   5.612   1.782
 2936SOL    HW1 9707   5.177   5.694   1.789
 2936SOL    HW2 9708   5.298   5.609   1.858
 2937SOL     OW 9709   3.972   4.778   0.906
 2937SOL    HW1 9710   3.921   4.724   0.839
 2937SOL    HW2 9711   4.015   4.856   0.860
 2938SOL     OW 9712   5.086   4.721   5.938
 2938SOL    HW1 9713   5.135   4.683   5.860
 2938SOL    HW2 9714   5.000   4.671   5.952
 2939SOL     OW 9715   0.538   7.004   4.412
 2939SOL    HW1 9716   0.550   0.046   4.343
 2939SOL    HW2 9717   0.607   6.933   4.398
 2940SOL     OW 9718   6.061   6.988   5.880
 2940SOL    HW1 9719   6.154   7.008   5.849
 2940SOL    HW2 9720   5.996   7.011   5.808
 2941SOL     OW 9721   2.135   2.495   4.927
 2941SOL    HW1 9722   2.107   2.568   4.865
 2941SOL    HW2 9723   2.072   2.418   4.919
 2942SOL     OW 9724   2.039   1.060   2.005
 2942SOL    HW1 9725   1.963   1.085   1.945
 2942SOL    HW2 9726   2.010   1.066   2.100
 2943SOL     OW 9727   5.879   3.778   3.095
 2943SOL    HW1 9728   5.923   3.719   3.027
 2943SOL    HW2 9729   5.794   3.814   3.056
 2944SOL     OW 9730   2.637   5.659   5.159
 2944SOL    HW1 9731   2.720   5.674   5.213
 2944SOL    HW2 9732   2.605   5.566   5.172
 2945SOL     OW 9733   4.000   3.059   3.214
 2945SOL    HW1 9734   4.002   3.113   3.299
 2945SOL    HW2 9735   4.076   2.994   3.215
 2946SOL     OW 9736   6.937   5.545   6.395
 2946SOL    HW1 9737   6.952   5.498   6.308
 2946SOL    HW2 9738   6.871   5.618   6.382
 2947SOL     OW 9739   0.921   4.759   0.619
 2947SOL    HW1 9740   0.912   4.709   0.705
 2947SOL    HW2 9741   0.908   4.857   0.636
 2948SOL     OW 9742   6.663   3.592   5.692
 2948SOL    HW1 9743   6.660   3.634   5.601
 2948SOL    HW2 9744   6.732   3.639   5.747
 2949SOL     OW 9745   2.134   6.127   1.012
 2949SOL    HW1 9746   2.085   6.210   0.983
 2949SOL    HW2 9747   2.229   6.131   0.980
 2950SOL     OW 9748   5.222   3.736   4.487
 2950SOL    HW1 9749   5.216   3.835   4.474
 2950SOL    HW2 9750   5.149   3.706   4.548
 2951SOL     OW 9751   6.782   2.372   0.502
 2951SOL    HW1 9752   6.724   2.344   0.579
 2951SOL    HW2 9753   6.791   2.295   0.438
 2952SOL     OW 9754   0.947   5.904   4.865
 2952SOL    HW1 9755   0.996   5.823   4.833
 2952SOL    HW2 9756   0.994   5.944   4.943
 2953SOL     OW 9757   4.688   2.691   2.265
 2953SOL    HW1 9758   4.745   2.715   2.187
 2953SOL    HW2 9759   4.594   2.723   2.248
 2954SOL     OW 9760   1.082   5.272   1.517
 2954SOL    HW1 9761   1.094   5.367   1.490
 2954SOL    HW2 9762   1.110   5.212   1.441
 2955SOL     OW 9763   0.591   3.577   0.759
 2955SOL    HW1 9764   0.653   3.637   0.709
 2955SOL    HW2 9765   0.528   3.533   0.696
 2956SOL     OW 9766   6.185   6.263   3.049
 2956SOL    HW1 9767   6.170   6.344   2.993
 2956SOL    HW2 9768   6.226   6.191   2.992
 2957SOL     OW 9769   6.497   3.057   1.431
 2957SOL    HW1 9770   6.581   3.103   1.460
 2957SOL    HW2 9771   6.418   3.112   1.456
 2958SOL     OW 9772   2.680   4.628   4.715
 2958SOL    HW1 9773   2.666   4.537   4.676
 2958SOL    HW2 9774   2.748   4.623   4.788
 2959SOL     OW 9775   4.399   4.429   0.129
 2959SOL    HW1 9776   4.345   4.415   0.212
 2959SOL    HW2 9777   4.484   4.476   0.152
 2960SOL     OW 9778   2.978   0.313   6.577
 2960SOL    HW1 9779   2.948   0.264   6.659
 2960SOL    HW2 9780   2.902   0.324   6.514
 2961SOL     OW 9781   5.173   2.710   4.357
 2961SOL    HW1 9782   5.242   2.777   4.329
 2961SOL    HW2 9783   5.128   2.673   4.275
 2962SOL     OW 9784   4.418   0.851   3.792
 2962SOL    HW1 9785   4.393   0.869   3.697
 2962SOL    HW2 9786   4.360   0.778   3.828
 2963SOL     OW 9787   1.854   1.709   5.920
 2963SOL    HW1 9788   1.858   1.792   5.865
 2963SOL    HW2 9789   1.793   1.724   5.998
 2964SOL     OW 9790   1.185   6.776   1.475
 2964SOL    HW1 9791   1.283   6.792   1.464
 2964SOL    HW2 9792   1.156   6.703   1.413
 2965SOL     OW 9793   6.879   1.076   4.980
 2965SOL    HW1 9794   6.874   1.045   4.885
 2965SOL    HW2 9795   6.895   0.997   5.040
 2966SOL     OW 9796   6.426   4.529   4.206
 2966SOL    HW1 9797   6.431   4.578   4.120
 2966SOL    HW2 9798   6.469   4.439   4.196
 2967SOL     OW 9799   5.985   2.375   4.407
 2967SOL    HW1 9800   6.011   2.309   4.477
 2967SOL    HW2 9801   5.982   2.467   4.447
 2968SOL     OW 9802   0.825   3.931   5.475
 2968SOL    HW1 9803   0.866   3.840   5.470
 2968SOL    HW2 9804   0.741   3.927   5.530
 2969SOL     OW 9805   5.881   1.335   4.423
 2969SOL    HW1 9806   5.836   1.250   4.451
 2969SOL    HW2 9807   5.833   1.413   4.463
 2970SOL     OW 9808   1.144   4.516   0.071
 2970SOL    HW1 9809   1.045   4.530   0.081
 2970SOL    HW2 9810   1.191   4.546   0.154
 2971SOL     OW 9811   5.162   2.558   5.176
 2971SOL    HW1 9812   5.139   2.654   5.165
 2971SOL    HW2 9813   5.083   2.510   5.216
 2972SOL     OW 9814   6.527   5.077   6.289
 2972SOL    HW1 9815   6.598   5.052   6.223
 2972SOL    HW2 9816   6.539   5.172   6.316
 2973SOL     OW 9817   5.026   1.162   4.481
 2973SOL    HW1 9818   5.057   1.208   4.398
 2973SOL    HW2 9819   5.044   1.220   4.560
 2974SOL     OW 9820   0.331   3.904   2.905
 2974SOL    HW1 9821   0.234   3.892   2.927
 2974SOL    HW2 9822   0.340   3.974   2.834
 2975SOL     OW 9823   0.692   2.110   5.284
 2975SOL    HW1 9824   0.636   2.191   5.296
 2975SOL    HW2 9825   0.634   2.032   5.260
 2976SOL     OW 9826   4.123   1.160   2.523
 2976SOL    HW1 9827   4.139   1.070   2.565
 2976SOL    HW2 9828   4.100   1.226   2.594
 2977SOL     OW 9829   1.557   0.227   4.241
 2977SOL    HW1 9830   1.541   0.134   4.208
 2977SOL    HW2 9831   1.542   0.230   4.340
 2978SOL     OW 9832   4.235   4.647   6.585
 2978SOL    HW1 9833   4.216   4.595   6.502
 2978SOL    HW2 9834   4.322   4.617   6.624
 2979SOL     OW 9835   4.453   6.846   4.280
 2979SOL    HW1 9836   4.492   6.754   4.285
 2979SOL    HW2 9837   4.498   6.897   4.207
 2980SOL     OW 9838   1.662   5.956   3.942
 2980SOL    HW1 9839   1.641   6.034   3.882
 2980SOL    HW2 9840   1.664   5.872   3.888
 2981SOL     OW 9841   0.850   0.238   5.556
 2981SOL    HW1 9842   0.831   0.335   5.537
 2981SOL    HW2 9843   0.932   0.210   5.506
 2982SOL     OW 9844   4.941   6.337   3.104
 2982SOL    HW1 9845   4.856   6.355   3.155
 2982SOL    HW2 9846   4.922   6.272   3.031
 2983SOL     OW 9847   0.580   0.939   4.148
 2983SOL    HW1 9848   0.640   0.913   4.072
 2983SOL    HW2 9849   0.501   0.989   4.113
 2984SOL     OW 9850   4.797   5.707   1.678
 2984SOL    HW1 9851   4.822   5.685   1.584
 2984SOL    HW2 9852   4.819   5.630   1.737
 2985SOL     OW 9853   0.695   2.470   5.312
 2985SOL    HW1 9854   0.779   2.476   5.366
 2985SOL    HW2 9855   0.718   2.447   5.217
 2986SOL     OW 9856   1.940   3.903   6.743
 2986SOL    HW1 9857   2.026   3.877   6.699
 2986SOL    HW2 9858   1.872   3.925   6.673
 2987SOL     OW 9859   4.666   0.883   3.415
 2987SOL    HW1 9860   4.716   0.964   3.385
 2987SOL    HW2 9861   4.730   0.808   3.431
 2988SOL     OW 9862   6.978   0.045   3.161
 2988SOL    HW1 9863   6.885   0.055   3.194
 2988SOL    HW2 9864   7.001   6.978   3.152
 2989SOL     OW 9865   6.445   5.923   1.014
 2989SOL    HW1 9866   6.456   5.922   1.113
 2989SOL    HW2 9867   6.521   5.974   0.973
 2990SOL     OW 9868   4.398   1.336   3.297
 2990SOL    HW1 9869   4.478   1.297   3.252
 2990SOL    HW2 9870   4.386   1.294   3.387
 2991SOL     OW 9871   6.794   4.004   0.321
 2991SOL    HW1 9872   6.837   4.032   0.406
 2991SOL    HW2 9873   6.712   4.060   0.305
 2992SOL     OW 9874   2.368   5.323   5.790
 2992SOL    HW1 9875   2.297   5.304   5.858
 2992SOL    HW2 9876   2.349   5.272   5.707
 2993SOL     OW 9877   1.159   5.034   1.835
 2993SOL    HW1 9878   1.210   5.010   1.752
 2993SOL    HW2 9879   1.167   5.132   1.853
 2994SOL     OW 9880   4.115   0.664   0.574
 2994SOL    HW1 9881   4.058   0.688   0.652
 2994SOL    HW2 9882   4.058   0.621   0.503
 2995SOL     OW 9883   0.661   3.117   6.899
 2995SOL    HW1 9884   0.712   3.053   6.958
 2995SOL    HW2 9885   0.725   3.163   6.838
 2996SOL     OW 9886   2.563   6.059   3.878
 2996SOL    HW1 9887   2.502   6.005   3.937
 2996SOL    HW2 9888   2.547   6.156   3.894
 2997SOL     OW 9889   4.923   6.658   2.247
 2997SOL    HW1 9890   4.987   6.597   2.200
 2997SOL    HW2 9891   4.851   6.603   2.291
 2998SOL     OW 9892   5.213   6.443   5.409
 2998SOL    HW1 9893   5.126   6.481   5.439
 2998SOL    HW2 9894   5.288   6.503   5.436
 2999SOL     OW 9895   3.439   5.651   3.835
 2999SOL    HW1 9896   3.496   5.654   3.917
 2999SOL    HW2 9897   3.468   5.575   3.778
 3000SOL     OW 9898   1.378   3.775   6.576
 3000SOL    HW1 9899   1.457   3.809   6.626
 3000SOL    HW2 9900   1.312   3.850   6.564
 3001SOL     OW 9901   5.483   0.099   6.726
 3001SOL    HW1 9902   5.398   0.087   6.676
 3001SOL    HW2 9903   5.470   0.073   6.822
 3002SOL     OW 9904   4.486   0.218   5.300
 3002SOL    HW1 9905   4.482   0.288   5.228
 3002SOL    HW2 9906   4.532   0.256   5.380
 3003SOL     OW 9907   2.554   6.601   6.680
 3003SOL    HW1 9908   2.543   6.550   6.595
 3003SOL    HW2 9909   2.465   6.628   6.715
 3004SOL     OW 9910   0.297   5.083   3.708
 3004SOL    HW1 9911   0.296   5.031   3.622
 3004SOL    HW2 9912   0.391   5.104   3.733
 3005SOL     OW 9913   3.382   2.546   0.615
 3005SOL    HW1 9914   3.409   2.465   0.667
 3005SOL    HW2 9915   3.457   2.573   0.554
 3006SOL     OW 9916   6.165   1.977   0.089
 3006SOL    HW1 9917   6.211   1.945   0.005
 3006SOL    HW2 9918   6.187   1.915   0.164
 3007SOL     OW 9919   6.209   5.081   2.258
 3007SOL    HW1 9920   6.216   5.112   2.163
 3007SOL    HW2 9921   6.152   4.999   2.262
 3008SOL     OW 9922   3.906   0.704   6.364
 3008SOL    HW1 9923   3.986   0.756   6.393
 3008SOL    HW2 9924   3.923   0.606   6.378
 3009SOL     OW 9925   0.656   6.437   2.667
 3009SOL    HW1 9926   0.653   6.468   2.573
 3009SOL    HW2 9927   0.699   6.346   2.671
 3010SOL     OW 9928   3.512   5.955   3.033
 3010SOL    HW1 9929   3.596   5.982   3.079
 3010SOL    HW2 9930   3.465   5.884   3.086
 3011SOL     OW 9931   5.433   0.976   0.294
 3011SOL    HW1 9932   5.354   1.028   0.325
 3011SOL    HW2 9933   5.403   0.902   0.233
 3012SOL     OW 9934   1.642   3.877   5.239
 3012SOL    HW1 9935   1.572   3.807   5.228
 3012SOL    HW2 9936   1.687   3.894   5.152
 3013SOL     OW 9937   5.419   5.609   4.115
 3013SOL    HW1 9938   5.418   5.673   4.193
 3013SOL    HW2 9939   5.420   5.515   4.150
 3014SOL     OW 9940   5.150   2.781   4.000
 3014SOL    HW1 9941   5.064   2.828   4.020
 3014SOL    HW2 9942   5.209   2.841   3.946
 3015SOL     OW 9943   3.256   2.125   0.494
 3015SOL    HW1 9944   3.274   2.221   0.474
 3015SOL    HW2 9945   3.193   2.118   0.572
 3016SOL     OW 9946   2.698   6.343   4.122
 3016SOL    HW1 9947   2.782   6.396   4.119
 3016SOL    HW2 9948   2.666   6.326   4.029
 3017SOL     OW 9949   0.961   5.262   1.764
 3017SOL    HW1 9950   0.986   5.246   1.669
 3017SOL    HW2 9951   0.936   5.358   1.777
 3018SOL     OW 9952   3.157   6.996   5.472
 3018SOL    HW1 9953   3.180   6.927   5.541
 3018SOL    HW2 9954   3.228   7.000   5.402
 3019SOL     OW 9955   2.271   6.806   0.888
 3019SOL    HW1 9956   2.193   6.861   0.858
 3019SOL    HW2 9957   2.346   6.866   0.914
 3020SOL     OW 9958   3.170   4.174   1.526
 3020SOL    HW1 9959   3.094   4.179   1.590
 3020SOL    HW2 9960   3.220   4.088   1.541
 3021SOL     OW 9961   2.166   1.410   0.352
 3021SOL    HW1 9962   2.174   1.327   0.297
 3021SOL    HW2 9963   2.223   1.482   0.313
 3022SOL     OW 9964   4.218   5.696   3.025
 3022SOL    HW1 9965   4.241   5.601   3.046
 3022SOL    HW2 9966   4.170   5.700   2.938
 3023SOL     OW 9967   3.938   6.446   2.607
 3023SOL    HW1 9968   3.868   6.508   2.570
 3023SOL    HW2 9969   3.923   6.354   2.571
 3024SOL     OW 9970   4.249   0.385   6.174
 3024SOL    HW1 9971   4.260   0.454   6.102
 3024SOL    HW2 9972   4.191   0.422   6.247
 3025SOL     OW 9973   3.631   2.479   0.200
 3025SOL    HW1 9974   3.610   2.383   0.185
 3025SOL    HW2 9975   3.619   2.529   0.114
 3026SOL     OW 9976   1.874   2.044   0.792
 3026SOL    HW1 9977   1.938   2.112   0.829
 3026SOL    HW2 9978   1.923   1.984   0.729
 3027SOL     OW 9979   4.258   0.706   1.839
 3027SOL    HW1 9980   4.304   0.617   1.841
 3027SOL    HW2 9981   4.166   0.694   1.800
 3028SOL     OW 9982   1.199   4.191   6.484
 3028SOL    HW1 9983   1.212   4.179   6.386
 3028SOL    HW2 9984   1.286   4.176   6.532
 3029SOL     OW 9985   0.424   4.847   5.016
 3029SOL    HW1 9986   0.430   4.933   5.067
 3029SOL    HW2 9987   0.340   4.799   5.041
 3030SOL     OW 9988   0.527   2.356   5.877
 3030SOL    HW1 9989   0.430   2.338   5.864
 3030SOL    HW2 9990   0.558   2.421   5.807
 3031SOL     OW 9991   0.092   3.809   0.722
 3031SOL    HW1 9992   0.041   3.791   0.806
 3031SOL    HW2 9993   0.039   3.778   0.643
 3032SOL     OW 9994   5.022   6.942   0.828
 3032SOL    HW1 9995   5.093   6.947   0.757
 3032SOL    HW2 9996   5.043   6.866   0.890
 3033SOL     OW 9997   0.923   2.690   1.147
 3033SOL    HW1 9998   0.896   2.616   1.085
 3033SOL    HW2 9999   1.014   2.723   1.123
 3034SOL     OW10000   2.163   6.131   4.031
 3034SOL    HW110001   2.176   6.197   3.957
 3034SOL    HW210002   2.198   6.168   4.116
 3035SOL     OW10003   6.714   2.841   0.343
 3035SOL    HW110004   6.784   2.873   0.407
 3035SOL    HW210005   6.725   2.889   0.255
 3036SOL     OW10006   1.527   3.210   6.858
 3036SOL    HW110007   1.539   3.299   6.813
 3036SOL    HW210008   1.514   3.224   6.956
 3037SOL     OW10009   6.139   5.759   4.704
 3037SOL    HW110010   6.223   5.756   4.649
 3037SOL    HW210011   6.128   5.851   4.742
 3038SOL     OW10012   5.801   6.977   6.510
 3038SOL    HW110013   5.868   7.007   6.441
 3038SOL    HW210014   5.730   6.922   6.465
 3039SOL     OW10015   6.698   4.006   2.392
 3039SOL    HW110016   6.730   3.975   2.302
 3039SOL    HW210017   6.640   3.935   2.433
 3040SOL     OW10018   5.104   3.748   6.165
 3040SOL    HW110019   5.048   3.756   6.082
 3040SOL    HW210020   5.050   3.776   6.244
 3041SOL     OW10021   2.266   2.626   5.452
 3041SOL    HW110022   2.286   2.662   5.361
 3041SOL    HW210023   2.311   2.683   5.521
 3042SOL     OW10024   5.762   6.930   1.841
 3042SOL    HW110025   5.711   6.844   1.833
 3042SOL    HW210026   5.698   7.007   1.840
 3043SOL     OW10027   0.588   5.513   1.044
 3043SOL    HW110028   0.673   5.468   1.071
 3043SOL    HW210029   0.514   5.484   1.105
 3044SOL     OW10030   2.868   4.741   5.939
 3044SOL    HW110031   2.808   4.820   5.926
 3044SOL    HW210032   2.940   4.765   6.004
 3045SOL     OW10033   4.950   0.699   2.598
 3045SOL    HW110034   4.879   0.768   2.589
 3045SOL    HW210035   4.922   0.615   2.552
 3046SOL     OW10036   2.312   2.178   5.803
 3046SOL    HW110037   2.258   2.184   5.719
 3046SOL    HW210038   2.367   2.094   5.802
 3047SOL     OW10039   5.005   5.892   2.704
 3047SOL    HW110040   5.026   5.815   2.766
 3047SOL    HW210041   5.083   5.954   2.701
 3048SOL     OW10042   3.561   2.899   1.626
 3048SOL    HW110043   3.519   2.808   1.633
 3048SOL    HW210044   3.526   2.946   1.546
 3049SOL     OW10045   1.623   6.004   1.219
 3049SOL    HW110046   1.582   5.913   1.228
 3049SOL    HW210047   1.722   5.997   1.235
 3050SOL     OW10048   3.466   0.746   3.892
 3050SOL    HW110049   3.526   0.801   3.834
 3050SOL    HW210050   3.389   0.713   3.838
 3051SOL     OW10051   2.883   3.420   6.809
 3051SOL    HW110052   2.901   3.414   6.907
 3051SOL    HW210053   2.849   3.332   6.775
 3052SOL     OW10054   4.048   0.452   2.246
 3052SOL    HW110055   4.054   0.545   2.281
 3052SOL    HW210056   3.954   0.435   2.214
 3053SOL     OW10057   6.662   0.706   6.643
 3053SOL    HW110058   6.616   0.720   6.555
 3053SOL    HW210059   6.724   0.628   6.637
 3054SOL     OW10060   0.654   2.861   1.105
 3054SOL    HW110061   0.691   2.928   1.041
 3054SOL    HW210062   0.721   2.788   1.119
 3055SOL     OW10063   4.704   6.935   3.718
 3055SOL    HW110064   4.699   6.859   3.653
 3055SOL    HW210065   4.673   7.019   3.673
 3056SOL     OW10066   6.971   0.513   6.013
 3056SOL    HW110067   6.983   0.537   5.917
 3056SOL    HW210068   6.966   0.413   6.022
 3057SOL     OW10069   4.375   5.614   2.764
 3057SOL    HW110070   4.412   5.578   2.849
 3057SOL    HW210071   4.383   5.545   2.692
 3058SOL     OW10072   6.938   5.407   1.246
 3058SOL    HW110073   7.009   5.447   1.189
 3058SOL    HW210074   6.848   5.421   1.204
 3059SOL     OW10075   1.784   2.393   5.237
 3059SOL    HW110076   1.810   2.464   5.171
 3059SOL    HW210077   1.850   2.391   5.312
 3060SOL     OW10078   0.545   6.110   0.493
 3060SOL    HW110079   0.560   6.070   0.403
 3060SOL    HW210080   0.456   6.155   0.495
 3061SOL     OW10081   6.319   0.703   4.956
 3061SOL    HW110082   6.344   0.768   5.028
 3061SOL    HW210083   6.233   0.658   4.980
 3062SOL     OW10084   1.461   0.015   0.084
 3062SOL    HW110085   1.496   0.105   0.057
 3062SOL    HW210086   1.361   0.017   0.083
 3063SOL     OW10087   2.998   5.401   1.622
 3063SOL    HW110088   2.916   5.457   1.608
 3063SOL    HW210089   2.995   5.323   1.560
 3064SOL     OW10090   6.068   3.417   3.876
 3064SOL    HW110091   6.154   3.420   3.928
 3064SOL    HW210092   6.083   3.370   3.789
 3065SOL     OW10093   1.849   0.830   6.613
 3065SOL    HW110094   1.830   0.735   6.638
 3065SOL    HW210095   1.942   0.837   6.577
 3066SOL     OW10096   5.557   4.727   0.870
 3066SOL    HW110097   5.550   4.679   0.783
 3066SOL    HW210098   5.592   4.664   0.940
 3067SOL     OW10099   3.649   1.801   4.516
 3067SOL    HW110100   3.582   1.748   4.568
 3067SOL    HW210101   3.628   1.898   4.524
 3068SOL     OW10102   5.498   5.935   0.728
 3068SOL    HW110103   5.595   5.954   0.744
 3068SOL    HW210104   5.455   6.014   0.684
 3069SOL     OW10105   6.613   6.203   1.918
 3069SOL    HW110106   6.627   6.107   1.897
 3069SOL    HW210107   6.579   6.251   1.837
 3070SOL     OW10108   1.644   1.091   2.821
 3070SOL    HW110109   1.553   1.051   2.826
 3070SOL    HW210110   1.700   1.040   2.755
 3071SOL     OW10111   6.065   6.393   3.468
 3071SOL    HW110112   6.031   6.469   3.523
 3071SOL    HW210113   6.165   6.387   3.476
 3072SOL     OW10114   0.654   6.787   0.500
 3072SOL    HW110115   0.643   6.882   0.468
 3072SOL    HW210116   0.627   6.782   0.596
 3073SOL     OW10117   0.571   3.214   5.052
 3073SOL    HW110118   0.551   3.202   4.955
 3073SOL    HW210119   0.525   3.143   5.105
 3074SOL     OW10120   5.865   2.980   0.590
 3074SOL    HW110121   5.801   2.945   0.522
 3074SOL    HW210122   5.882   2.910   0.659
 3075SOL     OW10123   2.059   6.161   1.296
 3075SOL    HW110124   2.057   6.144   1.198
 3075SOL    HW210125   2.109   6.246   1.314
 3076SOL     OW10126   6.553   1.261   4.218
 3076SOL    HW110127   6.630   1.196   4.210
 3076SOL    HW210128   6.475   1.215   4.259
 3077SOL     OW10129   5.175   5.005   3.003
 3077SOL    HW110130   5.082   4.980   3.033
 3077SOL    HW210131   5.222   5.052   3.078
 3078SOL     OW10132   1.925   3.290   1.169
 3078SOL    HW110133   1.972   3.209   1.134
 3078SOL    HW210134   1.977   3.329   1.245
 3079SOL     OW10135   1.820   2.663   4.501
 3079SOL    HW110136   1.887   2.689   4.432
 3079SOL    HW210137   1.841   2.709   4.587
 3080SOL     OW10138   5.655   4.555   3.209
 3080SOL    HW110139   5.611   4.473   3.244
 3080SOL    HW210140   5.588   4.630   3.208
 3081SOL     OW10141   0.474   4.036   6.114
 3081SOL    HW110142   0.421   3.953   6.136
 3081SOL    HW210143   0.567   4.010   6.089
 3082SOL     OW10144   3.765   6.022   3.119
 3082SOL    HW110145   3.862   6.029   3.142
 3082SOL    HW210146   3.715   6.099   3.158
 3083SOL     OW10147   3.945   6.391   3.577
 3083SOL    HW110148   4.020   6.447   3.540
 3083SOL    HW210149   3.860   6.414   3.529
 3084SOL     OW10150   4.611   4.915   4.513
 3084SOL    HW110151   4.537   4.952   4.456
 3084SOL    HW210152   4.582   4.828   4.552
 3085SOL     OW10153   0.816   4.875   2.309
 3085SOL    HW110154   0.796   4.841   2.401
 3085SOL    HW210155   0.855   4.801   2.254
 3086SOL     OW10156   4.173   1.655   1.593
 3086SOL    HW110157   4.145   1.687   1.684
 3086SOL    HW210158   4.176   1.555   1.592
 3087SOL     OW10159   0.488   5.127   3.968
 3087SOL    HW110160   0.580   5.088   3.959
 3087SOL    HW210161   0.494   5.220   4.004
 3088SOL     OW10162   2.500   5.147   5.266
 3088SOL    HW110163   2.547   5.103   5.342
 3088SOL    HW210164   2.471   5.078   5.200
 3089SOL     OW10165   0.948   2.763   0.363
 3089SOL    HW110166   1.032   2.793   0.408
 3089SOL    HW210167   0.894   2.842   0.336
 3090SOL     OW10168   2.143   2.070   1.851
 3090SOL    HW110169   2.161   2.167   1.833
 3090SOL    HW210170   2.102   2.059   1.942
 3091SOL     OW10171   2.514   6.222   0.148
 3091SOL    HW110172   2.591   6.190   0.203
 3091SOL    HW210173   2.459   6.287   0.202
 3092SOL     OW10174   4.846   0.158   6.835
 3092SOL    HW110175   4.932   0.124   6.874
 3092SOL    HW210176   4.795   0.081   6.796
 3093SOL     OW10177   5.257   4.937   5.844
 3093SOL    HW110178   5.278   4.900   5.754
 3093SOL    HW210179   5.206   4.868   5.897
 3094SOL     OW10180   3.464   6.700   4.717
 3094SOL    HW110181   3.416   6.646   4.648
 3094SOL    HW210182   3.429   6.675   4.808
 3095SOL     OW10183   2.607   5.031   3.860
 3095SOL    HW110184   2.667   5.041   3.939
 3095SOL    HW210185   2.520   5.076   3.879
 3096SOL     OW10186   0.620   0.217   4.278
 3096SOL    HW110187   0.691   0.251   4.216
 3096SOL    HW210188   0.533   0.210   4.228
 3097SOL     OW10189   0.603   2.202   1.287
 3097SOL    HW110190   0.573   2.279   1.232
 3097SOL    HW210191   0.703   2.200   1.291
 3098SOL     OW10192   2.398   3.438   1.075
 3098SOL    HW110193   2.384   3.481   1.164
 3098SOL    HW210194   2.386   3.506   1.003
 3099SOL     OW10195   6.890   5.934   5.120
 3099SOL    HW110196   6.937   5.999   5.061
 3099SOL    HW210197   6.951   5.904   5.193
 3100SOL     OW10198   6.551   0.133   4.660
 3100SOL    HW110199   6.533   0.097   4.569
 3100SOL    HW210200   6.592   0.224   4.652
 3101SOL     OW10201   4.951   6.192   5.301
 3101SOL    HW110202   4.929   6.275   5.250
 3101SOL    HW210203   5.050   6.176   5.298
 3102SOL     OW10204   0.847   5.106   2.680
 3102SOL    HW110205   0.780   5.034   2.699
 3102SOL    HW210206   0.855   5.119   2.581
 3103SOL     OW10207   3.074   1.331   1.631
 3103SOL    HW110208   3.090   1.278   1.547
 3103SOL    HW210209   2.983   1.310   1.667
 3104SOL     OW10210   6.195   0.071   4.513
 3104SOL    HW110211   6.178   0.012   4.434
 3104SOL    HW210212   6.293   0.084   4.525
 3105SOL     OW10213   6.674   5.180   2.696
 3105SOL    HW110214   6.723   5.207   2.779
 3105SOL    HW210215   6.608   5.108   2.718
 3106SOL     OW10216   6.910   1.447   3.071
 3106SOL    HW110217   6.978   1.443   2.998
 3106SOL    HW210218   6.860   1.361   3.076
 3107SOL     OW10219   3.566   0.526   4.235
 3107SOL    HW110220   3.480   0.575   4.224
 3107SOL    HW210221   3.564   0.475   4.321
 3108SOL     OW10222   1.503   0.517   4.226
 3108SOL    HW110223   1.537   0.424   4.226
 3108SOL    HW210224   1.562   0.575   4.168
 3109SOL     OW10225   5.729   5.847   2.872
 3109SOL    HW110226   5.682   5.910   2.933
 3109SOL    HW210227   5.757   5.766   2.922
 3110SOL     OW10228   0.795   1.958   3.736
 3110SOL    HW110229   0.748   1.917   3.658
 3110SOL    HW210230   0.879   1.907   3.756
 3111SOL     OW10231   6.570   5.786   3.963
 3111SOL    HW110232   6.534   5.710   4.017
 3111SOL    HW210233   6.568   5.870   4.017
 3112SOL     OW10234   5.018   2.797   6.339
 3112SOL    HW110235   5.061   2.757   6.420
 3112SOL    HW210236   5.042   2.743   6.258
 3113SOL     OW10237   1.663   0.007   4.586
 3113SOL    HW110238   1.761   0.019   4.569
 3113SOL    HW210239   1.615   0.093   4.570
 3114SOL     OW10240   4.834   3.093   0.074
 3114SOL    HW110241   4.818   3.035   0.154
 3114SOL    HW210242   4.746   3.113   0.031
 3115SOL     OW10243   5.110   3.624   0.065
 3115SOL    HW110244   5.017   3.648   0.038
 3115SOL    HW210245   5.110   3.591   0.160
 3116SOL     OW10246   0.191   3.830   0.013
 3116SOL    HW110247   0.167   3.822   0.109
 3116SOL    HW210248   0.136   3.902   6.999
 3117SOL     OW10249   4.557   3.481   5.356
 3117SOL    HW110250   4.576   3.384   5.344
 3117SOL    HW210251   4.581   3.531   5.272
 3118SOL     OW10252   0.334   4.926   6.642
 3118SOL    HW110253   0.332   4.931   6.741
 3118SOL    HW210254   0.345   5.018   6.604
 3119SOL     OW10255   1.902   4.081   5.932
 3119SOL    HW110256   1.881   4.089   5.834
 3119SOL    HW210257   1.994   4.115   5.949
 3120SOL     OW10258   2.351   6.633   4.333
 3120SOL    HW110259   2.252   6.647   4.329
 3120SOL    HW210260   2.376   6.555   4.277
 3121SOL     OW10261   0.522   1.846   2.740
 3121SOL    HW110262   0.563   1.891   2.819
 3121SOL    HW210263   0.488   1.915   2.676
 3122SOL     OW10264   2.930   5.757   5.999
 3122SOL    HW110265   3.019   5.786   6.034
 3122SOL    HW210266   2.857   5.797   6.054
 3123SOL     OW10267   3.315   6.419   3.567
 3123SOL    HW110268   3.401   6.401   3.615
 3123SOL    HW210269   3.302   6.350   3.496
 3124SOL     OW10270   3.951   0.034   4.641
 3124SOL    HW110271   4.003   6.993   4.689
 3124SOL    HW210272   3.978   0.124   4.673
 3125SOL     OW10273   6.195   2.074   6.244
 3125SOL    HW110274   6.287   2.097   6.276
 3125SOL    HW210275   6.129   2.137   6.286
 3126SOL     OW10276   5.088   4.384   6.654
 3126SOL    HW110277   5.134   4.446   6.590
 3126SOL    HW210278   5.082   4.293   6.613
 3127SOL     OW10279   0.691   2.400   3.107
 3127SOL    HW110280   0.592   2.405   3.123
 3127SOL    HW210281   0.732   2.335   3.170
 3128SOL     OW10282   2.226   6.911   6.687
 3128SOL    HW110283   2.264   6.854   6.614
 3128SOL    HW210284   2.246   6.869   6.775
 3129SOL     OW10285   0.822   4.494   6.595
 3129SOL    HW110286   0.883   4.453   6.528
 3129SOL    HW210287   0.748   4.541   6.548
 3130SOL     OW10288   2.263   4.260   2.418
 3130SOL    HW110289   2.174   4.288   2.454
 3130SOL    HW210290   2.295   4.180   2.469
 3131SOL     OW10291   0.779   3.002   1.503
 3131SOL    HW110292   0.831   2.917   1.498
 3131SOL    HW210293   0.681   2.980   1.511
 3132SOL     OW10294   4.909   5.792   5.651
 3132SOL    HW110295   5.008   5.793   5.665
 3132SOL    HW210296   4.876   5.885   5.639
 3133SOL     OW10297   2.446   2.342   3.833
 3133SOL    HW110298   2.458   2.243   3.838
 3133SOL    HW210299   2.531   2.387   3.859
 3134SOL     OW10300   5.280   4.201   1.754
 3134SOL    HW110301   5.213   4.154   1.811
 3134SOL    HW210302   5.270   4.300   1.765
 3135SOL     OW10303   4.478   1.736   5.015
 3135SOL    HW110304   4.553   1.670   5.010
 3135SOL    HW210305   4.424   1.732   4.931
 3136SOL     OW10306   6.484   6.511   5.497
 3136SOL    HW110307   6.425   6.574   5.548
 3136SOL    HW210308   6.430   6.461   5.430
 3137SOL     OW10309   5.277   0.608   3.548
 3137SOL    HW110310   5.307   0.513   3.534
 3137SOL    HW210311   5.296   0.634   3.643
 3138SOL     OW10312   6.614   1.877   4.182
 3138SOL    HW110313   6.652   1.872   4.274
 3138SOL    HW210314   6.687   1.868   4.114
 3139SOL     OW10315   4.942   0.075   6.306
 3139SOL    HW110316   4.878   7.028   6.303
 3139SOL    HW210317   4.893   0.160   6.324
 3140SOL     OW10318   6.290   6.118   6.008
 3140SOL    HW110319   6.204   6.119   6.058
 3140SOL    HW210320   6.291   6.194   5.943
 3141SOL     OW10321   0.797   6.870   6.053
 3141SOL    HW110322   0.833   6.903   5.965
 3141SOL    HW210323   0.705   6.907   6.066
 3142SOL     OW10324   5.064   6.220   0.760
 3142SOL    HW110325   5.091   6.185   0.850
 3142SOL    HW210326   5.001   6.156   0.716
 3143SOL     OW10327   6.771   2.514   0.054
 3143SOL    HW110328   6.819   2.429   0.034
 3143SOL    HW210329   6.775   2.532   0.153
 3144SOL     OW10330   2.788   3.790   0.885
 3144SOL    HW110331   2.772   3.692   0.894
 3144SOL    HW210332   2.760   3.836   0.970
 3145SOL     OW10333   2.226   5.414   2.795
 3145SOL    HW110334   2.218   5.404   2.696
 3145SOL    HW210335   2.307   5.470   2.816
 3146SOL     OW10336   1.120   6.426   3.238
 3146SOL    HW110337   1.038   6.474   3.209
 3146SOL    HW210338   1.198   6.459   3.184
 3147SOL     OW10339   4.177   5.354   6.440
 3147SOL    HW110340   4.263   5.373   6.394
 3147SOL    HW210341   4.117   5.434   6.432
 3148SOL     OW10342   4.319   5.479   4.163
 3148SOL    HW110343   4.269   5.515   4.085
 3148SOL    HW210344   4.272   5.397   4.198
 3149SOL     OW10345   3.011   0.394   5.266
 3149SOL    HW110346   3.035   0.422   5.173
 3149SOL    HW210347   3.045   0.301   5.283
 3150SOL     OW10348   5.386   5.769   4.358
 3150SOL    HW110349   5.318   5.698   4.339
 3150SOL    HW210350   5.440   5.742   4.437
 3151SOL     OW10351   4.571   1.529   6.837
 3151SOL    HW110352   4.666   1.502   6.819
 3151SOL    HW210353   4.565   1.575   6.925
 3152SOL     OW10354   1.551   5.128   1.504
 3152SOL    HW110355   1.606   5.075   1.567
 3152SOL    HW210356   1.610   5.182   1.444
 3153SOL     OW10357   6.471   4.477   2.031
 3153SOL    HW110358   6.536   4.445   1.962
 3153SOL    HW210359   6.494   4.436   2.120
 3154SOL     OW10360   6.125   1.785   0.291
 3154SOL    HW110361   6.125   1.725   0.371
 3154SOL    HW210362   6.035   1.827   0.280
 3155SOL     OW10363   0.274   5.165   1.315
 3155SOL    HW110364   0.203   5.096   1.311
 3155SOL    HW210365   0.340   5.141   1.387
 3156SOL     OW10366   3.757   3.243   3.846
 3156SOL    HW110367   3.693   3.274   3.775
 3156SOL    HW210368   3.802   3.159   3.817
 3157SOL     OW10369   1.986   3.102   5.055
 3157SOL    HW110370   1.994   3.041   4.975
 3157SOL    HW210371   2.060   3.083   5.119
 3158SOL     OW10372   4.372   0.451   1.240
 3158SOL    HW110373   4.415   0.433   1.151
 3158SOL    HW210374   4.389   0.547   1.266
 3159SOL     OW10375   5.003   6.450   6.867
 3159SOL    HW110376   4.985   6.547   6.849
 3159SOL    HW210377   5.029   6.405   6.781
 3160SOL     OW10378   6.068   5.334   6.086
 3160SOL    HW110379   6.153   5.350   6.037
 3160SOL    HW210380   6.060   5.399   6.162
 3161SOL     OW10381   1.293   1.301   2.560
 3161SOL    HW110382   1.385   1.267   2.543
 3161SOL    HW210383   1.226   1.239   2.519
 3162SOL     OW10384   0.356   5.170   0.239
 3162SOL    HW110385   0.372   5.072   0.249
 3162SOL    HW210386   0.442   5.220   0.249
 3163SOL     OW10387   3.537   2.781   6.153
 3163SOL    HW110388   3.484   2.834   6.219
 3163SOL    HW210389   3.544   2.686   6.184
 3164SOL     OW10390   4.509   3.959   1.316
 3164SOL    HW110391   4.567   4.040   1.313
 3164SOL    HW210392   4.489   3.936   1.412
 3165SOL     OW10393   1.714   6.421   1.501
 3165SOL    HW110394   1.785   6.356   1.527
 3165SOL    HW210395   1.625   6.376   1.502
 3166SOL     OW10396   4.541   2.528   6.493
 3166SOL    HW110397   4.639   2.537   6.480
 3166SOL    HW210398   4.507   2.606   6.547
 3167SOL     OW10399   6.501   4.969   2.031
 3167SOL    HW110400   6.436   4.893   2.030
 3167SOL    HW210401   6.509   5.005   2.124
 3168SOL     OW10402   5.108   2.900   0.425
 3168SOL    HW110403   5.086   2.821   0.482
 3168SOL    HW210404   5.113   2.982   0.482
 3169SOL     OW10405   0.835   3.469   6.077
 3169SOL    HW110406   0.825   3.468   6.177
 3169SOL    HW210407   0.805   3.557   6.042
 3170SOL     OW10408   3.974   0.142   0.086
 3170SOL    HW110409   3.987   0.090   0.001
 3170SOL    HW210410   3.914   0.091   0.147
 3171SOL     OW10411   6.818   6.545   1.457
 3171SOL    HW110412   6.878   6.625   1.454
 3171SOL    HW210413   6.783   6.526   1.366
 3172SOL     OW10414   6.966   6.107   4.910
 3172SOL    HW110415   6.964   6.205   4.931
 3172SOL    HW210416   0.023   6.084   4.866
 3173SOL     OW10417   2.772   0.879   1.439
 3173SOL    HW110418   2.805   0.849   1.528
 3173SOL    HW210419   2.731   0.802   1.390
 3174SOL     OW10420   2.616   3.043   6.478
 3174SOL    HW110421   2.566   3.117   6.433
 3174SOL    HW210422   2.588   3.038   6.574
 3175SOL     OW10423   0.689   6.744   6.680
 3175SOL    HW110424   0.700   6.645   6.683
 3175SOL    HW210425   0.771   6.786   6.640
 3176SOL     OW10426   1.926   4.912   5.721
 3176SOL    HW110427   2.026   4.918   5.725
 3176SOL    HW210428   1.892   4.968   5.645
 3177SOL     OW10429   5.694   5.516   5.803
 3177SOL    HW110430   5.720   5.443   5.867
 3177SOL    HW210431   5.734   5.602   5.833
 3178SOL     OW10432   6.775   3.750   1.736
 3178SOL    HW110433   6.830   3.829   1.762
 3178SOL    HW210434   6.700   3.739   1.801
 3179SOL     OW10435   2.064   2.145   2.096
 3179SOL    HW110436   1.994   2.104   2.155
 3179SOL    HW210437   2.055   2.245   2.097
 3180SOL     OW10438   4.308   0.880   6.138
 3180SOL    HW110439   4.216   0.845   6.123
 3180SOL    HW210440   4.304   0.980   6.148
 3181SOL     OW10441   0.649   0.530   3.549
 3181SOL    HW110442   0.733   0.530   3.495
 3181SOL    HW210443   0.582   0.592   3.507
 3182SOL     OW10444   0.726   0.566   5.303
 3182SOL    HW110445   0.732   0.555   5.402
 3182SOL    HW210446   0.816   0.547   5.262
 3183SOL     OW10447   4.003   4.564   1.359
 3183SOL    HW110448   3.911   4.583   1.393
 3183SOL    HW210449   3.998   4.529   1.265
 3184SOL     OW10450   2.660   1.872   2.193
 3184SOL    HW110451   2.720   1.885   2.114
 3184SOL    HW210452   2.713   1.884   2.277
 3185SOL     OW10453   6.632   0.660   5.584
 3185SOL    HW110454   6.664   0.582   5.638
 3185SOL    HW210455   6.553   0.632   5.529
 3186SOL     OW10456   3.436   1.161   3.387
 3186SOL    HW110457   3.423   1.127   3.480
 3186SOL    HW210458   3.362   1.225   3.364
 3187SOL     OW10459   4.026   4.107   6.815
 3187SOL    HW110460   4.086   4.052   6.874
 3187SOL    HW210461   3.942   4.056   6.796
 3188SOL     OW10462   3.612   5.862   2.799
 3188SOL    HW110463   3.699   5.908   2.818
 3188SOL    HW210464   3.547   5.883   2.872
 3189SOL     OW10465   2.226   1.437   3.109
 3189SOL    HW110466   2.282   1.495   3.169
 3189SOL    HW210467   2.150   1.491   3.072
 3190SOL     OW10468   1.185   6.547   0.965
 3190SOL    HW110469   1.180   6.447   0.966
 3190SOL    HW210470   1.092   6.584   0.973
 3191SOL     OW10471   3.500   0.594   1.450
 3191SOL    HW110472   3.594   0.593   1.484
 3191SOL    HW210473   3.450   0.670   1.490
 3192SOL     OW10474   0.596   2.019   1.073
 3192SOL    HW110475   0.587   2.062   1.163
 3192SOL    HW210476   0.688   1.980   1.064
 3193SOL     OW10477   4.422   2.415   5.777
 3193SOL    HW110478   4.436   2.436   5.680
 3193SOL    HW210479   4.335   2.366   5.788
 3194SOL     OW10480   1.381   2.979   6.748
 3194SOL    HW110481   1.385   2.894   6.801
 3194SOL    HW210482   1.463   3.033   6.766
 3195SOL     OW10483   1.606   2.270   3.646
 3195SOL    HW110484   1.645   2.306   3.562
 3195SOL    HW210485   1.506   2.279   3.643
 3196SOL     OW10486   6.860   0.302   5.097
 3196SOL    HW110487   6.775   0.321   5.147
 3196SOL    HW210488   6.935   0.294   5.162
 3197SOL     OW10489   1.388   5.793   2.514
 3197SOL    HW110490   1.322   5.858   2.552
 3197SOL    HW210491   1.472   5.842   2.489
 3198SOL     OW10492   6.710   1.634   6.822
 3198SOL    HW110493   6.656   1.711   6.788
 3198SOL    HW210494   6.807   1.656   6.816
 3199SOL     OW10495   4.633   2.307   1.814
 3199SOL    HW110496   4.641   2.367   1.893
 3199SOL    HW210497   4.537   2.305   1.783
 3200SOL     OW10498   0.139   2.872   1.060
 3200SOL    HW110499   0.239   2.870   1.055
 3200SOL    HW210500   0.107   2.805   1.127
 3201SOL     OW10501   5.122   3.530   3.870
 3201SOL    HW110502   5.201   3.533   3.809
 3201SOL    HW210503   5.151   3.496   3.960
 3202SOL     OW10504   1.889   4.381   2.252
 3202SOL    HW110505   1.918   4.376   2.348
 3202SOL    HW210506   1.800   4.336   2.242
 3203SOL     OW10507   6.187   0.890   1.030
 3203SOL    HW110508   6.164   0.980   0.992
 3203SOL    HW210509   6.137   0.876   1.115
 3204SOL     OW10510   5.765   5.370   1.407
 3204SOL    HW110511   5.814   5.380   1.494
 3204SOL    HW210512   5.680   5.319   1.423
 3205SOL     OW10513   6.956   4.618   6.690
 3205SOL    HW110514   6.935   4.569   6.606
 3205SOL    HW210515   0.001   4.572   6.739
 3206SOL     OW10516   0.226   0.110   5.613
 3206SOL    HW110517   0.133   0.130   5.645
 3206SOL    HW210518   0.225   0.092   5.515
 3207SOL     OW10519   0.520   1.324   5.469
 3207SOL    HW110520   0.541   1.294   5.562
 3207SOL    HW210521   0.483   1.417   5.471
 3208SOL     OW10522   4.546   5.970   5.140
 3208SOL    HW110523   4.500   6.023   5.211
 3208SOL    HW210524   4.643   5.960   5.163
 3209SOL     OW10525   3.181   6.546   3.801
 3209SOL    HW110526   3.204   6.530   3.705
 3209SOL    HW210527   3.175   6.645   3.817
 3210SOL     OW10528   0.512   3.471   2.647
 3210SOL    HW110529   0.506   3.422   2.734
 3210SOL    HW210530   0.476   3.563   2.658
 3211SOL     OW10531   2.549   4.108   0.724
 3211SOL    HW110532   2.587   4.189   0.769
 3211SOL    HW210533   2.499   4.136   0.642
 3212SOL     OW10534   4.497   2.021   6.434
 3212SOL    HW110535   4.502   2.118   6.409
 3212SOL    HW210536   4.402   1.991   6.430
 3213SOL     OW10537   6.202   5.294   3.010
 3213SOL    HW110538   6.113   5.335   3.028
 3213SOL    HW210539   6.196   5.232   2.931
 3214SOL     OW10540   4.474   6.148   0.091
 3214SOL    HW110541   4.450   6.147   7.023
 3214SOL    HW210542   4.561   6.197   0.103
 3215SOL     OW10543   6.473   2.891   0.950
 3215SOL    HW110544   6.390   2.854   0.991
 3215SOL    HW210545   6.507   2.967   1.005
 3216SOL     OW10546   5.706   5.885   3.180
 3216SOL    HW110547   5.642   5.957   3.155
 3216SOL    HW210548   5.800   5.919   3.174
 3217SOL     OW10549   1.298   4.597   3.342
 3217SOL    HW110550   1.371   4.608   3.409
 3217SOL    HW210551   1.282   4.684   3.295
 3218SOL     OW10552   4.151   6.778   3.577
 3218SOL    HW110553   4.143   6.877   3.564
 3218SOL    HW210554   4.082   6.748   3.643
 3219SOL     OW10555   6.811   0.415   3.240
 3219SOL    HW110556   6.774   0.506   3.225
 3219SOL    HW210557   6.838   0.375   3.152
 3220SOL     OW10558   6.870   4.748   4.882
 3220SOL    HW110559   6.811   4.719   4.957
 3220SOL    HW210560   6.879   4.673   4.816
 3221SOL     OW10561   2.686   5.978   2.597
 3221SOL    HW110562   2.615   5.926   2.548
 3221SOL    HW210563   2.774   5.932   2.587
 3222SOL     OW10564   4.979   1.656   3.033
 3222SOL    HW110565   4.891   1.666   3.080
 3222SOL    HW210566   5.015   1.564   3.051
 3223SOL     OW10567   2.931   5.012   6.772
 3223SOL    HW110568   2.922   5.111   6.781
 3223SOL    HW210569   3.028   4.988   6.762
 3224SOL     OW10570   4.546   5.313   6.511
 3224SOL    HW110571   4.542   5.303   6.610
 3224SOL    HW210572   4.532   5.224   6.468
 3225SOL     OW10573   4.513   3.257   6.467
 3225SOL    HW110574   4.538   3.199   6.545
 3225SOL    HW210575   4.440   3.213   6.415
 3226SOL     OW10576   2.329   0.936   4.216
 3226SOL    HW110577   2.337   0.992   4.134
 3226SOL    HW210578   2.402   0.959   4.280
 3227SOL     OW10579   3.486   2.092   6.703
 3227SOL    HW110580   3.428   2.170   6.678
 3227SOL    HW210581   3.456   2.011   6.654
 3228SOL     OW10582   6.445   3.284   4.100
 3228SOL    HW110583   6.529   3.300   4.049
 3228SOL    HW210584   6.405   3.197   4.072
 3229SOL     OW10585   3.393   2.234   5.909
 3229SOL    HW110586   3.342   2.312   5.873
 3229SOL    HW210587   3.468   2.266   5.967
 3230SOL     OW10588   0.295   1.388   3.371
 3230SOL    HW110589   0.256   1.466   3.322
 3230SOL    HW210590   0.341   1.421   3.454
 3231SOL     OW10591   4.864   5.873   1.226
 3231SOL    HW110592   4.884   5.819   1.144
 3231SOL    HW210593   4.870   5.814   1.306
 3232SOL     OW10594   4.067   4.921   4.924
 3232SOL    HW110595   4.084   4.896   5.019
 3232SOL    HW210596   4.042   5.018   4.919
 3233SOL     OW10597   0.885   4.336   1.432
 3233SOL    HW110598   0.827   4.254   1.428
 3233SOL    HW210599   0.915   4.360   1.340
 3234SOL     OW10600   0.037   2.368   0.470
 3234SOL    HW110601   6.971   2.376   0.498
 3234SOL    HW210602   0.096   2.394   0.546
 3235SOL     OW10603   5.871   6.464   2.882
 3235SOL    HW110604   5.849   6.481   2.786
 3235SOL    HW210605   5.969   6.476   2.896
 3236SOL     OW10606   1.715   2.964   2.017
 3236SOL    HW110607   1.709   2.867   1.994
 3236SOL    HW210608   1.810   2.989   2.034
 3237SOL     OW10609   5.112   6.689   4.561
 3237SOL    HW110610   5.037   6.730   4.613
 3237SOL    HW210611   5.079   6.661   4.471
 3238SOL     OW10612   0.539   5.968   0.035
 3238SOL    HW110613   0.548   5.869   0.021
 3238SOL    HW210614   0.570   6.016   6.983
 3239SOL     OW10615   6.303   0.589   6.880
 3239SOL    HW110616   6.308   0.492   6.858
 3239SOL    HW210617   6.231   0.632   6.826
 3240SOL     OW10618   0.336   6.629   4.644
 3240SOL    HW110619   0.236   6.639   4.651
 3240SOL    HW210620   0.378   6.719   4.642
 3241SOL     OW10621   4.769   1.139   4.111
 3241SOL    HW110622   4.672   1.124   4.130
 3241SOL    HW210623   4.824   1.114   4.191
 3242SOL     OW10624   3.766   5.660   0.054
 3242SOL    HW110625   3.725   5.700   0.136
 3242SOL    HW210626   3.838   5.721   0.020
 3243SOL     OW10627   4.939   5.070   6.891
 3243SOL    HW110628   4.848   5.099   6.921
 3243SOL    HW210629   4.940   4.970   6.882
 3244SOL     OW10630   4.681   5.984   5.959
 3244SOL    HW110631   4.755   5.919   5.981
 3244SOL    HW210632   4.662   6.041   6.039
 3245SOL     OW10633   4.115   3.260   6.326
 3245SOL    HW110634   4.194   3.199   6.328
 3245SOL    HW210635   4.033   3.209   6.354
 3246SOL     OW10636   5.605   0.095   2.325
 3246SOL    HW110637   5.663   0.169   2.358
 3246SOL    HW210638   5.536   0.131   2.263
 3247SOL     OW10639   0.280   3.677   3.647
 3247SOL    HW110640   0.224   3.608   3.601
 3247SOL    HW210641   0.376   3.663   3.624
 3248SOL     OW10642   6.263   3.914   2.167
 3248SOL    HW110643   6.202   3.853   2.115
 3248SOL    HW210644   6.350   3.923   2.118
 3249SOL     OW10645   3.502   4.577   5.358
 3249SOL    HW110646   3.586   4.630   5.352
 3249SOL    HW210647   3.431   4.621   5.303
 3250SOL     OW10648   5.292   6.512   2.805
 3250SOL    HW110649   5.223   6.572   2.845
 3250SOL    HW210650   5.332   6.455   2.877
 3251SOL     OW10651   4.034   1.461   2.965
 3251SOL    HW110652   4.011   1.437   3.060
 3251SOL    HW210653   4.132   1.478   2.958
 3252SOL     OW10654   3.422   1.168   2.944
 3252SOL    HW110655   3.440   1.204   2.852
 3252SOL    HW210656   3.323   1.159   2.957
 3253SOL     OW10657   4.490   3.034   1.412
 3253SOL    HW110658   4.402   3.012   1.454
 3253SOL    HW210659   4.517   3.127   1.437
 3254SOL     OW10660   3.681   4.881   3.915
 3254SOL    HW110661   3.660   4.793   3.873
 3254SOL    HW210662   3.717   4.866   4.007
 3255SOL     OW10663   4.740   5.666   0.516
 3255SOL    HW110664   4.793   5.615   0.449
 3255SOL    HW210665   4.704   5.602   0.585
 3256SOL     OW10666   5.613   6.435   5.607
 3256SOL    HW110667   5.706   6.461   5.579
 3256SOL    HW210668   5.614   6.402   5.701
 3257SOL     OW10669   1.583   2.035   0.958
 3257SOL    HW110670   1.683   2.034   0.953
 3257SOL    HW210671   1.548   1.946   0.931
 3258SOL     OW10672   5.065   6.657   1.551
 3258SOL    HW110673   5.047   6.686   1.645
 3258SOL    HW210674   5.112   6.730   1.502
 3259SOL     OW10675   4.130   5.989   4.305
 3259SOL    HW110676   4.212   5.975   4.248
 3259SOL    HW210677   4.151   5.967   4.400
 3260SOL     OW10678   1.740   1.168   0.445
 3260SOL    HW110679   1.690   1.236   0.499
 3260SOL    HW210680   1.778   1.099   0.506
 3261SOL     OW10681   3.930   0.168   0.801
 3261SOL    HW110682   3.884   0.191   0.887
 3261SOL    HW210683   4.012   0.115   0.821
 3262SOL     OW10684   3.315   1.575   3.541
 3262SOL    HW110685   3.218   1.597   3.538
 3262SOL    HW210686   3.368   1.653   3.508
 3263SOL     OW10687   4.187   6.791   2.926
 3263SOL    HW110688   4.266   6.763   2.871
 3263SOL    HW210689   4.190   6.890   2.940
 3264SOL     OW10690   6.958   5.758   0.208
 3264SOL    HW110691   6.969   5.847   0.164
 3264SOL    HW210692   0.004   5.743   0.271
 3265SOL     OW10693   3.920   2.279   6.594
 3265SOL    HW110694   3.979   2.232   6.529
 3265SOL    HW210695   3.861   2.212   6.640
 3266SOL     OW10696   6.770   2.954   0.103
 3266SOL    HW110697   6.830   2.898   0.047
 3266SOL    HW210698   6.719   3.018   0.045
 3267SOL     OW10699   3.321   2.103   1.176
 3267SOL    HW110700   3.326   2.059   1.265
 3267SOL    HW210701   3.238   2.073   1.128
 3268SOL     OW10702   1.533   4.418   0.385
 3268SOL    HW110703   1.598   4.365   0.440
 3268SOL    HW210704   1.480   4.356   0.327
 3269SOL     OW10705   4.592   4.877   1.410
 3269SOL    HW110706   4.684   4.840   1.398
 3269SOL    HW210707   4.546   4.883   1.322
 3270SOL     OW10708   0.452   5.497   3.639
 3270SOL    HW110709   0.366   5.482   3.686
 3270SOL    HW210710   0.516   5.543   3.700
 3271SOL     OW10711   5.911   2.378   2.524
 3271SOL    HW110712   5.962   2.314   2.581
 3271SOL    HW210713   5.915   2.349   2.429
 3272SOL     OW10714   3.719   0.428   0.248
 3272SOL    HW110715   3.701   0.408   0.152
 3272SOL    HW210716   3.686   0.352   0.304
 3273SOL     OW10717   1.139   6.211   2.056
 3273SOL    HW110718   1.105   6.249   1.971
 3273SOL    HW210719   1.165   6.115   2.042
 3274SOL     OW10720   2.873   1.863   5.617
 3274SOL    HW110721   2.821   1.946   5.598
 3274SOL    HW210722   2.937   1.844   5.542
 3275SOL     OW10723   1.986   0.272   6.679
 3275SOL    HW110724   2.038   0.188   6.690
 3275SOL    HW210725   1.965   0.311   6.769
 3276SOL     OW10726   3.212   5.232   6.714
 3276SOL    HW110727   3.302   5.229   6.671
 3276SOL    HW210728   3.191   5.143   6.753
 3277SOL     OW10729   6.879   6.733   6.150
 3277SOL    HW110730   6.797   6.678   6.133
 3277SOL    HW210731   6.862   6.827   6.119
 3278SOL     OW10732   0.645   1.052   5.315
 3278SOL    HW110733   0.551   1.026   5.334
 3278SOL    HW210734   0.651   1.150   5.299
 3279SOL     OW10735   0.149   0.004   0.906
 3279SOL    HW110736   0.095   0.044   0.832
 3279SOL    HW210737   0.245   0.000   0.880
 3280SOL     OW10738   2.901   4.944   6.505
 3280SOL    HW110739   2.806   4.916   6.522
 3280SOL    HW210740   2.944   4.968   6.592
 3281SOL     OW10741   2.307   5.175   0.387
 3281SOL    HW110742   2.219   5.217   0.366
 3281SOL    HW210743   2.351   5.146   0.303
 3282SOL     OW10744   2.634   5.820   4.565
 3282SOL    HW110745   2.567   5.876   4.516
 3282SOL    HW210746   2.604   5.725   4.567
 3283SOL     OW10747   3.206   1.357   3.397
 3283SOL    HW110748   3.246   1.418   3.466
 3283SOL    HW210749   3.195   1.407   3.311
 3284SOL     OW10750   0.578   6.232   6.619
 3284SOL    HW110751   0.486   6.220   6.583
 3284SOL    HW210752   0.642   6.175   6.568
 3285SOL     OW10753   0.076   2.871   2.852
 3285SOL    HW110754   0.050   2.967   2.849
 3285SOL    HW210755   0.012   2.821   2.910
 3286SOL     OW10756   3.881   3.518   4.600
 3286SOL    HW110757   3.868   3.523   4.501
 3286SOL    HW210758   3.906   3.425   4.626
 3287SOL     OW10759   2.069   5.444   0.030
 3287SOL    HW110760   1.975   5.454   7.025
 3287SOL    HW210761   2.067   5.425   0.128
 3288SOL     OW10762   1.032   6.041   6.606
 3288SOL    HW110763   1.093   6.103   6.656
 3288SOL    HW210764   1.084   5.960   6.576
 3289SOL     OW10765   0.825   5.776   5.302
 3289SOL    HW110766   0.771   5.804   5.222
 3289SOL    HW210767   0.770   5.714   5.358
 3290SOL     OW10768   0.170   5.954   1.364
 3290SOL    HW110769   0.084   5.912   1.337
 3290SOL    HW210770   0.177   5.953   1.464
 3291SOL     OW10771   1.894   6.291   6.398
 3291SOL    HW110772   1.946   6.207   6.415
 3291SOL    HW210773   1.939   6.343   6.324
 3292SOL     OW10774   0.034   0.412   6.405
 3292SOL    HW110775   0.059   0.470   6.327
 3292SOL    HW210776   0.117   0.378   6.449
 3293SOL     OW10777   6.928   1.090   3.207
 3293SOL    HW110778   6.980   1.149   3.269
 3293SOL    HW210779   6.973   1.001   3.200
 3294SOL     OW10780   6.588   0.419   6.290
 3294SOL    HW110781   6.615   0.358   6.365
 3294SOL    HW210782   6.668   0.471   6.260
 3295SOL     OW10783   2.688   2.259   0.865
 3295SOL    HW110784   2.737   2.213   0.792
 3295SOL    HW210785   2.747   2.329   0.906
 3296SOL     OW10786   2.285   0.483   2.515
 3296SOL    HW110787   2.385   0.477   2.512
 3296SOL    HW210788   2.252   0.527   2.432
 3297SOL     OW10789   2.976   2.409   5.334
 3297SOL    HW110790   3.060   2.394   5.281
 3297SOL    HW210791   2.960   2.331   5.395
 3298SOL     OW10792   6.780   3.578   3.167
 3298SOL    HW110793   6.873   3.541   3.168
 3298SOL    HW210794   6.752   3.596   3.073
 3299SOL     OW10795   1.393   0.164   4.866
 3299SOL    HW110796   1.395   0.263   4.881
 3299SOL    HW210797   1.369   0.118   4.951
 3300SOL     OW10798   6.204   6.878   4.976
 3300SOL    HW110799   6.202   6.836   4.885
 3300SOL    HW210800   6.246   6.814   5.041
 3301SOL     OW10801   1.082   4.170   3.538
 3301SOL    HW110802   1.155   4.111   3.574
 3301SOL    HW210803   1.046   4.130   3.454
 3302SOL     OW10804   1.282   5.408   4.401
 3302SOL    HW110805   1.340   5.488   4.412
 3302SOL    HW210806   1.305   5.340   4.471
 3303SOL     OW10807   3.278   2.955   3.169
 3303SOL    HW110808   3.185   2.956   3.132
 3303SOL    HW210809   3.278   2.912   3.259
 3304SOL     OW10810   1.021   5.681   3.680
 3304SOL    HW110811   1.018   5.587   3.645
 3304SOL    HW210812   0.943   5.732   3.645
 3305SOL     OW10813   1.636   1.219   1.972
 3305SOL    HW110814   1.676   1.173   1.893
 3305SOL    HW210815   1.671   1.179   2.056
 3306SOL     OW10816   2.213   4.039   3.408
 3306SOL    HW110817   2.245   4.123   3.452
 3306SOL    HW210818   2.133   4.004   3.457
 3307SOL     OW10819   0.010   5.968   0.545
 3307SOL    HW110820   6.969   6.039   0.537
 3307SOL    HW210821   0.006   5.907   0.466
 3308SOL     OW10822   4.238   6.242   0.508
 3308SOL    HW110823   4.228   6.341   0.496
 3308SOL    HW210824   4.332   6.221   0.535
 3309SOL     OW10825   1.659   5.212   3.615
 3309SOL    HW110826   1.731   5.164   3.665
 3309SOL    HW210827   1.698   5.291   3.568
 3310SOL     OW10828   0.403   4.227   3.124
 3310SOL    HW110829   0.494   4.199   3.095
 3310SOL    HW210830   0.384   4.319   3.090
 3311SOL     OW10831   3.671   6.152   1.339
 3311SOL    HW110832   3.586   6.176   1.385
 3311SOL    HW210833   3.653   6.134   1.242
 3312SOL     OW10834   2.918   4.127   5.890
 3312SOL    HW110835   2.951   4.113   5.796
 3312SOL    HW210836   2.988   4.174   5.943
 3313SOL     OW10837   1.295   5.493   3.439
 3313SOL    HW110838   1.263   5.431   3.368
 3313SOL    HW210839   1.243   5.579   3.435
 3314SOL     OW10840   1.647   3.175   5.399
 3314SOL    HW110841   1.568   3.233   5.420
 3314SOL    HW210842   1.715   3.183   5.471
 3315SOL     OW10843   6.718   2.538   4.042
 3315SOL    HW110844   6.642   2.546   4.107
 3315SOL    HW210845   6.684   2.497   3.957
 3316SOL     OW10846   4.556   2.261   6.093
 3316SOL    HW110847   4.496   2.185   6.117
 3316SOL    HW210848   4.556   2.275   5.994
 3317SOL     OW10849   4.415   2.845   1.735
 3317SOL    HW110850   4.458   2.923   1.781
 3317SOL    HW210851   4.401   2.866   1.639
 3318SOL     OW10852   2.665   5.853   6.186
 3318SOL    HW110853   2.637   5.891   6.098
 3318SOL    HW210854   2.587   5.855   6.249
 3319SOL     OW10855   0.658   6.582   4.180
 3319SOL    HW110856   0.697   6.561   4.090
 3319SOL    HW210857   0.562   6.553   4.181
 3320SOL     OW10858   5.871   1.572   5.679
 3320SOL    HW110859   5.827   1.537   5.762
 3320SOL    HW210860   5.878   1.499   5.611
 3321SOL     OW10861   3.587   3.072   2.446
 3321SOL    HW110862   3.602   2.993   2.386
 3321SOL    HW210863   3.502   3.060   2.497
 3322SOL     OW10864   4.225   1.931   0.359
 3322SOL    HW110865   4.178   1.932   0.447
 3322SOL    HW210866   4.161   1.900   0.288
 3323SOL     OW10867   2.035   4.210   6.430
 3323SOL    HW110868   2.058   4.306   6.415
 3323SOL    HW210869   2.025   4.193   6.528
 3324SOL     OW10870   0.974   3.955   0.585
 3324SOL    HW110871   0.926   3.963   0.497
 3324SOL    HW210872   0.988   3.859   0.607
 3325SOL     OW10873   1.626   2.750   0.335
 3325SOL    HW110874   1.578   2.671   0.373
 3325SOL    HW210875   1.723   2.730   0.326
 3326SOL     OW10876   5.917   2.139   1.414
 3326SOL    HW110877   5.850   2.066   1.413
 3326SOL    HW210878   5.999   2.110   1.366
 3327SOL     OW10879   2.431   6.612   2.227
 3327SOL    HW110880   2.477   6.693   2.192
 3327SOL    HW210881   2.424   6.543   2.155
 3328SOL     OW10882   4.716   0.804   2.050
 3328SOL    HW110883   4.633   0.804   2.105
 3328SOL    HW210884   4.769   0.887   2.069
 3329SOL     OW10885   4.043   0.794   5.485
 3329SOL    HW110886   4.032   0.704   5.528
 3329SOL    HW210887   3.966   0.811   5.424
 3330SOL     OW10888   5.874   6.883   2.205
 3330SOL    HW110889   5.862   6.942   2.126
 3330SOL    HW210890   5.965   6.841   2.203
 3331SOL     OW10891   1.837   3.410   3.068
 3331SOL    HW110892   1.919   3.434   3.121
 3331SOL    HW210893   1.824   3.478   2.996
 3332SOL     OW10894   4.708   5.186   6.983
 3332SOL    HW110895   4.622   5.234   6.965
 3332SOL    HW210896   4.690   5.107   0.012
 3333SOL     OW10897   3.246   3.242   1.344
 3333SOL    HW110898   3.295   3.219   1.260
 3333SOL    HW210899   3.210   3.159   1.386
 3334SOL     OW10900   2.017   2.552   2.688
 3334SOL    HW110901   2.116   2.563   2.681
 3334SOL    HW210902   1.976   2.561   2.598
 3335SOL     OW10903   3.329   4.284   5.677
 3335SOL    HW110904   3.324   4.213   5.606
 3335SOL    HW210905   3.363   4.368   5.637
 3336SOL     OW10906   3.151   0.006   4.090
 3336SOL    HW110907   3.100   6.978   4.154
 3336SOL    HW210908   3.095   0.084   4.063
 3337SOL     OW10909   3.239   3.530   2.542
 3337SOL    HW110910   3.172   3.588   2.588
 3337SOL    HW210911   3.225   3.435   2.569
 3338SOL     OW10912   1.467   1.622   1.422
 3338SOL    HW110913   1.447   1.525   1.413
 3338SOL    HW210914   1.439   1.670   1.338
 3339SOL     OW10915   2.069   0.315   5.567
 3339SOL    HW110916   2.069   0.409   5.531
 3339SOL    HW210917   2.155   0.299   5.615
 3340SOL     OW10918   4.421   1.194   3.555
 3340SOL    HW110919   4.375   1.265   3.607
 3340SOL    HW210920   4.375   1.106   3.570
 3341SOL     OW10921   2.624   4.591   2.357
 3341SOL    HW110922   2.706   4.632   2.316
 3341SOL    HW210923   2.555   4.576   2.287
 3342SOL     OW10924   5.993   0.216   3.078
 3342SOL    HW110925   6.054   0.295   3.070
 3342SOL    HW210926   5.899   0.247   3.088
 3343SOL     OW10927   5.069   5.490   6.822
 3343SOL    HW110928   5.141   5.500   6.753
 3343SOL    HW210929   5.083   5.405   6.873
 3344SOL     OW10930   0.044   2.506   1.559
 3344SOL    HW110931   0.073   2.438   1.626
 3344SOL    HW210932   6.978   2.491   1.535
 3345SOL     OW10933   0.684   4.325   0.935
 3345SOL    HW110934   0.772   4.371   0.924
 3345SOL    HW210935   0.663   4.274   0.852
 3346SOL     OW10936   2.871   0.729   6.586
 3346SOL    HW110937   2.804   0.733   6.513
 3346SOL    HW210938   2.963   0.725   6.547
 3347SOL     OW10939   0.659   3.133   6.361
 3347SOL    HW110940   0.562   3.109   6.368
 3347SOL    HW210941   0.689   3.175   6.447
 3348SOL     OW10942   3.842   3.575   6.497
 3348SOL    HW110943   3.937   3.605   6.503
 3348SOL    HW210944   3.797   3.623   6.422
 3349SOL     OW10945   2.404   4.566   3.864
 3349SOL    HW110946   2.354   4.587   3.948
 3349SOL    HW210947   2.413   4.650   3.810
 3350SOL     OW10948   0.274   4.063   5.398
 3350SOL    HW110949   0.317   4.078   5.487
 3350SOL    HW210950   0.177   4.087   5.404
 3351SOL     OW10951   5.309   0.450   0.852
 3351SOL    HW110952   5.371   0.437   0.930
 3351SOL    HW210953   5.259   0.365   0.836
 3352SOL     OW10954   5.517   2.313   7.014
 3352SOL    HW110955   5.616   2.322   7.010
 3352SOL    HW210956   5.493   2.219   0.010
 3353SOL     OW10957   2.270   0.882   1.531
 3353SOL    HW110958   2.310   0.973   1.518
 3353SOL    HW210959   2.242   0.872   1.626
 3354SOL     OW10960   4.143   3.141   5.527
 3354SOL    HW110961   4.137   3.210   5.600
 3354SOL    HW210962   4.082   3.167   5.452
 3355SOL     OW10963   1.951   1.492   5.121
 3355SOL    HW110964   1.920   1.399   5.102
 3355SOL    HW210965   1.901   1.530   5.199
 3356SOL     OW10966   1.304   6.578   6.081
 3356SOL    HW110967   1.338   6.594   5.988
 3356SOL    HW210968   1.374   6.531   6.134
 3357SOL     OW10969   2.926   3.413   2.209
 3357SOL    HW110970   2.912   3.510   2.192
 3357SOL    HW210971   2.921   3.362   2.123
 3358SOL     OW10972   5.914   1.362   2.745
 3358SOL    HW110973   5.997   1.409   2.714
 3358SOL    HW210974   5.937   1.267   2.768
 3359SOL     OW10975   0.402   5.691   4.060
 3359SOL    HW110976   0.354   5.759   4.004
 3359SOL    HW210977   0.337   5.647   4.121
 3360SOL     OW10978   7.029   2.839   5.638
 3360SOL    HW110979   6.979   2.869   5.556
 3360SOL    HW210980   6.984   2.876   5.720
 3361SOL     OW10981   0.180   0.611   4.229
 3361SOL    HW110982   0.162   0.600   4.132
 3361SOL    HW210983   0.254   0.677   4.242
 3362SOL     OW10984   3.731   2.023   4.055
 3362SOL    HW110985   3.708   1.935   4.095
 3362SOL    HW210986   3.805   2.065   4.108
 3363SOL     OW10987   6.264   2.767   1.109
 3363SOL    HW110988   6.208   2.835   1.062
 3363SOL    HW210989   6.217   2.738   1.193
 3364SOL     OW10990   1.932   4.527   3.091
 3364SOL    HW110991   2.006   4.554   3.029
 3364SOL    HW210992   1.964   4.531   3.185
 3365SOL     OW10993   2.003   3.401   4.913
 3365SOL    HW110994   2.001   3.307   4.945
 3365SOL    HW210995   2.024   3.462   4.989
 3366SOL     OW10996   0.224   3.457   4.793
 3366SOL    HW110997   0.208   3.550   4.759
 3366SOL    HW210998   0.298   3.459   4.861
 3367SOL     OW10999   3.447   3.334   4.422
 3367SOL    HW111000   3.416   3.428   4.405
 3367SOL    HW211001   3.541   3.324   4.390
 3368SOL     OW11002   1.995   6.050   6.564
 3368SOL    HW111003   1.966   5.964   6.606
 3368SOL    HW211004   2.026   6.113   6.635
 3369SOL     OW11005   4.138   1.729   1.335
 3369SOL    HW111006   4.131   1.693   1.429
 3369SOL    HW211007   4.168   1.656   1.274
 3370SOL     OW11008   0.037   5.679   1.705
 3370SOL    HW111009   0.021   5.775   1.680
 3370SOL    HW211010   0.107   5.640   1.646
 3371SOL     OW11011   2.134   3.311   2.970
 3371SOL    HW111012   2.182   3.223   2.964
 3371SOL    HW211013   2.035   3.295   2.965
 3372SOL     OW11014   6.856   2.808   1.067
 3372SOL    HW111015   6.945   2.777   1.100
 3372SOL    HW211016   6.795   2.825   1.145
 3373SOL     OW11017   6.892   1.410   1.763
 3373SOL    HW111018   6.976   1.447   1.723
 3373SOL    HW211019   6.912   1.328   1.815
 3374SOL     OW11020   0.803   6.991   3.417
 3374SOL    HW111021   0.821   0.060   3.422
 3374SOL    HW211022   0.721   6.975   3.363
 3375SOL     OW11023   6.664   5.293   6.962
 3375SOL    HW111024   6.677   5.382   6.919
 3375SOL    HW211025   6.727   5.284   0.010
 3376SOL     OW11026   2.403   3.556   5.532
 3376SOL    HW111027   2.386   3.618   5.455
 3376SOL    HW211028   2.421   3.464   5.497
 3377SOL     OW11029   6.409   4.892   3.597
 3377SOL    HW111030   6.316   4.917   3.624
 3377SOL    HW211031   6.456   4.972   3.560
 3378SOL     OW11032   1.217   6.801   6.917
 3378SOL    HW111033   1.270   6.850   6.847
 3378SOL    HW211034   1.205   6.860   6.997
 3379SOL     OW11035   1.025   3.300   4.612
 3379SOL    HW111036   1.043   3.221   4.555
 3379SOL    HW211037   0.998   3.377   4.555
 3380SOL     OW11038   3.658   4.388   5.811
 3380SOL    HW111039   3.612   4.300   5.817
 3380SOL    HW211040   3.591   4.462   5.814
 3381SOL     OW11041   1.130   3.104   1.361
 3381SOL    HW111042   1.114   3.077   1.266
 3381SOL    HW211043   1.150   3.023   1.416
 3382SOL     OW11044   7.014   2.410   1.052
 3382SOL    HW111045   6.994   2.422   0.954
 3382SOL    HW211046   6.957   2.337   1.089
 3383SOL     OW11047   3.542   4.981   0.231
 3383SOL    HW111048   3.488   4.923   0.169
 3383SOL    HW211049   3.484   5.010   0.307
 3384SOL     OW11050   3.197   4.295   0.639
 3384SOL    HW111051   3.191   4.195   0.635
 3384SOL    HW211052   3.206   4.324   0.735
 3385SOL     OW11053   0.250   2.287   3.767
 3385SOL    HW111054   0.208   2.318   3.852
 3385SOL    HW211055   0.253   2.363   3.702
 3386SOL     OW11056   6.845   4.867   6.743
 3386SOL    HW111057   6.748   4.848   6.733
 3386SOL    HW211058   6.898   4.790   6.707
 3387SOL     OW11059   5.769   0.603   2.963
 3387SOL    HW111060   5.818   0.521   2.932
 3387SOL    HW211061   5.834   0.678   2.977
 3388SOL     OW11062   5.110   3.869   1.355
 3388SOL    HW111063   5.206   3.869   1.382
 3388SOL    HW211064   5.091   3.949   1.299
 3389SOL     OW11065   6.066   6.234   0.476
 3389SOL    HW111066   5.983   6.180   0.467
 3389SOL    HW211067   6.145   6.181   0.443
 3390SOL     OW11068   3.543   6.791   5.869
 3390SOL    HW111069   3.585   6.701   5.856
 3390SOL    HW211070   3.552   6.845   5.785
 3391SOL     OW11071   5.646   3.234   3.440
 3391SOL    HW111072   5.697   3.284   3.510
 3391SOL    HW211073   5.642   3.137   3.464
 3392SOL     OW11074   4.209   0.126   4.931
 3392SOL    HW111075   4.190   0.127   4.832
 3392SOL    HW211076   4.271   0.051   4.952
 3393SOL     OW11077   4.878   0.121   0.932
 3393SOL    HW111078   4.933   0.048   0.891
 3393SOL    HW211079   4.937   0.183   0.984
 3394SOL     OW11080   3.704   5.613   0.970
 3394SOL    HW111081   3.700   5.514   0.986
 3394SOL    HW211082   3.642   5.637   0.895
 3395SOL     OW11083   4.205   0.309   3.396
 3395SOL    HW111084   4.297   0.347   3.390
 3395SOL    HW211085   4.152   0.339   3.317
 3396SOL     OW11086   5.557   1.987   3.659
 3396SOL    HW111087   5.489   1.925   3.620
 3396SOL    HW211088   5.550   1.986   3.758
 3397SOL     OW11089   2.605   5.604   6.506
 3397SOL    HW111090   2.589   5.699   6.535
 3397SOL    HW211091   2.675   5.602   6.435
 3398SOL     OW11092   0.310   1.909   5.516
 3398SOL    HW111093   0.275   1.964   5.592
 3398SOL    HW211094   0.340   1.820   5.550
 3399SOL     OW11095   0.562   4.825   3.229
 3399SOL    HW111096   0.653   4.865   3.221
 3399SOL    HW211097   0.567   4.741   3.283
 3400SOL     OW11098   5.551   2.686   5.295
 3400SOL    HW111099   5.536   2.657   5.201
 3400SOL    HW211100   5.517   2.615   5.357
 3401SOL     OW11101   6.572   3.821   6.323
 3401SOL    HW111102   6.550   3.746   6.385
 3401SOL    HW211103   6.496   3.836   6.260
 3402SOL     OW11104   6.691   4.914   0.983
 3402SOL    HW111105   6.698   4.987   1.052
 3402SOL    HW211106   6.596   4.905   0.954
 3403SOL     OW11107   4.721   6.461   6.062
 3403SOL    HW111108   4.811   6.461   6.019
 3403SOL    HW211109   4.731   6.478   6.160
 3404SOL     OW11110   4.883   3.314   5.939
 3404SOL    HW111111   4.970   3.361   5.927
 3404SOL    HW211112   4.890   3.248   6.014
 3405SOL     OW11113   4.840   6.395   5.702
 3405SOL    HW111114   4.798   6.475   5.745
 3405SOL    HW211115   4.939   6.404   5.703
 3406SOL     OW11116   2.178   3.897   2.216
 3406SOL    HW111117   2.145   3.916   2.308
 3406SOL    HW211118   2.160   3.802   2.193
 3407SOL     OW11119   2.075   3.727   0.968
 3407SOL    HW111120   2.075   3.630   0.992
 3407SOL    HW211121   2.071   3.782   1.051
 3408SOL     OW11122   4.768   2.416   3.707
 3408SOL    HW111123   4.839   2.358   3.747
 3408SOL    HW211124   4.773   2.507   3.748
 3409SOL     OW11125   4.334   0.504   0.616
 3409SOL    HW111126   4.267   0.576   0.600
 3409SOL    HW211127   4.408   0.540   0.672
 3410SOL     OW11128   5.609   6.851   2.272
 3410SOL    HW111129   5.694   6.812   2.236
 3410SOL    HW211130   5.618   6.951   2.275
 3411SOL     OW11131   6.628   1.529   1.212
 3411SOL    HW111132   6.653   1.579   1.295
 3411SOL    HW211133   6.710   1.510   1.159
 3412SOL     OW11134   5.244   3.474   1.658
 3412SOL    HW111135   5.162   3.511   1.614
 3412SOL    HW211136   5.217   3.420   1.738
 3413SOL     OW11137   6.905   1.898   6.828
 3413SOL    HW111138   6.867   1.915   6.919
 3413SOL    HW211139   6.893   1.979   6.771
 3414SOL     OW11140   4.182   2.859   0.538
 3414SOL    HW111141   4.226   2.769   0.537
 3414SOL    HW211142   4.251   2.930   0.525
 3415SOL     OW11143   2.325   2.443   4.268
 3415SOL    HW111144   2.304   2.526   4.218
 3415SOL    HW211145   2.422   2.442   4.292
 3416SOL     OW11146   6.313   6.944   0.137
 3416SOL    HW111147   6.396   6.900   0.102
 3416SOL    HW211148   6.275   6.889   0.211
 3417SOL     OW11149   0.198   0.152   3.248
 3417SOL    HW111150   0.279   0.133   3.193
 3417SOL    HW211151   0.122   0.097   3.213
 3418SOL     OW11152   4.581   4.899   2.532
 3418SOL    HW111153   4.646   4.917   2.606
 3418SOL    HW211154   4.570   4.981   2.476
 3419SOL     OW11155   3.247   5.280   6.396
 3419SOL    HW111156   3.260   5.198   6.341
 3419SOL    HW211157   3.326   5.294   6.455
 3420SOL     OW11158   4.722   2.883   3.825
 3420SOL    HW111159   4.654   2.824   3.781
 3420SOL    HW211160   4.743   2.961   3.766
 3421SOL     OW11161   5.572   1.995   3.124
 3421SOL    HW111162   5.523   2.072   3.165
 3421SOL    HW211163   5.511   1.916   3.121
 3422SOL     OW11164   2.094   7.022   0.904
 3422SOL    HW111165   2.022   0.055   0.936
 3422SOL    HW211166   2.154   0.042   0.841
 3423SOL     OW11167   1.115   4.133   5.682
 3423SOL    HW111168   1.077   4.162   5.594
 3423SOL    HW211169   1.103   4.034   5.692
 3424SOL     OW11170   4.823   6.646   1.340
 3424SOL    HW111171   4.853   6.700   1.419
 3424SOL    HW211172   4.871   6.559   1.339
 3425SOL     OW11173   5.743   4.001   1.342
 3425SOL    HW111174   5.703   3.918   1.303
 3425SOL    HW211175   5.843   3.992   1.343
 3426SOL     OW11176   5.753   3.733   0.665
 3426SOL    HW111177   5.726   3.637   0.652
 3426SOL    HW211178   5.852   3.741   0.656
 3427SOL     OW11179   1.056   2.295   1.200
 3427SOL    HW111180   1.106   2.238   1.135
 3427SOL    HW211181   1.020   2.375   1.154
 3428SOL     OW11182   4.921   6.063   5.565
 3428SOL    HW111183   4.935   6.094   5.471
 3428SOL    HW211184   4.827   6.079   5.592
 3429SOL     OW11185   0.437   0.685   0.933
 3429SOL    HW111186   0.411   0.612   0.996
 3429SOL    HW211187   0.450   0.648   0.842
 3430SOL     OW11188   2.660   5.076   5.509
 3430SOL    HW111189   2.624   5.037   5.593
 3430SOL    HW211190   2.760   5.080   5.514
 3431SOL     OW11191   2.805   6.166   2.786
 3431SOL    HW111192   2.759   6.095   2.734
 3431SOL    HW211193   2.898   6.137   2.807
 3432SOL     OW11194   2.415   4.387   0.282
 3432SOL    HW111195   2.470   4.470   0.293
 3432SOL    HW211196   2.468   4.308   0.311
 3433SOL     OW11197   2.324   1.178   6.529
 3433SOL    HW111198   2.234   1.221   6.518
 3433SOL    HW211199   2.374   1.184   6.442
 3434SOL     OW11200   3.202   1.914   1.648
 3434SOL    HW111201   3.170   1.963   1.729
 3434SOL    HW211202   3.276   1.852   1.673
 3435SOL     OW11203   2.174   0.398   0.288
 3435SOL    HW111204   2.105   0.467   0.312
 3435SOL    HW211205   2.207   0.414   0.195
 3436SOL     OW11206   4.503   5.503   0.162
 3436SOL    HW111207   4.526   5.409   0.138
 3436SOL    HW211208   4.482   5.508   0.260
 3437SOL     OW11209   1.134   6.346   6.068
 3437SOL    HW111210   1.159   6.443   6.073
 3437SOL    HW211211   1.179   6.304   5.990
 3438SOL     OW11212   0.897   4.067   1.065
 3438SOL    HW111213   0.973   4.005   1.083
 3438SOL    HW211214   0.891   4.085   0.967
 3439SOL     OW11215   2.384   5.821   2.619
 3439SOL    HW111216   2.388   5.740   2.678
 3439SOL    HW211217   2.343   5.797   2.531
 3440SOL     OW11218   3.991   3.155   4.437
 3440SOL    HW111219   3.950   3.133   4.525
 3440SOL    HW211220   3.922   3.144   4.365
 3441SOL     OW11221   5.103   5.383   5.777
 3441SOL    HW111222   5.063   5.322   5.846
 3441SOL    HW211223   5.171   5.332   5.724
 3442SOL     OW11224   3.175   3.533   1.710
 3442SOL    HW111225   3.142   3.531   1.804
 3442SOL    HW211226   3.201   3.626   1.685
 3443SOL     OW11227   2.947   6.177   2.457
 3443SOL    HW111228   3.006   6.230   2.517
 3443SOL    HW211229   2.995   6.093   2.429
 3444SOL     OW11230   5.523   4.523   1.705
 3444SOL    HW111231   5.486   4.538   1.613
 3444SOL    HW211232   5.448   4.517   1.770
 3445SOL     OW11233   6.667   4.966   3.602
 3445SOL    HW111234   6.706   5.020   3.677
 3445SOL    HW211235   6.596   4.905   3.638
 3446SOL     OW11236   5.599   0.572   1.466
 3446SOL    HW111237   5.522   0.622   1.507
 3446SOL    HW211238   5.675   0.569   1.530
 3447SOL     OW11239   5.002   0.320   0.242
 3447SOL    HW111240   4.993   0.281   0.333
 3447SOL    HW211241   4.948   0.404   0.236
 3448SOL     OW11242   1.443   6.351   5.066
 3448SOL    HW111243   1.503   6.430   5.076
 3448SOL    HW211244   1.481   6.274   5.117
 3449SOL     OW11245   6.222   5.210   4.997
 3449SOL    HW111246   6.144   5.272   4.998
 3449SOL    HW211247   6.307   5.263   5.008
 3450SOL     OW11248   1.426   0.265   6.844
 3450SOL    HW111249   1.510   0.245   6.895
 3450SOL    HW211250   1.351   0.280   6.908
 3451SOL     OW11251   1.784   6.330   0.372
 3451SOL    HW111252   1.841   6.410   0.354
 3451SOL    HW211253   1.819   6.252   0.322
 3452SOL     OW11254   5.335   0.691   5.162
 3452SOL    HW111255   5.283   0.606   5.158
 3452SOL    HW211256   5.318   0.736   5.250
 3453SOL     OW11257   5.101   6.444   5.715
 3453SOL    HW111258   5.189   6.397   5.725
 3453SOL    HW211259   5.104   6.503   5.635
 3454SOL     OW11260   1.227   2.325   3.108
 3454SOL    HW111261   1.250   2.256   3.039
 3454SOL    HW211262   1.300   2.394   3.112
 3455SOL     OW11263   1.861   3.158   5.593
 3455SOL    HW111264   1.951   3.168   5.550
 3455SOL    HW211265   1.830   3.247   5.625
 3456SOL     OW11266   4.755   4.531   2.615
 3456SOL    HW111267   4.680   4.590   2.645
 3456SOL    HW211268   4.720   4.462   2.552
 3457SOL     OW11269   4.040   5.556   4.747
 3457SOL    HW111270   3.954   5.564   4.696
 3457SOL    HW211271   4.080   5.647   4.758
 3458SOL     OW11272   4.418   1.401   2.457
 3458SOL    HW111273   4.346   1.359   2.513
 3458SOL    HW211274   4.506   1.360   2.479
 3459SOL     OW11275   4.049   0.959   2.984
 3459SOL    HW111276   3.970   1.021   2.989
 3459SOL    HW211277   4.125   1.005   2.938
 3460SOL     OW11278   3.731   1.608   5.534
 3460SOL    HW111279   3.815   1.645   5.495
 3460SOL    HW211280   3.704   1.526   5.483
 3461SOL     OW11281   5.452   4.835   0.198
 3461SOL    HW111282   5.433   4.739   0.180
 3461SOL    HW211283   5.523   4.843   0.268
 3462SOL     OW11284   2.325   3.329   6.666
 3462SOL    HW111285   2.261   3.400   6.636
 3462SOL    HW211286   2.373   3.359   6.748
 3463SOL     OW11287   6.683   4.039   1.561
 3463SOL    HW111288   6.683   4.046   1.461
 3463SOL    HW211289   6.745   4.108   1.600
 3464SOL     OW11290   0.018   4.793   6.140
 3464SOL    HW111291   7.007   4.884   6.127
 3464SOL    HW211292   0.086   4.797   6.213
 3465SOL     OW11293   1.729   0.769   1.672
 3465SOL    HW111294   1.817   0.796   1.711
 3465SOL    HW211295   1.708   0.675   1.700
 3466SOL     OW11296   6.826   4.395   5.518
 3466SOL    HW111297   6.849   4.427   5.610
 3466SOL    HW211298   6.742   4.342   5.521
 3467SOL     OW11299   2.393   2.362   6.319
 3467SOL    HW111300   2.381   2.339   6.222
 3467SOL    HW211301   2.402   2.461   6.329
 3468SOL     OW11302   2.971   6.029   3.765
 3468SOL    HW111303   3.056   6.000   3.808
 3468SOL    HW211304   2.965   5.989   3.673
 3469SOL     OW11305   6.474   2.371   3.320
 3469SOL    HW111306   6.465   2.286   3.371
 3469SOL    HW211307   6.410   2.371   3.243
 3470SOL     OW11308   0.259   5.683   1.318
 3470SOL    HW111309   0.325   5.747   1.280
 3470SOL    HW211310   0.279   5.667   1.415
 3471SOL     OW11311   4.325   6.029   4.999
 3471SOL    HW111312   4.404   6.006   5.056
 3471SOL    HW211313   4.336   5.988   4.908
 3472SOL     OW11314   2.615   0.681   4.616
 3472SOL    HW111315   2.656   0.762   4.658
 3472SOL    HW211316   2.674   0.649   4.541
 3473SOL     OW11317   6.221   1.212   6.200
 3473SOL    HW111318   6.214   1.206   6.101
 3473SOL    HW211319   6.316   1.230   6.226
 3474SOL     OW11320   3.518   5.181   2.108
 3474SOL    HW111321   3.536   5.182   2.010
 3474SOL    HW211322   3.513   5.086   2.140
 3475SOL     OW11323   1.213   5.908   4.076
 3475SOL    HW111324   1.176   5.965   4.003
 3475SOL    HW211325   1.164   5.926   4.161
 3476SOL     OW11326   4.458   0.595   4.591
 3476SOL    HW111327   4.380   0.538   4.618
 3476SOL    HW211328   4.541   0.557   4.631
 3477SOL     OW11329   4.073   6.234   1.381
 3477SOL    HW111330   4.170   6.241   1.402
 3477SOL    HW211331   4.054   6.146   1.337
 3478SOL     OW11332   3.411   5.467   6.204
 3478SOL    HW111333   3.329   5.415   6.227
 3478SOL    HW211334   3.416   5.479   6.105
 3479SOL     OW11335   0.862   0.246   1.811
 3479SOL    HW111336   0.870   0.257   1.910
 3479SOL    HW211337   0.947   0.275   1.767
 3480SOL     OW11338   6.863   1.606   3.724
 3480SOL    HW111339   6.830   1.690   3.680
 3480SOL    HW211340   6.877   1.623   3.821
 3481SOL     OW11341   2.710   6.886   6.422
 3481SOL    HW111342   2.649   6.885   6.502
 3481SOL    HW211343   2.762   6.972   6.421
 3482SOL     OW11344   6.401   2.214   1.397
 3482SOL    HW111345   6.400   2.115   1.387
 3482SOL    HW211346   6.396   2.257   1.307
 3483SOL     OW11347   2.236   0.604   1.431
 3483SOL    HW111348   2.138   0.613   1.413
 3483SOL    HW211349   2.270   0.688   1.473
 3484SOL     OW11350   3.040   3.187   3.770
 3484SOL    HW111351   3.125   3.139   3.790
 3484SOL    HW211352   3.000   3.221   3.855
 3485SOL     OW11353   1.526   2.459   5.333
 3485SOL    HW111354   1.509   2.443   5.431
 3485SOL    HW211355   1.622   2.442   5.312
 3486SOL     OW11356   4.573   1.839   1.369
 3486SOL    HW111357   4.574   1.841   1.269
 3486SOL    HW211358   4.631   1.765   1.402
 3487SOL     OW11359   6.312   2.029   5.970
 3487SOL    HW111360   6.247   2.020   6.045
 3487SOL    HW211361   6.287   1.964   5.897
 3488SOL     OW11362   6.059   3.630   4.096
 3488SOL    HW111363   6.107   3.559   4.147
 3488SOL    HW211364   6.042   3.598   4.003
 3489SOL     OW11365   3.762   6.919   1.189
 3489SOL    HW111366   3.677   6.972   1.187
 3489SOL    HW211367   3.838   6.977   1.159
 3490SOL     OW11368   5.344   3.901   0.423
 3490SOL    HW111369   5.386   3.941   0.504
 3490SOL    HW211370   5.387   3.938   0.341
 3491SOL     OW11371   0.257   2.880   5.668
 3491SOL    HW111372   0.262   2.971   5.709
 3491SOL    HW211373   0.162   2.859   5.644
 3492SOL     OW11374   0.377   5.564   6.823
 3492SOL    HW111375   0.387   5.466   6.805
 3492SOL    HW211376   0.304   5.578   6.889
 3493SOL     OW11377   5.869   5.051   1.367
 3493SOL    HW111378   5.931   5.076   1.442
 3493SOL    HW211379   5.895   5.102   1.285
 3494SOL     OW11380   3.483   6.928   1.660
 3494SOL    HW111381   3.538   6.975   1.591
 3494SOL    HW211382   3.394   6.903   1.622
 3495SOL     OW11383   4.368   5.149   1.766
 3495SOL    HW111384   4.288   5.205   1.742
 3495SOL    HW211385   4.376   5.073   1.703
 3496SOL     OW11386   1.759   3.231   0.705
 3496SOL    HW111387   1.851   3.259   0.733
 3496SOL    HW211388   1.764   3.143   0.658
 3497SOL     OW11389   4.132   1.185   3.171
 3497SOL    HW111390   4.090   1.108   3.219
 3497SOL    HW211391   4.062   1.253   3.148
 3498SOL     OW11392   2.434   1.280   0.886
 3498SOL    HW111393   2.491   1.362   0.877
 3498SOL    HW211394   2.338   1.305   0.878
 3499SOL     OW11395   0.147   3.118   4.545
 3499SOL    HW111396   0.180   3.026   4.564
 3499SOL    HW211397   0.067   3.113   4.486
 3500SOL     OW11398   6.623   3.964   6.646
 3500SOL    HW111399   6.688   4.017   6.591
 3500SOL    HW211400   6.538   4.015   6.655
 3501SOL     OW11401   1.903   4.576   4.901
 3501SOL    HW111402   1.891   4.625   4.814
 3501SOL    HW211403   1.981   4.615   4.951
 3502SOL     OW11404   0.452   1.870   1.580
 3502SOL    HW111405   0.366   1.849   1.533
 3502SOL    HW211406   0.524   1.885   1.514
 3503SOL     OW11407   4.549   5.877   5.398
 3503SOL    HW111408   4.469   5.817   5.401
 3503SOL    HW211409   4.632   5.821   5.394
 3504SOL     OW11410   2.653   3.445   1.165
 3504SOL    HW111411   2.658   3.371   1.231
 3504SOL    HW211412   2.563   3.443   1.120
 3505SOL     OW11413   5.383   5.973   5.480
 3505SOL    HW111414   5.407   6.064   5.446
 3505SOL    HW211415   5.350   5.981   5.574
 3506SOL     OW11416   3.950   5.239   3.726
 3506SOL    HW111417   3.913   5.239   3.633
 3506SOL    HW211418   3.876   5.221   3.791
 3507SOL     OW11419   1.090   0.563   6.799
 3507SOL    HW111420   1.021   0.626   6.764
 3507SOL    HW211421   1.049   0.473   6.814
 3508SOL     OW11422   5.713   3.478   0.356
 3508SOL    HW111423   5.780   3.483   0.282
 3508SOL    HW211424   5.621   3.487   0.317
 3509SOL     OW11425   6.456   6.016   6.600
 3509SOL    HW111426   6.460   6.097   6.541
 3509SOL    HW211427   6.548   5.978   6.609
 3510SOL     OW11428   2.436   2.370   1.820
 3510SOL    HW111429   2.469   2.461   1.792
 3510SOL    HW211430   2.490   2.337   1.897
 3511SOL     OW11431   0.113   2.546   6.911
 3511SOL    HW111432   0.102   2.514   7.005
 3511SOL    HW211433   0.127   2.645   6.911
 3512SOL     OW11434   2.458   3.298   0.256
 3512SOL    HW111435   2.558   3.302   0.259
 3512SOL    HW211436   2.426   3.224   0.315
 3513SOL     OW11437   0.026   4.052   1.405
 3513SOL    HW111438   0.073   4.005   1.480
 3513SOL    HW211439   7.016   3.984   1.343
 3514SOL     OW11440   0.887   6.541   1.019
 3514SOL    HW111441   0.807   6.526   1.078
 3514SOL    HW211442   0.869   6.504   0.928
 3515SOL     OW11443   3.080   6.015   2.755
 3515SOL    HW111444   3.171   5.975   2.758
 3515SOL    HW211445   3.013   5.944   2.732
 3516SOL     OW11446   3.317   1.350   0.424
 3516SOL    HW111447   3.308   1.366   0.326
 3516SOL    HW211448   3.365   1.427   0.466
 3517SOL     OW11449   0.905   1.206   6.807
 3517SOL    HW111450   0.872   1.292   6.769
 3517SOL    HW211451   0.977   1.169   6.749
 3518SOL     OW11452   5.021   3.365   6.524
 3518SOL    HW111453   5.090   3.431   6.495
 3518SOL    HW211454   4.999   3.304   6.448
 3519SOL     OW11455   1.808   6.947   6.448
 3519SOL    HW111456   1.834   6.905   6.361
 3519SOL    HW211457   1.820   0.016   6.443
 3520SOL     OW11458   4.288   5.073   0.975
 3520SOL    HW111459   4.322   4.979   0.986
 3520SOL    HW211460   4.285   5.118   1.065
 3521SOL     OW11461   5.363   2.161   1.904
 3521SOL    HW111462   5.461   2.170   1.884
 3521SOL    HW211463   5.310   2.207   1.833
 3522SOL     OW11464   3.270   5.377   2.098
 3522SOL    HW111465   3.272   5.340   2.191
 3522SOL    HW211466   3.343   5.334   2.044
 3523SOL     OW11467   2.930   4.832   4.845
 3523SOL    HW111468   2.910   4.743   4.886
 3523SOL    HW211469   2.852   4.893   4.858
 3524SOL     OW11470   2.544   0.117   0.597
 3524SOL    HW111471   2.539   0.160   0.507
 3524SOL    HW211472   2.591   0.178   0.660
 3525SOL     OW11473   0.563   2.968   1.821
 3525SOL    HW111474   0.540   2.950   1.917
 3525SOL    HW211475   0.601   3.060   1.813
 3526SOL     OW11476   0.970   0.495   2.892
 3526SOL    HW111477   0.993   0.398   2.904
 3526SOL    HW211478   0.943   0.534   2.981
 3527SOL     OW11479   5.414   2.951   6.349
 3527SOL    HW111480   5.423   2.884   6.423
 3527SOL    HW211481   5.336   3.010   6.368
 3528SOL     OW11482   0.112   6.369   3.465
 3528SOL    HW111483   0.021   6.399   3.434
 3528SOL    HW211484   0.165   6.339   3.386
 3529SOL     OW11485   4.311   6.748   5.266
 3529SOL    HW111486   4.393   6.693   5.256
 3529SOL    HW211487   4.335   6.845   5.265
 3530SOL     OW11488   3.029   5.524   2.498
 3530SOL    HW111489   3.019   5.510   2.400
 3530SOL    HW211490   2.940   5.549   2.537
 3531SOL     OW11491   6.074   4.614   0.817
 3531SOL    HW111492   6.154   4.669   0.843
 3531SOL    HW211493   6.039   4.567   0.898
 3532SOL     OW11494   2.657   0.276   6.771
 3532SOL    HW111495   2.732   0.226   6.815
 3532SOL    HW211496   2.657   0.371   6.803
 3533SOL     OW11497   0.961   1.616   3.238
 3533SOL    HW111498   0.914   1.648   3.155
 3533SOL    HW211499   1.015   1.690   3.276
 3534SOL     OW11500   5.514   1.742   4.886
 3534SOL    HW111501   5.560   1.779   4.967
 3534SOL    HW211502   5.552   1.652   4.864
 3535SOL     OW11503   5.593   5.333   6.058
 3535SOL    HW111504   5.548   5.375   5.979
 3535SOL    HW211505   5.628   5.243   6.032
 3536SOL     OW11506   2.003   3.124   3.267
 3536SOL    HW111507   2.050   3.124   3.178
 3536SOL    HW211508   2.053   3.183   3.331
 3537SOL     OW11509   2.423   5.744   0.486
 3537SOL    HW111510   2.399   5.654   0.450
 3537SOL    HW211511   2.522   5.753   0.491
 3538SOL     OW11512   2.869   0.386   3.175
 3538SOL    HW111513   2.773   0.362   3.161
 3538SOL    HW211514   2.884   0.410   3.271
 3539SOL     OW11515   5.394   5.159   6.897
 3539SOL    HW111516   5.468   5.220   6.869
 3539SOL    HW211517   5.412   5.067   6.863
 3540SOL     OW11518   2.726   3.461   6.465
 3540SOL    HW111519   2.657   3.388   6.460
 3540SOL    HW211520   2.815   3.421   6.484
 3541SOL     OW11521   2.850   2.404   0.647
 3541SOL    HW111522   2.866   2.307   0.628
 3541SOL    HW211523   2.913   2.459   0.592
 3542SOL     OW11524   5.463   2.192   6.375
 3542SOL    HW111525   5.388   2.246   6.337
 3542SOL    HW211526   5.455   2.188   6.474
 3543SOL     OW11527   2.231   2.734   3.018
 3543SOL    HW111528   2.306   2.669   3.015
 3543SOL    HW211529   2.145   2.687   2.997
 3544SOL     OW11530   2.423   4.687   5.811
 3544SOL    HW111531   2.500   4.640   5.854
 3544SOL    HW211532   2.386   4.630   5.737
 3545SOL     OW11533   3.443   6.991   1.104
 3545SOL    HW111534   3.502   6.989   1.023
 3545SOL    HW211535   3.462   0.044   1.157
 3546SOL     OW11536   6.637   3.784   3.575
 3546SOL    HW111537   6.640   3.869   3.627
 3546SOL    HW211538   6.557   3.785   3.514
 3547SOL     OW11539   0.310   3.637   5.498
 3547SOL    HW111540   0.327   3.696   5.577
 3547SOL    HW211541   0.249   3.562   5.525
 3548SOL     OW11542   5.349   1.080   5.691
 3548SOL    HW111543   5.413   1.155   5.710
 3548SOL    HW211544   5.274   1.114   5.634
 3549SOL     OW11545   2.957   5.059   0.197
 3549SOL    HW111546   2.943   5.147   0.153
 3549SOL    HW211547   2.881   4.998   0.176
 3550SOL     OW11548   5.206   1.562   5.282
 3550SOL    HW111549   5.257   1.496   5.338
 3550SOL    HW211550   5.249   1.571   5.193
 3551SOL     OW11551   3.864   2.384   5.313
 3551SOL    HW111552   3.775   2.346   5.341
 3551SOL    HW211553   3.865   2.482   5.330
 3552SOL     OW11554   6.988   5.931   2.688
 3552SOL    HW111555   6.961   6.013   2.637
 3552SOL    HW211556   0.058   5.928   2.695
 3553SOL     OW11557   3.732   5.338   6.027
 3553SOL    HW111558   3.810   5.362   6.085
 3553SOL    HW211559   3.724   5.404   5.952
 3554SOL     OW11560   4.299   3.418   1.632
 3554SOL    HW111561   4.273   3.435   1.727
 3554SOL    HW211562   4.218   3.395   1.579
 3555SOL     OW11563   1.853   2.307   3.950
 3555SOL    HW111564   1.869   2.233   3.884
 3555SOL    HW211565   1.890   2.280   4.039
 3556SOL     OW11566   4.225   0.740   5.296
 3556SOL    HW111567   4.141   0.740   5.351
 3556SOL    HW211568   4.209   0.792   5.212
 3557SOL     OW11569   7.003   1.359   2.159
 3557SOL    HW111570   6.953   1.446   2.162
 3557SOL    HW211571   0.002   1.339   2.066
 3558SOL     OW11572   3.621   6.996   0.901
 3558SOL    HW111573   3.716   6.995   0.930
 3558SOL    HW211574   3.616   6.984   0.802
 3559SOL     OW11575   3.947   6.519   4.253
 3559SOL    HW111576   3.883   6.449   4.222
 3559SOL    HW211577   3.896   6.603   4.276
 3560SOL     OW11578   1.055   5.527   5.313
 3560SOL    HW111579   1.122   5.520   5.239
 3560SOL    HW211580   1.040   5.623   5.335
 3561SOL     OW11581   4.741   4.441   5.446
 3561SOL    HW111582   4.727   4.524   5.499
 3561SOL    HW211583   4.808   4.458   5.373
 3562SOL     OW11584   2.342   1.302   5.173
 3562SOL    HW111585   2.425   1.339   5.216
 3562SOL    HW211586   2.364   1.215   5.128
 3563SOL     OW11587   5.809   2.099   5.317
 3563SOL    HW111588   5.849   2.007   5.324
 3563SOL    HW211589   5.791   2.120   5.221
 3564SOL     OW11590   0.509   4.534   2.820
 3564SOL    HW111591   0.482   4.438   2.812
 3564SOL    HW211592   0.449   4.591   2.765
 3565SOL     OW11593   3.252   5.469   3.490
 3565SOL    HW111594   3.254   5.402   3.416
 3565SOL    HW211595   3.346   5.494   3.514
 3566SOL     OW11596   6.353   1.015   5.662
 3566SOL    HW111597   6.420   0.946   5.691
 3566SOL    HW211598   6.397   1.081   5.601
 3567SOL     OW11599   0.467   4.475   6.783
 3567SOL    HW111600   0.373   4.458   6.814
 3567SOL    HW211601   0.466   4.544   6.711
 3568SOL     OW11602   6.584   3.648   5.955
 3568SOL    HW111603   6.551   3.575   6.015
 3568SOL    HW211604   6.547   3.634   5.863
 3569SOL     OW11605   2.633   2.341   5.276
 3569SOL    HW111606   2.640   2.435   5.244
 3569SOL    HW211607   2.706   2.286   5.235
 3570SOL     OW11608   6.008   1.019   4.069
 3570SOL    HW111609   5.927   0.989   4.019
 3570SOL    HW211610   6.058   1.087   4.015
 3571SOL     OW11611   6.156   5.728   6.390
 3571SOL    HW111612   6.220   5.799   6.419
 3571SOL    HW211613   6.062   5.763   6.395
 3572SOL     OW11614   5.720   3.447   3.965
 3572SOL    HW111615   5.729   3.349   3.977
 3572SOL    HW211616   5.625   3.475   3.978
 3573SOL     OW11617   1.582   4.093   3.381
 3573SOL    HW111618   1.559   4.138   3.295
 3573SOL    HW211619   1.655   4.027   3.365
 3574SOL     OW11620   0.340   4.951   0.543
 3574SOL    HW111621   0.254   4.928   0.590
 3574SOL    HW211622   0.334   4.925   0.447
 3575SOL     OW11623   6.344   5.380   3.364
 3575SOL    HW111624   6.402   5.306   3.400
 3575SOL    HW211625   6.381   5.468   3.393
 3576SOL     OW11626   0.368   1.342   6.383
 3576SOL    HW111627   0.375   1.256   6.331
 3576SOL    HW211628   0.283   1.342   6.435
 3577SOL     OW11629   0.525   2.203   6.523
 3577SOL    HW111630   0.596   2.141   6.555
 3577SOL    HW211631   0.558   2.297   6.527
 3578SOL     OW11632   3.080   4.261   6.509
 3578SOL    HW111633   3.166   4.219   6.483
 3578SOL    HW211634   3.009   4.237   6.443
 3579SOL     OW11635   6.867   3.333   5.421
 3579SOL    HW111636   6.851   3.359   5.516
 3579SOL    HW211637   6.931   3.397   5.379
 3580SOL     OW11638   5.637   1.921   1.692
 3580SOL    HW111639   5.728   1.880   1.686
 3580SOL    HW211640   5.569   1.856   1.660
 3581SOL     OW11641   6.855   0.482   2.279
 3581SOL    HW111642   6.822   0.500   2.372
 3581SOL    HW211643   6.777   0.459   2.220
 3582SOL     OW11644   0.855   0.673   5.810
 3582SOL    HW111645   0.903   0.750   5.853
 3582SOL    HW211646   0.760   0.671   5.841
 3583SOL     OW11647   0.862   4.590   6.969
 3583SOL    HW111648   0.945   4.570   6.917
 3583SOL    HW211649   0.789   4.527   6.942
 3584SOL     OW11650   5.880   6.393   6.276
 3584SOL    HW111651   5.939   6.376   6.356
 3584SOL    HW211652   5.787   6.414   6.307
 3585SOL     OW11653   3.429   4.955   4.895
 3585SOL    HW111654   3.476   4.906   4.822
 3585SOL    HW211655   3.334   4.974   4.867
 3586SOL     OW11656   6.102   2.961   5.387
 3586SOL    HW111657   6.104   2.965   5.486
 3586SOL    HW211658   6.010   2.934   5.356
 3587SOL     OW11659   2.954   6.672   0.465
 3587SOL    HW111660   2.967   6.655   0.562
 3587SOL    HW211661   2.856   6.671   0.444
 3588SOL     OW11662   1.904   2.238   5.796
 3588SOL    HW111663   1.814   2.257   5.758
 3588SOL    HW211664   1.957   2.323   5.799
 3589SOL     OW11665   3.349   0.874   4.541
 3589SOL    HW111666   3.446   0.896   4.553
 3589SOL    HW211667   3.320   0.904   4.450
 3590SOL     OW11668   1.425   4.934   6.369
 3590SOL    HW111669   1.414   5.023   6.324
 3590SOL    HW211670   1.392   4.862   6.307
 3591SOL     OW11671   5.347   3.115   6.013
 3591SOL    HW111672   5.353   3.019   6.040
 3591SOL    HW211673   5.338   3.121   5.914
 3592SOL     OW11674   5.136   3.273   2.722
 3592SOL    HW111675   5.186   3.205   2.775
 3592SOL    HW211676   5.168   3.271   2.627
 3593SOL     OW11677   1.958   6.819   4.101
 3593SOL    HW111678   1.869   6.838   4.060
 3593SOL    HW211679   2.002   6.905   4.127
 3594SOL     OW11680   2.286   1.229   3.487
 3594SOL    HW111681   2.367   1.190   3.443
 3594SOL    HW211682   2.204   1.188   3.448
 3595SOL     OW11683   2.335   6.726   5.518
 3595SOL    HW111684   2.404   6.777   5.569
 3595SOL    HW211685   2.245   6.768   5.534
 3596SOL     OW11686   6.458   0.824   2.728
 3596SOL    HW111687   6.473   0.753   2.798
 3596SOL    HW211688   6.447   0.781   2.639
 3597SOL     OW11689   3.704   6.412   4.513
 3597SOL    HW111690   3.773   6.476   4.545
 3597SOL    HW211691   3.732   6.377   4.423
 3598SOL     OW11692   1.113   0.181   5.434
 3598SOL    HW111693   1.167   0.253   5.479
 3598SOL    HW211694   1.161   0.150   5.352
 3599SOL     OW11695   0.187   2.049   5.700
 3599SOL    HW111696   0.144   2.136   5.674
 3599SOL    HW211697   0.278   2.067   5.736
 3600SOL     OW11698   6.213   3.194   1.173
 3600SOL    HW111699   6.116   3.203   1.194
 3600SOL    HW211700   6.267   3.252   1.234
 3601SOL     OW11701   0.168   4.014   0.361
 3601SOL    HW111702   0.210   4.011   0.452
 3601SOL    HW211703   0.112   3.933   0.347
 3602SOL     OW11704   1.803   0.900   0.331
 3602SOL    HW111705   1.777   0.860   0.243
 3602SOL    HW211706   1.886   0.955   0.320
 3603SOL     OW11707   3.792   4.867   4.186
 3603SOL    HW111708   3.789   4.812   4.269
 3603SOL    HW211709   3.880   4.855   4.141
 3604SOL     OW11710   6.962   2.743   3.036
 3604SOL    HW111711   6.990   2.728   3.131
 3604SOL    HW211712   6.863   2.758   3.033
 3605SOL     OW11713   6.388   4.526   6.128
 3605SOL    HW111714   6.295   4.533   6.164
 3605SOL    HW211715   6.454   4.544   6.201
 3606SOL     OW11716   6.807   4.966   6.088
 3606SOL    HW111717   6.869   5.044   6.101
 3606SOL    HW211718   6.725   4.997   6.039
 3607SOL     OW11719   5.283   0.270   0.399
 3607SOL    HW111720   5.186   0.281   0.418
 3607SOL    HW211721   5.336   0.317   0.470
 3608SOL     OW11722   0.106   1.578   1.716
 3608SOL    HW111723   0.159   1.551   1.636
 3608SOL    HW211724   0.045   1.654   1.691
 3609SOL     OW11725   6.465   0.960   4.353
 3609SOL    HW111726   6.390   0.910   4.311
 3609SOL    HW211727   6.538   0.975   4.286
 3610SOL     OW11728   0.794   6.854   4.723
 3610SOL    HW111729   0.786   6.776   4.784
 3610SOL    HW211730   0.887   6.892   4.728
 3611SOL     OW11731   3.672   5.232   5.361
 3611SOL    HW111732   3.584   5.184   5.365
 3611SOL    HW211733   3.675   5.288   5.278
 3612SOL     OW11734   1.166   6.420   6.511
 3612SOL    HW111735   1.242   6.374   6.556
 3612SOL    HW211736   1.083   6.367   6.522
 3613SOL     OW11737   5.064   5.168   0.599
 3613SOL    HW111738   5.046   5.126   0.510
 3613SOL    HW211739   5.063   5.097   0.670
 3614SOL     OW11740   3.608   3.013   2.852
 3614SOL    HW111741   3.574   3.041   2.942
 3614SOL    HW211742   3.680   3.077   2.822
 3615SOL     OW11743   6.082   4.918   5.906
 3615SOL    HW111744   6.008   4.872   5.954
 3615SOL    HW211745   6.045   4.983   5.841
 3616SOL     OW11746   6.615   2.240   6.729
 3616SOL    HW111747   6.526   2.195   6.730
 3616SOL    HW211748   6.610   2.323   6.674
 3617SOL     OW11749   5.636   1.595   6.397
 3617SOL    HW111750   5.660   1.610   6.302
 3617SOL    HW211751   5.560   1.656   6.423
 3618SOL     OW11752   1.397   1.963   5.783
 3618SOL    HW111753   1.307   1.980   5.744
 3618SOL    HW211754   1.388   1.908   5.866
 3619SOL     OW11755   5.890   2.263   3.988
 3619SOL    HW111756   5.834   2.249   4.069
 3619SOL    HW211757   5.980   2.296   4.015
 3620SOL     OW11758   5.450   6.870   5.493
 3620SOL    HW111759   5.531   6.879   5.550
 3620SOL    HW211760   5.384   6.942   5.517
 3621SOL     OW11761   3.166   3.025   5.748
 3621SOL    HW111762   3.263   3.020   5.724
 3621SOL    HW211763   3.113   3.048   5.666
 3622SOL     OW11764   0.719   1.251   2.863
 3622SOL    HW111765   0.637   1.230   2.916
 3622SOL    HW211766   0.724   1.350   2.847
 3623SOL     OW11767   6.212   5.199   4.055
 3623SOL    HW111768   6.270   5.259   4.111
 3623SOL    HW211769   6.265   5.120   4.025
 3624SOL     OW11770   2.309   6.137   3.148
 3624SOL    HW111771   2.366   6.219   3.141
 3624SOL    HW211772   2.306   6.106   3.243
 3625SOL     OW11773   6.493   3.167   6.104
 3625SOL    HW111774   6.591   3.183   6.095
 3625SOL    HW211775   6.476   3.068   6.112
 3626SOL     OW11776   2.141   3.861   5.195
 3626SOL    HW111777   2.215   3.908   5.146
 3626SOL    HW211778   2.170   3.842   5.289
 3627SOL     OW11779   3.921   3.438   3.655
 3627SOL    HW111780   3.909   3.509   3.586
 3627SOL    HW211781   3.844   3.374   3.651
 3628SOL     OW11782   2.012   6.535   2.070
 3628SOL    HW111783   1.949   6.563   2.142
 3628SOL    HW211784   1.997   6.439   2.046
 3629SOL     OW11785   6.707   1.874   5.055
 3629SOL    HW111786   6.720   1.897   4.958
 3629SOL    HW211787   6.748   1.945   5.112
 3630SOL     OW11788   6.047   2.640   4.147
 3630SOL    HW111789   5.958   2.630   4.192
 3630SOL    HW211790   6.034   2.645   4.048
 3631SOL     OW11791   2.169   0.365   4.618
 3631SOL    HW111792   2.163   0.272   4.655
 3631SOL    HW211793   2.202   0.427   4.690
 3632SOL     OW11794   5.040   1.209   0.961
 3632SOL    HW111795   5.064   1.113   0.977
 3632SOL    HW211796   5.124   1.263   0.953
 3633SOL     OW11797   3.014   2.258   5.884
 3633SOL    HW111798   3.048   2.214   5.967
 3633SOL    HW211799   3.087   2.260   5.816
 3634SOL     OW11800   0.745   6.350   4.290
 3634SOL    HW111801   0.725   6.344   4.388
 3634SOL    HW211802   0.711   6.437   4.254
 3635SOL     OW11803   3.649   0.912   5.339
 3635SOL    HW111804   3.729   0.877   5.291
 3635SOL    HW211805   3.679   0.975   5.411
 3636SOL     OW11806   6.753   6.105   6.172
 3636SOL    HW111807   6.654   6.102   6.190
 3636SOL    HW211808   6.802   6.106   6.259
 3637SOL     OW11809   6.014   1.879   1.022
 3637SOL    HW111810   5.922   1.882   1.061
 3637SOL    HW211811   6.010   1.902   0.925
 3638SOL     OW11812   6.724   4.692   3.966
 3638SOL    HW111813   6.626   4.698   3.947
 3638SOL    HW211814   6.740   4.622   4.036
 3639SOL     OW11815   3.603   3.751   1.121
 3639SOL    HW111816   3.645   3.823   1.178
 3639SOL    HW211817   3.582   3.788   1.031
 3640SOL     OW11818   3.433   5.966   6.680
 3640SOL    HW111819   3.526   5.965   6.716
 3640SOL    HW211820   3.436   5.947   6.582
 3641SOL     OW11821   3.728   1.834   4.912
 3641SOL    HW111822   3.637   1.794   4.901
 3641SOL    HW211823   3.768   1.852   4.822
 3642SOL     OW11824   5.032   1.068   5.506
 3642SOL    HW111825   4.987   1.157   5.512
 3642SOL    HW211826   5.028   1.023   5.595
 3643SOL     OW11827   3.142   5.666   4.618
 3643SOL    HW111828   3.047   5.697   4.606
 3643SOL    HW211829   3.187   5.725   4.685
 3644SOL     OW11830   6.594   1.047   1.561
 3644SOL    HW111831   6.579   1.088   1.651
 3644SOL    HW211832   6.589   1.119   1.491
 3645SOL     OW11833   5.371   1.616   4.240
 3645SOL    HW111834   5.410   1.539   4.290
 3645SOL    HW211835   5.366   1.695   4.301
 3646SOL     OW11836   6.897   4.860   5.738
 3646SOL    HW111837   6.803   4.864   5.771
 3646SOL    HW211838   6.927   4.765   5.734
 3647SOL     OW11839   1.736   3.567   0.682
 3647SOL    HW111840   1.765   3.472   0.697
 3647SOL    HW211841   1.815   3.628   0.689
 3648SOL     OW11842   3.830   5.323   2.786
 3648SOL    HW111843   3.826   5.277   2.697
 3648SOL    HW211844   3.895   5.276   2.845
 3649SOL     OW11845   4.248   3.151   1.085
 3649SOL    HW111846   4.164   3.203   1.071
 3649SOL    HW211847   4.237   3.059   1.049
 3650SOL     OW11848   6.753   5.415   0.877
 3650SOL    HW111849   6.844   5.454   0.866
 3650SOL    HW211850   6.684   5.484   0.853
 3651SOL     OW11851   1.239   6.008   2.554
 3651SOL    HW111852   1.288   6.080   2.506
 3651SOL    HW211853   1.143   6.008   2.526
 3652SOL     OW11854   4.826   6.360   3.464
 3652SOL    HW111855   4.744   6.388   3.514
 3652SOL    HW211856   4.803   6.343   3.368
 3653SOL     OW11857   6.118   0.930   2.718
 3653SOL    HW111858   6.218   0.928   2.712
 3653SOL    HW211859   6.079   0.856   2.662
 3654SOL     OW11860   2.017   6.222   0.013
 3654SOL    HW111861   2.007   6.122   0.013
 3654SOL    HW211862   2.087   6.249   0.079
 3655SOL     OW11863   1.436   6.787   3.577
 3655SOL    HW111864   1.415   6.783   3.479
 3655SOL    HW211865   1.403   6.703   3.621
 3656SOL     OW11866   1.608   2.824   1.416
 3656SOL    HW111867   1.544   2.898   1.398
 3656SOL    HW211868   1.624   2.772   1.331
 3657SOL     OW11869   4.428   5.733   6.089
 3657SOL    HW111870   4.481   5.649   6.078
 3657SOL    HW211871   4.360   5.739   6.016
 3658SOL     OW11872   1.591   5.823   4.645
 3658SOL    HW111873   1.543   5.898   4.599
 3658SOL    HW211874   1.656   5.781   4.582
 3659SOL     OW11875   2.895   4.195   6.302
 3659SOL    HW111876   2.885   4.096   6.305
 3659SOL    HW211877   2.810   4.236   6.267
 3660SOL     OW11878   5.255   6.187   2.067
 3660SOL    HW111879   5.238   6.092   2.090
 3660SOL    HW211880   5.315   6.228   2.136
 3661SOL     OW11881   5.061   2.131   6.857
 3661SOL    HW111882   5.111   2.140   6.771
 3661SOL    HW211883   5.114   2.172   6.931
 3662SOL     OW11884   3.245   0.393   4.352
 3662SOL    HW111885   3.271   0.470   4.294
 3662SOL    HW211886   3.321   0.369   4.412
 3663SOL     OW11887   1.635   1.409   0.772
 3663SOL    HW111888   1.600   1.405   0.678
 3663SOL    HW211889   1.562   1.383   0.835
 3664SOL     OW11890   4.951   1.626   1.306
 3664SOL    HW111891   4.926   1.602   1.212
 3664SOL    HW211892   5.039   1.584   1.329
 3665SOL     OW11893   0.719   5.888   5.789
 3665SOL    HW111894   0.705   5.987   5.790
 3665SOL    HW211895   0.641   5.843   5.745
 3666SOL     OW11896   2.022   4.402   3.576
 3666SOL    HW111897   2.018   4.442   3.668
 3666SOL    HW211898   1.956   4.327   3.570
 3667SOL     OW11899   6.296   0.069   0.534
 3667SOL    HW111900   6.254   0.024   0.613
 3667SOL    HW211901   6.238   0.145   0.505
 3668SOL     OW11902   1.695   0.497   1.960
 3668SOL    HW111903   1.763   0.482   2.031
 3668SOL    HW211904   1.739   0.496   1.870
 3669SOL     OW11905   5.704   1.479   4.166
 3669SOL    HW111906   5.635   1.432   4.220
 3669SOL    HW211907   5.711   1.574   4.195
 3670SOL     OW11908   2.325   5.324   0.752
 3670SOL    HW111909   2.368   5.407   0.787
 3670SOL    HW211910   2.390   5.274   0.695
 3671SOL     OW11911   6.136   0.445   3.059
 3671SOL    HW111912   6.218   0.453   3.117
 3671SOL    HW211913   6.069   0.514   3.087
 3672SOL     OW11914   5.774   1.559   1.109
 3672SOL    HW111915   5.795   1.626   1.180
 3672SOL    HW211916   5.700   1.499   1.141
 3673SOL     OW11917   3.870   0.774   5.851
 3673SOL    HW111918   3.805   0.735   5.785
 3673SOL    HW211919   3.958   0.790   5.807
 3674SOL     OW11920   0.602   0.156   5.530
 3674SOL    HW111921   0.567   0.250   5.530
 3674SOL    HW211922   0.700   0.158   5.552
 3675SOL     OW11923   1.822   2.581   5.059
 3675SOL    HW111924   1.760   2.660   5.064
 3675SOL    HW211925   1.915   2.610   5.081
 3676SOL     OW11926   3.905   5.098   4.320
 3676SOL    HW111927   3.958   5.109   4.405
 3676SOL    HW211928   3.879   5.003   4.309
 3677SOL     OW11929   0.969   6.084   2.735
 3677SOL    HW111930   1.025   6.069   2.816
 3677SOL    HW211931   0.948   6.181   2.726
 3678SOL     OW11932   0.565   3.364   4.132
 3678SOL    HW111933   0.516   3.451   4.123
 3678SOL    HW211934   0.663   3.382   4.135
 3679SOL     OW11935   0.751   0.955   2.736
 3679SOL    HW111936   0.770   0.937   2.639
 3679SOL    HW211937   0.791   1.043   2.762
 3680SOL     OW11938   6.624   3.031   4.367
 3680SOL    HW111939   6.632   2.994   4.459
 3680SOL    HW211940   6.594   3.126   4.372
 3681SOL     OW11941   0.594   0.679   5.834
 3681SOL    HW111942   0.601   0.763   5.888
 3681SOL    HW211943   0.498   0.663   5.810
 3682SOL     OW11944   5.945   2.495   6.110
 3682SOL    HW111945   5.996   2.547   6.043
 3682SOL    HW211946   5.886   2.556   6.163
 3683SOL     OW11947   6.700   0.502   4.982
 3683SOL    HW111948   6.737   0.594   4.995
 3683SOL    HW211949   6.757   0.436   5.030
 3684SOL     OW11950   1.528   2.875   1.128
 3684SOL    HW111951   1.475   2.913   1.052
 3684SOL    HW211952   1.626   2.888   1.110
 3685SOL     OW11953   6.088   6.321   5.520
 3685SOL    HW111954   6.121   6.364   5.436
 3685SOL    HW211955   6.000   6.361   5.545
 3686SOL     OW11956   6.640   4.950   3.338
 3686SOL    HW111957   6.614   4.861   3.300
 3686SOL    HW211958   6.635   4.946   3.438
 3687SOL     OW11959   2.884   5.962   5.827
 3687SOL    HW111960   2.908   5.940   5.733
 3687SOL    HW211961   2.922   5.892   5.888
 3688SOL     OW11962   1.155   3.931   0.013
 3688SOL    HW111963   1.148   4.031   0.003
 3688SOL    HW211964   1.079   3.898   0.070
 3689SOL     OW11965   0.964   0.742   5.351
 3689SOL    HW111966   0.933   0.822   5.298
 3689SOL    HW211967   0.987   0.668   5.288
 3690SOL     OW11968   4.491   0.519   6.377
 3690SOL    HW111969   4.489   0.618   6.370
 3690SOL    HW211970   4.556   0.483   6.310
 3691SOL     OW11971   2.109   3.151   6.655
 3691SOL    HW111972   2.076   3.162   6.562
 3691SOL    HW211973   2.199   3.193   6.664
 3692SOL     OW11974   1.004   6.079   4.531
 3692SOL    HW111975   0.926   6.070   4.593
 3692SOL    HW211976   1.058   6.159   4.555
 3693SOL     OW11977   1.949   2.914   2.938
 3693SOL    HW111978   1.918   2.844   3.002
 3693SOL    HW211979   1.949   2.877   2.845
 3694SOL     OW11980   1.186   5.110   3.135
 3694SOL    HW111981   1.271   5.160   3.154
 3694SOL    HW211982   1.146   5.143   3.050
 3695SOL     OW11983   0.306   2.533   2.574
 3695SOL    HW111984   0.245   2.542   2.653
 3695SOL    HW211985   0.390   2.584   2.591
 3696SOL     OW11986   4.033   5.760   5.349
 3696SOL    HW111987   3.938   5.759   5.381
 3696SOL    HW211988   4.043   5.830   5.278
 3697SOL     OW11989   6.839   5.917   3.858
 3697SOL    HW111990   6.785   5.846   3.812
 3697SOL    HW211991   6.809   6.007   3.826
 3698SOL     OW11992   3.419   6.635   4.965
 3698SOL    HW111993   3.320   6.651   4.961
 3698SOL    HW211994   3.436   6.539   4.987
 3699SOL     OW11995   6.622   3.851   3.165
 3699SOL    HW111996   6.648   3.777   3.227
 3699SOL    HW211997   6.641   3.823   3.071
 3700SOL     OW11998   5.799   0.544   3.553
 3700SOL    HW111999   5.766   0.620   3.497
 3700SOL    HW212000   5.899   0.548   3.560
 3701SOL     OW12001   0.663   0.980   3.572
 3701SOL    HW112002   0.708   0.953   3.657
 3701SOL    HW212003   0.717   1.051   3.526
 3702SOL     OW12004   4.609   0.163   1.829
 3702SOL    HW112005   4.548   0.099   1.783
 3702SOL    HW212006   4.578   0.176   1.924
 3703SOL     OW12007   4.118   3.770   6.047
 3703SOL    HW112008   4.141   3.705   5.975
 3703SOL    HW212009   4.201   3.819   6.076
 3704SOL     OW12010   3.108   1.268   2.199
 3704SOL    HW112011   3.123   1.187   2.142
 3704SOL    HW212012   3.103   1.349   2.140
 3705SOL     OW12013   5.083   6.511   3.762
 3705SOL    HW112014   5.061   6.512   3.664
 3705SOL    HW212015   5.103   6.603   3.793
 3706SOL     OW12016   1.085   2.568   4.696
 3706SOL    HW112017   0.994   2.552   4.658
 3706SOL    HW212018   1.150   2.585   4.621
 3707SOL     OW12019   5.361   3.094   4.794
 3707SOL    HW112020   5.273   3.132   4.821
 3707SOL    HW212021   5.430   3.167   4.797
 3708SOL     OW12022   6.250   0.168   6.445
 3708SOL    HW112023   6.200   0.246   6.407
 3708SOL    HW212024   6.279   0.108   6.371
 3709SOL     OW12025   3.805   1.045   6.572
 3709SOL    HW112026   3.785   1.136   6.537
 3709SOL    HW212027   3.887   1.009   6.529
 3710SOL     OW12028   6.728   6.085   0.404
 3710SOL    HW112029   6.824   6.111   0.406
 3710SOL    HW212030   6.681   6.135   0.331
 3711SOL     OW12031   0.031   6.120   2.452
 3711SOL    HW112032   7.027   6.030   2.423
 3711SOL    HW212033   0.130   6.123   2.442
 3712SOL     OW12034   6.975   6.027   0.140
 3712SOL    HW112035   0.036   6.048   0.103
 3712SOL    HW212036   6.905   6.070   0.083
 3713SOL     OW12037   1.933   6.387   4.753
 3713SOL    HW112038   1.906   6.448   4.679
 3713SOL    HW212039   1.903   6.425   4.841
 3714SOL     OW12040   5.303   6.221   4.794
 3714SOL    HW112041   5.250   6.294   4.837
 3714SOL    HW212042   5.400   6.245   4.796
 3715SOL     OW12043   5.493   4.269   4.925
 3715SOL    HW112044   5.440   4.327   4.863
 3715SOL    HW212045   5.564   4.325   4.969
 3716SOL     OW12046   0.417   6.409   4.219
 3716SOL    HW112047   0.360   6.329   4.241
 3716SOL    HW212048   0.447   6.452   4.304
 3717SOL     OW12049   6.384   5.418   0.647
 3717SOL    HW112050   6.356   5.511   0.623
 3717SOL    HW212051   6.357   5.398   0.741
 3718SOL     OW12052   2.248   6.308   6.236
 3718SOL    HW112053   2.174   6.356   6.189
 3718SOL    HW212054   2.213   6.226   6.280
 3719SOL     OW12055   5.182   4.327   1.257
 3719SOL    HW112056   5.163   4.243   1.206
 3719SOL    HW212057   5.256   4.377   1.213
 3720SOL     OW12058   5.962   2.244   6.602
 3720SOL    HW112059   5.978   2.152   6.565
 3720SOL    HW212060   5.875   2.245   6.652
 3721SOL     OW12061   5.403   4.556   0.198
 3721SOL    HW112062   5.326   4.495   0.180
 3721SOL    HW212063   5.431   4.547   0.293
 3722SOL     OW12064   0.201   6.488   2.416
 3722SOL    HW112065   0.254   6.428   2.356
 3722SOL    HW212066   0.122   6.438   2.451
 3723SOL     OW12067   5.826   6.611   1.850
 3723SOL    HW112068   5.834   6.534   1.913
 3723SOL    HW212069   5.733   6.646   1.850
 3724SOL     OW12070   2.286   5.053   6.764
 3724SOL    HW112071   2.279   5.125   6.833
 3724SOL    HW212072   2.356   5.078   6.697
 3725SOL     OW12073   5.377   6.106   6.699
 3725SOL    HW112074   5.458   6.118   6.757
 3725SOL    HW212075   5.296   6.097   6.756
 3726SOL     OW12076   6.675   4.005   1.226
 3726SOL    HW112077   6.587   4.043   1.252
 3726SOL    HW212078   6.676   3.985   1.128
 3727SOL     OW12079   0.093   2.915   6.372
 3727SOL    HW112080   0.185   2.922   6.333
 3727SOL    HW212081   0.034   2.861   6.312
 3728SOL     OW12082   1.308   3.392   0.370
 3728SOL    HW112083   1.284   3.474   0.423
 3728SOL    HW212084   1.230   3.329   0.370
 3729SOL     OW12085   1.098   2.185   3.898
 3729SOL    HW112086   1.097   2.102   3.953
 3729SOL    HW212087   1.172   2.245   3.928
 3730SOL     OW12088   2.954   5.932   6.860
 3730SOL    HW112089   3.011   5.980   6.927
 3730SOL    HW212090   2.958   5.834   6.877
 3731SOL     OW12091   4.863   0.779   0.491
 3731SOL    HW112092   4.934   0.830   0.442
 3731SOL    HW212093   4.806   0.730   0.425
 3732SOL     OW12094   2.011   2.977   6.069
 3732SOL    HW112095   1.932   2.923   6.099
 3732SOL    HW212096   2.051   3.025   6.147
 3733SOL     OW12097   1.908   3.988   1.342
 3733SOL    HW112098   1.909   4.055   1.268
 3733SOL    HW212099   1.923   3.897   1.304
 3734SOL     OW12100   4.113   1.452   1.864
 3734SOL    HW112101   4.074   1.528   1.915
 3734SOL    HW212102   4.206   1.476   1.835
 3735SOL     OW12103   0.844   1.693   2.984
 3735SOL    HW112104   0.795   1.634   2.920
 3735SOL    HW212105   0.939   1.703   2.954
 3736SOL     OW12106   0.352   3.287   1.131
 3736SOL    HW112107   0.438   3.305   1.179
 3736SOL    HW212108   0.307   3.207   1.172
 3737SOL     OW12109   4.767   0.164   2.911
 3737SOL    HW112110   4.861   0.194   2.890
 3737SOL    HW212111   4.770   0.087   2.974
 3738SOL     OW12112   6.401   6.251   3.520
 3738SOL    HW112113   6.389   6.317   3.445
 3738SOL    HW212114   6.497   6.254   3.550
 3739SOL     OW12115   1.392   4.282   2.494
 3739SOL    HW112116   1.406   4.380   2.484
 3739SOL    HW212117   1.294   4.263   2.503
 3740SOL     OW12118   4.850   0.923   6.769
 3740SOL    HW112119   4.758   0.951   6.796
 3740SOL    HW212120   4.899   0.887   6.848
 3741SOL     OW12121   4.683   3.481   1.380
 3741SOL    HW112122   4.733   3.554   1.426
 3741SOL    HW212123   4.749   3.421   1.334
 3742SOL     OW12124   2.607   1.980   5.565
 3742SOL    HW112125   2.509   1.995   5.558
 3742SOL    HW212126   2.647   1.979   5.473
 3743SOL     OW12127   5.787   4.974   0.738
 3743SOL    HW112128   5.812   5.028   0.819
 3743SOL    HW212129   5.702   4.926   0.755
 3744SOL     OW12130   0.650   5.860   3.312
 3744SOL    HW112131   0.731   5.876   3.368
 3744SOL    HW212132   0.679   5.824   3.223
 3745SOL     OW12133   2.701   5.489   2.853
 3745SOL    HW112134   2.716   5.403   2.803
 3745SOL    HW212135   2.726   5.477   2.949
 3746SOL     OW12136   4.177   1.377   1.583
 3746SOL    HW112137   4.152   1.328   1.667
 3746SOL    HW212138   4.107   1.362   1.514
 3747SOL     OW12139   2.761   6.700   6.222
 3747SOL    HW112140   2.764   6.764   6.298
 3747SOL    HW212141   2.742   6.749   6.137
 3748SOL     OW12142   5.130   0.594   1.609
 3748SOL    HW112143   5.032   0.596   1.626
 3748SOL    HW212144   5.158   0.503   1.580
 3749SOL     OW12145   1.569   6.537   4.226
 3749SOL    HW112146   1.520   6.623   4.222
 3749SOL    HW212147   1.593   6.517   4.322
 3750SOL     OW12148   1.556   3.933   0.503
 3750SOL    HW112149   1.562   3.840   0.466
 3750SOL    HW212150   1.582   3.933   0.599
 3751SOL     OW12151   6.900   3.943   2.963
 3751SOL    HW112152   6.837   3.868   2.942
 3751SOL    HW212153   6.994   3.910   2.954
 3752SOL     OW12154   5.272   0.748   5.518
 3752SOL    HW112155   5.300   0.770   5.612
 3752SOL    HW212156   5.276   0.831   5.463
 3753SOL     OW12157   5.922   0.505   4.982
 3753SOL    HW112158   6.004   0.552   5.014
 3753SOL    HW212159   5.939   0.466   4.892
 3754SOL     OW12160   1.922   0.725   2.364
 3754SOL    HW112161   1.963   0.816   2.374
 3754SOL    HW212162   1.984   0.667   2.312
 3755SOL     OW12163   3.145   4.993   4.878
 3755SOL    HW112164   3.105   5.059   4.941
 3755SOL    HW212165   3.073   4.944   4.830
 3756SOL     OW12166   3.144   5.692   6.889
 3756SOL    HW112167   3.221   5.717   6.948
 3756SOL    HW212168   3.166   5.714   6.794
 3757SOL     OW12169   6.665   5.128   1.873
 3757SOL    HW112170   6.756   5.089   1.888
 3757SOL    HW212171   6.596   5.065   1.910
 3758SOL     OW12172   2.152   1.218   4.440
 3758SOL    HW112173   2.109   1.147   4.384
 3758SOL    HW212174   2.161   1.186   4.534
 3759SOL     OW12175   4.682   0.875   4.770
 3759SOL    HW112176   4.665   0.798   4.709
 3759SOL    HW212177   4.647   0.959   4.727
 3760SOL     OW12178   0.230   0.324   3.619
 3760SOL    HW112179   0.307   0.279   3.663
 3760SOL    HW212180   0.262   0.372   3.537
 3761SOL     OW12181   6.024   1.395   4.761
 3761SOL    HW112182   6.069   1.372   4.675
 3761SOL    HW212183   6.037   1.322   4.828
 3762SOL     OW12184   1.290   3.689   2.423
 3762SOL    HW112185   1.336   3.747   2.357
 3762SOL    HW212186   1.356   3.651   2.488
 3763SOL     OW12187   6.714   3.772   0.199
 3763SOL    HW112188   6.783   3.713   0.241
 3763SOL    HW212189   6.726   3.866   0.231
 3764SOL     OW12190   2.018   0.502   2.872
 3764SOL    HW112191   2.040   0.418   2.920
 3764SOL    HW212192   1.921   0.522   2.881
 3765SOL     OW12193   5.930   1.826   1.708
 3765SOL    HW112194   5.993   1.776   1.648
 3765SOL    HW212195   5.962   1.821   1.802
 3766SOL     OW12196   1.963   2.673   4.229
 3766SOL    HW112197   1.900   2.669   4.152
 3766SOL    HW212198   1.983   2.581   4.261
 3767SOL     OW12199   3.264   4.019   6.218
 3767SOL    HW112200   3.317   3.992   6.137
 3767SOL    HW212201   3.252   3.940   6.278
 3768SOL     OW12202   2.158   0.852   4.816
 3768SOL    HW112203   2.070   0.828   4.856
 3768SOL    HW212204   2.144   0.915   4.740
 3769SOL     OW12205   5.495   5.464   4.902
 3769SOL    HW112206   5.472   5.521   4.980
 3769SOL    HW212207   5.489   5.368   4.928
 3770SOL     OW12208   1.279   1.231   0.152
 3770SOL    HW112209   1.269   1.318   0.104
 3770SOL    HW212210   1.261   1.156   0.088
 3771SOL     OW12211   6.184   4.492   0.609
 3771SOL    HW112212   6.175   4.393   0.616
 3771SOL    HW212213   6.127   4.536   0.678
 3772SOL     OW12214   1.391   6.193   0.102
 3772SOL    HW112215   1.483   6.230   0.089
 3772SOL    HW212216   1.325   6.251   0.053
 3773SOL     OW12217   5.190   4.325   5.885
 3773SOL    HW112218   5.094   4.299   5.886
 3773SOL    HW212219   5.209   4.390   5.958
 3774SOL     OW12220   6.100   4.755   2.031
 3774SOL    HW112221   6.017   4.712   1.998
 3774SOL    HW212222   6.088   4.782   2.127
 3775SOL     OW12223   3.530   5.063   3.445
 3775SOL    HW112224   3.557   5.156   3.422
 3775SOL    HW212225   3.433   5.060   3.468
 3776SOL     OW12226   3.798   2.737   6.507
 3776SOL    HW112227   3.829   2.663   6.567
 3776SOL    HW212228   3.699   2.731   6.495
 3777SOL     OW12229   2.580   6.090   3.553
 3777SOL    HW112230   2.660   6.151   3.555
 3777SOL    HW212231   2.566   6.050   3.643
 3778SOL     OW12232   2.343   6.306   4.577
 3778SOL    HW112233   2.341   6.324   4.675
 3778SOL    HW212234   2.251   6.282   4.545
 3779SOL     OW12235   0.515   5.112   0.734
 3779SOL    HW112236   0.464   5.092   0.818
 3779SOL    HW212237   0.464   5.079   0.655
 3780SOL     OW12238   6.951   2.603   2.673
 3780SOL    HW112239   6.981   2.596   2.578
 3780SOL    HW212240   6.895   2.685   2.684
 3781SOL     OW12241   0.995   6.413   5.303
 3781SOL    HW112242   0.910   6.363   5.318
 3781SOL    HW212243   0.976   6.510   5.295
 3782SOL     OW12244   4.361   6.395   2.343
 3782SOL    HW112245   4.351   6.346   2.256
 3782SOL    HW212246   4.373   6.492   2.325
 3783SOL     OW12247   5.085   4.710   5.358
 3783SOL    HW112248   5.111   4.631   5.414
 3783SOL    HW212249   5.157   4.727   5.290
 3784SOL     OW12250   5.407   2.918   2.271
 3784SOL    HW112251   5.345   2.877   2.338
 3784SOL    HW212252   5.382   2.888   2.180
 3785SOL     OW12253   0.486   3.181   5.407
 3785SOL    HW112254   0.502   3.104   5.345
 3785SOL    HW212255   0.506   3.267   5.360
 3786SOL     OW12256   2.283   2.344   3.479
 3786SOL    HW112257   2.240   2.335   3.569
 3786SOL    HW212258   2.383   2.342   3.489
 3787SOL     OW12259   4.373   0.258   3.082
 3787SOL    HW112260   4.449   0.296   3.029
 3787SOL    HW212261   4.317   0.333   3.117
 3788SOL     OW12262   6.772   3.817   4.963
 3788SOL    HW112263   6.694   3.833   4.902
 3788SOL    HW212264   6.739   3.810   5.057
 3789SOL     OW12265   0.879   3.169   2.926
 3789SOL    HW112266   0.911   3.124   3.010
 3789SOL    HW212267   0.947   3.157   2.854
 3790SOL     OW12268   1.095   5.810   6.940
 3790SOL    HW112269   1.109   5.874   6.865
 3790SOL    HW212270   1.166   5.826   7.010
 3791SOL     OW12271   5.474   1.358   6.429
 3791SOL    HW112272   5.442   1.425   6.497
 3791SOL    HW212273   5.508   1.405   6.349
 3792SOL     OW12274   0.997   1.072   4.448
 3792SOL    HW112275   0.918   1.012   4.435
 3792SOL    HW212276   1.079   1.017   4.461
 3793SOL     OW12277   6.076   6.021   1.122
 3793SOL    HW112278   6.072   5.970   1.036
 3793SOL    HW212279   6.067   6.119   1.103
 3794SOL     OW12280   2.065   3.142   0.995
 3794SOL    HW112281   2.162   3.120   0.987
 3794SOL    HW212282   2.035   3.193   0.914
 3795SOL     OW12283   2.961   6.128   0.932
 3795SOL    HW112284   2.987   6.144   0.836
 3795SOL    HW212285   2.986   6.035   0.958
 3796SOL     OW12286   4.074   2.112   1.291
 3796SOL    HW112287   4.085   2.194   1.347
 3796SOL    HW212288   4.164   2.075   1.269
 3797SOL     OW12289   1.104   4.041   2.307
 3797SOL    HW112290   1.039   4.044   2.232
 3797SOL    HW212291   1.101   4.127   2.358
 3798SOL     OW12292   2.321   0.089   2.660
 3798SOL    HW112293   2.366   0.156   2.719
 3798SOL    HW212294   2.312   0.002   2.709
 3799SOL     OW12295   6.677   2.464   3.149
 3799SOL    HW112296   6.735   2.394   3.107
 3799SOL    HW212297   6.603   2.420   3.199
 3800SOL     OW12298   4.917   1.877   2.860
 3800SOL    HW112299   4.934   1.803   2.925
 3800SOL    HW212300   5.002   1.929   2.846
 3801SOL     OW12301   5.393   6.796   2.439
 3801SOL    HW112302   5.481   6.779   2.396
 3801SOL    HW212303   5.361   6.888   2.413
 3802SOL     OW12304   0.547   2.019   2.542
 3802SOL    HW112305   0.630   2.043   2.593
 3802SOL    HW212306   0.572   1.972   2.458
 3803SOL     OW12307   3.692   3.592   3.831
 3803SOL    HW112308   3.712   3.651   3.909
 3803SOL    HW212309   3.699   3.497   3.859
 3804SOL     OW12310   3.103   1.442   4.437
 3804SOL    HW112311   3.170   1.515   4.447
 3804SOL    HW212312   3.129   1.365   4.495
 3805SOL     OW12313   2.688   2.552   0.823
 3805SOL    HW112314   2.755   2.490   0.783
 3805SOL    HW212315   2.596   2.523   0.797
 3806SOL     OW12316   4.063   3.703   6.364
 3806SOL    HW112317   3.975   3.694   6.316
 3806SOL    HW212318   4.088   3.799   6.369
 3807SOL     OW12319   1.365   5.198   4.547
 3807SOL    HW112320   1.415   5.151   4.474
 3807SOL    HW212321   1.365   5.140   4.629
 3808SOL     OW12322   4.796   0.444   5.901
 3808SOL    HW112323   4.766   0.519   5.960
 3808SOL    HW212324   4.812   0.478   5.809
 3809SOL     OW12325   6.233   1.809   1.649
 3809SOL    HW112326   6.266   1.821   1.742
 3809SOL    HW212327   6.241   1.895   1.599
 3810SOL     OW12328   0.008   2.915   3.467
 3810SOL    HW112329   0.099   2.905   3.508
 3810SOL    HW212330   7.013   3.012   3.463
 3811SOL     OW12331   0.110   6.161   4.516
 3811SOL    HW112332   0.100   6.078   4.462
 3811SOL    HW212333   0.019   6.195   4.542
 3812SOL     OW12334   3.032   5.381   6.526
 3812SOL    HW112335   3.029   5.338   6.616
 3812SOL    HW212336   3.114   5.350   6.477
 3813SOL     OW12337   6.209   3.906   1.056
 3813SOL    HW112338   6.255   3.818   1.059
 3813SOL    HW212339   6.115   3.894   1.024
 3814SOL     OW12340   0.096   6.868   4.049
 3814SOL    HW112341   0.009   6.858   4.097
 3814SOL    HW212342   0.171   6.849   4.112
 3815SOL     OW12343   5.230   3.009   0.182
 3815SOL    HW112344   5.286   2.930   0.158
 3815SOL    HW212345   5.142   2.977   0.218
 3816SOL     OW12346   0.647   6.294   5.213
 3816SOL    HW112347   0.639   6.343   5.127
 3816SOL    HW212348   0.583   6.217   5.214
 3817SOL     OW12349   4.883   3.559   2.630
 3817SOL    HW112350   4.842   3.631   2.687
 3817SOL    HW212351   4.934   3.495   2.688
 3818SOL     OW12352   0.307   0.718   1.372
 3818SOL    HW112353   0.281   0.687   1.464
 3818SOL    HW212354   0.314   0.639   1.311
 3819SOL     OW12355   6.698   4.282   2.731
 3819SOL    HW112356   6.602   4.263   2.754
 3819SOL    HW212357   6.752   4.286   2.815
 3820SOL     OW12358   5.392   6.720   3.651
 3820SOL    HW112359   5.371   6.623   3.636
 3820SOL    HW212360   5.478   6.743   3.606
 3821SOL     OW12361   0.705   0.581   0.733
 3821SOL    HW112362   0.696   0.499   0.789
 3821SOL    HW212363   0.801   0.611   0.734
 3822SOL     OW12364   3.344   0.046   0.103
 3822SOL    HW112365   3.430   0.036   0.052
 3822SOL    HW212366   3.362   0.038   0.201
 3823SOL     OW12367   4.543   4.413   6.293
 3823SOL    HW112368   4.544   4.492   6.232
 3823SOL    HW212369   4.635   4.374   6.297
 3824SOL     OW12370   0.945   2.253   0.844
 3824SOL    HW112371   0.938   2.236   0.746
 3824SOL    HW212372   1.038   2.237   0.874
 3825SOL     OW12373   0.894   4.338   1.151
 3825SOL    HW112374   0.882   4.242   1.123
 3825SOL    HW212375   0.818   4.393   1.116
 3826SOL     OW12376   0.238   3.799   2.415
 3826SOL    HW112377   0.321   3.844   2.383
 3826SOL    HW212378   0.196   3.749   2.340
 3827SOL     OW12379   0.644   0.851   1.918
 3827SOL    HW112380   0.726   0.891   1.877
 3827SOL    HW212381   0.565   0.870   1.859
 3828SOL     OW12382   3.706   3.868   4.719
 3828SOL    HW112383   3.680   3.950   4.667
 3828SOL    HW212384   3.711   3.890   4.816
 3829SOL     OW12385   0.505   4.927   1.999
 3829SOL    HW112386   0.484   5.025   1.992
 3829SOL    HW212387   0.593   4.909   1.957
 3830SOL     OW12388   0.335   0.688   5.395
 3830SOL    HW112389   0.331   0.639   5.307
 3830SOL    HW212390   0.344   0.786   5.378
 3831SOL     OW12391   4.182   2.121   3.073
 3831SOL    HW112392   4.159   2.129   3.170
 3831SOL    HW212393   4.278   2.142   3.059
 3832SOL     OW12394   6.982   0.718   2.145
 3832SOL    HW112395   6.958   0.642   2.206
 3832SOL    HW212396   6.910   0.729   2.077
 3833SOL     OW12397   1.963   6.965   6.712
 3833SOL    HW112398   2.057   6.932   6.712
 3833SOL    HW212399   1.932   6.978   6.618
 3834SOL     OW12400   4.038   4.313   0.985
 3834SOL    HW112401   4.132   4.317   1.017
 3834SOL    HW212402   3.987   4.245   1.038
 3835SOL     OW12403   4.111   5.950   5.141
 3835SOL    HW112404   4.181   5.997   5.087
 3835SOL    HW212405   4.034   5.925   5.082
 3836SOL     OW12406   0.519   4.620   5.684
 3836SOL    HW112407   0.610   4.579   5.682
 3836SOL    HW212408   0.450   4.549   5.670
 3837SOL     OW12409   4.308   5.508   4.932
 3837SOL    HW112410   4.358   5.461   5.004
 3837SOL    HW212411   4.271   5.441   4.867
 3838SOL     OW12412   1.463   1.524   3.121
 3838SOL    HW112413   1.489   1.620   3.110
 3838SOL    HW212414   1.423   1.511   3.212
 3839SOL     OW12415   3.995   0.749   2.812
 3839SOL    HW112416   3.896   0.757   2.800
 3839SOL    HW212417   4.029   0.829   2.863
 3840SOL     OW12418   2.734   1.697   5.763
 3840SOL    HW112419   2.779   1.777   5.722
 3840SOL    HW212420   2.801   1.624   5.774
 3841SOL     OW12421   1.470   4.343   4.460
 3841SOL    HW112422   1.413   4.417   4.496
 3841SOL    HW212423   1.433   4.255   4.490
 3842SOL     OW12424   2.362   2.779   3.974
 3842SOL    HW112425   2.345   2.765   4.071
 3842SOL    HW212426   2.444   2.730   3.947
 3843SOL     OW12427   5.637   3.691   0.920
 3843SOL    HW112428   5.703   3.705   0.846
 3843SOL    HW212429   5.597   3.600   0.912
 3844SOL     OW12430   1.189   4.244   6.984
 3844SOL    HW112431   1.156   4.326   0.002
 3844SOL    HW212432   1.277   4.216   7.023
 3845SOL     OW12433   2.452   5.928   0.160
 3845SOL    HW112434   2.430   5.906   0.065
 3845SOL    HW212435   2.481   6.023   0.166
 3846SOL     OW12436   0.738   3.584   4.441
 3846SOL    HW112437   0.818   3.570   4.383
 3846SOL    HW212438   0.756   3.658   4.505
 3847SOL     OW12439   5.016   2.402   4.494
 3847SOL    HW112440   4.996   2.480   4.553
 3847SOL    HW212441   5.017   2.431   4.399
 3848SOL     OW12442   4.882   3.852   2.650
 3848SOL    HW112443   4.893   3.797   2.732
 3848SOL    HW212444   4.802   3.912   2.659
 3849SOL     OW12445   0.721   0.237   6.071
 3849SOL    HW112446   0.772   0.198   6.148
 3849SOL    HW212447   0.776   0.229   5.988
 3850SOL     OW12448   3.353   2.754   1.297
 3850SOL    HW112449   3.267   2.760   1.347
 3850SOL    HW212450   3.345   2.684   1.225
 3851SOL     OW12451   0.096   5.040   3.367
 3851SOL    HW112452   0.066   5.136   3.373
 3851SOL    HW212453   0.044   4.984   3.431
 3852SOL     OW12454   3.350   6.236   4.353
 3852SOL    HW112455   3.326   6.318   4.405
 3852SOL    HW212456   3.420   6.259   4.286
 3853SOL     OW12457   1.347   2.532   3.336
 3853SOL    HW112458   1.414   2.598   3.304
 3853SOL    HW212459   1.256   2.559   3.304
 3854SOL     OW12460   1.085   2.722   2.994
 3854SOL    HW112461   1.065   2.785   2.918
 3854SOL    HW212462   1.066   2.628   2.964
 3855SOL     OW12463   3.968   6.196   6.659
 3855SOL    HW112464   3.996   6.122   6.598
 3855SOL    HW212465   3.951   6.158   6.751
 3856SOL     OW12466   0.530   1.268   6.030
 3856SOL    HW112467   0.460   1.257   5.959
 3856SOL    HW212468   0.513   1.352   6.081
 3857SOL     OW12469   1.486   6.469   6.236
 3857SOL    HW112470   1.535   6.385   6.257
 3857SOL    HW212471   1.440   6.502   6.319
 3858SOL     OW12472   3.347   1.287   6.154
 3858SOL    HW112473   3.340   1.194   6.117
 3858SOL    HW212474   3.351   1.353   6.078
 3859SOL     OW12475   6.133   0.899   1.779
 3859SOL    HW112476   6.051   0.843   1.795
 3859SOL    HW212477   6.107   0.985   1.736
 3860SOL     OW12478   1.676   1.247   4.328
 3860SOL    HW112479   1.649   1.342   4.338
 3860SOL    HW212480   1.594   1.189   4.326
 3861SOL     OW12481   4.703   6.301   3.222
 3861SOL    HW112482   4.696   6.209   3.184
 3861SOL    HW212483   4.617   6.325   3.267
 3862SOL     OW12484   0.616   0.365   4.553
 3862SOL    HW112485   0.691   0.430   4.558
 3862SOL    HW212486   0.610   0.327   4.461
 3863SOL     OW12487   6.234   1.567   6.622
 3863SOL    HW112488   6.253   1.616   6.537
 3863SOL    HW212489   6.136   1.548   6.628
 3864SOL     OW12490   2.194   0.691   5.209
 3864SOL    HW112491   2.241   0.740   5.282
 3864SOL    HW212492   2.146   0.611   5.247
 3865SOL     OW12493   4.167   1.261   1.101
 3865SOL    HW112494   4.111   1.249   1.019
 3865SOL    HW212495   4.228   1.182   1.111
 3866SOL     OW12496   4.136   1.016   0.006
 3866SOL    HW112497   4.081   0.945   6.993
 3866SOL    HW212498   4.210   0.975   0.059
 3867SOL     OW12499   1.324   4.312   3.316
 3867SOL    HW112500   1.411   4.309   3.366
 3867SOL    HW212501   1.285   4.403   3.323
 3868SOL     OW12502   3.868   0.371   6.991
 3868SOL    HW112503   3.888   0.300   0.030
 3868SOL    HW212504   3.936   0.367   6.918
 3869SOL     OW12505   6.823   3.137   3.830
 3869SOL    HW112506   6.771   3.205   3.882
 3869SOL    HW212507   6.782   3.125   3.740
 3870SOL     OW12508   0.039   6.380   1.103
 3870SOL    HW112509   0.103   6.457   1.107
 3870SOL    HW212510   0.049   6.334   1.015
 3871SOL     OW12511   3.571   0.783   3.216
 3871SOL    HW112512   3.529   0.766   3.306
 3871SOL    HW212513   3.566   0.881   3.195
 3872SOL     OW12514   3.104   3.534   3.893
 3872SOL    HW112515   3.076   3.530   3.797
 3872SOL    HW212516   3.048   3.470   3.947
 3873SOL     OW12517   5.993   4.348   1.085
 3873SOL    HW112518   5.965   4.444   1.093
 3873SOL    HW212519   5.994   4.306   1.176
 3874SOL     OW12520   4.093   0.573   0.084
 3874SOL    HW112521   4.025   0.500   0.082
 3874SOL    HW212522   4.091   0.619   0.173
 3875SOL     OW12523   2.067   2.788   3.238
 3875SOL    HW112524   2.072   2.694   3.272
 3875SOL    HW212525   2.123   2.797   3.156
 3876SOL     OW12526   3.711   5.313   0.726
 3876SOL    HW112527   3.771   5.260   0.785
 3876SOL    HW212528   3.750   5.404   0.712
 3877SOL     OW12529   6.115   2.469   1.446
 3877SOL    HW112530   6.208   2.434   1.455
 3877SOL    HW212531   6.076   2.483   1.536
 3878SOL     OW12532   4.704   6.516   4.230
 3878SOL    HW112533   4.747   6.499   4.141
 3878SOL    HW212534   4.606   6.529   4.217
 3879SOL     OW12535   6.138   5.436   0.795
 3879SOL    HW112536   6.059   5.492   0.819
 3879SOL    HW212537   6.171   5.463   0.704
 3880SOL     OW12538   5.187   4.026   4.619
 3880SOL    HW112539   5.225   4.099   4.562
 3880SOL    HW212540   5.234   4.025   4.707
 3881SOL     OW12541   1.371   3.489   1.522
 3881SOL    HW112542   1.343   3.398   1.553
 3881SOL    HW212543   1.467   3.504   1.543
 3882SOL     OW12544   0.546   0.902   5.993
 3882SOL    HW112545   0.451   0.911   6.023
 3882SOL    HW212546   0.599   0.979   6.028
 3883SOL     OW12547   3.992   1.442   2.351
 3883SOL    HW112548   3.958   1.401   2.436
 3883SOL    HW212549   3.917   1.490   2.305
 3884SOL     OW12550   0.704   5.548   2.309
 3884SOL    HW112551   0.641   5.611   2.263
 3884SOL    HW212552   0.724   5.584   2.400
 3885SOL     OW12553   6.840   5.228   2.966
 3885SOL    HW112554   6.827   5.327   2.967
 3885SOL    HW212555   6.846   5.194   3.060
 3886SOL     OW12556   4.827   6.015   5.111
 3886SOL    HW112557   4.868   6.090   5.161
 3886SOL    HW212558   4.874   6.003   5.023
 3887SOL     OW12559   0.979   0.419   0.025
 3887SOL    HW112560   0.923   0.444   0.104
 3887SOL    HW212561   1.062   0.373   0.056
 3888SOL     OW12562   6.396   0.066   5.015
 3888SOL    HW112563   6.344   7.010   5.021
 3888SOL    HW212564   6.473   0.054   4.952
 3889SOL     OW12565   6.979   3.676   0.516
 3889SOL    HW112566   6.993   3.592   0.569
 3889SOL    HW212567   6.883   3.703   0.523
 3890SOL     OW12568   6.661   4.499   3.556
 3890SOL    HW112569   6.647   4.530   3.462
 3890SOL    HW212570   6.758   4.504   3.579
 3891SOL     OW12571   5.619   3.862   4.460
 3891SOL    HW112572   5.583   3.828   4.373
 3891SOL    HW212573   5.650   3.785   4.516
 3892SOL     OW12574   0.182   2.141   1.492
 3892SOL    HW112575   0.211   2.187   1.408
 3892SOL    HW212576   0.204   2.043   1.486
 3893SOL     OW12577   4.207   3.352   0.027
 3893SOL    HW112578   4.166   3.269   7.018
 3893SOL    HW212579   4.140   3.426   0.026
 3894SOL     OW12580   4.384   1.110   0.190
 3894SOL    HW112581   4.477   1.101   0.226
 3894SOL    HW212582   4.336   1.022   0.199
 3895SOL     OW12583   1.077   0.655   5.613
 3895SOL    HW112584   1.006   0.667   5.683
 3895SOL    HW212585   1.038   0.672   5.523
 3896SOL     OW12586   0.301   1.255   5.852
 3896SOL    HW112587   0.304   1.158   5.827
 3896SOL    HW212588   0.262   1.308   5.777
 3897SOL     OW12589   4.051   5.442   2.376
 3897SOL    HW112590   3.957   5.450   2.408
 3897SOL    HW212591   4.053   5.448   2.276
 3898SOL     OW12592   2.825   3.125   5.800
 3898SOL    HW112593   2.912   3.160   5.767
 3898SOL    HW212594   2.827   3.025   5.800
 3899SOL     OW12595   4.521   6.573   5.249
 3899SOL    HW112596   4.473   6.514   5.314
 3899SOL    HW212597   4.512   6.535   5.157
 3900SOL     OW12598   4.830   3.222   3.435
 3900SOL    HW112599   4.803   3.163   3.360
 3900SOL    HW212600   4.834   3.317   3.404
 3901SOL     OW12601   3.072   0.523   5.775
 3901SOL    HW112602   3.151   0.558   5.825
 3901SOL    HW212603   3.054   0.429   5.803
 3902SOL     OW12604   6.193   2.712   1.985
 3902SOL    HW112605   6.232   2.628   1.947
 3902SOL    HW212606   6.261   2.757   2.042
 3903SOL     OW12607   3.997   5.885   0.412
 3903SOL    HW112608   3.971   5.967   0.361
 3903SOL    HW212609   4.007   5.808   0.348
 3904SOL     OW12610   2.675   1.093   6.027
 3904SOL    HW112611   2.748   1.150   6.065
 3904SOL    HW212612   2.628   1.143   5.954
 3905SOL     OW12613   0.197   0.285   6.880
 3905SOL    HW112614   0.275   0.222   6.880
 3905SOL    HW212615   0.112   0.232   6.882
 3906SOL     OW12616   5.636   6.063   5.728
 3906SOL    HW112617   5.541   6.033   5.742
 3906SOL    HW212618   5.690   5.986   5.694
 3907SOL     OW12619   5.667   0.779   3.437
 3907SOL    HW112620   5.745   0.831   3.401
 3907SOL    HW212621   5.612   0.839   3.495
 3908SOL     OW12622   1.027   2.314   0.570
 3908SOL    HW112623   1.069   2.392   0.521
 3908SOL    HW212624   0.928   2.321   0.564
 3909SOL     OW12625   6.400   5.857   5.678
 3909SOL    HW112626   6.359   5.914   5.607
 3909SOL    HW212627   6.441   5.914   5.748
 3910SOL     OW12628   3.776   3.598   3.015
 3910SOL    HW112629   3.857   3.563   2.969
 3910SOL    HW212630   3.727   3.522   3.058
 3911SOL     OW12631   4.895   1.300   5.522
 3911SOL    HW112632   4.882   1.281   5.620
 3911SOL    HW212633   4.933   1.392   5.511
 3912SOL     OW12634   5.197   1.144   5.085
 3912SOL    HW112635   5.118   1.159   5.144
 3912SOL    HW212636   5.279   1.182   5.128
 3913SOL     OW12637   2.607   6.560   6.387
 3913SOL    HW112638   2.669   6.609   6.325
 3913SOL    HW212639   2.513   6.566   6.352
 3914SOL     OW12640   3.153   0.897   0.784
 3914SOL    HW112641   3.165   0.880   0.882
 3914SOL    HW212642   3.239   0.881   0.737
 3915SOL     OW12643   4.817   5.409   1.703
 3915SOL    HW112644   4.727   5.368   1.714
 3915SOL    HW212645   4.878   5.343   1.659
 3916SOL     OW12646   1.354   0.463   4.475
 3916SOL    HW112647   1.399   0.511   4.400
 3916SOL    HW212648   1.348   0.524   4.555
 3917SOL     OW12649   6.244   5.950   6.989
 3917SOL    HW112650   6.298   6.000   0.028
 3917SOL    HW212651   6.147   5.956   7.013
 3918SOL     OW12652   4.960   6.097   1.511
 3918SOL    HW112653   5.008   6.058   1.432
 3918SOL    HW212654   4.998   6.187   1.532
 3919SOL     OW12655   2.950   6.511   6.580
 3919SOL    HW112656   2.908   6.554   6.660
 3919SOL    HW212657   2.897   6.430   6.554
 3920SOL     OW12658   3.161   3.056   0.801
 3920SOL    HW112659   3.180   3.016   0.711
 3920SOL    HW212660   3.212   3.006   0.871
 3921SOL     OW12661   0.040   3.663   1.742
 3921SOL    HW112662   6.989   3.642   1.799
 3921SOL    HW212663   0.123   3.649   1.795
 3922SOL     OW12664   6.665   3.133   1.963
 3922SOL    HW112665   6.617   3.110   1.878
 3922SOL    HW212666   6.715   3.219   1.950
 3923SOL     OW12667   6.591   0.952   7.017
 3923SOL    HW112668   6.557   0.885   6.951
 3923SOL    HW212669   6.636   1.027   6.967
 3924SOL     OW12670   0.547   4.609   3.709
 3924SOL    HW112671   0.587   4.577   3.623
 3924SOL    HW212672   0.449   4.625   3.695
 3925SOL     OW12673   3.117   5.073   1.120
 3925SOL    HW112674   3.059   4.996   1.148
 3925SOL    HW212675   3.059   5.149   1.091
 3926SOL     OW12676   6.972   5.930   3.252
 3926SOL    HW112677   6.962   5.920   3.351
 3926SOL    HW212678   0.035   5.902   3.225
 3927SOL     OW12679   6.767   2.757   3.540
 3927SOL    HW112680   6.843   2.749   3.476
 3927SOL    HW212681   6.798   2.802   3.624
 3928SOL     OW12682   3.535   6.111   5.998
 3928SOL    HW112683   3.546   6.117   6.097
 3928SOL    HW212684   3.624   6.096   5.955
 3929SOL     OW12685   0.000   0.849   5.147
 3929SOL    HW112686   7.020   0.771   5.208
 3929SOL    HW212687   0.038   0.927   5.198
 3930SOL     OW12688   2.369   1.871   3.953
 3930SOL    HW112689   2.345   1.875   3.856
 3930SOL    HW212690   2.288   1.846   4.006
 3931SOL     OW12691   1.800   1.153   1.761
 3931SOL    HW112692   1.886   1.134   1.714
 3931SOL    HW212693   1.726   1.154   1.694
 3932SOL     OW12694   1.732   4.882   3.582
 3932SOL    HW112695   1.804   4.867   3.651
 3932SOL    HW212696   1.731   4.805   3.518
 3933SOL     OW12697   2.382   6.192   6.934
 3933SOL    HW112698   2.429   6.225   7.016
 3933SOL    HW212699   2.447   6.139   6.878
 3934SOL     OW12700   6.666   1.129   0.605
 3934SOL    HW112701   6.744   1.169   0.557
 3934SOL    HW212702   6.687   1.120   0.702
 3935SOL     OW12703   2.660   6.514   7.015
 3935SOL    HW112704   2.713   6.546   0.064
 3935SOL    HW212705   2.708   6.538   6.930
 3936SOL     OW12706   0.344   4.904   5.578
 3936SOL    HW112707   0.317   4.818   5.622
 3936SOL    HW212708   0.438   4.895   5.544
 3937SOL     OW12709   6.816   1.833   3.556
 3937SOL    HW112710   6.752   1.796   3.488
 3937SOL    HW212711   6.910   1.818   3.524
 3938SOL     OW12712   0.165   2.387   4.018
 3938SOL    HW112713   0.205   2.476   3.997
 3938SOL    HW212714   0.203   2.351   4.103
 3939SOL     OW12715   2.466   2.194   2.647
 3939SOL    HW112716   2.454   2.149   2.558
 3939SOL    HW212717   2.377   2.203   2.691
 3940SOL     OW12718   4.678   5.473   1.243
 3940SOL    HW112719   4.748   5.414   1.203
 3940SOL    HW212720   4.618   5.419   1.302
 3941SOL     OW12721   4.880   3.065   6.061
 3941SOL    HW112722   4.821   2.985   6.053
 3941SOL    HW212723   4.936   3.057   6.144
 3942SOL     OW12724   0.366   0.073   6.847
 3942SOL    HW112725   0.407   0.008   6.912
 3942SOL    HW212726   0.305   0.025   6.785
 3943SOL     OW12727   0.099   3.807   3.000
 3943SOL    HW112728   0.153   3.827   3.082
 3943SOL    HW212729   0.080   3.709   2.995
 3944SOL     OW12730   4.589   2.763   4.870
 3944SOL    HW112731   4.520   2.798   4.807
 3944SOL    HW212732   4.544   2.712   4.944
 3945SOL     OW12733   0.043   1.671   0.528
 3945SOL    HW112734   0.087   1.686   0.617
 3945SOL    HW212735   7.012   1.592   0.533
 3946SOL     OW12736   5.495   5.570   5.613
 3946SOL    HW112737   5.503   5.630   5.534
 3946SOL    HW212738   5.570   5.588   5.677
 3947SOL     OW12739   5.871   5.758   0.687
 3947SOL    HW112740   5.795   5.734   0.628
 3947SOL    HW212741   5.942   5.804   0.634
 3948SOL     OW12742   1.248   5.940   2.062
 3948SOL    HW112743   1.250   5.872   2.135
 3948SOL    HW212744   1.260   5.895   1.973
 3949SOL     OW12745   4.789   0.487   3.231
 3949SOL    HW112746   4.858   0.522   3.168
 3949SOL    HW212747   4.699   0.524   3.207
 3950SOL     OW12748   1.762   4.125   1.159
 3950SOL    HW112749   1.692   4.078   1.212
 3950SOL    HW212750   1.756   4.224   1.177
 3951SOL     OW12751   5.641   6.774   0.796
 3951SOL    HW112752   5.567   6.766   0.729
 3951SOL    HW212753   5.725   6.736   0.757
 3952SOL     OW12754   6.352   3.022   3.037
 3952SOL    HW112755   6.273   3.079   3.012
 3952SOL    HW212756   6.367   2.953   2.966
 3953SOL     OW12757   3.802   4.786   1.719
 3953SOL    HW112758   3.895   4.799   1.686
 3953SOL    HW212759   3.760   4.708   1.672
 3954SOL     OW12760   4.376   4.986   5.039
 3954SOL    HW112761   4.365   4.903   4.985
 3954SOL    HW212762   4.460   5.034   5.011
 3955SOL     OW12763   3.209   5.736   6.645
 3955SOL    HW112764   3.184   5.714   6.550
 3955SOL    HW212765   3.292   5.791   6.645
 3956SOL     OW12766   6.809   0.912   3.567
 3956SOL    HW112767   6.819   0.894   3.664
 3956SOL    HW212768   6.712   0.922   3.545
 3957SOL     OW12769   4.684   6.161   4.036
 3957SOL    HW112770   4.678   6.241   3.976
 3957SOL    HW212771   4.774   6.117   4.024
 3958SOL     OW12772   5.808   1.497   4.659
 3958SOL    HW112773   5.723   1.510   4.710
 3958SOL    HW212774   5.871   1.442   4.714
 3959SOL     OW12775   4.188   6.863   0.698
 3959SOL    HW112776   4.267   6.919   0.674
 3959SOL    HW212777   4.147   6.898   0.783
 3960SOL     OW12778   4.790   1.734   6.997
 3960SOL    HW112779   4.713   1.778   6.949
 3960SOL    HW212780   4.869   1.729   6.937
 3961SOL     OW12781   5.287   2.034   2.311
 3961SOL    HW112782   5.262   2.122   2.272
 3961SOL    HW212783   5.380   2.010   2.285
 3962SOL     OW12784   2.709   3.990   0.351
 3962SOL    HW112785   2.764   3.949   0.278
 3962SOL    HW212786   2.759   3.984   0.437
 3963SOL     OW12787   4.711   4.671   3.830
 3963SOL    HW112788   4.654   4.753   3.839
 3963SOL    HW212789   4.700   4.632   3.739
 3964SOL     OW12790   4.289   4.988   4.129
 3964SOL    HW112791   4.382   5.020   4.109
 3964SOL    HW212792   4.294   4.913   4.195
 3965SOL     OW12793   4.828   2.888   5.418
 3965SOL    HW112794   4.772   2.969   5.436
 3965SOL    HW212795   4.769   2.810   5.396
 3966SOL     OW12796   4.989   6.016   6.646
 3966SOL    HW112797   4.938   5.944   6.693
 3966SOL    HW212798   5.014   5.985   6.554
 3967SOL     OW12799   2.119   3.357   2.433
 3967SOL    HW112800   2.058   3.393   2.503
 3967SOL    HW212801   2.177   3.286   2.472
 3968SOL     OW12802   4.842   0.431   1.489
 3968SOL    HW112803   4.872   0.359   1.427
 3968SOL    HW212804   4.796   0.390   1.568
 3969SOL     OW12805   1.635   4.251   2.204
 3969SOL    HW112806   1.712   4.187   2.200
 3969SOL    HW212807   1.554   4.204   2.237
 3970SOL     OW12808   6.230   6.459   3.867
 3970SOL    HW112809   6.194   6.404   3.942
 3970SOL    HW212810   6.268   6.544   3.903
 3971SOL     OW12811   2.979   5.491   2.799
 3971SOL    HW112812   2.922   5.482   2.717
 3971SOL    HW212813   2.927   5.539   2.870
 3972SOL     OW12814   1.420   4.115   0.792
 3972SOL    HW112815   1.417   4.016   0.796
 3972SOL    HW212816   1.494   4.143   0.731
 3973SOL     OW12817   1.701   5.450   6.699
 3973SOL    HW112818   1.758   5.370   6.720
 3973SOL    HW212819   1.614   5.442   6.749
 3974SOL     OW12820   1.720   0.480   4.642
 3974SOL    HW112821   1.743   0.538   4.720
 3974SOL    HW212822   1.804   0.454   4.594
 3975SOL     OW12823   5.577   1.235   5.702
 3975SOL    HW112824   5.570   1.323   5.749
 3975SOL    HW212825   5.632   1.172   5.757
 3976SOL     OW12826   1.876   5.788   1.592
 3976SOL    HW112827   1.974   5.802   1.578
 3976SOL    HW212828   1.839   5.861   1.649
 3977SOL     OW12829   2.568   3.717   5.689
 3977SOL    HW112830   2.660   3.683   5.674
 3977SOL    HW212831   2.504   3.669   5.629
 3978SOL     OW12832   5.874   4.892   4.574
 3978SOL    HW112833   5.867   4.981   4.528
 3978SOL    HW212834   5.968   4.878   4.605
 3979SOL     OW12835   2.964   0.236   1.009
 3979SOL    HW112836   2.923   0.265   1.095
 3979SOL    HW212837   3.063   0.246   1.014
 3980SOL     OW12838   5.424   6.028   0.285
 3980SOL    HW112839   5.433   5.960   0.213
 3980SOL    HW212840   5.365   5.993   0.357
 3981SOL     OW12841   2.800   0.587   0.303
 3981SOL    HW112842   2.811   0.526   0.381
 3981SOL    HW212843   2.888   0.631   0.282
 3982SOL     OW12844   2.440   0.235   3.309
 3982SOL    HW112845   2.342   0.218   3.322
 3982SOL    HW212846   2.489   0.209   3.392
 3983SOL     OW12847   5.380   4.667   4.000
 3983SOL    HW112848   5.282   4.649   3.984
 3983SOL    HW212849   5.423   4.585   4.037
 3984SOL     OW12850   6.505   1.166   3.209
 3984SOL    HW112851   6.587   1.191   3.157
 3984SOL    HW212852   6.426   1.166   3.148
 3985SOL     OW12853   3.060   4.577   6.564
 3985SOL    HW112854   3.102   4.492   6.530
 3985SOL    HW212855   2.961   4.568   6.562
 3986SOL     OW12856   5.146   2.289   2.851
 3986SOL    HW112857   5.093   2.289   2.935
 3986SOL    HW212858   5.244   2.296   2.874
 3987SOL     OW12859   3.633   5.336   3.480
 3987SOL    HW112860   3.722   5.294   3.467
 3987SOL    HW212861   3.626   5.370   3.574
 3988SOL     OW12862   3.769   3.990   6.768
 3988SOL    HW112863   3.713   4.057   6.817
 3988SOL    HW212864   3.710   3.922   6.726
 3989SOL     OW12865   6.421   2.930   6.801
 3989SOL    HW112866   6.358   2.860   6.767
 3989SOL    HW212867   6.407   2.941   6.900
 3990SOL     OW12868   4.416   2.186   2.630
 3990SOL    HW112869   4.358   2.207   2.708
 3990SOL    HW212870   4.414   2.263   2.565
 3991SOL     OW12871   5.979   1.116   2.855
 3991SOL    HW112872   6.002   1.117   2.952
 3991SOL    HW212873   6.047   1.061   2.805
 3992SOL     OW12874   3.199   1.802   6.774
 3992SOL    HW112875   3.173   1.741   6.698
 3992SOL    HW212876   3.298   1.807   6.780
 3993SOL     OW12877   1.387   1.784   2.835
 3993SOL    HW112878   1.378   1.807   2.931
 3993SOL    HW212879   1.466   1.724   2.822
 3994SOL     OW12880   1.991   0.204   5.842
 3994SOL    HW112881   2.063   0.244   5.898
 3994SOL    HW212882   2.018   0.207   5.746
 3995SOL     OW12883   2.631   3.664   6.026
 3995SOL    HW112884   2.546   3.611   6.027
 3995SOL    HW212885   2.700   3.617   6.080
 3996SOL     OW12886   1.026   0.382   4.458
 3996SOL    HW112887   1.032   0.282   4.449
 3996SOL    HW212888   1.099   0.425   4.406
 3997SOL     OW12889   4.931   1.726   3.866
 3997SOL    HW112890   5.018   1.774   3.855
 3997SOL    HW212891   4.866   1.759   3.797
 3998SOL     OW12892   4.091   1.503   3.698
 3998SOL    HW112893   4.081   1.425   3.636
 3998SOL    HW212894   4.007   1.514   3.751
 3999SOL     OW12895   5.841   3.682   3.919
 3999SOL    HW112896   5.835   3.595   3.969
 3999SOL    HW212897   5.871   3.754   3.981
 4000SOL     OW12898   3.287   6.219   3.378
 4000SOL    HW112899   3.191   6.191   3.382
 4000SOL    HW212900   3.315   6.227   3.282
 4001SOL     OW12901   2.070   2.029   3.558
 4001SOL    HW112902   2.074   2.044   3.460
 4001SOL    HW212903   2.096   2.113   3.606
 4002SOL     OW12904   3.524   4.286   0.102
 4002SOL    HW112905   3.453   4.356   0.109
 4002SOL    HW212906   3.504   4.212   0.167
 4003SOL     OW12907   3.372   6.710   4.352
 4003SOL    HW112908   3.287   6.759   4.374
 4003SOL    HW212909   3.435   6.773   4.306
 4004SOL     OW12910   4.830   2.094   4.054
 4004SOL    HW112911   4.915   2.108   4.005
 4004SOL    HW212912   4.757   2.073   3.989
 4005SOL     OW12913   5.190   4.887   0.079
 4005SOL    HW112914   5.181   4.974   0.030
 4005SOL    HW212915   5.279   4.884   0.125
 4006SOL     OW12916   4.591   5.301   2.880
 4006SOL    HW112917   4.631   5.264   2.964
 4006SOL    HW212918   4.596   5.400   2.882
 4007SOL     OW12919   0.223   2.450   0.699
 4007SOL    HW112920   0.235   2.546   0.725
 4007SOL    HW212921   0.312   2.404   0.698
 4008SOL     OW12922   3.200   1.812   3.625
 4008SOL    HW112923   3.160   1.903   3.610
 4008SOL    HW212924   3.242   1.808   3.715
 4009SOL     OW12925   4.075   3.407   1.481
 4009SOL    HW112926   4.095   3.485   1.423
 4009SOL    HW212927   4.091   3.322   1.430
 4010SOL     OW12928   2.483   3.160   1.052
 4010SOL    HW112929   2.574   3.181   1.014
 4010SOL    HW212930   2.425   3.241   1.043
 4011SOL     OW12931   0.755   1.508   1.957
 4011SOL    HW112932   0.704   1.590   1.982
 4011SOL    HW212933   0.851   1.519   1.985
 4012SOL     OW12934   5.413   4.957   1.795
 4012SOL    HW112935   5.382   5.011   1.717
 4012SOL    HW212936   5.415   5.014   1.877
 4013SOL     OW12937   2.973   1.600   5.388
 4013SOL    HW112938   2.995   1.529   5.455
 4013SOL    HW212939   3.023   1.684   5.410
 4014SOL     OW12940   5.501   6.551   2.638
 4014SOL    HW112941   5.481   6.601   2.553
 4014SOL    HW212942   5.417   6.535   2.689
 4015SOL     OW12943   5.098   4.796   6.481
 4015SOL    HW112944   5.124   4.802   6.577
 4015SOL    HW212945   5.089   4.888   6.443
 4016SOL     OW12946   2.896   5.458   6.041
 4016SOL    HW112947   2.978   5.421   5.997
 4016SOL    HW212948   2.910   5.554   6.062
 4017SOL     OW12949   0.437   5.776   0.455
 4017SOL    HW112950   0.345   5.792   0.493
 4017SOL    HW212951   0.466   5.857   0.404
 4018SOL     OW12952   4.489   6.190   2.490
 4018SOL    HW112953   4.436   6.265   2.450
 4018SOL    HW212954   4.447   6.162   2.576
 4019SOL     OW12955   5.653   3.894   3.032
 4019SOL    HW112956   5.588   3.956   3.076
 4019SOL    HW212957   5.612   3.856   2.949
 4020SOL     OW12958   4.524   1.534   5.578
 4020SOL    HW112959   4.502   1.460   5.642
 4020SOL    HW212960   4.605   1.583   5.610
 4021SOL     OW12961   3.894   4.957   6.048
 4021SOL    HW112962   3.852   5.017   5.980
 4021SOL    HW212963   3.993   4.974   6.050
 4022SOL     OW12964   4.653   1.221   6.655
 4022SOL    HW112965   4.751   1.219   6.674
 4022SOL    HW212966   4.602   1.232   6.740
 4023SOL     OW12967   6.314   1.563   4.375
 4023SOL    HW112968   6.411   1.555   4.353
 4023SOL    HW212969   6.263   1.590   4.294
 4024SOL     OW12970   3.228   6.560   3.320
 4024SOL    HW112971   3.255   6.535   3.413
 4024SOL    HW212972   3.168   6.640   3.323
 4025SOL     OW12973   0.423   4.519   3.077
 4025SOL    HW112974   0.481   4.533   2.997
 4025SOL    HW212975   0.476   4.480   3.152
 4026SOL     OW12976   5.324   6.111   3.998
 4026SOL    HW112977   5.285   6.191   3.953
 4026SOL    HW212978   5.410   6.086   3.954
 4027SOL     OW12979   3.726   4.190   1.543
 4027SOL    HW112980   3.689   4.255   1.609
 4027SOL    HW212981   3.674   4.196   1.458
 4028SOL     OW12982   1.509   2.606   4.135
 4028SOL    HW112983   1.460   2.522   4.112
 4028SOL    HW212984   1.476   2.641   4.223
 4029SOL     OW12985   2.616   4.165   5.825
 4029SOL    HW112986   2.632   4.211   5.912
 4029SOL    HW212987   2.589   4.070   5.842
 4030SOL     OW12988   0.723   2.144   5.761
 4030SOL    HW112989   0.774   2.186   5.836
 4030SOL    HW212990   0.780   2.140   5.679
 4031SOL     OW12991   5.121   5.603   3.811
 4031SOL    HW112992   5.200   5.587   3.752
 4031SOL    HW212993   5.146   5.665   3.885
 4032SOL     OW12994   6.155   6.780   3.899
 4032SOL    HW112995   6.236   6.807   3.950
 4032SOL    HW212996   6.073   6.803   3.952
 4033SOL     OW12997   3.240   2.935   4.365
 4033SOL    HW112998   3.145   2.905   4.355
 4033SOL    HW212999   3.251   2.983   4.452
 4034SOL     OW13000   5.970   1.644   4.516
 4034SOL    HW113001   6.049   1.660   4.575
 4034SOL    HW213002   5.907   1.580   4.560
 4035SOL     OW13003   0.306   4.431   0.430
 4035SOL    HW113004   0.386   4.401   0.378
 4035SOL    HW213005   0.320   4.412   0.527
 4036SOL     OW13006   5.875   6.116   2.734
 4036SOL    HW113007   5.823   6.173   2.797
 4036SOL    HW213008   5.839   6.128   2.641
 4037SOL     OW13009   1.259   3.046   6.387
 4037SOL    HW113010   1.203   3.119   6.426
 4037SOL    HW213011   1.199   2.979   6.341
 4038SOL     OW13012   4.958   4.738   2.763
 4038SOL    HW113013   4.902   4.684   2.825
 4038SOL    HW213014   5.050   4.700   2.758
 4039SOL     OW13015   5.014   5.960   0.235
 4039SOL    HW113016   5.028   5.900   0.156
 4039SOL    HW213017   5.094   6.019   0.246
 4040SOL     OW13018   2.849   0.312   1.267
 4040SOL    HW113019   2.786   0.234   1.256
 4040SOL    HW213020   2.898   0.304   1.354
 4041SOL     OW13021   0.855   6.052   2.430
 4041SOL    HW113022   0.832   6.115   2.504
 4041SOL    HW213023   0.945   6.075   2.392
 4042SOL     OW13024   6.008   5.521   2.696
 4042SOL    HW113025   5.985   5.427   2.721
 4042SOL    HW213026   5.931   5.563   2.648
 4043SOL     OW13027   5.155   1.987   2.824
 4043SOL    HW113028   5.147   1.999   2.725
 4043SOL    HW213029   5.161   2.077   2.868
 4044SOL     OW13030   5.627   0.353   3.460
 4044SOL    HW113031   5.648   0.346   3.363
 4044SOL    HW213032   5.677   0.430   3.500
 4045SOL     OW13033   2.779   4.317   6.779
 4045SOL    HW113034   2.679   4.315   6.769
 4045SOL    HW213035   2.821   4.281   6.696
 4046SOL     OW13036   1.211   1.798   2.120
 4046SOL    HW113037   1.225   1.865   2.193
 4046SOL    HW213038   1.134   1.738   2.144
 4047SOL     OW13039   2.789   3.583   1.359
 4047SOL    HW113040   2.745   3.603   1.447
 4047SOL    HW213041   2.724   3.537   1.299
 4048SOL     OW13042   5.553   0.626   1.156
 4048SOL    HW113043   5.575   0.625   1.253
 4048SOL    HW213044   5.508   0.712   1.132
 4049SOL     OW13045   5.892   6.571   6.072
 4049SOL    HW113046   5.898   6.489   6.128
 4049SOL    HW213047   5.953   6.563   5.994
 4050SOL     OW13048   1.591   6.402   0.099
 4050SOL    HW113049   1.513   6.446   0.054
 4050SOL    HW213050   1.652   6.471   0.137
 4051SOL     OW13051   3.234   4.397   0.867
 4051SOL    HW113052   3.233   4.365   0.962
 4051SOL    HW213053   3.315   4.454   0.852
 4052SOL     OW13054   0.620   0.605   0.455
 4052SOL    HW113055   0.535   0.657   0.455
 4052SOL    HW213056   0.651   0.591   0.550
 4053SOL     OW13057   2.915   4.946   3.799
 4053SOL    HW113058   3.015   4.940   3.812
 4053SOL    HW213059   2.874   4.991   3.879
 4054SOL     OW13060   2.824   2.768   0.234
 4054SOL    HW113061   2.856   2.783   0.328
 4054SOL    HW213062   2.803   2.671   0.221
 4055SOL     OW13063   2.772   2.479   6.196
 4055SOL    HW113064   2.796   2.390   6.158
 4055SOL    HW213065   2.752   2.543   6.122
 4056SOL     OW13066   3.809   3.384   0.094
 4056SOL    HW113067   3.871   3.462   0.092
 4056SOL    HW213068   3.727   3.405   0.041
 4057SOL     OW13069   5.063   3.338   0.047
 4057SOL    HW113070   5.056   3.433   0.017
 4057SOL    HW213071   5.019   3.278   7.010
 4058SOL     OW13072   2.308   1.485   4.874
 4058SOL    HW113073   2.351   1.530   4.953
 4058SOL    HW213074   2.341   1.526   4.790
 4059SOL     OW13075   1.929   2.207   4.222
 4059SOL    HW113076   1.998   2.258   4.273
 4059SOL    HW213077   1.844   2.203   4.275
 4060SOL     OW13078   4.020   4.836   4.024
 4060SOL    HW113079   4.053   4.804   3.935
 4060SOL    HW213080   4.088   4.898   4.064
 4061SOL     OW13081   3.583   4.344   1.701
 4061SOL    HW113082   3.592   4.439   1.729
 4061SOL    HW213083   3.496   4.331   1.653
 4062SOL     OW13084   3.321   1.411   2.329
 4062SOL    HW113085   3.273   1.355   2.263
 4062SOL    HW213086   3.297   1.382   2.422
 4063SOL     OW13087   3.147   6.100   5.731
 4063SOL    HW113088   3.213   6.037   5.771
 4063SOL    HW213089   3.059   6.089   5.775
 4064SOL     OW13090   0.986   0.433   2.560
 4064SOL    HW113091   0.921   0.402   2.631
 4064SOL    HW213092   1.033   0.515   2.592
 4065SOL     OW13093   0.593   6.604   0.928
 4065SOL    HW113094   0.546   6.517   0.915
 4065SOL    HW213095   0.606   6.620   1.026
 4066SOL     OW13096   5.557   4.072   1.755
 4066SOL    HW113097   5.461   4.086   1.733
 4066SOL    HW213098   5.604   4.161   1.754
 4067SOL     OW13099   5.483   1.692   2.820
 4067SOL    HW113100   5.553   1.644   2.766
 4067SOL    HW213101   5.486   1.790   2.800
 4068SOL     OW13102   5.079   0.881   5.049
 4068SOL    HW113103   5.135   0.963   5.039
 4068SOL    HW213104   5.104   0.815   4.977
 4069SOL     OW13105   5.437   4.938   0.962
 4069SOL    HW113106   5.479   4.855   0.927
 4069SOL    HW213107   5.508   5.008   0.978
 4070SOL     OW13108   2.240   4.189   2.727
 4070SOL    HW113109   2.189   4.275   2.721
 4070SOL    HW213110   2.182   4.119   2.768
 4071SOL     OW13111   1.533   0.744   4.933
 4071SOL    HW113112   1.508   0.698   5.017
 4071SOL    HW213113   1.536   0.843   4.948
 4072SOL     OW13114   1.428   6.916   4.540
 4072SOL    HW113115   1.445   6.890   4.445
 4072SOL    HW213116   1.511   6.954   4.580
 4073SOL     OW13117   2.661   5.308   6.117
 4073SOL    HW113118   2.759   5.326   6.107
 4073SOL    HW213119   2.617   5.313   6.028
 4074SOL     OW13120   0.421   2.095   1.765
 4074SOL    HW113121   0.404   2.012   1.713
 4074SOL    HW213122   0.444   2.170   1.703
 4075SOL     OW13123   4.209   1.696   2.653
 4075SOL    HW113124   4.240   1.610   2.693
 4075SOL    HW213125   4.269   1.722   2.577
 4076SOL     OW13126   2.096   3.608   5.084
 4076SOL    HW113127   2.150   3.556   5.151
 4076SOL    HW213128   2.122   3.704   5.088
 4077SOL     OW13129   3.334   0.157   0.425
 4077SOL    HW113130   3.260   0.108   0.378
 4077SOL    HW213131   3.309   0.171   0.520
 4078SOL     OW13132   6.406   4.073   1.204
 4078SOL    HW113133   6.312   4.046   1.183
 4078SOL    HW213134   6.409   4.172   1.219
 4079SOL     OW13135   1.098   1.150   3.617
 4079SOL    HW113136   1.146   1.069   3.585
 4079SOL    HW213137   1.006   1.152   3.577
 4080SOL     OW13138   3.195   3.496   1.284
 4080SOL    HW113139   3.204   3.404   1.320
 4080SOL    HW213140   3.194   3.494   1.184
 4081SOL     OW13141   2.156   1.404   5.460
 4081SOL    HW113142   2.185   1.485   5.409
 4081SOL    HW213143   2.062   1.380   5.434
 4082SOL     OW13144   0.758   2.814   5.493
 4082SOL    HW113145   0.666   2.844   5.520
 4082SOL    HW213146   0.818   2.817   5.573
 4083SOL     OW13147   6.038   4.344   3.629
 4083SOL    HW113148   6.040   4.335   3.530
 4083SOL    HW213149   6.098   4.419   3.657
 4084SOL     OW13150   4.770   2.044   3.065
 4084SOL    HW113151   4.744   2.140   3.054
 4084SOL    HW213152   4.816   2.012   2.982
 4085SOL     OW13153   3.207   5.991   1.503
 4085SOL    HW113154   3.127   6.049   1.514
 4085SOL    HW213155   3.177   5.897   1.482
 4086SOL     OW13156   6.513   5.455   6.247
 4086SOL    HW113157   6.434   5.515   6.237
 4086SOL    HW213158   6.555   5.440   6.157
 4087SOL     OW13159   2.364   6.691   2.602
 4087SOL    HW113160   2.386   6.605   2.556
 4087SOL    HW213161   2.428   6.762   2.573
 4088SOL     OW13162   6.849   1.221   5.617
 4088SOL    HW113163   6.843   1.149   5.547
 4088SOL    HW213164   6.920   1.286   5.591
 4089SOL     OW13165   0.097   6.565   3.939
 4089SOL    HW113166   0.021   6.626   3.916
 4089SOL    HW213167   0.122   6.577   4.035
 4090SOL     OW13168   2.241   6.505   4.832
 4090SOL    HW113169   2.229   6.494   4.931
 4090SOL    HW213170   2.193   6.588   4.802
 4091SOL     OW13171   1.853   5.409   1.061
 4091SOL    HW113172   1.810   5.489   1.021
 4091SOL    HW213173   1.917   5.438   1.133
 4092SOL     OW13174   4.947   3.170   4.594
 4092SOL    HW113175   4.901   3.218   4.668
 4092SOL    HW213176   4.967   3.235   4.520
 4093SOL     OW13177   5.643   5.440   3.059
 4093SOL    HW113178   5.740   5.462   3.049
 4093SOL    HW213179   5.621   5.358   3.006
 4094SOL     OW13180   0.141   5.568   6.989
 4094SOL    HW113181   0.063   5.515   6.957
 4094SOL    HW213182   0.198   5.511   0.019
 4095SOL     OW13183   0.215   4.634   0.272
 4095SOL    HW113184   0.117   4.617   0.279
 4095SOL    HW213185   0.265   4.561   0.318
 4096SOL     OW13186   1.794   1.581   6.961
 4096SOL    HW113187   1.725   1.595   6.890
 4096SOL    HW213188   1.809   1.667   7.010
 4097SOL     OW13189   0.140   4.476   5.245
 4097SOL    HW113190   0.056   4.448   5.291
 4097SOL    HW213191   0.191   4.395   5.216
 4098SOL     OW13192   2.129   5.017   2.522
 4098SOL    HW113193   2.181   5.066   2.593
 4098SOL    HW213194   2.052   4.969   2.565
 4099SOL     OW13195   4.332   3.918   6.117
 4099SOL    HW113196   4.366   4.011   6.125
 4099SOL    HW213197   4.381   3.859   6.181
 4100SOL     OW13198   1.170   0.393   3.846
 4100SOL    HW113199   1.236   0.441   3.903
 4100SOL    HW213200   1.213   0.312   3.806
 4101SOL     OW13201   6.126   0.274   0.500
 4101SOL    HW113202   6.200   0.334   0.468
 4101SOL    HW213203   6.064   0.326   0.559
 4102SOL     OW13204   1.977   0.342   6.954
 4102SOL    HW113205   1.905   0.388   7.007
 4102SOL    HW213206   2.065   0.386   6.972
 4103SOL     OW13207   0.938   6.762   2.030
 4103SOL    HW113208   0.925   6.663   2.037
 4103SOL    HW213209   0.981   6.784   1.943
 4104SOL     OW13210   0.224   5.978   2.856
 4104SOL    HW113211   0.174   6.019   2.933
 4104SOL    HW213212   0.314   6.021   2.849
 4105SOL     OW13213   4.518   1.187   1.317
 4105SOL    HW113214   4.617   1.176   1.317
 4105SOL    HW213215   4.495   1.284   1.312
 4106SOL     OW13216   0.060   1.791   3.519
 4106SOL    HW113217   0.116   1.801   3.600
 4106SOL    HW213218   0.092   1.853   3.448
 4107SOL     OW13219   0.233   6.096   6.734
 4107SOL    HW113220   0.170   6.164   6.773
 4107SOL    HW213221   0.281   6.136   6.656
 4108SOL     OW13222   0.161   5.156   4.015
 4108SOL    HW113223   0.203   5.206   3.939
 4108SOL    HW213224   0.204   5.184   4.101
 4109SOL     OW13225   6.193   5.716   3.374
 4109SOL    HW113226   6.151   5.804   3.393
 4109SOL    HW213227   6.122   5.648   3.354
 4110SOL     OW13228   4.865   3.672   6.959
 4110SOL    HW113229   4.850   3.743   6.891
 4110SOL    HW213230   4.796   3.600   6.948
 4111SOL     OW13231   6.543   3.985   5.472
 4111SOL    HW113232   6.637   3.950   5.474
 4111SOL    HW213233   6.497   3.960   5.557
 4112SOL     OW13234   4.649   6.823   4.988
 4112SOL    HW113235   4.733   6.815   5.041
 4112SOL    HW213236   4.596   6.738   4.994
 4113SOL     OW13237   4.585   4.560   4.855
 4113SOL    HW113238   4.523   4.585   4.930
 4113SOL    HW213239   4.624   4.470   4.873
 4114SOL     OW13240   6.173   1.578   3.557
 4114SOL    HW113241   6.199   1.481   3.553
 4114SOL    HW213242   6.213   1.620   3.638
 4115SOL     OW13243   2.871   5.223   3.387
 4115SOL    HW113244   2.844   5.140   3.435
 4115SOL    HW213245   2.869   5.207   3.289
 4116SOL     OW13246   5.620   2.868   3.240
 4116SOL    HW113247   5.527   2.830   3.232
 4116SOL    HW213248   5.663   2.867   3.150
 4117SOL     OW13249   1.554   2.439   2.403
 4117SOL    HW113250   1.614   2.415   2.479
 4117SOL    HW213251   1.501   2.359   2.375
 4118SOL     OW13252   6.923   6.158   6.383
 4118SOL    HW113253   6.990   6.230   6.364
 4118SOL    HW213254   6.970   6.078   6.421
 4119SOL     OW13255   2.358   0.657   3.302
 4119SOL    HW113256   2.278   0.685   3.249
 4119SOL    HW213257   2.429   0.726   3.296
 4120SOL     OW13258   2.085   1.234   6.667
 4120SOL    HW113259   2.049   1.322   6.698
 4120SOL    HW213260   2.016   1.187   6.612
 4121SOL     OW13261   0.125   6.810   2.784
 4121SOL    HW113262   0.181   6.816   2.701
 4121SOL    HW213263   0.078   6.722   2.785
 4122SOL     OW13264   0.031   5.793   4.678
 4122SOL    HW113265   0.077   5.870   4.722
 4122SOL    HW213266   0.050   5.795   4.580
 4123SOL     OW13267   3.852   4.874   2.884
 4123SOL    HW113268   3.912   4.912   2.813
 4123SOL    HW213269   3.772   4.832   2.841
 4124SOL     OW13270   6.751   6.294   0.820
 4124SOL    HW113271   6.845   6.310   0.847
 4124SOL    HW213272   6.714   6.216   0.872
 4125SOL     OW13273   5.109   2.563   2.275
 4125SOL    HW113274   5.133   2.646   2.325
 4125SOL    HW213275   5.077   2.587   2.183
 4126SOL     OW13276   1.141   2.768   2.234
 4126SOL    HW113277   1.112   2.863   2.244
 4126SOL    HW213278   1.061   2.709   2.227
 4127SOL     OW13279   3.544   2.081   4.287
 4127SOL    HW113280   3.610   2.118   4.221
 4127SOL    HW213281   3.535   1.982   4.273
 4128SOL     OW13282   0.605   3.256   1.238
 4128SOL    HW113283   0.703   3.272   1.223
 4128SOL    HW213284   0.593   3.168   1.285
 4129SOL     OW13285   3.310   2.935   0.576
 4129SOL    HW113286   3.284   2.929   0.480
 4129SOL    HW213287   3.387   2.874   0.595
 4130SOL     OW13288   5.889   3.015   0.971
 4130SOL    HW113289   5.863   2.930   0.925
 4130SOL    HW213290   5.844   3.019   1.061
 4131SOL     OW13291   5.231   0.576   1.919
 4131SOL    HW113292   5.208   0.645   1.987
 4131SOL    HW213293   5.184   0.597   1.833
 4132SOL     OW13294   6.746   3.748   4.613
 4132SOL    HW113295   6.674   3.693   4.572
 4132SOL    HW213296   6.768   3.825   4.553
 4133SOL     OW13297   5.964   6.756   1.510
 4133SOL    HW113298   5.967   6.675   1.569
 4133SOL    HW213299   5.945   6.729   1.416
 4134SOL     OW13300   2.434   2.855   1.428
 4134SOL    HW113301   2.357   2.802   1.463
 4134SOL    HW213302   2.476   2.907   1.502
 4135SOL     OW13303   7.018   1.789   3.112
 4135SOL    HW113304   7.010   1.706   3.167
 4135SOL    HW213305   0.079   1.792   3.068
 4136SOL     OW13306   0.673   3.899   1.785
 4136SOL    HW113307   0.770   3.919   1.797
 4136SOL    HW213308   0.619   3.975   1.821
 4137SOL     OW13309   1.613   2.840   0.670
 4137SOL    HW113310   1.672   2.773   0.625
 4137SOL    HW213311   1.596   2.916   0.608
 4138SOL     OW13312   4.611   6.499   1.041
 4138SOL    HW113313   4.568   6.533   0.958
 4138SOL    HW213314   4.668   6.571   1.081
 4139SOL     OW13315   1.616   1.624   2.798
 4139SOL    HW113316   1.598   1.557   2.727
 4139SOL    HW213317   1.677   1.584   2.867
 4140SOL     OW13318   2.787   2.312   4.161
 4140SOL    HW113319   2.740   2.232   4.200
 4140SOL    HW213320   2.885   2.306   4.179
 4141SOL     OW13321   4.019   6.754   6.571
 4141SOL    HW113322   4.113   6.745   6.605
 4141SOL    HW213323   4.015   6.721   6.477
 4142SOL     OW13324   0.102   4.136   2.560
 4142SOL    HW113325   0.002   4.130   2.552
 4142SOL    HW213326   0.127   4.184   2.644
 4143SOL     OW13327   5.554   3.395   1.034
 4143SOL    HW113328   5.552   3.302   0.999
 4143SOL    HW213329   5.613   3.400   1.115
 4144SOL     OW13330   5.528   1.789   0.578
 4144SOL    HW113331   5.595   1.798   0.652
 4144SOL    HW213332   5.439   1.763   0.616
 4145SOL     OW13333   0.897   6.371   0.365
 4145SOL    HW113334   0.894   6.324   0.454
 4145SOL    HW213335   0.920   6.467   0.379
 4146SOL     OW13336   5.631   6.579   3.294
 4146SOL    HW113337   5.570   6.576   3.373
 4146SOL    HW213338   5.682   6.666   3.295
 4147SOL     OW13339   4.945   4.569   5.694
 4147SOL    HW113340   4.903   4.531   5.777
 4147SOL    HW213341   4.938   4.669   5.696
 4148SOL     OW13342   2.682   0.392   4.934
 4148SOL    HW113343   2.618   0.357   5.003
 4148SOL    HW213344   2.634   0.456   4.874
 4149SOL     OW13345   1.724   2.871   0.938
 4149SOL    HW113346   1.730   2.772   0.923
 4149SOL    HW213347   1.685   2.914   0.856
 4150SOL     OW13348   6.288   2.666   6.074
 4150SOL    HW113349   6.208   2.660   6.014
 4150SOL    HW213350   6.321   2.575   6.096
 4151SOL     OW13351   1.910   0.061   4.613
 4151SOL    HW113352   1.913   0.149   4.566
 4151SOL    HW213353   1.902   0.076   4.712
 4152SOL     OW13354   3.426   5.563   1.809
 4152SOL    HW113355   3.433   5.617   1.725
 4152SOL    HW213356   3.369   5.612   1.875
 4153SOL     OW13357   6.652   4.732   1.750
 4153SOL    HW113358   6.644   4.777   1.839
 4153SOL    HW213359   6.736   4.679   1.746
 4154SOL     OW13360   0.258   5.933   3.978
 4154SOL    HW113361   0.337   5.950   3.919
 4154SOL    HW213362   0.191   6.007   3.967
 4155SOL     OW13363   0.841   2.553   1.411
 4155SOL    HW113364   0.832   2.613   1.331
 4155SOL    HW213365   0.917   2.490   1.398
 4156SOL     OW13366   6.499   4.799   4.997
 4156SOL    HW113367   6.407   4.764   5.015
 4156SOL    HW213368   6.515   4.881   5.053
 4157SOL     OW13369   6.989   6.584   2.240
 4157SOL    HW113370   6.964   6.504   2.185
 4157SOL    HW213371   0.057   6.581   2.260
 4158SOL     OW13372   2.173   2.386   1.851
 4158SOL    HW113373   2.272   2.392   1.837
 4158SOL    HW213374   2.127   2.387   1.763
 4159SOL     OW13375   2.978   1.698   3.188
 4159SOL    HW113376   2.966   1.780   3.244
 4159SOL    HW213377   2.910   1.697   3.115
 4160SOL     OW13378   6.928   6.723   6.884
 4160SOL    HW113379   7.021   6.698   6.857
 4160SOL    HW213380   6.871   6.732   6.803
 4161SOL     OW13381   2.166   1.756   1.414
 4161SOL    HW113382   2.188   1.688   1.484
 4161SOL    HW213383   2.220   1.839   1.430
 4162SOL     OW13384   6.203   6.240   1.320
 4162SOL    HW113385   6.260   6.214   1.242
 4162SOL    HW213386   6.170   6.158   1.367
 4163SOL     OW13387   4.651   6.743   1.858
 4163SOL    HW113388   4.695   6.802   1.790
 4163SOL    HW213389   4.694   6.652   1.856
 4164SOL     OW13390   0.017   6.008   5.434
 4164SOL    HW113391   0.066   5.933   5.390
 4164SOL    HW213392   7.005   5.977   5.520
 4165SOL     OW13393   3.964   1.121   5.679
 4165SOL    HW113394   4.018   1.062   5.739
 4165SOL    HW213395   4.021   1.197   5.647
 4166SOL     OW13396   5.527   0.694   2.880
 4166SOL    HW113397   5.610   0.651   2.918
 4166SOL    HW213398   5.507   0.777   2.931
 4167SOL     OW13399   2.935   5.063   5.590
 4167SOL    HW113400   3.004   5.082   5.521
 4167SOL    HW213401   2.974   5.004   5.661
 4168SOL     OW13402   7.003   4.566   0.558
 4168SOL    HW113403   7.017   4.491   0.494
 4168SOL    HW213404   6.919   4.550   0.610
 4169SOL     OW13405   5.107   3.977   5.101
 4169SOL    HW113406   5.173   3.902   5.114
 4169SOL    HW213407   5.016   3.939   5.087
 4170SOL     OW13408   4.787   2.934   4.515
 4170SOL    HW113409   4.797   2.919   4.417
 4170SOL    HW213410   4.805   3.031   4.536
 4171SOL     OW13411   1.535   3.968   1.265
 4171SOL    HW113412   1.508   4.012   1.180
 4171SOL    HW213413   1.474   3.996   1.338
 4172SOL     OW13414   3.628   3.487   0.931
 4172SOL    HW113415   3.629   3.523   0.838
 4172SOL    HW213416   3.569   3.544   0.988
 4173SOL     OW13417   4.535   2.796   5.604
 4173SOL    HW113418   4.540   2.740   5.687
 4173SOL    HW213419   4.440   2.822   5.587
 4174SOL     OW13420   4.699   0.280   3.779
 4174SOL    HW113421   4.798   0.292   3.786
 4174SOL    HW213422   4.655   0.320   3.860
 4175SOL     OW13423   1.913   4.904   6.008
 4175SOL    HW113424   1.918   4.884   5.910
 4175SOL    HW213425   1.825   4.945   6.029
 4176SOL     OW13426   5.130   6.246   0.025
 4176SOL    HW113427   5.129   6.175   6.983
 4176SOL    HW213428   5.070   6.322   7.025
 4177SOL     OW13429   5.037   4.736   4.761
 4177SOL    HW113430   5.064   4.737   4.857
 4177SOL    HW213431   4.940   4.759   4.753
 4178SOL     OW13432   4.374   6.660   2.719
 4178SOL    HW113433   4.315   6.618   2.651
 4178SOL    HW213434   4.466   6.671   2.681
 4179SOL     OW13435   5.460   3.458   3.986
 4179SOL    HW113436   5.383   3.513   4.019
 4179SOL    HW213437   5.444   3.362   4.009
 4180SOL     OW13438   5.697   3.464   0.645
 4180SOL    HW113439   5.709   3.466   0.545
 4180SOL    HW213440   5.728   3.377   0.681
 4181SOL     OW13441   5.309   0.288   6.074
 4181SOL    HW113442   5.343   0.194   6.079
 4181SOL    HW213443   5.375   0.350   6.116
 4182SOL     OW13444   0.588   5.856   3.683
 4182SOL    HW113445   0.534   5.924   3.733
 4182SOL    HW213446   0.588   5.770   3.733
 4183SOL     OW13447   2.162   1.400   1.397
 4183SOL    HW113448   2.175   1.456   1.479
 4183SOL    HW213449   2.213   1.315   1.407
 4184SOL     OW13450   3.859   0.674   2.213
 4184SOL    HW113451   3.808   0.591   2.233
 4184SOL    HW213452   3.808   0.754   2.246
 4185SOL     OW13453   0.665   3.947   3.826
 4185SOL    HW113454   0.731   3.876   3.801
 4185SOL    HW213455   0.669   4.021   3.759
 4186SOL     OW13456   2.521   5.835   6.896
 4186SOL    HW113457   2.570   5.758   6.938
 4186SOL    HW213458   2.442   5.800   6.845
 4187SOL     OW13459   1.811   3.678   6.861
 4187SOL    HW113460   1.856   3.594   6.831
 4187SOL    HW213461   1.849   3.756   6.813
 4188SOL     OW13462   5.751   0.910   5.199
 4188SOL    HW113463   5.682   0.949   5.138
 4188SOL    HW213464   5.833   0.967   5.199
 4189SOL     OW13465   4.449   5.429   3.504
 4189SOL    HW113466   4.352   5.422   3.526
 4189SOL    HW213467   4.462   5.494   3.430
 4190SOL     OW13468   0.437   6.382   0.927
 4190SOL    HW113469   0.386   6.328   0.860
 4190SOL    HW213470   0.472   6.323   0.999
 4191SOL     OW13471   5.395   3.950   6.730
 4191SOL    HW113472   5.357   4.041   6.710
 4191SOL    HW213473   5.372   3.924   6.824
 4192SOL     OW13474   0.773   1.762   2.514
 4192SOL    HW113475   0.795   1.668   2.537
 4192SOL    HW213476   0.693   1.792   2.565
 4193SOL     OW13477   5.631   0.242   0.120
 4193SOL    HW113478   5.584   0.257   0.033
 4193SOL    HW213479   5.670   0.329   0.152
 4194SOL     OW13480   4.180   0.314   5.109
 4194SOL    HW113481   4.276   0.336   5.123
 4194SOL    HW213482   4.172   0.235   5.048
 4195SOL     OW13483   4.198   6.735   1.233
 4195SOL    HW113484   4.154   6.690   1.310
 4195SOL    HW213485   4.212   6.670   1.158
 4196SOL     OW13486   0.261   2.636   3.944
 4196SOL    HW113487   0.283   2.604   3.852
 4196SOL    HW213488   0.315   2.717   3.965
 4197SOL     OW13489   3.983   6.051   5.577
 4197SOL    HW113490   3.955   6.146   5.567
 4197SOL    HW213491   4.079   6.042   5.548
 4198SOL     OW13492   6.307   0.788   2.476
 4198SOL    HW113493   6.277   0.713   2.535
 4198SOL    HW213494   6.327   0.752   2.385
 4199SOL     OW13495   1.438   3.407   6.302
 4199SOL    HW113496   1.484   3.494   6.316
 4199SOL    HW213497   1.349   3.422   6.259
 4200SOL     OW13498   3.615   0.751   5.702
 4200SOL    HW113499   3.589   0.747   5.605
 4200SOL    HW213500   3.572   0.675   5.751
 4201SOL     OW13501   6.113   7.027   3.554
 4201SOL    HW113502   6.098   6.929   3.569
 4201SOL    HW213503   6.143   0.014   3.460
 4202SOL     OW13504   3.520   5.618   6.897
 4202SOL    HW113505   3.606   5.610   6.949
 4202SOL    HW213506   3.468   5.696   6.931
 4203SOL     OW13507   5.122   5.001   0.358
 4203SOL    HW113508   5.175   5.082   0.332
 4203SOL    HW213509   5.033   5.003   0.312
 4204SOL     OW13510   3.927   3.380   5.517
 4204SOL    HW113511   3.903   3.363   5.613
 4204SOL    HW213512   3.949   3.477   5.505
 4205SOL     OW13513   3.757   5.358   5.133
 4205SOL    HW113514   3.853   5.384   5.126
 4205SOL    HW213515   3.700   5.428   5.090
 4206SOL     OW13516   0.479   1.582   5.120
 4206SOL    HW113517   0.401   1.560   5.063
 4206SOL    HW213518   0.536   1.501   5.133
 4207SOL     OW13519   2.599   2.447   1.433
 4207SOL    HW113520   2.571   2.363   1.385
 4207SOL    HW213521   2.664   2.497   1.376
 4208SOL     OW13522   1.072   3.750   5.514
 4208SOL    HW113523   1.061   3.663   5.465
 4208SOL    HW213524   1.163   3.787   5.496
 4209SOL     OW13525   6.677   5.672   3.203
 4209SOL    HW113526   6.651   5.750   3.145
 4209SOL    HW213527   6.681   5.702   3.299
 4210SOL     OW13528   3.717   2.912   3.573
 4210SOL    HW113529   3.659   2.831   3.581
 4210SOL    HW213530   3.697   2.959   3.487
 4211SOL     OW13531   3.659   1.897   5.356
 4211SOL    HW113532   3.682   1.943   5.271
 4211SOL    HW213533   3.740   1.892   5.415
 4212SOL     OW13534   6.777   1.909   3.951
 4212SOL    HW113535   6.788   1.810   3.962
 4212SOL    HW213536   6.760   1.930   3.854
 4213SOL     OW13537   2.703   0.591   3.423
 4213SOL    HW113538   2.763   0.665   3.392
 4213SOL    HW213539   2.756   0.524   3.474
 4214SOL     OW13540   0.229   5.835   5.179
 4214SOL    HW113541   0.236   5.934   5.165
 4214SOL    HW213542   0.281   5.788   5.107
 4215SOL     OW13543   4.997   0.256   5.640
 4215SOL    HW113544   4.910   0.214   5.666
 4215SOL    HW213545   4.980   0.342   5.593
 4216SOL     OW13546   1.657   0.804   2.302
 4216SOL    HW113547   1.756   0.786   2.305
 4216SOL    HW213548   1.607   0.718   2.305
 4217SOL     OW13549   1.191   7.026   1.712
 4217SOL    HW113550   1.278   6.977   1.720
 4217SOL    HW213551   1.187   0.041   1.622
 4218SOL     OW13552   3.318   0.747   1.088
 4218SOL    HW113553   3.314   0.832   1.140
 4218SOL    HW213554   3.413   0.727   1.064
 4219SOL     OW13555   4.414   6.542   4.237
 4219SOL    HW113556   4.344   6.566   4.304
 4219SOL    HW213557   4.393   6.452   4.198
 4220SOL     OW13558   5.815   2.833   2.249
 4220SOL    HW113559   5.764   2.753   2.281
 4220SOL    HW213560   5.826   2.897   2.325
 4221SOL     OW13561   6.487   4.546   6.665
 4221SOL    HW113562   6.467   4.457   6.625
 4221SOL    HW213563   6.454   4.618   6.604
 4222SOL     OW13564   5.701   1.676   3.875
 4222SOL    HW113565   5.782   1.725   3.908
 4222SOL    HW213566   5.696   1.684   3.776
 4223SOL     OW13567   3.873   3.649   1.127
 4223SOL    HW113568   3.883   3.552   1.151
 4223SOL    HW213569   3.776   3.672   1.126
 4224SOL     OW13570   5.135   4.642   5.007
 4224SOL    HW113571   5.166   4.620   5.099
 4224SOL    HW213572   5.119   4.557   4.956
 4225SOL     OW13573   1.605   1.967   5.599
 4225SOL    HW113574   1.538   1.957   5.673
 4225SOL    HW213575   1.558   1.992   5.514
 4226SOL     OW13576   1.033   6.397   3.792
 4226SOL    HW113577   1.001   6.305   3.769
 4226SOL    HW213578   1.051   6.448   3.708
 4227SOL     OW13579   4.967   5.902   1.704
 4227SOL    HW113580   4.899   5.829   1.702
 4227SOL    HW213581   4.935   5.978   1.647
 4228SOL     OW13582   0.476   5.869   5.378
 4228SOL    HW113583   0.490   5.929   5.299
 4228SOL    HW213584   0.400   5.807   5.360
 4229SOL     OW13585   4.415   5.961   5.888
 4229SOL    HW113586   4.399   6.060   5.895
 4229SOL    HW213587   4.514   5.944   5.886
 4230SOL     OW13588   0.344   6.577   3.014
 4230SOL    HW113589   0.323   6.673   3.030
 4230SOL    HW213590   0.380   6.565   2.921
 4231SOL     OW13591   4.828   0.535   5.618
 4231SOL    HW113592   4.787   0.476   5.549
 4231SOL    HW213593   4.926   0.547   5.599
 4232SOL     OW13594   1.938   5.470   3.718
 4232SOL    HW113595   2.025   5.518   3.705
 4232SOL    HW213596   1.930   5.442   3.814
 4233SOL     OW13597   0.105   6.906   4.881
 4233SOL    HW113598   0.146   6.987   4.840
 4233SOL    HW213599   0.025   6.878   4.828
 4234SOL     OW13600   2.098   5.209   5.348
 4234SOL    HW113601   2.119   5.153   5.268
 4234SOL    HW213602   2.066   5.150   5.423
 4235SOL     OW13603   6.541   4.911   5.369
 4235SOL    HW113604   6.510   4.819   5.393
 4235SOL    HW213605   6.494   4.978   5.427
 4236SOL     OW13606   0.083   4.456   1.587
 4236SOL    HW113607   0.070   4.388   1.514
 4236SOL    HW213608   0.180   4.480   1.594
 4237SOL     OW13609   6.397   3.835   4.388
 4237SOL    HW113610   6.405   3.818   4.289
 4237SOL    HW213611   6.467   3.782   4.436
 4238SOL     OW13612   0.911   0.807   3.420
 4238SOL    HW113613   0.868   0.839   3.505
 4238SOL    HW213614   0.857   0.838   3.342
 4239SOL     OW13615   4.350   1.049   2.432
 4239SOL    HW113616   4.326   0.964   2.385
 4239SOL    HW213617   4.271   1.111   2.433
 4240SOL     OW13618   2.343   5.067   0.137
 4240SOL    HW113619   2.292   4.985   0.165
 4240SOL    HW213620   2.315   5.094   0.045
 4241SOL     OW13621   5.563   1.346   0.147
 4241SOL    HW113622   5.606   1.435   0.158
 4241SOL    HW213623   5.472   1.348   0.190
 4242SOL     OW13624   2.247   1.790   4.225
 4242SOL    HW113625   2.157   1.824   4.251
 4242SOL    HW213626   2.317   1.836   4.279
 4243SOL     OW13627   5.099   1.715   2.591
 4243SOL    HW113628   5.105   1.814   2.581
 4243SOL    HW213629   5.028   1.679   2.530
 4244SOL     OW13630   3.318   3.949   1.549
 4244SOL    HW113631   3.294   3.866   1.499
 4244SOL    HW213632   3.418   3.958   1.553
 4245SOL     OW13633   6.494   1.902   6.827
 4245SOL    HW113634   6.535   1.928   6.914
 4245SOL    HW213635   6.562   1.910   6.754
 4246SOL     OW13636   6.578   4.326   3.153
 4246SOL    HW113637   6.579   4.240   3.205
 4246SOL    HW213638   6.670   4.347   3.121
 4247SOL     OW13639   1.170   6.223   3.993
 4247SOL    HW113640   1.154   6.309   3.944
 4247SOL    HW213641   1.143   6.234   4.089
 4248SOL     OW13642   2.273   1.913   4.625
 4248SOL    HW113643   2.281   1.953   4.716
 4248SOL    HW213644   2.215   1.832   4.629
 4249SOL     OW13645   6.238   3.262   5.203
 4249SOL    HW113646   6.148   3.219   5.198
 4249SOL    HW213647   6.234   3.352   5.159
 4250SOL     OW13648   0.236   4.733   3.196
 4250SOL    HW113649   0.325   4.705   3.161
 4250SOL    HW213650   0.195   4.799   3.133
 4251SOL     OW13651   6.039   5.182   0.362
 4251SOL    HW113652   6.041   5.165   0.460
 4251SOL    HW213653   6.078   5.104   0.314
 4252SOL     OW13654   6.660   6.641   5.343
 4252SOL    HW113655   6.592   6.607   5.408
 4252SOL    HW213656   6.700   6.564   5.294
 4253SOL     OW13657   2.834   0.403   1.894
 4253SOL    HW113658   2.910   0.339   1.888
 4253SOL    HW213659   2.783   0.402   1.809
 4254SOL     OW13660   1.164   2.907   1.566
 4254SOL    HW113661   1.076   2.859   1.570
 4254SOL    HW213662   1.228   2.865   1.630
 4255SOL     OW13663   6.046   2.751   3.157
 4255SOL    HW113664   5.970   2.689   3.178
 4255SOL    HW213665   6.021   2.810   3.081
 4256SOL     OW13666   1.353   6.637   0.782
 4256SOL    HW113667   1.286   6.585   0.836
 4256SOL    HW213668   1.424   6.574   0.748
 4257SOL     OW13669   3.944   0.602   5.262
 4257SOL    HW113670   3.973   0.508   5.280
 4257SOL    HW213671   4.008   0.645   5.199
 4258SOL     OW13672   5.989   6.543   1.656
 4258SOL    HW113673   5.923   6.579   1.722
 4258SOL    HW213674   5.981   6.444   1.650
 4259SOL     OW13675   3.168   0.988   6.438
 4259SOL    HW113676   3.185   0.889   6.444
 4259SOL    HW213677   3.088   1.004   6.380
 4260SOL     OW13678   5.196   6.146   4.562
 4260SOL    HW113679   5.229   6.172   4.653
 4260SOL    HW213680   5.253   6.073   4.525
 4261SOL     OW13681   1.981   0.805   1.753
 4261SOL    HW113682   2.036   0.785   1.835
 4261SOL    HW213683   2.019   0.885   1.707
 4262SOL     OW13684   0.953   4.488   5.570
 4262SOL    HW113685   0.976   4.464   5.476
 4262SOL    HW213686   1.030   4.463   5.630
 4263SOL     OW13687   2.556   6.332   3.878
 4263SOL    HW113688   2.617   6.400   3.838
 4263SOL    HW213689   2.463   6.369   3.880
 4264SOL     OW13690   6.943   1.800   2.345
 4264SOL    HW113691   6.923   1.725   2.282
 4264SOL    HW213692   6.984   1.876   2.294
 4265SOL     OW13693   5.519   1.741   6.949
 4265SOL    HW113694   5.583   1.696   7.011
 4265SOL    HW213695   5.556   1.739   6.856
 4266SOL     OW13696   2.034   5.049   0.881
 4266SOL    HW113697   2.063   5.041   0.976
 4266SOL    HW213698   2.091   4.991   0.823
 4267SOL     OW13699   2.142   3.993   4.800
 4267SOL    HW113700   2.196   3.979   4.717
 4267SOL    HW213701   2.195   3.964   4.880
 4268SOL     OW13702   1.762   6.991   6.914
 4268SOL    HW113703   1.764   6.896   6.945
 4268SOL    HW213704   1.832   7.005   6.845
 4269SOL     OW13705   2.169   1.539   0.641
 4269SOL    HW113706   2.142   1.466   0.703
 4269SOL    HW213707   2.204   1.499   0.556
 4270SOL     OW13708   3.021   3.888   3.986
 4270SOL    HW113709   3.066   3.800   3.999
 4270SOL    HW213710   2.975   3.889   3.898
 4271SOL     OW13711   0.144   0.571   6.197
 4271SOL    HW113712   0.161   0.666   6.225
 4271SOL    HW213713   0.076   0.570   6.124
 4272SOL     OW13714   0.595   4.609   4.974
 4272SOL    HW113715   0.511   4.558   4.953
 4272SOL    HW213716   0.571   4.695   5.019
 4273SOL     OW13717   4.689   6.438   3.912
 4273SOL    HW113718   4.758   6.488   3.859
 4273SOL    HW213719   4.600   6.483   3.901
 4274SOL     OW13720   1.085   0.160   2.794
 4274SOL    HW113721   0.989   0.176   2.819
 4274SOL    HW213722   1.123   0.243   2.754
 4275SOL     OW13723   6.749   1.523   5.724
 4275SOL    HW113724   6.779   1.467   5.802
 4275SOL    HW213725   6.652   1.547   5.736
 4276SOL     OW13726   1.510   4.911   3.260
 4276SOL    HW113727   1.594   4.921   3.207
 4276SOL    HW213728   1.497   4.991   3.318
 4277SOL     OW13729   6.698   4.581   4.407
 4277SOL    HW113730   6.611   4.627   4.426
 4277SOL    HW213731   6.698   4.548   4.312
 4278SOL     OW13732   6.829   0.759   4.986
 4278SOL    HW113733   6.871   0.776   4.897
 4278SOL    HW213734   6.891   0.788   5.059
 4279SOL     OW13735   3.299   6.257   5.303
 4279SOL    HW113736   3.331   6.164   5.285
 4279SOL    HW213737   3.228   6.281   5.236
 4280SOL     OW13738   5.401   1.413   5.387
 4280SOL    HW113739   5.404   1.333   5.328
 4280SOL    HW213740   5.493   1.433   5.421
 4281SOL     OW13741   2.291   4.803   4.314
 4281SOL    HW113742   2.377   4.753   4.326
 4281SOL    HW213743   2.231   4.785   4.392
 4282SOL     OW13744   2.813   2.526   0.060
 4282SOL    HW113745   2.835   2.499   6.995
 4282SOL    HW213746   2.747   2.602   0.057
 4283SOL     OW13747   1.472   0.644   3.798
 4283SOL    HW113748   1.414   0.670   3.721
 4283SOL    HW213749   1.561   0.612   3.764
 4284SOL     OW13750   5.223   5.946   1.822
 4284SOL    HW113751   5.222   5.952   1.922
 4284SOL    HW213752   5.129   5.938   1.789
 4285SOL     OW13753   0.371   0.236   6.161
 4285SOL    HW113754   0.360   0.328   6.124
 4285SOL    HW213755   0.426   0.180   6.099
 4286SOL     OW13756   5.330   5.332   6.574
 4286SOL    HW113757   5.261   5.322   6.646
 4286SOL    HW213758   5.410   5.276   6.598
 4287SOL     OW13759   6.000   0.625   6.289
 4287SOL    HW113760   6.039   0.716   6.277
 4287SOL    HW213761   5.963   0.592   6.202
 4288SOL     OW13762   0.760   5.740   3.096
 4288SOL    HW113763   0.823   5.760   3.021
 4288SOL    HW213764   0.794   5.663   3.148
 4289SOL     OW13765   6.148   2.996   1.015
 4289SOL    HW113766   6.049   3.001   1.008
 4289SOL    HW213767   6.181   3.066   1.078
 4290SOL     OW13768   2.294   6.595   1.206
 4290SOL    HW113769   2.213   6.577   1.151
 4290SOL    HW213770   2.290   6.688   1.242
 4291SOL     OW13771   4.593   3.518   1.667
 4291SOL    HW113772   4.591   3.618   1.662
 4291SOL    HW213773   4.499   3.483   1.659
 4292SOL     OW13774   6.683   4.600   5.789
 4292SOL    HW113775   6.719   4.513   5.819
 4292SOL    HW213776   6.604   4.626   5.845
 4293SOL     OW13777   6.890   3.452   6.995
 4293SOL    HW113778   6.905   3.535   6.941
 4293SOL    HW213779   6.956   3.382   6.967
 4294SOL     OW13780   4.389   3.018   0.301
 4294SOL    HW113781   4.299   3.050   0.273
 4294SOL    HW213782   4.435   3.091   0.353
 4295SOL     OW13783   3.491   6.377   4.964
 4295SOL    HW113784   3.440   6.313   5.021
 4295SOL    HW213785   3.519   6.332   4.880
 4296SOL     OW13786   3.166   1.695   0.042
 4296SOL    HW113787   3.106   1.615   0.040
 4296SOL    HW213788   3.138   1.760   7.000
 4297SOL     OW13789   5.724   0.418   5.671
 4297SOL    HW113790   5.664   0.352   5.625
 4297SOL    HW213791   5.776   0.371   5.742
 4298SOL     OW13792   2.307   5.491   6.623
 4298SOL    HW113793   2.366   5.547   6.566
 4298SOL    HW213794   2.352   5.403   6.642
 4299SOL     OW13795   0.818   2.429   6.754
 4299SOL    HW113796   0.904   2.441   6.803
 4299SOL    HW213797   0.765   2.514   6.759
 4300SOL     OW13798   2.943   1.277   6.399
 4300SOL    HW113799   3.014   1.341   6.370
 4300SOL    HW213800   2.966   1.241   6.489
 4301SOL     OW13801   2.290   1.150   0.570
 4301SOL    HW113802   2.297   1.054   0.595
 4301SOL    HW213803   2.237   1.158   0.485
 4302SOL     OW13804   0.776   6.460   5.549
 4302SOL    HW113805   0.753   6.452   5.647
 4302SOL    HW213806   0.816   6.374   5.517
 4303SOL     OW13807   6.150   4.545   4.173
 4303SOL    HW113808   6.241   4.522   4.207
 4303SOL    HW213809   6.106   4.610   4.234
 4304SOL     OW13810   3.099   3.973   4.241
 4304SOL    HW113811   3.071   3.935   4.152
 4304SOL    HW213812   3.190   3.939   4.264
 4305SOL     OW13813   6.221   1.191   3.758
 4305SOL    HW113814   6.149   1.231   3.815
 4305SOL    HW213815   6.309   1.229   3.785
 4306SOL     OW13816   6.562   3.700   6.581
 4306SOL    HW113817   6.600   3.791   6.600
 4306SOL    HW213818   6.480   3.686   6.637
 4307SOL     OW13819   4.787   4.274   6.331
 4307SOL    HW113820   4.820   4.271   6.426
 4307SOL    HW213821   4.858   4.313   6.273
 4308SOL     OW13822   5.366   5.736   5.933
 4308SOL    HW113823   5.287   5.682   5.961
 4308SOL    HW213824   5.435   5.735   6.005
 4309SOL     OW13825   0.750   0.455   0.255
 4309SOL    HW113826   0.718   0.533   0.309
 4309SOL    HW213827   0.698   0.450   0.170
 4310SOL     OW13828   1.793   2.463   3.546
 4310SOL    HW113829   1.872   2.458   3.609
 4310SOL    HW213830   1.730   2.534   3.578
 4311SOL     OW13831   1.206   5.580   2.767
 4311SOL    HW113832   1.220   5.544   2.859
 4311SOL    HW213833   1.180   5.676   2.771
 4312SOL     OW13834   1.796   5.325   1.426
 4312SOL    HW113835   1.760   5.399   1.482
 4312SOL    HW213836   1.888   5.350   1.394
 4313SOL     OW13837   4.837   1.768   2.180
 4313SOL    HW113838   4.929   1.803   2.161
 4313SOL    HW213839   4.805   1.803   2.268
 4314SOL     OW13840   5.145   2.382   3.627
 4314SOL    HW113841   5.098   2.308   3.676
 4314SOL    HW213842   5.082   2.422   3.560
 4315SOL     OW13843   1.779   0.868   2.036
 4315SOL    HW113844   1.833   0.793   1.997
 4315SOL    HW213845   1.708   0.830   2.096
 4316SOL     OW13846   4.995   0.284   1.110
 4316SOL    HW113847   5.019   0.376   1.141
 4316SOL    HW213848   4.975   0.227   1.190
 4317SOL     OW13849   3.321   1.053   4.757
 4317SOL    HW113850   3.416   1.061   4.786
 4317SOL    HW213851   3.311   0.974   4.697
 4318SOL     OW13852   1.012   3.427   3.275
 4318SOL    HW113853   1.052   3.366   3.208
 4318SOL    HW213854   1.011   3.521   3.239
 4319SOL     OW13855   2.423   2.696   0.596
 4319SOL    HW113856   2.419   2.614   0.654
 4319SOL    HW213857   2.346   2.696   0.532
 4320SOL     OW13858   1.363   6.196   1.806
 4320SOL    HW113859   1.427   6.133   1.762
 4320SOL    HW213860   1.382   6.199   1.904
 4321SOL     OW13861   6.735   0.254   4.378
 4321SOL    HW113862   6.769   0.318   4.309
 4321SOL    HW213863   6.774   0.278   4.467
 4322SOL     OW13864   5.802   0.970   6.797
 4322SOL    HW113865   5.877   0.935   6.741
 4322SOL    HW213866   5.730   1.006   6.737
 4323SOL     OW13867   5.553   3.971   2.038
 4323SOL    HW113868   5.535   3.876   2.014
 4323SOL    HW213869   5.574   4.023   1.955
 4324SOL     OW13870   5.565   4.798   6.979
 4324SOL    HW113871   5.522   4.827   0.036
 4324SOL    HW213872   5.498   4.801   6.905
 4325SOL     OW13873   1.002   0.905   6.864
 4325SOL    HW113874   0.924   0.967   6.875
 4325SOL    HW213875   1.025   0.899   6.766
 4326SOL     OW13876   5.866   2.874   5.283
 4326SOL    HW113877   5.883   2.777   5.298
 4326SOL    HW213878   5.789   2.903   5.341
 4327SOL     OW13879   6.185   5.343   2.418
 4327SOL    HW113880   6.108   5.371   2.476
 4327SOL    HW213881   6.187   5.399   2.336
 4328SOL     OW13882   5.060   4.152   6.136
 4328SOL    HW113883   5.138   4.090   6.138
 4328SOL    HW213884   5.074   4.224   6.204
 4329SOL     OW13885   3.586   1.858   6.046
 4329SOL    HW113886   3.641   1.823   5.970
 4329SOL    HW213887   3.520   1.924   6.012
 4330SOL     OW13888   3.157   0.618   5.090
 4330SOL    HW113889   3.137   0.538   5.033
 4330SOL    HW213890   3.245   0.606   5.136
 4331SOL     OW13891   5.301   3.185   1.128
 4331SOL    HW113892   5.346   3.241   1.197
 4331SOL    HW213893   5.258   3.244   1.060
 4332SOL     OW13894   5.571   4.366   2.329
 4332SOL    HW113895   5.660   4.410   2.344
 4332SOL    HW213896   5.585   4.267   2.320
 4333SOL     OW13897   4.509   1.450   5.197
 4333SOL    HW113898   4.559   1.393   5.263
 4333SOL    HW213899   4.490   1.539   5.238
 4334SOL     OW13900   2.736   2.008   2.664
 4334SOL    HW113901   2.761   2.012   2.568
 4334SOL    HW213902   2.649   2.056   2.678
 4335SOL     OW13903   3.465   4.038   3.506
 4335SOL    HW113904   3.502   4.083   3.425
 4335SOL    HW213905   3.517   4.068   3.587
 4336SOL     OW13906   0.817   6.550   6.041
 4336SOL    HW113907   0.855   6.617   5.978
 4336SOL    HW213908   0.856   6.563   6.132
 4337SOL     OW13909   1.553   4.738   0.177
 4337SOL    HW113910   1.514   4.806   0.115
 4337SOL    HW213911   1.556   4.776   0.270
 4338SOL     OW13912   4.576   5.974   4.498
 4338SOL    HW113913   4.479   5.997   4.506
 4338SOL    HW213914   4.620   5.983   4.587
 4339SOL     OW13915   5.460   3.306   5.075
 4339SOL    HW113916   5.363   3.286   5.061
 4339SOL    HW213917   5.514   3.223   5.066
 4340SOL     OW13918   6.157   4.307   2.812
 4340SOL    HW113919   6.155   4.319   2.911
 4340SOL    HW213920   6.066   4.325   2.774
 4341SOL     OW13921   0.791   4.924   1.947
 4341SOL    HW113922   0.849   4.995   1.987
 4341SOL    HW213923   0.849   4.848   1.916
 4342SOL     OW13924   6.988   3.097   4.347
 4342SOL    HW113925   6.966   3.016   4.293
 4342SOL    HW213926   6.916   3.166   4.335
 4343SOL     OW13927   2.333   6.565   6.290
 4343SOL    HW113928   2.244   6.609   6.276
 4343SOL    HW213929   2.327   6.469   6.262
 4344SOL     OW13930   2.040   5.584   2.948
 4344SOL    HW113931   2.134   5.552   2.937
 4344SOL    HW213932   2.028   5.622   3.040
 4345SOL     OW13933   1.912   2.821   5.764
 4345SOL    HW113934   1.826   2.868   5.783
 4345SOL    HW213935   1.979   2.887   5.731
 4346SOL     OW13936   2.055   3.204   1.730
 4346SOL    HW113937   2.023   3.289   1.770
 4346SOL    HW213938   2.155   3.203   1.729
 4347SOL     OW13939   6.161   1.043   2.136
 4347SOL    HW113940   6.085   1.079   2.083
 4347SOL    HW213941   6.128   0.974   2.200
 4348SOL     OW13942   0.603   3.124   2.384
 4348SOL    HW113943   0.518   3.078   2.413
 4348SOL    HW213944   0.586   3.222   2.375
 4349SOL     OW13945   6.702   2.022   3.263
 4349SOL    HW113946   6.753   2.090   3.316
 4349SOL    HW213947   6.710   1.933   3.308
 4350SOL     OW13948   4.935   1.934   4.279
 4350SOL    HW113949   4.950   1.987   4.363
 4350SOL    HW213950   4.932   1.996   4.201
 4351SOL     OW13951   2.122   6.397   0.714
 4351SOL    HW113952   2.054   6.341   0.761
 4351SOL    HW213953   2.079   6.480   0.680
 4352SOL     OW13954   1.174   2.577   1.891
 4352SOL    HW113955   1.227   2.528   1.960
 4352SOL    HW213956   1.111   2.515   1.846
 4353SOL     OW13957   3.122   4.830   0.838
 4353SOL    HW113958   3.083   4.737   0.842
 4353SOL    HW213959   3.150   4.850   0.744
 4354SOL     OW13960   2.358   6.401   5.739
 4354SOL    HW113961   2.327   6.406   5.644
 4354SOL    HW213962   2.355   6.307   5.770
 4355SOL     OW13963   3.601   6.842   1.893
 4355SOL    HW113964   3.540   6.855   1.972
 4355SOL    HW213965   3.551   6.865   1.809
 4356SOL     OW13966   4.821   4.081   1.949
 4356SOL    HW113967   4.875   4.151   1.902
 4356SOL    HW213968   4.745   4.052   1.891
 4357SOL     OW13969   6.215   0.046   6.954
 4357SOL    HW113970   6.121   0.013   6.952
 4357SOL    HW213971   6.262   0.009   0.005
 4358SOL     OW13972   6.609   5.945   0.630
 4358SOL    HW113973   6.651   5.950   0.539
 4358SOL    HW213974   6.679   5.926   0.698
 4359SOL     OW13975   1.223   1.783   5.266
 4359SOL    HW113976   1.197   1.784   5.170
 4359SOL    HW213977   1.280   1.702   5.285
 4360SOL     OW13978   1.809   3.184   2.485
 4360SOL    HW113979   1.883   3.238   2.523
 4360SOL    HW213980   1.806   3.196   2.385
 4361SOL     OW13981   2.850   2.588   1.729
 4361SOL    HW113982   2.909   2.539   1.794
 4361SOL    HW213983   2.831   2.528   1.651
 4362SOL     OW13984   6.183   3.660   4.430
 4362SOL    HW113985   6.255   3.723   4.459
 4362SOL    HW213986   6.219   3.598   4.360
 4363SOL     OW13987   5.193   2.297   5.807
 4363SOL    HW113988   5.292   2.309   5.811
 4363SOL    HW213989   5.169   2.203   5.830
 4364SOL     OW13990   3.031   3.721   5.389
 4364SOL    HW113991   3.042   3.625   5.415
 4364SOL    HW213992   2.938   3.736   5.356
 4365SOL     OW13993   2.788   1.378   2.023
 4365SOL    HW113994   2.797   1.393   2.121
 4365SOL    HW213995   2.830   1.454   1.974
 4366SOL     OW13996   5.578   6.637   0.301
 4366SOL    HW113997   5.629   6.721   0.319
 4366SOL    HW213998   5.581   6.616   0.203
 4367SOL     OW13999   1.553   5.181   5.427
 4367SOL    HW114000   1.534   5.162   5.331
 4367SOL    HW214001   1.474   5.153   5.482
 4368SOL     OW14002   4.212   5.160   1.311
 4368SOL    HW114003   4.178   5.103   1.386
 4368SOL    HW214004   4.261   5.238   1.349
 4369SOL     OW14005   4.493   5.205   2.605
 4369SOL    HW114006   4.400   5.170   2.595
 4369SOL    HW214007   4.519   5.202   2.702
 4370SOL     OW14008   4.947   4.643   3.125
 4370SOL    HW114009   4.882   4.632   3.050
 4370SOL    HW214010   5.033   4.599   3.102
 4371SOL     OW14011   6.239   0.516   1.764
 4371SOL    HW114012   6.228   0.433   1.818
 4371SOL    HW214013   6.299   0.579   1.813
 4372SOL     OW14014   4.474   0.802   2.861
 4372SOL    HW114015   4.455   0.874   2.794
 4372SOL    HW214016   4.542   0.834   2.927
 4373SOL     OW14017   0.127   2.888   0.174
 4373SOL    HW114018   0.076   2.974   0.179
 4373SOL    HW214019   0.225   2.908   0.168
 4374SOL     OW14020   0.841   1.869   2.062
 4374SOL    HW114021   0.922   1.928   2.066
 4374SOL    HW214022   0.769   1.914   2.010
 4375SOL     OW14023   3.371   0.120   4.265
 4375SOL    HW114024   3.358   0.062   4.346
 4375SOL    HW214025   3.284   0.130   4.217
 4376SOL     OW14026   0.045   0.228   2.610
 4376SOL    HW114027   0.064   0.279   2.526
 4376SOL    HW214028   6.985   0.183   2.602
 4377SOL     OW14029   6.102   4.033   0.459
 4377SOL    HW114030   6.027   4.023   0.394
 4377SOL    HW214031   6.186   4.058   0.410
 4378SOL     OW14032   1.721   1.855   2.586
 4378SOL    HW114033   1.740   1.896   2.676
 4378SOL    HW214034   1.703   1.757   2.597
 4379SOL     OW14035   3.000   1.439   3.830
 4379SOL    HW114036   2.937   1.362   3.835
 4379SOL    HW214037   2.948   1.524   3.828
 4380SOL     OW14038   1.145   0.365   1.309
 4380SOL    HW114039   1.153   0.409   1.398
 4380SOL    HW214040   1.236   0.352   1.270
 4381SOL     OW14041   1.104   6.039   5.035
 4381SOL    HW114042   1.124   5.978   5.111
 4381SOL    HW214043   1.180   6.101   5.020
 4382SOL     OW14044   6.776   3.165   6.090
 4382SOL    HW114045   6.748   3.167   6.186
 4382SOL    HW214046   6.837   3.242   6.072
 4383SOL     OW14047   6.816   3.965   6.304
 4383SOL    HW114048   6.820   4.049   6.358
 4383SOL    HW214049   6.723   3.927   6.308
 4384SOL     OW14050   5.779   0.845   3.708
 4384SOL    HW114051   5.815   0.877   3.620
 4384SOL    HW214052   5.686   0.810   3.695
 4385SOL     OW14053   4.525   2.435   5.513
 4385SOL    HW114054   4.549   2.352   5.462
 4385SOL    HW214055   4.555   2.516   5.462
 4386SOL     OW14056   1.385   4.060   5.236
 4386SOL    HW114057   1.382   4.159   5.225
 4386SOL    HW214058   1.480   4.029   5.237
 4387SOL     OW14059   6.512   2.847   1.600
 4387SOL    HW114060   6.503   2.907   1.520
 4387SOL    HW214061   6.574   2.889   1.666
 4388SOL     OW14062   4.462   2.519   6.217
 4388SOL    HW114063   4.494   2.435   6.175
 4388SOL    HW214064   4.497   2.525   6.311
 4389SOL     OW14065   6.722   3.597   0.856
 4389SOL    HW114066   6.658   3.548   0.798
 4389SOL    HW214067   6.707   3.570   0.952
 4390SOL     OW14068   4.860   6.934   1.522
 4390SOL    HW114069   4.843   6.960   1.617
 4390SOL    HW214070   4.956   6.948   1.500
 4391SOL     OW14071   2.871   4.677   6.316
 4391SOL    HW114072   2.772   4.660   6.308
 4391SOL    HW214073   2.894   4.690   6.412
 4392SOL     OW14074   0.554   1.928   5.159
 4392SOL    HW114075   0.521   1.999   5.097
 4392SOL    HW214076   0.601   1.857   5.106
 4393SOL     OW14077   6.635   0.771   2.172
 4393SOL    HW114078   6.699   0.752   2.098
 4393SOL    HW214079   6.608   0.867   2.169
 4394SOL     OW14080   0.916   6.638   1.279
 4394SOL    HW114081   0.920   6.597   1.188
 4394SOL    HW214082   0.928   6.567   1.348
 4395SOL     OW14083   1.989   0.167   1.593
 4395SOL    HW114084   1.973   0.233   1.519
 4395SOL    HW214085   2.086   0.167   1.617
 4396SOL     OW14086   1.978   1.841   4.395
 4396SOL    HW114087   1.902   1.892   4.435
 4396SOL    HW214088   1.943   1.775   4.329
 4397SOL     OW14089   1.794   3.153   4.511
 4397SOL    HW114090   1.769   3.113   4.423
 4397SOL    HW214091   1.809   3.080   4.578
 4398SOL     OW14092   1.679   3.429   6.821
 4398SOL    HW114093   1.635   3.450   6.734
 4398SOL    HW214094   1.778   3.432   6.809
 4399SOL     OW14095   2.456   6.438   1.988
 4399SOL    HW114096   2.448   6.342   1.959
 4399SOL    HW214097   2.366   6.482   1.981
 4400SOL     OW14098   2.094   6.590   3.525
 4400SOL    HW114099   2.131   6.571   3.434
 4400SOL    HW214100   2.068   6.504   3.569
 4401SOL     OW14101   3.993   6.460   5.146
 4401SOL    HW114102   3.910   6.454   5.091
 4401SOL    HW214103   3.980   6.527   5.220
 4402SOL     OW14104   0.577   0.235   2.739
 4402SOL    HW114105   0.481   0.255   2.758
 4402SOL    HW214106   0.598   0.142   2.771
 4403SOL     OW14107   1.522   6.406   0.755
 4403SOL    HW114108   1.587   6.475   0.786
 4403SOL    HW214109   1.554   6.366   0.669
 4404SOL     OW14110   1.525   6.108   5.164
 4404SOL    HW114111   1.513   6.032   5.100
 4404SOL    HW214112   1.602   6.090   5.224
 4405SOL     OW14113   1.932   4.781   2.488
 4405SOL    HW114114   1.903   4.728   2.409
 4405SOL    HW214115   2.027   4.758   2.511
 4406SOL     OW14116   6.645   3.146   0.857
 4406SOL    HW114117   6.722   3.124   0.917
 4406SOL    HW214118   6.559   3.137   0.908
 4407SOL     OW14119   0.226   5.469   0.760
 4407SOL    HW114120   0.240   5.396   0.693
 4407SOL    HW214121   0.303   5.533   0.756
 4408SOL     OW14122   2.961   6.003   6.595
 4408SOL    HW114123   2.908   6.084   6.572
 4408SOL    HW214124   2.942   5.976   6.689
 4409SOL     OW14125   4.714   1.196   1.946
 4409SOL    HW114126   4.764   1.191   1.859
 4409SOL    HW214127   4.646   1.269   1.941
 4410SOL     OW14128   6.470   5.719   0.621
 4410SOL    HW114129   6.509   5.811   0.626
 4410SOL    HW214130   6.501   5.665   0.699
 4411SOL     OW14131   3.676   4.358   5.389
 4411SOL    HW114132   3.634   4.300   5.320
 4411SOL    HW214133   3.621   4.441   5.401
 4412SOL     OW14134   5.086   6.808   4.078
 4412SOL    HW114135   5.038   6.720   4.073
 4412SOL    HW214136   5.044   6.865   4.148
 4413SOL     OW14137   5.032   5.987   3.709
 4413SOL    HW114138   5.035   6.086   3.696
 4413SOL    HW214139   4.960   5.964   3.774
 4414SOL     OW14140   4.344   5.652   1.455
 4414SOL    HW114141   4.345   5.714   1.376
 4414SOL    HW214142   4.409   5.684   1.523
 4415SOL     OW14143   3.921   3.640   0.860
 4415SOL    HW114144   3.891   3.659   0.953
 4415SOL    HW214145   4.021   3.633   0.857
 4416SOL     OW14146   3.857   1.111   4.472
 4416SOL    HW114147   3.909   1.125   4.388
 4416SOL    HW214148   3.761   1.093   4.450
 4417SOL     OW14149   6.137   2.648   4.577
 4417SOL    HW114150   6.214   2.639   4.513
 4417SOL    HW214151   6.091   2.735   4.561
 4418SOL     OW14152   5.927   1.998   2.129
 4418SOL    HW114153   5.853   2.010   2.063
 4418SOL    HW214154   5.889   1.979   2.219
 4419SOL     OW14155   6.556   0.116   5.932
 4419SOL    HW114156   6.524   0.023   5.953
 4419SOL    HW214157   6.483   0.166   5.886
 4420SOL     OW14158   3.217   1.585   0.941
 4420SOL    HW114159   3.159   1.506   0.918
 4420SOL    HW214160   3.225   1.592   1.040
 4421SOL     OW14161   1.488   2.123   5.404
 4421SOL    HW114162   1.390   2.111   5.420
 4421SOL    HW214163   1.506   2.125   5.306
 4422SOL     OW14164   0.757   4.867   0.011
 4422SOL    HW114165   0.781   4.774   7.013
 4422SOL    HW214166   0.728   4.867   0.107
 4423SOL     OW14167   6.551   5.017   5.976
 4423SOL    HW114168   6.469   4.970   6.008
 4423SOL    HW214169   6.534   5.056   5.885
 4424SOL     OW14170   5.866   5.937   4.510
 4424SOL    HW114171   5.776   5.895   4.521
 4424SOL    HW214172   5.895   5.977   4.596
 4425SOL     OW14173   1.706   5.687   1.027
 4425SOL    HW114174   1.634   5.678   1.097
 4425SOL    HW214175   1.668   5.666   0.937
 4426SOL     OW14176   0.997   0.900   3.870
 4426SOL    HW114177   0.912   0.925   3.823
 4426SOL    HW214178   0.980   0.824   3.933
 4427SOL     OW14179   4.134   6.169   2.381
 4427SOL    HW114180   4.040   6.186   2.349
 4427SOL    HW214181   4.196   6.167   2.303
 4428SOL     OW14182   4.741   0.713   4.368
 4428SOL    HW114183   4.816   0.740   4.428
 4428SOL    HW214184   4.744   0.614   4.352
 4429SOL     OW14185   2.785   6.639   2.872
 4429SOL    HW114186   2.874   6.684   2.881
 4429SOL    HW214187   2.778   6.596   2.782
 4430SOL     OW14188   5.598   5.176   4.370
 4430SOL    HW114189   5.542   5.111   4.319
 4430SOL    HW214190   5.539   5.233   4.428
 4431SOL     OW14191   3.239   0.576   3.800
 4431SOL    HW114192   3.231   0.522   3.884
 4431SOL    HW214193   3.173   0.651   3.803
 4432SOL     OW14194   1.955   3.197   6.400
 4432SOL    HW114195   1.903   3.137   6.461
 4432SOL    HW214196   1.892   3.253   6.346
 4433SOL     OW14197   0.330   2.537   4.845
 4433SOL    HW114198   0.242   2.511   4.805
 4433SOL    HW214199   0.317   2.618   4.902
 4434SOL     OW14200   5.533   1.843   2.429
 4434SOL    HW114201   5.516   1.909   2.356
 4434SOL    HW214202   5.521   1.750   2.393
 4435SOL     OW14203   4.026   3.825   1.443
 4435SOL    HW114204   4.031   3.831   1.543
 4435SOL    HW214205   4.045   3.731   1.415
 4436SOL     OW14206   3.623   1.146   1.487
 4436SOL    HW114207   3.540   1.195   1.460
 4436SOL    HW214208   3.686   1.141   1.409
 4437SOL     OW14209   0.791   3.422   2.804
 4437SOL    HW114210   0.810   3.335   2.850
 4437SOL    HW214211   0.764   3.405   2.710
 4438SOL     OW14212   4.789   6.858   5.611
 4438SOL    HW114213   4.884   6.875   5.584
 4438SOL    HW214214   4.729   6.925   5.566
 4439SOL     OW14215   1.136   4.882   2.866
 4439SOL    HW114216   1.081   4.963   2.887
 4439SOL    HW214217   1.231   4.909   2.850
 4440SOL     OW14218   2.852   4.455   1.034
 4440SOL    HW114219   2.915   4.380   1.052
 4440SOL    HW214220   2.831   4.458   0.936
 4441SOL     OW14221   6.824   1.259   1.210
 4441SOL    HW114222   6.838   1.296   1.118
 4441SOL    HW214223   6.904   1.277   1.266
 4442SOL     OW14224   1.337   5.417   5.737
 4442SOL    HW114225   1.360   5.514   5.742
 4442SOL    HW214226   1.240   5.404   5.760
 4443SOL     OW14227   1.017   4.379   6.428
 4443SOL    HW114228   0.963   4.347   6.350
 4443SOL    HW214229   1.096   4.319   6.441
 4444SOL     OW14230   4.581   4.136   0.363
 4444SOL    HW114231   4.632   4.185   0.291
 4444SOL    HW214232   4.637   4.132   0.446
 4445SOL     OW14233   1.665   5.555   0.021
 4445SOL    HW114234   1.738   5.545   6.983
 4445SOL    HW214235   1.618   5.642   0.006
 4446SOL     OW14236   5.712   1.635   0.099
 4446SOL    HW114237   5.720   1.632   0.199
 4446SOL    HW214238   5.799   1.664   0.060
 4447SOL     OW14239   5.670   4.417   5.062
 4447SOL    HW114240   5.665   4.382   5.155
 4447SOL    HW214241   5.766   4.420   5.032
 4448SOL     OW14242   2.730   0.001   1.223
 4448SOL    HW114243   2.824   6.997   1.234
 4448SOL    HW214244   2.666   6.960   1.254
 4449SOL     OW14245   4.435   1.349   6.506
 4449SOL    HW114246   4.498   1.324   6.579
 4449SOL    HW214247   4.355   1.289   6.508
 4450SOL     OW14248   3.073   1.415   6.790
 4450SOL    HW114249   3.018   1.342   6.751
 4450SOL    HW214250   3.068   1.496   6.731
 4451SOL     OW14251   4.422   5.069   4.375
 4451SOL    HW114252   4.471   5.064   4.288
 4451SOL    HW214253   4.344   5.131   4.365
 4452SOL     OW14254   5.925   6.050   4.740
 4452SOL    HW114255   5.964   6.132   4.697
 4452SOL    HW214256   5.911   6.067   4.838
 4453SOL     OW14257   1.461   3.003   1.774
 4453SOL    HW114258   1.375   2.981   1.819
 4453SOL    HW214259   1.500   3.085   1.817
 4454SOL     OW14260   0.769   1.417   0.071
 4454SOL    HW114261   0.834   1.343   0.051
 4454SOL    HW214262   0.743   1.413   0.167
 4455SOL     OW14263   5.489   5.608   5.141
 4455SOL    HW114264   5.393   5.621   5.166
 4455SOL    HW214265   5.526   5.693   5.104
 4456SOL     OW14266   2.366   6.042   3.407
 4456SOL    HW114267   2.437   6.032   3.476
 4456SOL    HW214268   2.284   6.083   3.449
 4457SOL     OW14269   1.724   2.055   4.715
 4457SOL    HW114270   1.801   1.991   4.721
 4457SOL    HW214271   1.753   2.144   4.749
 4458SOL     OW14272   2.349   3.476   1.533
 4458SOL    HW114273   2.429   3.524   1.569
 4458SOL    HW214274   2.319   3.406   1.598
 4459SOL     OW14275   2.609   1.739   4.052
 4459SOL    HW114276   2.619   1.819   4.111
 4459SOL    HW214277   2.523   1.745   4.002
 4460SOL     OW14278   0.792   3.306   5.192
 4460SOL    HW114279   0.746   3.252   5.122
 4460SOL    HW214280   0.725   3.343   5.256
 4461SOL     OW14281   1.612   0.918   1.144
 4461SOL    HW114282   1.647   0.942   1.053
 4461SOL    HW214283   1.688   0.902   1.206
 4462SOL     OW14284   5.903   4.135   2.578
 4462SOL    HW114285   5.854   4.051   2.602
 4462SOL    HW214286   5.907   4.195   2.659
 4463SOL     OW14287   5.183   1.449   1.334
 4463SOL    HW114288   5.169   1.352   1.315
 4463SOL    HW214289   5.275   1.476   1.305
 4464SOL     OW14290   0.817   5.807   0.428
 4464SOL    HW114291   0.831   5.738   0.357
 4464SOL    HW214292   0.783   5.763   0.511
 4465SOL     OW14293   2.660   5.364   0.336
 4465SOL    HW114294   2.760   5.358   0.339
 4465SOL    HW214295   2.621   5.273   0.349
 4466SOL     OW14296   1.687   2.159   2.848
 4466SOL    HW114297   1.590   2.160   2.824
 4466SOL    HW214298   1.733   2.236   2.803
 4467SOL     OW14299   2.519   5.723   3.877
 4467SOL    HW114300   2.480   5.810   3.904
 4467SOL    HW214301   2.613   5.737   3.846
 4468SOL     OW14302   1.399   4.122   1.080
 4468SOL    HW114303   1.415   4.131   0.982
 4468SOL    HW214304   1.322   4.181   1.106
 4469SOL     OW14305   2.705   0.665   1.224
 4469SOL    HW114306   2.645   0.621   1.290
 4469SOL    HW214307   2.801   0.653   1.253
 4470SOL     OW14308   0.523   1.419   2.495
 4470SOL    HW114309   0.570   1.414   2.407
 4470SOL    HW214310   0.430   1.452   2.482
 4471SOL     OW14311   1.999   2.951   6.832
 4471SOL    HW114312   1.919   2.998   6.869
 4471SOL    HW214313   2.034   3.002   6.753
 4472SOL     OW14314   1.363   2.113   0.630
 4472SOL    HW114315   1.434   2.046   0.653
 4472SOL    HW214316   1.372   2.192   0.691
 4473SOL     OW14317   5.977   3.081   3.634
 4473SOL    HW114318   6.060   3.042   3.675
 4473SOL    HW214319   5.957   3.034   3.548
 4474SOL     OW14320   2.799   0.020   2.311
 4474SOL    HW114321   2.783   0.109   2.269
 4474SOL    HW214322   2.803   0.029   2.410
 4475SOL     OW14323   0.954   3.952   1.529
 4475SOL    HW114324   1.014   3.946   1.609
 4475SOL    HW214325   0.963   3.869   1.474
 4476SOL     OW14326   6.275   1.156   4.280
 4476SOL    HW114327   6.274   1.074   4.222
 4476SOL    HW214328   6.262   1.129   4.375
 4477SOL     OW14329   2.033   0.525   5.352
 4477SOL    HW114330   2.053   0.591   5.424
 4477SOL    HW214331   1.943   0.484   5.369
 4478SOL     OW14332   1.100   0.068   1.436
 4478SOL    HW114333   1.145   7.013   1.406
 4478SOL    HW214334   1.002   0.064   1.415
 4479SOL     OW14335   1.306   1.772   0.554
 4479SOL    HW114336   1.321   1.742   0.648
 4479SOL    HW214337   1.261   1.699   0.503
 4480SOL     OW14338   0.738   4.157   5.042
 4480SOL    HW114339   0.674   4.116   5.107
 4480SOL    HW214340   0.714   4.128   4.949
 4481SOL     OW14341   2.251   5.441   5.117
 4481SOL    HW114342   2.218   5.388   5.194
 4481SOL    HW214343   2.348   5.464   5.131
 4482SOL     OW14344   2.270   3.557   5.781
 4482SOL    HW114345   2.327   3.549   5.700
 4482SOL    HW214346   2.273   3.472   5.833
 4483SOL     OW14347   0.439   2.647   1.981
 4483SOL    HW114348   0.518   2.683   1.931
 4483SOL    HW214349   0.374   2.607   1.917
 4484SOL     OW14350   2.279   2.825   0.150
 4484SOL    HW114351   2.248   2.757   0.217
 4484SOL    HW214352   2.285   2.783   0.060
 4485SOL     OW14353   4.714   2.673   5.176
 4485SOL    HW114354   4.765   2.754   5.148
 4485SOL    HW214355   4.682   2.686   5.270
 4486SOL     OW14356   5.724   5.011   5.325
 4486SOL    HW114357   5.756   5.027   5.418
 4486SOL    HW214358   5.666   5.088   5.296
 4487SOL     OW14359   2.154   2.722   6.882
 4487SOL    HW114360   2.088   2.798   6.882
 4487SOL    HW214361   2.220   2.735   6.808
 4488SOL     OW14362   1.178   3.830   4.144
 4488SOL    HW114363   1.236   3.833   4.226
 4488SOL    HW214364   1.196   3.746   4.094
 4489SOL     OW14365   5.014   5.637   5.039
 4489SOL    HW114366   4.929   5.593   5.067
 4489SOL    HW214367   4.997   5.692   4.957
 4490SOL     OW14368   5.158   2.149   1.168
 4490SOL    HW114369   5.127   2.111   1.255
 4490SOL    HW214370   5.150   2.248   1.170
 4491SOL     OW14371   1.028   3.658   3.137
 4491SOL    HW114372   1.035   3.620   3.045
 4491SOL    HW214373   0.954   3.725   3.141
 4492SOL     OW14374   5.510   1.826   2.000
 4492SOL    HW114375   5.555   1.774   1.927
 4492SOL    HW214376   5.423   1.861   1.968
 4493SOL     OW14377   6.167   6.492   4.581
 4493SOL    HW114378   6.123   6.549   4.651
 4493SOL    HW214379   6.231   6.429   4.625
 4494SOL     OW14380   1.154   0.929   5.770
 4494SOL    HW114381   1.098   0.903   5.848
 4494SOL    HW214382   1.097   0.934   5.688
 4495SOL     OW14383   3.750   6.914   2.655
 4495SOL    HW114384   3.733   6.870   2.743
 4495SOL    HW214385   3.825   6.867   2.609
 4496SOL     OW14386   4.848   6.215   7.000
 4496SOL    HW114387   4.790   6.168   6.934
 4496SOL    HW214388   4.900   6.287   6.953
 4497SOL     OW14389   3.912   2.356   6.936
 4497SOL    HW114390   3.904   2.411   7.019
 4497SOL    HW214391   3.924   2.260   6.961
 4498SOL     OW14392   6.692   5.406   6.483
 4498SOL    HW114393   6.634   5.417   6.402
 4498SOL    HW214394   6.784   5.440   6.464
 4499SOL     OW14395   6.049   2.281   3.601
 4499SOL    HW114396   6.052   2.313   3.506
 4499SOL    HW214397   6.135   2.306   3.647
 4500SOL     OW14398   3.946   4.503   6.601
 4500SOL    HW114399   3.986   4.583   6.646
 4500SOL    HW214400   4.003   4.423   6.617
 4501SOL     OW14401   5.594   2.279   2.655
 4501SOL    HW114402   5.505   2.279   2.609
 4501SOL    HW214403   5.630   2.372   2.658
 4502SOL     OW14404   0.903   4.048   0.187
 4502SOL    HW114405   0.891   4.088   0.096
 4502SOL    HW214406   0.881   4.118   0.256
 4503SOL     OW14407   2.986   6.849   2.255
 4503SOL    HW114408   2.956   6.821   2.163
 4503SOL    HW214409   2.935   6.930   2.283
 4504SOL     OW14410   6.499   2.297   4.044
 4504SOL    HW114411   6.447   2.215   4.070
 4504SOL    HW214412   6.586   2.269   4.004
 4505SOL     OW14413   6.794   4.282   2.286
 4505SOL    HW114414   6.874   4.342   2.285
 4505SOL    HW214415   6.809   4.207   2.350
 4506SOL     OW14416   5.631   2.962   3.493
 4506SOL    HW114417   5.633   2.930   3.398
 4506SOL    HW214418   5.661   2.887   3.553
 4507SOL     OW14419   7.015   2.981   3.908
 4507SOL    HW114420   6.946   3.050   3.885
 4507SOL    HW214421   0.073   3.026   3.928
 4508SOL     OW14422   1.347   4.553   6.920
 4508SOL    HW114423   1.286   4.521   6.993
 4508SOL    HW214424   1.434   4.505   6.926
 4509SOL     OW14425   5.101   2.487   2.654
 4509SOL    HW114426   5.131   2.415   2.717
 4509SOL    HW214427   5.082   2.448   2.565
 4510SOL     OW14428   4.528   1.386   4.258
 4510SOL    HW114429   4.563   1.480   4.256
 4510SOL    HW214430   4.544   1.346   4.348
 4511SOL     OW14431   6.617   3.658   1.112
 4511SOL    HW114432   6.572   3.707   1.187
 4511SOL    HW214433   6.677   3.587   1.150
 4512SOL     OW14434   3.310   1.677   5.807
 4512SOL    HW114435   3.345   1.698   5.715
 4512SOL    HW214436   3.240   1.744   5.831
 4513SOL     OW14437   0.779   6.067   6.501
 4513SOL    HW114438   0.858   6.031   6.550
 4513SOL    HW214439   0.789   6.049   6.403
 4514SOL     OW14440   3.444   3.416   0.329
 4514SOL    HW114441   3.422   3.472   0.249
 4514SOL    HW214442   3.527   3.450   0.373
 4515SOL     OW14443   5.596   1.471   4.858
 4515SOL    HW114444   5.630   1.408   4.928
 4515SOL    HW214445   5.552   1.418   4.784
 4516SOL     OW14446   2.635   0.311   5.607
 4516SOL    HW114447   2.680   0.273   5.525
 4516SOL    HW214448   2.696   0.303   5.685
 4517SOL     OW14449   4.321   6.406   6.769
 4517SOL    HW114450   4.295   6.434   6.862
 4517SOL    HW214451   4.261   6.452   6.703
 4518SOL     OW14452   1.274   6.699   1.174
 4518SOL    HW114453   1.315   6.644   1.247
 4518SOL    HW214454   1.266   6.643   1.092
 4519SOL     OW14455   4.995   6.715   6.819
 4519SOL    HW114456   5.058   6.762   6.756
 4519SOL    HW214457   4.907   6.700   6.773
 4520SOL     OW14458   4.147   5.679   5.575
 4520SOL    HW114459   4.203   5.597   5.564
 4520SOL    HW214460   4.118   5.712   5.485
 4521SOL     OW14461   5.093   1.769   4.966
 4521SOL    HW114462   5.121   1.862   4.989
 4521SOL    HW214463   5.005   1.749   5.009
 4522SOL     OW14464   6.215   4.176   3.259
 4522SOL    HW114465   6.277   4.099   3.273
 4522SOL    HW214466   6.122   4.141   3.247
 4523SOL     OW14467   1.381   3.772   0.003
 4523SOL    HW114468   1.295   3.823   7.029
 4523SOL    HW214469   1.372   3.688   6.978
 4524SOL     OW14470   6.876   3.566   2.293
 4524SOL    HW114471   6.931   3.490   2.326
 4524SOL    HW214472   6.930   3.650   2.295
 4525SOL     OW14473   2.819   2.149   5.621
 4525SOL    HW114474   2.822   2.208   5.702
 4525SOL    HW214475   2.725   2.117   5.607
 4526SOL     OW14476   0.234   0.825   6.510
 4526SOL    HW114477   0.312   0.888   6.502
 4526SOL    HW214478   0.260   0.748   6.569
 4527SOL     OW14479   6.719   0.109   2.956
 4527SOL    HW114480   6.778   0.188   2.972
 4527SOL    HW214481   6.691   0.071   3.045
 4528SOL     OW14482   4.456   0.789   6.416
 4528SOL    HW114483   4.434   0.828   6.505
 4528SOL    HW214484   4.391   0.823   6.348
 4529SOL     OW14485   2.985   1.297   5.846
 4529SOL    HW114486   2.976   1.292   5.945
 4529SOL    HW214487   2.944   1.215   5.804
 4530SOL     OW14488   2.406   6.053   4.451
 4530SOL    HW114489   2.409   6.143   4.494
 4530SOL    HW214490   2.354   5.990   4.508
 4531SOL     OW14491   0.818   4.226   6.270
 4531SOL    HW114492   0.721   4.247   6.258
 4531SOL    HW214493   0.827   4.138   6.317
 4532SOL     OW14494   5.023   0.753   2.862
 4532SOL    HW114495   5.004   0.714   2.772
 4532SOL    HW214496   5.094   0.700   2.907
 4533SOL     OW14497   1.404   1.055   3.160
 4533SOL    HW114498   1.312   1.052   3.198
 4533SOL    HW214499   1.409   1.125   3.089
 4534SOL     OW14500   4.218   2.218   5.262
 4534SOL    HW114501   4.142   2.161   5.292
 4534SOL    HW214502   4.296   2.160   5.240
 4535SOL     OW14503   3.387   1.290   1.267
 4535SOL    HW114504   3.299   1.282   1.312
 4535SOL    HW214505   3.430   1.377   1.292
 4536SOL     OW14506   2.853   1.100   5.685
 4536SOL    HW114507   2.771   1.157   5.683
 4536SOL    HW214508   2.887   1.087   5.592
 4537SOL     OW14509   4.064   3.803   2.795
 4537SOL    HW114510   4.098   3.721   2.840
 4537SOL    HW214511   4.141   3.857   2.760
 4538SOL     OW14512   1.607   2.360   1.826
 4538SOL    HW114513   1.571   2.332   1.737
 4538SOL    HW214514   1.625   2.280   1.882
 4539SOL     OW14515   1.982   5.453   4.661
 4539SOL    HW114516   2.005   5.499   4.575
 4539SOL    HW214517   1.989   5.354   4.648
 4540SOL     OW14518   0.829   1.067   1.000
 4540SOL    HW114519   0.866   1.156   1.028
 4540SOL    HW214520   0.732   1.063   1.021
 4541SOL     OW14521   4.531   1.594   0.054
 4541SOL    HW114522   4.444   1.548   0.074
 4541SOL    HW214523   4.520   1.693   0.065
 4542SOL     OW14524   0.007   1.918   0.920
 4542SOL    HW114525   6.982   1.922   1.004
 4542SOL    HW214526   6.985   1.868   0.850
 4543SOL     OW14527   4.607   2.359   0.733
 4543SOL    HW114528   4.629   2.436   0.792
 4543SOL    HW214529   4.681   2.291   0.738
 4544SOL     OW14530   4.600   5.171   1.093
 4544SOL    HW114531   4.646   5.222   1.020
 4544SOL    HW214532   4.540   5.102   1.052
 4545SOL     OW14533   0.638   4.087   5.290
 4545SOL    HW114534   0.614   4.173   5.335
 4545SOL    HW214535   0.695   4.032   5.350
 4546SOL     OW14536   3.295   0.300   5.768
 4546SOL    HW114537   3.298   0.386   5.717
 4546SOL    HW214538   3.385   0.258   5.767
 4547SOL     OW14539   6.279   0.497   0.388
 4547SOL    HW114540   6.197   0.553   0.379
 4547SOL    HW214541   6.347   0.547   0.442
 4548SOL     OW14542   2.505   2.512   3.517
 4548SOL    HW114543   2.475   2.578   3.448
 4548SOL    HW214544   2.469   2.539   3.607
 4549SOL     OW14545   5.017   4.457   2.687
 4549SOL    HW114546   4.931   4.497   2.656
 4549SOL    HW214547   5.091   4.483   2.625
 4550SOL     OW14548   0.920   4.533   4.006
 4550SOL    HW114549   0.961   4.443   3.992
 4550SOL    HW214550   0.878   4.536   4.097
 4551SOL     OW14551   0.657   3.679   5.377
 4551SOL    HW114552   0.613   3.704   5.291
 4551SOL    HW214553   0.611   3.727   5.452
 4552SOL     OW14554   5.651   2.286   2.199
 4552SOL    HW114555   5.563   2.306   2.242
 4552SOL    HW214556   5.654   2.327   2.108
 4553SOL     OW14557   5.180   4.546   6.469
 4553SOL    HW114558   5.268   4.539   6.515
 4553SOL    HW214559   5.150   4.642   6.469
 4554SOL     OW14560   0.608   6.585   1.204
 4554SOL    HW114561   0.514   6.555   1.219
 4554SOL    HW214562   0.620   6.676   1.245
 4555SOL     OW14563   1.130   1.158   6.676
 4555SOL    HW114564   1.206   1.094   6.691
 4555SOL    HW214565   1.160   1.251   6.697
 4556SOL     OW14566   6.150   3.313   5.466
 4556SOL    HW114567   6.050   3.318   5.461
 4556SOL    HW214568   6.187   3.295   5.374
 4557SOL     OW14569   5.773   5.290   4.929
 4557SOL    HW114570   5.683   5.249   4.942
 4557SOL    HW214571   5.801   5.281   4.834
 4558SOL     OW14572   6.515   3.403   5.228
 4558SOL    HW114573   6.561   3.448   5.304
 4558SOL    HW214574   6.521   3.461   5.146
 4559SOL     OW14575   0.751   3.404   2.503
 4559SOL    HW114576   0.664   3.450   2.522
 4559SOL    HW214577   0.737   3.305   2.506
 4560SOL     OW14578   5.866   4.347   2.324
 4560SOL    HW114579   5.818   4.260   2.309
 4560SOL    HW214580   5.963   4.335   2.305
 4561SOL     OW14581   3.420   1.808   4.210
 4561SOL    HW114582   3.510   1.765   4.213
 4561SOL    HW214583   3.369   1.775   4.130
 4562SOL     OW14584   2.175   6.536   0.312
 4562SOL    HW114585   2.157   6.517   0.215
 4562SOL    HW214586   2.174   6.450   0.363
 4563SOL     OW14587   6.659   3.236   1.556
 4563SOL    HW114588   6.607   3.320   1.575
 4563SOL    HW214589   6.753   3.260   1.532
 4564SOL     OW14590   0.039   4.549   2.081
 4564SOL    HW114591   0.010   4.576   2.173
 4564SOL    HW214592   0.129   4.587   2.062
 4565SOL     OW14593   1.459   1.457   4.413
 4565SOL    HW114594   1.553   1.488   4.425
 4565SOL    HW214595   1.414   1.512   4.342
 4566SOL     OW14596   0.473   3.713   1.314
 4566SOL    HW114597   0.540   3.724   1.387
 4566SOL    HW214598   0.517   3.729   1.226
 4567SOL     OW14599   6.923   0.593   0.262
 4567SOL    HW114600   6.895   0.682   0.227
 4567SOL    HW214601   6.844   0.532   0.267
 4568SOL     OW14602   0.731   4.446   5.212
 4568SOL    HW114603   0.690   4.493   5.134
 4568SOL    HW214604   0.797   4.378   5.179
 4569SOL     OW14605   2.953   0.855   2.631
 4569SOL    HW114606   2.879   0.901   2.583
 4569SOL    HW214607   2.945   0.756   2.617
 4570SOL     OW14608   6.136   6.388   2.298
 4570SOL    HW114609   6.215   6.423   2.249
 4570SOL    HW214610   6.151   6.292   2.322
 4571SOL     OW14611   4.587   2.884   6.486
 4571SOL    HW114612   4.616   2.971   6.527
 4571SOL    HW214613   4.553   2.824   6.558
 4572SOL     OW14614   2.587   1.821   6.293
 4572SOL    HW114615   2.582   1.831   6.392
 4572SOL    HW214616   2.640   1.897   6.255
 4573SOL     OW14617   0.781   0.127   0.598
 4573SOL    HW114618   0.865   0.079   0.621
 4573SOL    HW214619   0.709   0.060   0.577
 4574SOL     OW14620   5.808   4.356   6.924
 4574SOL    HW114621   5.785   4.336   6.829
 4574SOL    HW214622   5.905   4.381   6.930
 4575SOL     OW14623   5.650   0.877   4.666
 4575SOL    HW114624   5.570   0.847   4.614
 4575SOL    HW214625   5.677   0.805   4.730
 4576SOL     OW14626   2.412   4.941   5.082
 4576SOL    HW114627   2.388   4.867   5.145
 4576SOL    HW214628   2.462   4.903   5.004
 4577SOL     OW14629   1.044   2.441   2.944
 4577SOL    HW114630   1.082   2.416   2.855
 4577SOL    HW214631   1.109   2.415   3.016
 4578SOL     OW14632   0.619   0.405   3.818
 4578SOL    HW114633   0.712   0.440   3.804
 4578SOL    HW214634   0.582   0.372   3.731
 4579SOL     OW14635   4.781   1.179   1.664
 4579SOL    HW114636   4.767   1.262   1.609
 4579SOL    HW214637   4.828   1.110   1.609
 4580SOL     OW14638   5.598   4.484   0.715
 4580SOL    HW114639   5.511   4.433   0.720
 4580SOL    HW214640   5.669   4.424   0.680
 4581SOL     OW14641   3.017   6.449   2.192
 4581SOL    HW114642   3.039   6.355   2.164
 4581SOL    HW214643   2.925   6.472   2.160
 4582SOL     OW14644   4.578   0.646   3.146
 4582SOL    HW114645   4.650   0.716   3.154
 4582SOL    HW214646   4.522   0.665   3.066
 4583SOL     OW14647   2.230   0.957   6.680
 4583SOL    HW114648   2.214   0.909   6.594
 4583SOL    HW214649   2.216   1.055   6.666
 4584SOL     OW14650   1.854   6.623   5.926
 4584SOL    HW114651   1.831   6.698   5.988
 4584SOL    HW214652   1.774   6.600   5.871
 4585SOL     OW14653   1.876   3.943   3.362
 4585SOL    HW114654   1.854   4.028   3.314
 4585SOL    HW214655   1.941   3.963   3.435
 4586SOL     OW14656   4.969   4.140   0.578
 4586SOL    HW114657   4.982   4.111   0.484
 4586SOL    HW214658   4.921   4.069   0.629
 4587SOL     OW14659   3.562   3.262   4.684
 4587SOL    HW114660   3.533   3.354   4.658
 4587SOL    HW214661   3.662   3.259   4.687
 4588SOL     OW14662   3.158   3.412   5.473
 4588SOL    HW114663   3.225   3.485   5.465
 4588SOL    HW214664   3.196   3.337   5.528
 4589SOL     OW14665   5.673   6.034   1.882
 4589SOL    HW114666   5.751   5.978   1.856
 4589SOL    HW214667   5.590   5.999   1.838
 4590SOL     OW14668   3.517   6.334   1.682
 4590SOL    HW114669   3.569   6.394   1.621
 4590SOL    HW214670   3.471   6.263   1.629
 4591SOL     OW14671   1.902   0.901   4.928
 4591SOL    HW114672   1.955   0.920   5.010
 4591SOL    HW214673   1.863   0.986   4.893
 4592SOL     OW14674   2.501   2.051   3.599
 4592SOL    HW114675   2.472   1.955   3.590
 4592SOL    HW214676   2.519   2.071   3.695
 4593SOL     OW14677   6.645   5.517   2.830
 4593SOL    HW114678   6.694   5.535   2.744
 4593SOL    HW214679   6.711   5.496   2.902
 4594SOL     OW14680   2.971   0.017   2.831
 4594SOL    HW114681   2.954   0.051   2.923
 4594SOL    HW214682   2.970   6.947   2.830
 4595SOL     OW14683   4.968   2.888   5.643
 4595SOL    HW114684   4.899   2.896   5.570
 4595SOL    HW214685   5.045   2.834   5.610
 4596SOL     OW14686   0.213   1.057   2.363
 4596SOL    HW114687   0.147   1.119   2.405
 4596SOL    HW214688   0.262   1.105   2.290
 4597SOL     OW14689   2.592   4.966   6.941
 4597SOL    HW114690   2.619   5.030   6.868
 4597SOL    HW214691   2.506   4.998   6.982
 4598SOL     OW14692   2.089   5.223   0.669
 4598SOL    HW114693   2.048   5.193   0.755
 4598SOL    HW214694   2.183   5.254   0.686
 4599SOL     OW14695   1.822   3.550   2.125
 4599SOL    HW114696   1.783   3.530   2.035
 4599SOL    HW214697   1.905   3.497   2.139
 4600SOL     OW14698   0.407   6.841   6.058
 4600SOL    HW114699   0.479   6.772   6.045
 4600SOL    HW214700   0.449   6.931   6.065
 4601SOL     OW14701   0.467   1.170   5.043
 4601SOL    HW114702   0.504   1.215   5.124
 4601SOL    HW214703   0.517   1.200   4.961
 4602SOL     OW14704   3.030   6.949   6.322
 4602SOL    HW114705   3.086   7.022   6.361
 4602SOL    HW214706   3.060   6.861   6.358
 4603SOL     OW14707   3.994   6.167   0.693
 4603SOL    HW114708   3.999   6.137   0.788
 4603SOL    HW214709   4.085   6.159   0.651
 4604SOL     OW14710   4.789   6.641   5.781
 4604SOL    HW114711   4.883   6.636   5.816
 4604SOL    HW214712   4.785   6.708   5.707
 4605SOL     OW14713   2.231   0.240   1.669
 4605SOL    HW114714   2.298   0.170   1.695
 4605SOL    HW214715   2.277   0.328   1.659
 4606SOL     OW14716   0.265   6.719   2.563
 4606SOL    HW114717   0.240   6.626   2.536
 4606SOL    HW214718   0.244   6.782   2.488
 4607SOL     OW14719   2.058   3.495   3.187
 4607SOL    HW114720   2.033   3.585   3.224
 4607SOL    HW214721   2.149   3.500   3.147
 4608SOL     OW14722   0.290   3.446   3.987
 4608SOL    HW114723   0.350   3.522   4.013
 4608SOL    HW214724   0.250   3.407   4.070
 4609SOL     OW14725   4.870   5.661   6.886
 4609SOL    HW114726   4.798   5.655   6.817
 4609SOL    HW214727   4.945   5.599   6.862
 4610SOL     OW14728   5.002   1.895   6.506
 4610SOL    HW114729   4.924   1.837   6.482
 4610SOL    HW214730   4.979   1.990   6.486
 4611SOL     OW14731   0.277   0.989   5.745
 4611SOL    HW114732   0.201   0.946   5.794
 4611SOL    HW214733   0.348   0.922   5.728
 4612SOL     OW14734   2.223   6.605   1.908
 4612SOL    HW114735   2.156   6.564   1.971
 4612SOL    HW214736   2.175   6.662   1.841
 4613SOL     OW14737   1.747   5.214   2.497
 4613SOL    HW114738   1.747   5.194   2.595
 4613SOL    HW214739   1.744   5.127   2.446
 4614SOL     OW14740   6.681   3.326   3.963
 4614SOL    HW114741   6.676   3.418   3.922
 4614SOL    HW214742   6.741   3.329   4.043
 4615SOL     OW14743   1.082   0.707   1.491
 4615SOL    HW114744   1.115   0.704   1.397
 4615SOL    HW214745   1.135   0.643   1.547
 4616SOL     OW14746   6.241   2.436   4.718
 4616SOL    HW114747   6.189   2.394   4.792
 4616SOL    HW214748   6.188   2.512   4.680
 4617SOL     OW14749   1.245   2.240   2.544
 4617SOL    HW114750   1.290   2.276   2.463
 4617SOL    HW214751   1.268   2.143   2.555
 4618SOL     OW14752   2.704   3.521   5.310
 4618SOL    HW114753   2.789   3.470   5.327
 4618SOL    HW214754   2.724   3.618   5.297
 4619SOL     OW14755   2.981   6.763   3.773
 4619SOL    HW114756   2.982   6.863   3.772
 4619SOL    HW214757   2.944   6.731   3.860
 4620SOL     OW14758   0.521   5.159   1.442
 4620SOL    HW114759   0.598   5.138   1.382
 4620SOL    HW214760   0.550   5.150   1.537
 4621SOL     OW14761   5.169   0.302   1.966
 4621SOL    HW114762   5.170   0.254   1.879
 4621SOL    HW214763   5.210   0.393   1.954
 4622SOL     OW14764   4.566   4.906   0.897
 4622SOL    HW114765   4.660   4.927   0.869
 4622SOL    HW214766   4.527   4.841   0.832
 4623SOL     OW14767   4.273   5.463   1.082
 4623SOL    HW114768   4.193   5.523   1.081
 4623SOL    HW214769   4.354   5.516   1.108
 4624SOL     OW14770   3.914   1.344   3.211
 4624SOL    HW114771   3.818   1.359   3.236
 4624SOL    HW214772   3.971   1.353   3.292
 4625SOL     OW14773   2.487   5.845   1.534
 4625SOL    HW114774   2.528   5.804   1.452
 4625SOL    HW214775   2.389   5.860   1.518
 4626SOL     OW14776   4.313   3.838   1.553
 4626SOL    HW114777   4.275   3.793   1.472
 4626SOL    HW214778   4.281   3.933   1.556
 4627SOL     OW14779   0.159   6.117   5.156
 4627SOL    HW114780   0.119   6.188   5.099
 4627SOL    HW214781   0.118   6.121   5.248
 4628SOL     OW14782   4.864   4.803   3.457
 4628SOL    HW114783   4.829   4.739   3.389
 4628SOL    HW214784   4.791   4.864   3.487
 4629SOL     OW14785   2.709   4.999   6.163
 4629SOL    HW114786   2.721   5.001   6.064
 4629SOL    HW214787   2.787   5.045   6.206
 4630SOL     OW14788   1.787   5.639   2.663
 4630SOL    HW114789   1.783   5.549   2.708
 4630SOL    HW214790   1.845   5.700   2.717
 4631SOL     OW14791   1.023   0.001   3.756
 4631SOL    HW114792   1.050   6.948   3.706
 4631SOL    HW214793   1.057   7.024   3.850
 4632SOL     OW14794   2.446   5.569   2.843
 4632SOL    HW114795   2.423   5.611   2.930
 4632SOL    HW214796   2.543   5.545   2.842
 4633SOL     OW14797   5.074   1.270   4.205
 4633SOL    HW114798   5.077   1.366   4.177
 4633SOL    HW214799   5.116   1.213   4.134
 4634SOL     OW14800   3.032   3.759   4.814
 4634SOL    HW114801   2.993   3.831   4.872
 4634SOL    HW214802   3.030   3.672   4.864
 4635SOL     OW14803   4.243   4.775   1.097
 4635SOL    HW114804   4.275   4.680   1.095
 4635SOL    HW214805   4.148   4.779   1.067
 4636SOL     OW14806   1.829   4.752   0.988
 4636SOL    HW114807   1.795   4.742   0.895
 4636SOL    HW214808   1.924   4.723   0.992
 4637SOL     OW14809   1.021   6.612   0.393
 4637SOL    HW114810   1.075   6.657   0.463
 4637SOL    HW214811   0.984   6.680   0.329
 4638SOL     OW14812   3.528   5.174   6.588
 4638SOL    HW114813   3.526   5.174   6.688
 4638SOL    HW214814   3.575   5.256   6.556
 4639SOL     OW14815   2.895   2.499   6.433
 4639SOL    HW114816   2.864   2.483   6.340
 4639SOL    HW214817   2.968   2.434   6.456
 4640SOL     OW14818   6.024   2.577   4.919
 4640SOL    HW114819   6.022   2.676   4.925
 4640SOL    HW214820   5.934   2.543   4.889
 4641SOL     OW14821   1.942   6.899   3.592
 4641SOL    HW114822   1.898   6.815   3.559
 4641SOL    HW214823   1.874   6.958   3.635
 4642SOL     OW14824   1.877   1.014   3.868
 4642SOL    HW114825   1.882   1.095   3.926
 4642SOL    HW214826   1.923   1.032   3.781
 4643SOL     OW14827   6.437   2.273   0.507
 4643SOL    HW114828   6.370   2.323   0.561
 4643SOL    HW214829   6.463   2.189   0.555
 4644SOL     OW14830   6.886   0.948   6.021
 4644SOL    HW114831   6.833   0.863   6.032
 4644SOL    HW214832   6.876   1.004   6.104
 4645SOL     OW14833   1.315   0.564   4.012
 4645SOL    HW114834   1.383   0.597   3.947
 4645SOL    HW214835   1.356   0.555   4.103
 4646SOL     OW14836   2.439   4.814   4.697
 4646SOL    HW114837   2.525   4.763   4.700
 4646SOL    HW214838   2.368   4.763   4.746
 4647SOL     OW14839   1.585   0.338   3.089
 4647SOL    HW114840   1.548   0.246   3.073
 4647SOL    HW214841   1.509   0.401   3.108
 4648SOL     OW14842   2.927   0.910   3.982
 4648SOL    HW114843   2.924   0.814   3.956
 4648SOL    HW214844   2.843   0.935   4.030
 4649SOL     OW14845   5.662   0.969   1.259
 4649SOL    HW114846   5.688   1.056   1.217
 4649SOL    HW214847   5.738   0.904   1.253
 4650SOL     OW14848   4.488   5.993   1.516
 4650SOL    HW114849   4.497   5.900   1.553
 4650SOL    HW214850   4.567   6.048   1.544
 4651SOL     OW14851   6.040   3.760   6.445
 4651SOL    HW114852   6.055   3.799   6.355
 4651SOL    HW214853   6.128   3.750   6.493
 4652SOL     OW14854   6.502   6.051   4.461
 4652SOL    HW114855   6.586   5.999   4.475
 4652SOL    HW214856   6.521   6.149   4.475
 4653SOL     OW14857   4.882   5.546   0.274
 4653SOL    HW114858   4.977   5.572   0.293
 4653SOL    HW214859   4.878   5.486   0.195
 4654SOL     OW14860   6.870   6.805   5.459
 4654SOL    HW114861   6.948   6.748   5.481
 4654SOL    HW214862   6.805   6.753   5.403
 4655SOL     OW14863   4.870   3.675   1.790
 4655SOL    HW114864   4.788   3.708   1.743
 4655SOL    HW214865   4.869   3.575   1.793
 4656SOL     OW14866   0.755   0.481   1.473
 4656SOL    HW114867   0.720   0.571   1.446
 4656SOL    HW214868   0.797   0.437   1.394
 4657SOL     OW14869   5.719   5.996   1.509
 4657SOL    HW114870   5.784   5.999   1.432
 4657SOL    HW214871   5.757   5.939   1.582
 4658SOL     OW14872   3.002   2.717   5.701
 4658SOL    HW114873   3.080   2.777   5.720
 4658SOL    HW214874   2.918   2.771   5.700
 4659SOL     OW14875   3.383   4.329   1.534
 4659SOL    HW114876   3.346   4.422   1.534
 4659SOL    HW214877   3.308   4.263   1.531
 4660SOL     OW14878   1.449   7.015   4.144
 4660SOL    HW114879   1.433   0.024   4.053
 4660SOL    HW214880   1.363   6.976   4.178
 4661SOL     OW14881   2.603   4.887   5.720
 4661SOL    HW114882   2.521   4.850   5.765
 4661SOL    HW214883   2.645   4.816   5.664
 4662SOL     OW14884   2.742   0.051   5.150
 4662SOL    HW114885   2.817   0.009   5.099
 4662SOL    HW214886   2.706   7.014   5.216
 4663SOL     OW14887   0.989   6.711   6.827
 4663SOL    HW114888   1.078   6.747   6.854
 4663SOL    HW214889   0.917   6.775   6.854
 4664SOL     OW14890   6.780   0.312   0.899
 4664SOL    HW114891   6.871   0.350   0.918
 4664SOL    HW214892   6.787   0.214   0.885
 4665SOL     OW14893   2.099   0.787   6.474
 4665SOL    HW114894   2.180   0.777   6.417
 4665SOL    HW214895   2.017   0.791   6.416
 4666SOL     OW14896   2.213   2.184   6.705
 4666SOL    HW114897   2.193   2.277   6.676
 4666SOL    HW214898   2.131   2.143   6.745
 4667SOL     OW14899   6.297   4.138   2.351
 4667SOL    HW114900   6.316   4.063   2.287
 4667SOL    HW214901   6.379   4.194   2.362
 4668SOL     OW14902   4.023   2.044   5.078
 4668SOL    HW114903   4.048   2.126   5.130
 4668SOL    HW214904   4.080   1.967   5.107
 4669SOL     OW14905   5.295   6.864   0.265
 4669SOL    HW114906   5.209   6.909   0.290
 4669SOL    HW214907   5.361   6.933   0.234
 4670SOL     OW14908   1.123   3.193   0.116
 4670SOL    HW114909   1.123   3.218   0.213
 4670SOL    HW214910   1.139   3.095   0.106
 4671SOL     OW14911   0.216   3.523   0.180
 4671SOL    HW114912   0.205   3.554   0.086
 4671SOL    HW214913   0.268   3.438   0.182
 4672SOL     OW14914   4.516   4.623   6.061
 4672SOL    HW114915   4.443   4.587   6.002
 4672SOL    HW214916   4.477   4.684   6.129
 4673SOL     OW14917   5.485   0.318   6.934
 4673SOL    HW114918   5.394   0.311   6.895
 4673SOL    HW214919   5.549   0.352   6.865
 4674SOL     OW14920   6.274   1.315   0.470
 4674SOL    HW114921   6.321   1.266   0.543
 4674SOL    HW214922   6.189   1.268   0.446
 4675SOL     OW14923   3.853   0.248   6.520
 4675SOL    HW114924   3.850   0.156   6.481
 4675SOL    HW214925   3.919   0.251   6.594
 4676SOL     OW14926   0.738   6.819   4.305
 4676SOL    HW114927   0.803   6.782   4.372
 4676SOL    HW214928   0.706   6.746   4.246
 4677SOL     OW14929   2.900   0.608   6.828
 4677SOL    HW114930   2.885   0.652   6.739
 4677SOL    HW214931   2.916   0.510   6.814
 4678SOL     OW14932   1.947   5.296   2.098
 4678SOL    HW114933   1.954   5.273   2.195
 4678SOL    HW214934   1.994   5.382   2.081
 4679SOL     OW14935   3.087   1.532   6.050
 4679SOL    HW114936   3.157   1.586   6.098
 4679SOL    HW214937   3.130   1.483   5.975
 4680SOL     OW14938   2.333   5.585   0.995
 4680SOL    HW114939   2.242   5.552   0.971
 4680SOL    HW214940   2.337   5.603   1.094
 4681SOL     OW14941   6.478   6.001   4.180
 4681SOL    HW114942   6.380   6.017   4.167
 4681SOL    HW214943   6.497   5.991   4.278
 4682SOL     OW14944   4.373   5.563   6.886
 4682SOL    HW114945   4.337   5.527   6.800
 4682SOL    HW214946   4.317   5.531   6.963
 4683SOL     OW14947   5.950   4.521   2.531
 4683SOL    HW114948   5.893   4.523   2.613
 4683SOL    HW214949   5.918   4.451   2.469
 4684SOL     OW14950   0.562   2.204   4.536
 4684SOL    HW114951   0.573   2.283   4.475
 4684SOL    HW214952   0.475   2.212   4.586
 4685SOL     OW14953   6.557   5.594   4.664
 4685SOL    HW114954   6.619   5.581   4.742
 4685SOL    HW214955   6.529   5.505   4.628
 4686SOL     OW14956   5.183   5.480   0.344
 4686SOL    HW114957   5.221   5.387   0.336
 4686SOL    HW214958   5.177   5.506   0.440
 4687SOL     OW14959   6.322   4.374   5.212
 4687SOL    HW114960   6.304   4.450   5.150
 4687SOL    HW214961   6.416   4.342   5.199
 4688SOL     OW14962   0.706   3.215   6.607
 4688SOL    HW114963   0.631   3.273   6.640
 4688SOL    HW214964   0.793   3.251   6.640
 4689SOL     OW14965   6.201   0.448   6.046
 4689SOL    HW114966   6.178   0.522   6.110
 4689SOL    HW214967   6.220   0.365   6.098
 4690SOL     OW14968   1.240   0.988   6.960
 4690SOL    HW114969   1.145   0.966   6.937
 4690SOL    HW214970   1.295   0.991   6.876
 4691SOL     OW14971   2.602   3.934   1.041
 4691SOL    HW114972   2.526   3.880   1.075
 4691SOL    HW214973   2.569   4.023   1.010
 4692SOL     OW14974   0.101   4.998   2.643
 4692SOL    HW114975   0.064   5.006   2.736
 4692SOL    HW214976   0.060   4.920   2.597
 4693SOL     OW14977   0.055   1.409   4.847
 4693SOL    HW114978   0.032   1.410   4.749
 4693SOL    HW214979   7.003   1.382   4.899
 4694SOL     OW14980   3.174   0.632   0.277
 4694SOL    HW114981   3.206   0.541   0.303
 4694SOL    HW214982   3.154   0.634   0.179
 4695SOL     OW14983   3.726   3.359   1.749
 4695SOL    HW114984   3.649   3.417   1.776
 4695SOL    HW214985   3.810   3.395   1.789
 4696SOL     OW14986   1.340   4.264   5.840
 4696SOL    HW114987   1.386   4.341   5.796
 4696SOL    HW214988   1.263   4.234   5.783
 4697SOL     OW14989   1.451   3.653   1.036
 4697SOL    HW114990   1.544   3.623   1.058
 4697SOL    HW214991   1.404   3.579   0.987
 4698SOL     OW14992   4.864   4.805   2.463
 4698SOL    HW114993   4.905   4.812   2.554
 4698SOL    HW214994   4.770   4.839   2.466
 4699SOL     OW14995   0.456   6.600   2.299
 4699SOL    HW114996   0.418   6.577   2.210
 4699SOL    HW214997   0.385   6.590   2.369
 4700SOL     OW14998   5.430   1.705   1.737
 4700SOL    HW114999   5.358   1.728   1.673
 4700SOL    HW215000   5.394   1.643   1.807
 4701SOL     OW15001   0.971   1.250   0.033
 4701SOL    HW115002   0.952   1.236   6.965
 4701SOL    HW215003   1.041   1.185   0.063
 4702SOL     OW15004   4.626   4.037   6.096
 4702SOL    HW115005   4.719   4.014   6.066
 4702SOL    HW215006   4.593   4.115   6.043
 4703SOL     OW15007   0.741   2.084   2.731
 4703SOL    HW115008   0.690   2.168   2.715
 4703SOL    HW215009   0.838   2.105   2.741
 4704SOL     OW15010   0.340   5.948   0.881
 4704SOL    HW115011   0.286   5.974   0.961
 4704SOL    HW215012   0.437   5.960   0.901
 4705SOL     OW15013   3.145   3.134   3.501
 4705SOL    HW115014   3.080   3.137   3.426
 4705SOL    HW215015   3.096   3.134   3.588
 4706SOL     OW15016   3.925   5.684   6.679
 4706SOL    HW115017   3.863   5.606   6.672
 4706SOL    HW215018   3.957   5.693   6.773
 4707SOL     OW15019   2.122   5.415   0.932
 4707SOL    HW115020   2.188   5.399   0.858
 4707SOL    HW215021   2.030   5.420   0.894
 4708SOL     OW15022   2.981   2.851   0.464
 4708SOL    HW115023   2.999   2.823   0.559
 4708SOL    HW215024   3.057   2.905   0.430
 4709SOL     OW15025   3.961   5.219   4.848
 4709SOL    HW115026   3.934   5.314   4.860
 4709SOL    HW215027   3.883   5.159   4.871
 4710SOL     OW15028   4.594   1.518   6.298
 4710SOL    HW115029   4.558   1.606   6.267
 4710SOL    HW215030   4.554   1.496   6.387
 4711SOL     OW15031   4.069   0.239   2.476
 4711SOL    HW115032   4.056   0.141   2.487
 4711SOL    HW215033   4.068   0.263   2.379
 4712SOL     OW15034   2.320   4.533   1.281
 4712SOL    HW115035   2.380   4.494   1.351
 4712SOL    HW215036   2.288   4.623   1.312
 4713SOL     OW15037   3.262   4.573   1.524
 4713SOL    HW115038   3.208   4.585   1.607
 4713SOL    HW215039   3.202   4.544   1.449
 4714SOL     OW15040   2.097   1.813   0.375
 4714SOL    HW115041   2.037   1.732   0.378
 4714SOL    HW215042   2.152   1.810   0.292
 4715SOL     OW15043   6.671   3.440   2.468
 4715SOL    HW115044   6.658   3.538   2.477
 4715SOL    HW215045   6.583   3.395   2.454
 4716SOL     OW15046   3.892   4.629   6.321
 4716SOL    HW115047   3.875   4.575   6.404
 4716SOL    HW215048   3.831   4.598   6.249
 4717SOL     OW15049   0.907   5.936   2.022
 4717SOL    HW115050   0.912   5.862   2.090
 4717SOL    HW215051   1.000   5.962   1.995
 4718SOL     OW15052   5.249   1.963   6.461
 4718SOL    HW115053   5.282   1.957   6.367
 4718SOL    HW215054   5.156   1.926   6.466
 4719SOL     OW15055   4.873   3.737   2.906
 4719SOL    HW115056   4.847   3.779   2.993
 4719SOL    HW215057   4.916   3.649   2.923
 4720SOL     OW15058   2.084   6.905   5.479
 4720SOL    HW115059   2.083   6.897   5.578
 4720SOL    HW215060   2.145   6.980   5.452
 4721SOL     OW15061   0.581   2.390   2.042
 4721SOL    HW115062   0.492   2.431   2.022
 4721SOL    HW215063   0.592   2.380   2.141
 4722SOL     OW15064   1.661   6.062   6.809
 4722SOL    HW115065   1.693   5.968   6.809
 4722SOL    HW215066   1.701   6.111   6.886
 4723SOL     OW15067   2.274   6.114   5.861
 4723SOL    HW115068   2.357   6.103   5.807
 4723SOL    HW215069   2.281   6.062   5.945
 4724SOL     OW15070   4.186   6.528   2.556
 4724SOL    HW115071   4.239   6.469   2.495
 4724SOL    HW215072   4.099   6.484   2.578
 4725SOL     OW15073   5.229   6.384   3.099
 4725SOL    HW115074   5.253   6.478   3.125
 4725SOL    HW215075   5.130   6.375   3.098
 4726SOL     OW15076   0.779   3.695   6.973
 4726SOL    HW115077   0.705   3.644   7.017
 4726SOL    HW215078   0.739   3.765   6.914
 4727SOL     OW15079   6.990   5.805   6.932
 4727SOL    HW115080   6.921   5.877   6.939
 4727SOL    HW215081   6.948   5.716   6.951
 4728SOL     OW15082   5.259   1.394   0.931
 4728SOL    HW115083   5.186   1.463   0.933
 4728SOL    HW215084   5.346   1.439   0.914
 4729SOL     OW15085   1.747   0.897   3.147
 4729SOL    HW115086   1.768   0.995   3.147
 4729SOL    HW215087   1.656   0.881   3.184
 4730SOL     OW15088   2.506   6.100   5.683
 4730SOL    HW115089   2.588   6.144   5.721
 4730SOL    HW215090   2.525   6.004   5.665
 4731SOL     OW15091   6.019   0.464   5.351
 4731SOL    HW115092   6.066   0.425   5.430
 4731SOL    HW215093   5.959   0.395   5.310
 4732SOL     OW15094   0.048   3.402   6.452
 4732SOL    HW115095   0.045   3.303   6.464
 4732SOL    HW215096   6.985   3.437   6.438
 4733SOL     OW15097   0.989   4.013   3.332
 4733SOL    HW115098   1.068   3.953   3.324
 4733SOL    HW215099   0.975   4.062   3.245
 4734SOL     OW15100   5.472   2.735   6.526
 4734SOL    HW115101   5.454   2.682   6.609
 4734SOL    HW215102   5.566   2.769   6.529
 4735SOL     OW15103   1.476   5.136   3.431
 4735SOL    HW115104   1.542   5.164   3.501
 4735SOL    HW215105   1.388   5.116   3.474
 4736SOL     OW15106   0.100   1.093   6.590
 4736SOL    HW115107   0.081   1.091   6.689
 4736SOL    HW215108   0.154   1.013   6.566
 4737SOL     OW15109   2.263   4.863   2.344
 4737SOL    HW115110   2.359   4.858   2.374
 4737SOL    HW215111   2.213   4.926   2.403
 4738SOL     OW15112   6.755   6.083   1.520
 4738SOL    HW115113   6.828   6.149   1.502
 4738SOL    HW215114   6.794   5.992   1.536
 4739SOL     OW15115   4.516   0.255   2.065
 4739SOL    HW115116   4.595   0.238   2.125
 4739SOL    HW215117   4.441   0.291   2.120
 4740SOL     OW15118   0.542   1.178   2.627
 4740SOL    HW115119   0.608   1.169   2.702
 4740SOL    HW215120   0.538   1.274   2.598
 4741SOL     OW15121   3.965   2.490   1.406
 4741SOL    HW115122   3.931   2.583   1.393
 4741SOL    HW215123   3.991   2.476   1.501
 4742SOL     OW15124   2.277   6.756   6.910
 4742SOL    HW115125   2.221   6.819   6.963
 4742SOL    HW215126   2.311   6.683   6.970
 4743SOL     OW15127   1.680   3.485   2.621
 4743SOL    HW115128   1.657   3.463   2.527
 4743SOL    HW215129   1.752   3.424   2.654
 4744SOL     OW15130   2.162   5.837   0.544
 4744SOL    HW115131   2.254   5.804   0.523
 4744SOL    HW215132   2.095   5.773   0.508
 4745SOL     OW15133   2.864   3.506   0.035
 4745SOL    HW115134   2.958   3.475   0.048
 4745SOL    HW215135   2.861   3.606   0.036
 4746SOL     OW15136   4.482   5.245   3.991
 4746SOL    HW115137   4.406   5.266   3.928
 4746SOL    HW215138   4.535   5.328   4.007
 4747SOL     OW15139   1.378   2.710   0.587
 4747SOL    HW115140   1.456   2.742   0.640
 4747SOL    HW215141   1.350   2.619   0.621
 4748SOL     OW15142   1.667   6.621   1.969
 4748SOL    HW115143   1.726   6.625   1.889
 4748SOL    HW215144   1.648   6.525   1.992
 4749SOL     OW15145   2.197   7.008   0.333
 4749SOL    HW115146   2.280   6.957   0.313
 4749SOL    HW215147   2.141   7.016   0.250
 4750SOL     OW15148   6.220   4.347   5.488
 4750SOL    HW115149   6.123   4.333   5.506
 4750SOL    HW215150   6.234   4.364   5.390
 4751SOL     OW15151   5.137   2.045   2.561
 4751SOL    HW115152   5.154   2.044   2.462
 4751SOL    HW215153   5.039   2.055   2.577
 4752SOL     OW15154   4.648   1.040   0.283
 4752SOL    HW115155   4.693   1.114   0.333
 4752SOL    HW215156   4.698   1.022   0.198
 4753SOL     OW15157   1.301   6.734   4.936
 4753SOL    HW115158   1.273   6.655   4.991
 4753SOL    HW215159   1.315   6.704   4.841
 4754SOL     OW15160   4.321   3.960   5.751
 4754SOL    HW115161   4.259   3.990   5.824
 4754SOL    HW215162   4.416   3.977   5.780
 4755SOL     OW15163   1.685   0.597   1.348
 4755SOL    HW115164   1.714   0.558   1.260
 4755SOL    HW215165   1.591   0.631   1.340
 4756SOL     OW15166   6.724   4.533   6.840
 4756SOL    HW115167   6.804   4.574   6.797
 4756SOL    HW215168   6.642   4.554   6.786
 4757SOL     OW15169   1.332   2.733   1.705
 4757SOL    HW115170   1.340   2.653   1.646
 4757SOL    HW215171   1.256   2.720   1.769
 4758SOL     OW15172   1.563   0.168   3.501
 4758SOL    HW115173   1.606   0.236   3.442
 4758SOL    HW215174   1.482   0.207   3.544
 4759SOL     OW15175   0.582   5.312   0.243
 4759SOL    HW115176   0.578   5.412   0.253
 4759SOL    HW215177   0.623   5.290   0.155
 4760SOL     OW15178   1.394   0.088   1.013
 4760SOL    HW115179   1.319   0.151   0.993
 4760SOL    HW215180   1.408   0.028   0.934
 4761SOL     OW15181   0.104   0.091   0.622
 4761SOL    HW115182   0.034   0.154   0.590
 4761SOL    HW215183   0.191   0.140   0.633
 4762SOL     OW15184   1.571   5.769   1.779
 4762SOL    HW115185   1.595   5.702   1.709
 4762SOL    HW215186   1.547   5.856   1.736
 4763SOL     OW15187   4.872   5.892   1.992
 4763SOL    HW115188   4.939   5.829   2.032
 4763SOL    HW215189   4.891   5.902   1.894
 4764SOL     OW15190   4.890   3.626   5.342
 4764SOL    HW115191   4.905   3.711   5.393
 4764SOL    HW215192   4.809   3.636   5.284
 4765SOL     OW15193   3.237   0.835   5.623
 4765SOL    HW115194   3.298   0.903   5.582
 4765SOL    HW215195   3.187   0.787   5.551
 4766SOL     OW15196   5.925   0.141   4.500
 4766SOL    HW115197   6.018   0.105   4.510
 4766SOL    HW215198   5.898   0.138   4.404
 4767SOL     OW15199   2.660   5.644   4.893
 4767SOL    HW115200   2.633   5.701   4.970
 4767SOL    HW215201   2.697   5.557   4.927
 4768SOL     OW15202   4.384   3.116   6.278
 4768SOL    HW115203   4.310   3.096   6.213
 4768SOL    HW215204   4.469   3.075   6.244
 4769SOL     OW15205   2.954   6.396   1.026
 4769SOL    HW115206   2.913   6.333   0.960
 4769SOL    HW215207   2.915   6.487   1.014
 4770SOL     OW15208   6.639   1.963   5.693
 4770SOL    HW115209   6.734   1.969   5.663
 4770SOL    HW215210   6.636   1.937   5.790
 4771SOL     OW15211   2.395   0.309   4.951
 4771SOL    HW115212   2.315   0.267   4.908
 4771SOL    HW215213   2.422   0.390   4.898
 4772SOL     OW15214   3.024   5.085   0.809
 4772SOL    HW115215   3.083   5.100   0.731
 4772SOL    HW215216   3.036   4.991   0.843
 4773SOL     OW15217   1.949   5.838   4.812
 4773SOL    HW115218   2.006   5.783   4.873
 4773SOL    HW215219   1.960   5.935   4.834
 4774SOL     OW15220   1.907   4.216   0.786
 4774SOL    HW115221   1.900   4.313   0.809
 4774SOL    HW215222   1.971   4.172   0.849
 4775SOL     OW15223   5.234   6.490   4.688
 4775SOL    HW115224   5.190   6.571   4.649
 4775SOL    HW215225   5.278   6.438   4.616
 4776SOL     OW15226   1.465   0.419   5.397
 4776SOL    HW115227   1.397   0.435   5.468
 4776SOL    HW215228   1.419   0.389   5.313
 4777SOL     OW15229   1.210   5.290   0.560
 4777SOL    HW115230   1.184   5.320   0.469
 4777SOL    HW215231   1.131   5.248   0.606
 4778SOL     OW15232   0.760   2.412   5.061
 4778SOL    HW115233   0.830   2.341   5.071
 4778SOL    HW215234   0.723   2.409   4.968
 4779SOL     OW15235   5.973   0.568   4.353
 4779SOL    HW115236   5.967   0.651   4.298
 4779SOL    HW215237   6.056   0.517   4.328
 4780SOL     OW15238   5.472   2.717   5.652
 4780SOL    HW115239   5.460   2.657   5.573
 4780SOL    HW215240   5.515   2.665   5.727
 4781SOL     OW15241   2.314   5.760   2.353
 4781SOL    HW115242   2.381   5.825   2.316
 4781SOL    HW215243   2.345   5.667   2.332
 4782SOL     OW15244   5.396   5.430   5.875
 4782SOL    HW115245   5.384   5.371   5.796
 4782SOL    HW215246   5.482   5.480   5.868
 4783SOL     OW15247   5.609   4.095   0.524
 4783SOL    HW115248   5.642   4.013   0.478
 4783SOL    HW215249   5.637   4.176   0.472
 4784SOL     OW15250   6.030   2.317   6.323
 4784SOL    HW115251   5.953   2.299   6.385
 4784SOL    HW215252   6.000   2.378   6.250
 4785SOL     OW15253   0.208   6.306   3.201
 4785SOL    HW115254   0.283   6.248   3.170
 4785SOL    HW215255   0.223   6.400   3.172
 4786SOL     OW15256   2.760   0.078   0.960
 4786SOL    HW115257   2.836   0.142   0.963
 4786SOL    HW215258   2.744   0.040   1.051
 4787SOL     OW15259   4.413   2.222   4.301
 4787SOL    HW115260   4.409   2.311   4.346
 4787SOL    HW215261   4.506   2.204   4.269
 4788SOL     OW15262   6.004   5.763   6.838
 4788SOL    HW115263   6.085   5.792   6.786
 4788SOL    HW215264   6.017   5.669   6.870
 4789SOL     OW15265   4.924   2.158   2.216
 4789SOL    HW115266   4.883   2.078   2.261
 4789SOL    HW215267   4.935   2.139   2.118
 4790SOL     OW15268   5.477   1.710   5.426
 4790SOL    HW115269   5.566   1.666   5.438
 4790SOL    HW215270   5.410   1.643   5.393
 4791SOL     OW15271   0.404   2.906   0.992
 4791SOL    HW115272   0.492   2.870   1.023
 4791SOL    HW215273   0.419   2.991   0.941
 4792SOL     OW15274   1.677   4.557   5.110
 4792SOL    HW115275   1.742   4.563   5.186
 4792SOL    HW215276   1.727   4.540   5.025
 4793SOL     OW15277   1.466   4.467   6.303
 4793SOL    HW115278   1.486   4.383   6.253
 4793SOL    HW215279   1.535   4.480   6.375
 4794SOL     OW15280   4.966   0.332   3.773
 4794SOL    HW115281   5.029   0.366   3.844
 4794SOL    HW215282   4.992   0.372   3.685
 4795SOL     OW15283   0.286   1.620   4.173
 4795SOL    HW115284   0.353   1.597   4.243
 4795SOL    HW215285   0.328   1.680   4.104
 4796SOL     OW15286   3.779   1.246   5.853
 4796SOL    HW115287   3.770   1.167   5.913
 4796SOL    HW215288   3.841   1.224   5.778
 4797SOL     OW15289   0.335   5.536   4.645
 4797SOL    HW115290   0.406   5.556   4.577
 4797SOL    HW215291   0.248   5.575   4.615
 4798SOL     OW15292   5.565   5.180   6.604
 4798SOL    HW115293   5.570   5.090   6.648
 4798SOL    HW215294   5.626   5.182   6.525
 4799SOL     OW15295   3.127   2.363   6.474
 4799SOL    HW115296   3.175   2.441   6.513
 4799SOL    HW215297   3.154   2.280   6.522
 4800SOL     OW15298   2.368   4.657   0.603
 4800SOL    HW115299   2.370   4.559   0.586
 4800SOL    HW215300   2.399   4.676   0.696
 4801SOL     OW15301   4.695   2.765   1.107
 4801SOL    HW115302   4.746   2.850   1.090
 4801SOL    HW215303   4.598   2.786   1.113
 4802SOL     OW15304   6.766   6.308   2.111
 4802SOL    HW115305   6.711   6.371   2.166
 4802SOL    HW215306   6.715   6.283   2.029
 4803SOL     OW15307   5.741   4.837   0.379
 4803SOL    HW115308   5.735   4.937   0.377
 4803SOL    HW215309   5.830   4.808   0.344
 4804SOL     OW15310   5.171   1.654   0.486
 4804SOL    HW115311   5.074   1.635   0.468
 4804SOL    HW215312   5.196   1.741   0.444
 4805SOL     OW15313   6.760   1.899   1.687
 4805SOL    HW115314   6.777   1.861   1.778
 4805SOL    HW215315   6.774   1.998   1.689
 4806SOL     OW15316   1.382   3.871   2.807
 4806SOL    HW115317   1.310   3.933   2.776
 4806SOL    HW215318   1.432   3.835   2.729
 4807SOL     OW15319   1.272   3.470   6.701
 4807SOL    HW115320   1.329   3.506   6.774
 4807SOL    HW215321   1.201   3.536   6.677
 4808SOL     OW15322   4.065   6.055   0.948
 4808SOL    HW115323   4.034   6.075   1.041
 4808SOL    HW215324   4.050   5.958   0.928
 4809SOL     OW15325   3.491   4.787   1.490
 4809SOL    HW115326   3.416   4.722   1.480
 4809SOL    HW215327   3.492   4.849   1.411
 4810SOL     OW15328   0.657   4.038   4.249
 4810SOL    HW115329   0.740   3.987   4.226
 4810SOL    HW215330   0.616   4.076   4.166
 4811SOL     OW15331   3.653   3.627   4.637
 4811SOL    HW115332   3.741   3.583   4.620
 4811SOL    HW215333   3.668   3.717   4.679
 4812SOL     OW15334   0.617   6.665   1.602
 4812SOL    HW115335   0.692   6.605   1.627
 4812SOL    HW215336   0.590   6.721   1.681
 4813SOL     OW15337   5.986   1.621   0.003
 4813SOL    HW115338   5.986   1.535   6.981
 4813SOL    HW215339   6.063   1.623   0.066
 4814SOL     OW15340   6.674   4.192   2.047
 4814SOL    HW115341   6.686   4.260   1.975
 4814SOL    HW215342   6.727   4.218   2.127
 4815SOL     OW15343   5.473   5.175   3.047
 4815SOL    HW115344   5.430   5.245   3.103
 4815SOL    HW215345   5.466   5.201   2.950
 4816SOL     OW15346   1.957   6.546   1.397
 4816SOL    HW115347   1.875   6.533   1.454
 4816SOL    HW215348   1.936   6.609   1.322
 4817SOL     OW15349   3.792   0.637   1.926
 4817SOL    HW115350   3.697   0.607   1.936
 4817SOL    HW215351   3.824   0.674   2.013
 4818SOL     OW15352   2.689   0.582   4.322
 4818SOL    HW115353   2.630   0.557   4.245
 4818SOL    HW215354   2.702   0.503   4.382
 4819SOL     OW15355   3.037   2.205   1.022
 4819SOL    HW115356   3.038   2.113   1.062
 4819SOL    HW215357   2.958   2.255   1.057
 4820SOL     OW15358   0.265   3.276   1.756
 4820SOL    HW115359   0.297   3.338   1.827
 4820SOL    HW215360   0.239   3.329   1.675
 4821SOL     OW15361   6.205   5.641   1.919
 4821SOL    HW115362   6.270   5.590   1.862
 4821SOL    HW215363   6.151   5.577   1.973
 4822SOL     OW15364   1.470   3.757   3.750
 4822SOL    HW115365   1.548   3.702   3.722
 4822SOL    HW215366   1.414   3.706   3.815
 4823SOL     OW15367   1.093   6.866   3.988
 4823SOL    HW115368   1.040   6.914   4.059
 4823SOL    HW215369   1.033   6.804   3.938
 4824SOL     OW15370   5.193   1.873   3.334
 4824SOL    HW115371   5.192   1.866   3.234
 4824SOL    HW215372   5.099   1.871   3.368
 4825SOL     OW15373   1.473   3.179   4.470
 4825SOL    HW115374   1.409   3.239   4.518
 4825SOL    HW215375   1.559   3.227   4.455
 4826SOL     OW15376   0.486   6.603   0.164
 4826SOL    HW115377   0.438   6.555   0.237
 4826SOL    HW215378   0.582   6.614   0.189
 4827SOL     OW15379   4.861   0.665   1.636
 4827SOL    HW115380   4.821   0.586   1.589
 4827SOL    HW215381   4.849   0.747   1.580
 4828SOL     OW15382   5.672   3.831   1.695
 4828SOL    HW115383   5.623   3.912   1.725
 4828SOL    HW215384   5.612   3.751   1.702
 4829SOL     OW15385   3.597   0.066   6.041
 4829SOL    HW115386   3.651   7.014   6.061
 4829SOL    HW215387   3.505   0.056   6.080
 4830SOL     OW15388   4.711   6.178   3.723
 4830SOL    HW115389   4.649   6.256   3.717
 4830SOL    HW215390   4.804   6.207   3.698
 4831SOL     OW15391   6.897   5.093   5.129
 4831SOL    HW115392   6.879   5.190   5.112
 4831SOL    HW215393   6.922   5.049   5.043
 4832SOL     OW15394   3.485   2.507   6.227
 4832SOL    HW115395   3.473   2.428   6.287
 4832SOL    HW215396   3.404   2.566   6.232
 4833SOL     OW15397   4.719   1.631   2.835
 4833SOL    HW115398   4.749   1.682   2.915
 4833SOL    HW215399   4.725   1.689   2.753
 4834SOL     OW15400   3.882   0.422   0.693
 4834SOL    HW115401   3.913   0.427   0.598
 4834SOL    HW215402   3.896   0.329   0.727
 4835SOL     OW15403   1.871   0.168   6.259
 4835SOL    HW115404   1.855   0.219   6.175
 4835SOL    HW215405   1.837   0.221   6.337
 4836SOL     OW15406   4.210   1.922   3.648
 4836SOL    HW115407   4.281   1.955   3.585
 4836SOL    HW215408   4.250   1.912   3.740
 4837SOL     OW15409   3.253   2.728   1.788
 4837SOL    HW115410   3.333   2.692   1.741
 4837SOL    HW215411   3.187   2.655   1.802
 4838SOL     OW15412   3.550   4.904   2.242
 4838SOL    HW115413   3.475   4.863   2.189
 4838SOL    HW215414   3.636   4.861   2.215
 4839SOL     OW15415   0.371   4.586   5.355
 4839SOL    HW115416   0.332   4.627   5.438
 4839SOL    HW215417   0.298   4.557   5.294
 4840SOL     OW15418   5.949   6.672   6.847
 4840SOL    HW115419   5.909   6.699   6.934
 4840SOL    HW215420   5.982   6.753   6.799
 4841SOL     OW15421   3.401   5.757   1.634
 4841SOL    HW115422   3.464   5.808   1.575
 4841SOL    HW215423   3.357   5.820   1.697
 4842SOL     OW15424   3.401   5.275   1.836
 4842SOL    HW115425   3.309   5.255   1.802
 4842SOL    HW215426   3.429   5.366   1.807
 4843SOL     OW15427   6.356   4.049   0.333
 4843SOL    HW115428   6.401   3.966   0.301
 4843SOL    HW215429   6.413   4.093   0.403
 4844SOL     OW15430   0.042   4.346   0.029
 4844SOL    HW115431   0.090   4.289   0.097
 4844SOL    HW215432   6.975   4.356   0.055
 4845SOL     OW15433   6.399   5.353   4.201
 4845SOL    HW115434   6.361   5.364   4.293
 4845SOL    HW215435   6.497   5.338   4.207
 4846SOL     OW15436   0.271   4.012   0.632
 4846SOL    HW115437   0.362   3.977   0.653
 4846SOL    HW215438   0.202   3.944   0.659
 4847SOL     OW15439   3.541   2.039   5.796
 4847SOL    HW115440   3.596   2.067   5.718
 4847SOL    HW215441   3.488   2.118   5.829
 4848SOL     OW15442   1.711   1.566   4.429
 4848SOL    HW115443   1.725   1.625   4.350
 4848SOL    HW215444   1.799   1.549   4.475
 4849SOL     OW15445   1.760   6.489   6.856
 4849SOL    HW115446   1.678   6.527   6.813
 4849SOL    HW215447   1.756   6.389   6.854
 4850SOL     OW15448   3.279   0.630   2.009
 4850SOL    HW115449   3.180   0.630   2.025
 4850SOL    HW215450   3.324   0.581   2.084
 4851SOL     OW15451   3.632   6.614   5.308
 4851SOL    HW115452   3.610   6.517   5.296
 4851SOL    HW215453   3.605   6.665   5.226
 4852SOL     OW15454   1.627   0.202   7.005
 4852SOL    HW115455   1.688   0.264   0.026
 4852SOL    HW215456   1.680   0.126   6.967
 4853SOL     OW15457   3.638   1.650   2.459
 4853SOL    HW115458   3.704   1.644   2.385
 4853SOL    HW215459   3.630   1.561   2.504
 4854SOL     OW15460   4.789   5.803   2.538
 4854SOL    HW115461   4.847   5.839   2.610
 4854SOL    HW215462   4.697   5.787   2.573
 4855SOL     OW15463   5.747   2.045   1.904
 4855SOL    HW115464   5.683   2.017   1.833
 4855SOL    HW215465   5.826   2.090   1.862
 4856SOL     OW15466   2.344   4.747   2.796
 4856SOL    HW115467   2.295   4.734   2.882
 4856SOL    HW215468   2.404   4.668   2.780
 4857SOL     OW15469   1.499   1.458   6.119
 4857SOL    HW115470   1.407   1.446   6.155
 4857SOL    HW215471   1.562   1.477   6.194
 4858SOL     OW15472   1.620   1.028   3.993
 4858SOL    HW115473   1.694   1.038   3.926
 4858SOL    HW215474   1.658   1.013   4.084
 4859SOL     OW15475   1.453   5.994   4.400
 4859SOL    HW115476   1.436   6.048   4.318
 4859SOL    HW215477   1.366   5.960   4.435
 4860SOL     OW15478   3.994   5.397   2.122
 4860SOL    HW115479   4.019   5.312   2.076
 4860SOL    HW215480   3.923   5.444   2.069
 4861SOL     OW15481   5.280   5.225   0.335
 4861SOL    HW115482   5.331   5.178   0.262
 4861SOL    HW215483   5.342   5.242   0.412
 4862SOL     OW15484   2.277   5.031   4.192
 4862SOL    HW115485   2.282   4.939   4.232
 4862SOL    HW215486   2.336   5.093   4.244
 4863SOL     OW15487   5.570   4.755   0.567
 4863SOL    HW115488   5.521   4.831   0.523
 4863SOL    HW215489   5.656   4.739   0.519
 4864SOL     OW15490   3.477   1.370   4.267
 4864SOL    HW115491   3.528   1.406   4.189
 4864SOL    HW215492   3.380   1.392   4.256
 4865SOL     OW15493   2.214   0.559   4.822
 4865SOL    HW115494   2.137   0.523   4.875
 4865SOL    HW215495   2.205   0.658   4.813
 4866SOL     OW15496   6.460   3.777   1.299
 4866SOL    HW115497   6.466   3.871   1.265
 4866SOL    HW215498   6.380   3.769   1.359
 4867SOL     OW15499   4.691   5.605   2.210
 4867SOL    HW115500   4.621   5.603   2.281
 4867SOL    HW215501   4.779   5.631   2.250
 4868SOL     OW15502   6.656   4.763   2.594
 4868SOL    HW115503   6.589   4.828   2.629
 4868SOL    HW215504   6.725   4.745   2.664
 4869SOL     OW15505   1.336   1.624   0.788
 4869SOL    HW115506   1.358   1.532   0.756
 4869SOL    HW215507   1.286   1.618   0.874
 4870SOL     OW15508   0.621   6.306   1.792
 4870SOL    HW115509   0.686   6.254   1.848
 4870SOL    HW215510   0.612   6.398   1.829
 4871SOL     OW15511   0.840   0.580   4.546
 4871SOL    HW115512   0.908   0.513   4.517
 4871SOL    HW215513   0.837   0.583   4.646
 4872SOL     OW15514   6.464   6.729   3.035
 4872SOL    HW115515   6.382   6.745   2.979
 4872SOL    HW215516   6.454   6.641   3.082
 4873SOL     OW15517   6.767   5.901   4.474
 4873SOL    HW115518   6.850   5.936   4.432
 4873SOL    HW215519   6.767   5.921   4.571
 4874SOL     OW15520   5.219   3.094   2.482
 4874SOL    HW115521   5.258   3.135   2.399
 4874SOL    HW215522   5.134   3.047   2.459
 4875SOL     OW15523   5.233   0.280   6.839
 4875SOL    HW115524   5.208   0.373   6.810
 4875SOL    HW215525   5.221   0.217   6.762
 4876SOL     OW15526   6.964   1.239   3.808
 4876SOL    HW115527   6.900   1.241   3.731
 4876SOL    HW215528   7.002   1.331   3.821
 4877SOL     OW15529   0.381   2.308   5.592
 4877SOL    HW115530   0.462   2.366   5.605
 4877SOL    HW215531   0.299   2.364   5.591
 4878SOL     OW15532   6.654   2.028   1.969
 4878SOL    HW115533   6.653   2.061   2.064
 4878SOL    HW215534   6.598   2.088   1.913
 4879SOL     OW15535   4.416   2.467   1.959
 4879SOL    HW115536   4.429   2.452   2.057
 4879SOL    HW215537   4.404   2.379   1.914
 4880SOL     OW15538   6.215   3.763   0.145
 4880SOL    HW115539   6.298   3.765   0.201
 4880SOL    HW215540   6.139   3.730   0.200
 4881SOL     OW15541   1.783   1.856   0.424
 4881SOL    HW115542   1.749   1.762   0.422
 4881SOL    HW215543   1.850   1.869   0.351
 4882SOL     OW15544   3.971   2.141   5.387
 4882SOL    HW115545   3.999   2.140   5.483
 4882SOL    HW215546   3.936   2.232   5.363
 4883SOL     OW15547   5.422   4.037   1.275
 4883SOL    HW115548   5.374   4.087   1.347
 4883SOL    HW215549   5.491   4.097   1.233
 4884SOL     OW15550   4.078   5.050   0.809
 4884SOL    HW115551   4.164   5.060   0.859
 4884SOL    HW215552   4.009   5.111   0.848
 4885SOL     OW15553   2.403   4.350   1.778
 4885SOL    HW115554   2.434   4.296   1.856
 4885SOL    HW215555   2.305   4.337   1.765
 4886SOL     OW15556   3.303   6.896   1.442
 4886SOL    HW115557   3.336   6.818   1.389
 4886SOL    HW215558   3.277   6.970   1.379
 4887SOL     OW15559   0.913   6.129   1.762
 4887SOL    HW115560   0.880   6.048   1.714
 4887SOL    HW215561   0.869   6.136   1.852
 4888SOL     OW15562   2.479   0.253   2.800
 4888SOL    HW115563   2.537   0.224   2.876
 4888SOL    HW215564   2.454   0.349   2.811
 4889SOL     OW15565   6.536   1.735   5.243
 4889SOL    HW115566   6.593   1.803   5.195
 4889SOL    HW215567   6.541   1.648   5.195
 4890SOL     OW15568   0.991   1.821   5.891
 4890SOL    HW115569   1.056   1.827   5.815
 4890SOL    HW215570   1.041   1.824   5.978
 4891SOL     OW15571   2.763   4.748   6.826
 4891SOL    HW115572   2.791   4.842   6.813
 4891SOL    HW215573   2.790   4.717   6.917
 4892SOL     OW15574   5.538   5.763   2.032
 4892SOL    HW115575   5.493   5.825   1.968
 4892SOL    HW215576   5.582   5.816   2.104
 4893SOL     OW15577   6.256   3.494   2.275
 4893SOL    HW115578   6.316   3.573   2.289
 4893SOL    HW215579   6.273   3.455   2.185
 4894SOL     OW15580   3.529   0.081   2.644
 4894SOL    HW115581   3.506   7.020   2.608
 4894SOL    HW215582   3.592   0.071   2.721
 4895SOL     OW15583   0.941   5.058   3.263
 4895SOL    HW115584   0.956   5.066   3.362
 4895SOL    HW215585   1.029   5.064   3.216
 4896SOL     OW15586   2.500   4.844   2.478
 4896SOL    HW115587   2.542   4.755   2.462
 4896SOL    HW215588   2.567   4.905   2.521
 4897SOL     OW15589   1.898   5.846   5.560
 4897SOL    HW115590   1.898   5.756   5.515
 4897SOL    HW215591   1.818   5.853   5.620
 4898SOL     OW15592   4.239   0.917   5.055
 4898SOL    HW115593   4.338   0.917   5.041
 4898SOL    HW215594   4.205   1.011   5.049
 4899SOL     OW15595   6.385   5.092   3.175
 4899SOL    HW115596   6.472   5.045   3.156
 4899SOL    HW215597   6.373   5.166   3.108
 4900SOL     OW15598   3.866   6.160   5.844
 4900SOL    HW115599   3.851   6.090   5.775
 4900SOL    HW215600   3.871   6.117   5.934
 4901SOL     OW15601   1.895   1.576   5.522
 4901SOL    HW115602   1.880   1.481   5.547
 4901SOL    HW215603   1.811   1.614   5.482
 4902SOL     OW15604   1.419   0.813   5.796
 4902SOL    HW115605   1.330   0.845   5.765
 4902SOL    HW215606   1.432   0.718   5.766
 4903SOL     OW15607   4.350   5.885   1.304
 4903SOL    HW115608   4.408   5.894   1.223
 4903SOL    HW215609   4.398   5.922   1.383
 4904SOL     OW15610   1.861   1.043   5.667
 4904SOL    HW115611   1.783   0.987   5.638
 4904SOL    HW215612   1.855   1.061   5.765
 4905SOL     OW15613   2.340   0.838   3.586
 4905SOL    HW115614   2.401   0.870   3.514
 4905SOL    HW215615   2.267   0.783   3.545
 4906SOL     OW15616   4.749   3.398   5.715
 4906SOL    HW115617   4.781   3.383   5.809
 4906SOL    HW215618   4.652   3.376   5.709
 4907SOL     OW15619   4.717   1.374   1.272
 4907SOL    HW115620   4.773   1.378   1.189
 4907SOL    HW215621   4.774   1.393   1.352
 4908SOL     OW15622   4.973   7.015   0.487
 4908SOL    HW115623   4.998   0.001   0.391
 4908SOL    HW215624   5.055   7.001   0.542
 4909SOL     OW15625   6.900   4.508   3.844
 4909SOL    HW115626   6.821   4.566   3.858
 4909SOL    HW215627   6.932   4.516   3.750
 4910SOL     OW15628   5.646   0.835   4.206
 4910SOL    HW115629   5.574   0.837   4.137
 4910SOL    HW215630   5.735   0.853   4.163
 4911SOL     OW15631   1.777   3.467   3.511
 4911SOL    HW115632   1.825   3.511   3.434
 4911SOL    HW215633   1.844   3.422   3.570
 4912SOL     OW15634   5.507   1.735   5.721
 4912SOL    HW115635   5.464   1.705   5.636
 4912SOL    HW215636   5.457   1.696   5.799
 4913SOL     OW15637   5.432   3.529   5.513
 4913SOL    HW115638   5.344   3.517   5.559
 4913SOL    HW215639   5.421   3.589   5.434
 4914SOL     OW15640   4.318   0.204   5.617
 4914SOL    HW115641   4.411   0.240   5.624
 4914SOL    HW215642   4.303   0.167   5.526
 4915SOL     OW15643   2.697   6.430   5.304
 4915SOL    HW115644   2.725   6.510   5.252
 4915SOL    HW215645   2.673   6.458   5.397
 4916SOL     OW15646   0.166   0.590   3.955
 4916SOL    HW115647   0.134   0.500   3.927
 4916SOL    HW215648   0.231   0.626   3.888
 4917SOL     OW15649   4.047   5.819   0.835
 4917SOL    HW115650   4.133   5.805   0.785
 4917SOL    HW215651   3.972   5.831   0.769
 4918SOL     OW15652   6.148   6.211   2.622
 4918SOL    HW115653   6.149   6.113   2.601
 4918SOL    HW215654   6.053   6.241   2.633
 4919SOL     OW15655   3.940   2.967   2.296
 4919SOL    HW115656   3.995   2.886   2.275
 4919SOL    HW215657   3.904   3.006   2.211
 4920SOL     OW15658   5.293   0.220   4.960
 4920SOL    HW115659   5.393   0.229   4.954
 4920SOL    HW215660   5.251   0.271   4.885
 4921SOL     OW15661   1.808   5.054   0.308
 4921SOL    HW115662   1.848   5.040   0.218
 4921SOL    HW215663   1.880   5.080   0.373
 4922SOL     OW15664   3.125   2.052   4.820
 4922SOL    HW115665   3.105   2.128   4.882
 4922SOL    HW215666   3.134   1.968   4.873
 4923SOL     OW15667   2.489   1.705   2.613
 4923SOL    HW115668   2.441   1.758   2.542
 4923SOL    HW215669   2.441   1.619   2.628
 4924SOL     OW15670   2.344   2.056   4.944
 4924SOL    HW115671   2.251   2.058   4.982
 4924SOL    HW215672   2.376   2.150   4.931
 4925SOL     OW15673   4.599   0.393   2.955
 4925SOL    HW115674   4.589   0.470   2.892
 4925SOL    HW215675   4.687   0.348   2.938
 4926SOL     OW15676   5.412   1.970   1.517
 4926SOL    HW115677   5.464   2.020   1.586
 4926SOL    HW215678   5.402   2.027   1.435
 4927SOL     OW15679   3.045   3.318   5.848
 4927SOL    HW115680   3.136   3.299   5.813
 4927SOL    HW215681   3.044   3.304   5.947
 4928SOL     OW15682   1.464   0.913   0.064
 4928SOL    HW115683   1.531   0.988   0.064
 4928SOL    HW215684   1.382   0.942   0.016
 4929SOL     OW15685   6.658   0.221   3.623
 4929SOL    HW115686   6.757   0.227   3.636
 4929SOL    HW215687   6.637   0.225   3.525
 4930SOL     OW15688   5.820   6.734   2.443
 4930SOL    HW115689   5.762   6.784   2.507
 4930SOL    HW215690   5.856   6.797   2.375
 4931SOL     OW15691   6.529   6.251   1.674
 4931SOL    HW115692   6.470   6.299   1.609
 4931SOL    HW215693   6.610   6.217   1.626
 4932SOL     OW15694   3.732   3.891   3.396
 4932SOL    HW115695   3.744   3.990   3.393
 4932SOL    HW215696   3.636   3.868   3.385
 4933SOL     OW15697   2.245   6.499   3.251
 4933SOL    HW115698   2.342   6.482   3.233
 4933SOL    HW215699   2.191   6.421   3.219
 4934SOL     OW15700   3.597   5.650   2.622
 4934SOL    HW115701   3.603   5.744   2.655
 4934SOL    HW215702   3.560   5.592   2.694
 4935SOL     OW15703   2.080   1.989   6.860
 4935SOL    HW115704   2.148   1.917   6.871
 4935SOL    HW215705   2.054   2.024   6.950
 4936SOL     OW15706   2.813   4.796   0.907
 4936SOL    HW115707   2.830   4.711   0.856
 4936SOL    HW215708   2.881   4.805   0.980
 4937SOL     OW15709   5.184   3.165   5.058
 4937SOL    HW115710   5.249   3.110   5.111
 4937SOL    HW215711   5.140   3.108   4.989
 4938SOL     OW15712   3.385   5.536   5.938
 4938SOL    HW115713   3.326   5.569   5.864
 4938SOL    HW215714   3.478   5.524   5.903
 4939SOL     OW15715   5.152   2.106   5.092
 4939SOL    HW115716   5.215   2.098   5.014
 4939SOL    HW215717   5.152   2.020   5.144
 4940SOL     OW15718   1.263   0.988   5.038
 4940SOL    HW115719   1.246   0.975   5.135
 4940SOL    HW215720   1.182   0.961   4.986
 4941SOL     OW15721   3.470   1.796   6.457
 4941SOL    HW115722   3.506   1.756   6.541
 4941SOL    HW215723   3.410   1.730   6.411
 4942SOL     OW15724   4.821   3.208   5.146
 4942SOL    HW115725   4.874   3.236   5.226
 4942SOL    HW215726   4.847   3.264   5.067
 4943SOL     OW15727   3.927   2.094   0.054
 4943SOL    HW115728   3.914   2.002   0.017
 4943SOL    HW215729   4.006   2.095   0.115
 4944SOL     OW15730   2.100   3.817   3.239
 4944SOL    HW115731   2.004   3.839   3.251
 4944SOL    HW215732   2.156   3.885   3.287
 4945SOL     OW15733   0.830   0.641   3.917
 4945SOL    HW115734   0.917   0.649   3.966
 4945SOL    HW215735   0.757   0.622   3.982
 4946SOL     OW15736   1.106   3.014   1.117
 4946SOL    HW115737   1.039   3.042   1.048
 4946SOL    HW215738   1.136   2.921   1.098
 4947SOL     OW15739   0.814   6.506   0.766
 4947SOL    HW115740   0.813   6.431   0.700
 4947SOL    HW215741   0.721   6.539   0.781
 4948SOL     OW15742   2.764   0.978   2.483
 4948SOL    HW115743   2.725   1.067   2.457
 4948SOL    HW215744   2.700   0.905   2.457
 4949SOL     OW15745   4.635   0.719   5.616
 4949SOL    HW115746   4.702   0.645   5.611
 4949SOL    HW215747   4.564   0.695   5.683
 4950SOL     OW15748   2.716   5.771   3.722
 4950SOL    HW115749   2.750   5.796   3.631
 4950SOL    HW215750   2.793   5.753   3.783
 4951SOL     OW15751   4.724   1.197   4.478
 4951SOL    HW115752   4.769   1.282   4.450
 4951SOL    HW215753   4.723   1.132   4.402
 4952SOL     OW15754   0.400   6.450   5.344
 4952SOL    HW115755   0.495   6.423   5.327
 4952SOL    HW215756   0.391   6.549   5.333
 4953SOL     OW15757   2.337   5.364   1.974
 4953SOL    HW115758   2.426   5.401   2.003
 4953SOL    HW215759   2.348   5.320   1.884
 4954SOL     OW15760   4.704   4.514   6.898
 4954SOL    HW115761   4.739   4.554   6.813
 4954SOL    HW215762   4.607   4.536   6.907
 4955SOL     OW15763   1.858   5.826   6.829
 4955SOL    HW115764   1.855   5.734   6.869
 4955SOL    HW215765   1.863   5.819   6.730
 4956SOL     OW15766   3.781   6.945   5.371
 4956SOL    HW115767   3.795   6.863   5.427
 4956SOL    HW215768   3.852   6.949   5.300
 4957SOL     OW15769   0.138   1.477   3.798
 4957SOL    HW115770   0.163   1.572   3.777
 4957SOL    HW215771   0.221   1.423   3.812
 4958SOL     OW15772   0.454   6.441   6.384
 4958SOL    HW115773   0.417   6.514   6.327
 4958SOL    HW215774   0.542   6.470   6.423
 4959SOL     OW15775   0.912   0.848   6.587
 4959SOL    HW115776   0.826   0.852   6.638
 4959SOL    HW215777   0.906   0.777   6.517
 4960SOL     OW15778   3.467   6.538   3.984
 4960SOL    HW115779   3.490   6.504   3.893
 4960SOL    HW215780   3.478   6.637   3.986
 4961SOL     OW15781   5.582   1.212   4.994
 4961SOL    HW115782   5.657   1.164   4.947
 4961SOL    HW215783   5.499   1.208   4.939
 4962SOL     OW15784   5.416   3.107   1.863
 4962SOL    HW115785   5.336   3.166   1.857
 4962SOL    HW215786   5.389   3.013   1.843
 4963SOL     OW15787   6.809   5.859   1.699
 4963SOL    HW115788   6.890   5.918   1.698
 4963SOL    HW215789   6.827   5.777   1.646
 4964SOL     OW15790   3.487   5.528   2.883
 4964SOL    HW115791   3.494   5.624   2.911
 4964SOL    HW215792   3.480   5.470   2.964
 4965SOL     OW15793   0.449   6.915   4.924
 4965SOL    HW115794   0.484   6.901   4.831
 4965SOL    HW215795   0.388   6.994   4.925
 4966SOL     OW15796   2.285   5.914   4.640
 4966SOL    HW115797   2.224   5.980   4.683
 4966SOL    HW215798   2.268   5.823   4.677
 4967SOL     OW15799   4.085   2.656   6.848
 4967SOL    HW115800   4.008   2.708   6.811
 4967SOL    HW215801   4.108   2.692   6.939
 4968SOL     OW15802   4.861   3.521   3.384
 4968SOL    HW115803   4.896   3.597   3.330
 4968SOL    HW215804   4.835   3.553   3.475
 4969SOL     OW15805   1.459   1.007   2.240
 4969SOL    HW115806   1.436   1.063   2.319
 4969SOL    HW215807   1.539   0.951   2.262
 4970SOL     OW15808   1.296   2.553   4.864
 4970SOL    HW115809   1.263   2.603   4.945
 4970SOL    HW215810   1.233   2.568   4.788
 4971SOL     OW15811   6.214   6.084   4.129
 4971SOL    HW115812   6.245   6.021   4.058
 4971SOL    HW215813   6.128   6.050   4.169
 4972SOL     OW15814   2.737   3.335   0.291
 4972SOL    HW115815   2.819   3.344   0.234
 4972SOL    HW215816   2.759   3.362   0.385
 4973SOL     OW15817   6.148   6.504   1.904
 4973SOL    HW115818   6.078   6.561   1.860
 4973SOL    HW215819   6.201   6.456   1.833
 4974SOL     OW15820   5.757   5.264   1.684
 4974SOL    HW115821   5.802   5.186   1.728
 4974SOL    HW215822   5.658   5.252   1.690
 4975SOL     OW15823   6.265   6.415   0.718
 4975SOL    HW115824   6.281   6.496   0.663
 4975SOL    HW215825   6.348   6.361   0.725
 4976SOL     OW15826   3.331   0.648   4.173
 4976SOL    HW115827   3.234   0.654   4.195
 4976SOL    HW215828   3.366   0.739   4.153
 4977SOL     OW15829   4.725   3.683   0.627
 4977SOL    HW115830   4.737   3.674   0.528
 4977SOL    HW215831   4.710   3.593   0.668
 4978SOL     OW15832   6.257   3.999   5.668
 4978SOL    HW115833   6.207   3.995   5.582
 4978SOL    HW215834   6.264   4.094   5.698
 4979SOL     OW15835   0.042   2.268   5.224
 4979SOL    HW115836   0.136   2.238   5.210
 4979SOL    HW215837   0.034   2.365   5.203
 4980SOL     OW15838   3.792   6.224   2.496
 4980SOL    HW115839   3.789   6.126   2.478
 4980SOL    HW215840   3.712   6.251   2.549
 4981SOL     OW15841   4.241   6.547   5.704
 4981SOL    HW115842   4.290   6.634   5.705
 4981SOL    HW215843   4.303   6.474   5.676
 4982SOL     OW15844   2.177   1.777   0.086
 4982SOL    HW115845   2.171   1.763   7.016
 4982SOL    HW215846   2.250   1.719   0.123
 4983SOL     OW15847   5.690   3.170   4.001
 4983SOL    HW115848   5.695   3.163   3.902
 4983SOL    HW215849   5.749   3.100   4.042
 4984SOL     OW15850   5.486   3.528   4.662
 4984SOL    HW115851   5.517   3.538   4.567
 4984SOL    HW215852   5.480   3.618   4.705
 4985SOL     OW15853   6.061   5.247   3.837
 4985SOL    HW115854   6.110   5.297   3.765
 4985SOL    HW215855   6.119   5.239   3.918
 4986SOL     OW15856   6.304   4.581   2.910
 4986SOL    HW115857   6.246   4.522   2.966
 4986SOL    HW215858   6.281   4.677   2.928
 4987SOL     OW15859   0.670   3.016   0.855
 4987SOL    HW115860   0.588   3.070   0.840
 4987SOL    HW215861   0.680   2.950   0.780
 4988SOL     OW15862   0.199   1.766   3.791
 4988SOL    HW115863   0.283   1.774   3.845
 4988SOL    HW215864   0.123   1.810   3.840
 4989SOL     OW15865   5.755   1.705   1.396
 4989SOL    HW115866   5.722   1.640   1.464
 4989SOL    HW215867   5.855   1.713   1.403
 4990SOL     OW15868   0.672   2.465   6.153
 4990SOL    HW115869   0.581   2.426   6.136
 4990SOL    HW215870   0.663   2.556   6.192
 4991SOL     OW15871   0.551   3.080   4.187
 4991SOL    HW115872   0.557   3.044   4.094
 4991SOL    HW215873   0.527   3.177   4.184
 4992SOL     OW15874   3.831   0.380   4.522
 4992SOL    HW115875   3.826   0.344   4.429
 4992SOL    HW215876   3.808   0.478   4.520
 4993SOL     OW15877   2.797   4.980   3.554
 4993SOL    HW115878   2.699   4.988   3.572
 4993SOL    HW215879   2.842   4.944   3.636
 4994SOL     OW15880   1.257   6.844   2.716
 4994SOL    HW115881   1.162   6.871   2.699
 4994SOL    HW215882   1.317   6.899   2.658
 4995SOL     OW15883   6.948   2.821   6.190
 4995SOL    HW115884   6.976   2.729   6.161
 4995SOL    HW215885   6.996   2.890   6.136
 4996SOL     OW15886   0.069   1.119   1.440
 4996SOL    HW115887   0.104   1.052   1.375
 4996SOL    HW215888   7.026   1.077   1.496
 4997SOL     OW15889   6.857   2.274   3.012
 4997SOL    HW115890   6.866   2.298   2.915
 4997SOL    HW215891   6.872   2.175   3.023
 4998SOL     OW15892   1.821   4.836   5.334
 4998SOL    HW115893   1.747   4.833   5.267
 4998SOL    HW215894   1.852   4.742   5.353
 4999SOL     OW15895   4.854   5.664   1.410
 4999SOL    HW115896   4.780   5.605   1.378
 4999SOL    HW215897   4.942   5.622   1.386
 5000SOL     OW15898   0.834   0.502   4.831
 5000SOL    HW115899   0.744   0.469   4.859
 5000SOL    HW215900   0.863   0.577   4.891
 5001SOL     OW15901   2.056   3.766   6.189
 5001SOL    HW115902   2.075   3.859   6.219
 5001SOL    HW215903   2.019   3.769   6.096
 5002SOL     OW15904   1.236   2.035   3.236
 5002SOL    HW115905   1.214   1.966   3.306
 5002SOL    HW215906   1.297   2.103   3.276
 5003SOL     OW15907   0.427   6.792   3.414
 5003SOL    HW115908   0.482   6.829   3.339
 5003SOL    HW215909   0.480   6.796   3.499
 5004SOL     OW15910   2.733   5.583   5.844
 5004SOL    HW115911   2.703   5.664   5.895
 5004SOL    HW215912   2.785   5.523   5.905
 5005SOL     OW15913   3.687   2.089   0.611
 5005SOL    HW115914   3.778   2.061   0.578
 5005SOL    HW215915   3.619   2.021   0.584
 5006SOL     OW15916   5.797   0.204   5.484
 5006SOL    HW115917   5.828   0.200   5.389
 5006SOL    HW215918   5.820   0.294   5.522
 5007SOL     OW15919   3.526   0.664   5.981
 5007SOL    HW115920   3.590   0.596   5.945
 5007SOL    HW215921   3.438   0.654   5.936
 5008SOL     OW15922   6.052   1.325   3.169
 5008SOL    HW115923   5.993   1.287   3.240
 5008SOL    HW215924   6.002   1.396   3.120
 5009SOL     OW15925   1.504   6.011   1.664
 5009SOL    HW115926   1.585   6.034   1.611
 5009SOL    HW215927   1.433   5.975   1.604
 5010SOL     OW15928   3.567   4.180   4.027
 5010SOL    HW115929   3.582   4.227   4.113
 5010SOL    HW215930   3.471   4.154   4.019
 5011SOL     OW15931   2.019   3.297   2.139
 5011SOL    HW115932   2.041   3.369   2.073
 5011SOL    HW215933   2.074   3.308   2.221
 5012SOL     OW15934   6.186   2.541   5.669
 5012SOL    HW115935   6.207   2.445   5.686
 5012SOL    HW215936   6.244   2.599   5.727
 5013SOL     OW15937   4.760   1.051   6.439
 5013SOL    HW115938   4.707   1.072   6.522
 5013SOL    HW215939   4.787   0.955   6.441
 5014SOL     OW15940   6.307   5.696   1.038
 5014SOL    HW115941   6.207   5.708   1.040
 5014SOL    HW215942   6.349   5.779   1.002
 5015SOL     OW15943   4.761   1.587   3.536
 5015SOL    HW115944   4.730   1.532   3.458
 5015SOL    HW215945   4.848   1.550   3.570
 5016SOL     OW15946   1.940   1.477   2.889
 5016SOL    HW115947   1.915   1.495   2.984
 5016SOL    HW215948   1.865   1.428   2.844
 5017SOL     OW15949   2.524   2.323   0.435
 5017SOL    HW115950   2.543   2.236   0.481
 5017SOL    HW215951   2.425   2.340   0.435
 5018SOL     OW15952   0.115   4.109   2.283
 5018SOL    HW115953   0.090   4.140   2.375
 5018SOL    HW215954   0.124   4.010   2.281
 5019SOL     OW15955   2.391   3.817   0.318
 5019SOL    HW115956   2.487   3.839   0.332
 5019SOL    HW215957   2.382   3.720   0.293
 5020SOL     OW15958   5.534   5.737   6.166
 5020SOL    HW115959   5.614   5.677   6.159
 5020SOL    HW215960   5.560   5.823   6.209
 5021SOL     OW15961   1.347   4.724   6.237
 5021SOL    HW115962   1.271   4.689   6.293
 5021SOL    HW215963   1.407   4.648   6.211
 5022SOL     OW15964   1.993   6.601   0.554
 5022SOL    HW115965   2.020   6.692   0.586
 5022SOL    HW215966   2.033   6.585   0.464
 5023SOL     OW15967   6.157   2.568   0.964
 5023SOL    HW115968   6.172   2.648   1.022
 5023SOL    HW215969   6.131   2.490   1.020
 5024SOL     OW15970   6.964   4.053   3.204
 5024SOL    HW115971   6.936   4.029   3.111
 5024SOL    HW215972   7.005   3.974   3.248
 5025SOL     OW15973   4.764   1.815   2.640
 5025SOL    HW115974   4.684   1.875   2.647
 5025SOL    HW215975   4.823   1.828   2.719
 5026SOL     OW15976   6.166   5.507   5.750
 5026SOL    HW115977   6.099   5.566   5.796
 5026SOL    HW215978   6.255   5.552   5.750
 5027SOL     OW15979   0.294   6.841   3.025
 5027SOL    HW115980   0.248   6.869   2.941
 5027SOL    HW215981   0.322   6.922   3.076
 5028SOL     OW15982   0.130   5.940   1.972
 5028SOL    HW115983   0.162   6.001   2.044
 5028SOL    HW215984   0.052   5.887   2.006
 5029SOL     OW15985   6.725   2.579   2.300
 5029SOL    HW115986   6.646   2.528   2.334
 5029SOL    HW215987   6.808   2.528   2.319
 5030SOL     OW15988   0.163   0.088   0.089
 5030SOL    HW115989   0.112   0.150   0.149
 5030SOL    HW215990   0.135   0.102   7.024
 5031SOL     OW15991   5.889   1.026   4.351
 5031SOL    HW115992   5.856   0.968   4.277
 5031SOL    HW215993   5.981   0.998   4.377
 5032SOL     OW15994   1.652   5.349   0.739
 5032SOL    HW115995   1.653   5.339   0.640
 5032SOL    HW215996   1.715   5.283   0.780
 5033SOL     OW15997   3.073   5.341   5.277
 5033SOL    HW115998   2.986   5.316   5.319
 5033SOL    HW215999   3.132   5.261   5.270
 5034SOL     OW16000   6.614   2.798   2.167
 5034SOL    HW116001   6.662   2.729   2.220
 5034SOL    HW216002   6.647   2.889   2.192
 5035SOL     OW16003   4.967   5.414   0.665
 5035SOL    HW116004   5.008   5.441   0.752
 5035SOL    HW216005   5.012   5.332   0.631
 5036SOL     OW16006   1.409   6.022   6.756
 5036SOL    HW116007   1.504   6.051   6.769
 5036SOL    HW216008   1.405   5.923   6.747
 5037SOL     OW16009   4.169   1.744   3.417
 5037SOL    HW116010   4.198   1.761   3.512
 5037SOL    HW216011   4.092   1.803   3.394
 5038SOL     OW16012   1.223   6.036   5.667
 5038SOL    HW116013   1.166   6.115   5.645
 5038SOL    HW216014   1.179   5.981   5.738
 5039SOL     OW16015   2.432   3.108   5.452
 5039SOL    HW116016   2.399   3.022   5.491
 5039SOL    HW216017   2.450   3.095   5.354
 5040SOL     OW16018   2.356   3.563   6.855
 5040SOL    HW116019   2.426   3.605   6.798
 5040SOL    HW216020   2.326   3.629   6.924
 5041SOL     OW16021   0.732   4.480   1.601
 5041SOL    HW116022   0.705   4.412   1.669
 5041SOL    HW216023   0.771   4.434   1.521
 5042SOL     OW16024   6.666   3.099   6.689
 5042SOL    HW116025   6.707   3.016   6.651
 5042SOL    HW216026   6.587   3.126   6.633
 5043SOL     OW16027   3.494   1.608   4.636
 5043SOL    HW116028   3.473   1.600   4.734
 5043SOL    HW216029   3.548   1.529   4.607
 5044SOL     OW16030   6.263   6.061   3.692
 5044SOL    HW116031   6.304   6.132   3.634
 5044SOL    HW216032   6.179   6.096   3.733
 5045SOL     OW16033   6.222   3.078   0.255
 5045SOL    HW116034   6.217   3.163   0.202
 5045SOL    HW216035   6.191   3.096   0.348
 5046SOL     OW16036   3.781   2.894   4.924
 5046SOL    HW116037   3.822   2.808   4.953
 5046SOL    HW216038   3.798   2.965   4.992
 5047SOL     OW16039   5.735   1.015   2.723
 5047SOL    HW116040   5.811   1.071   2.758
 5047SOL    HW216041   5.679   0.985   2.800
 5048SOL     OW16042   6.825   2.167   1.725
 5048SOL    HW116043   6.768   2.249   1.717
 5048SOL    HW216044   6.890   2.178   1.800
 5049SOL     OW16045   0.973   1.932   2.445
 5049SOL    HW116046   0.899   1.870   2.470
 5049SOL    HW216047   1.030   1.949   2.525
 5050SOL     OW16048   0.063   1.654   1.986
 5050SOL    HW116049   0.119   1.610   2.057
 5050SOL    HW216050   0.066   1.598   1.904
 5051SOL     OW16051   2.814   3.992   1.207
 5051SOL    HW116052   2.891   3.929   1.207
 5051SOL    HW216053   2.752   3.969   1.131
 5052SOL     OW16054   3.726   4.595   0.701
 5052SOL    HW116055   3.734   4.598   0.601
 5052SOL    HW216056   3.762   4.508   0.734
 5053SOL     OW16057   2.300   4.010   1.995
 5053SOL    HW116058   2.219   4.054   1.956
 5053SOL    HW216059   2.279   3.976   2.087
 5054SOL     OW16060   3.605   6.015   5.070
 5054SOL    HW116061   3.674   6.075   5.031
 5054SOL    HW216062   3.604   6.026   5.169
 5055SOL     OW16063   0.577   2.066   4.888
 5055SOL    HW116064   0.582   2.165   4.875
 5055SOL    HW216065   0.498   2.029   4.839
 5056SOL     OW16066   0.033   4.372   6.533
 5056SOL    HW116067   7.012   4.293   6.498
 5056SOL    HW216068   0.095   4.343   6.606
 5057SOL     OW16069   0.891   5.579   3.305
 5057SOL    HW116070   0.805   5.548   3.344
 5057SOL    HW216071   0.909   5.672   3.334
 5058SOL     OW16072   3.983   4.277   0.042
 5058SOL    HW116073   3.895   4.320   0.064
 5058SOL    HW216074   3.985   4.252   6.975
 5059SOL     OW16075   4.047   1.992   4.822
 5059SOL    HW116076   4.030   2.010   4.919
 5059SOL    HW216077   4.013   1.900   4.799
 5060SOL     OW16078   0.270   3.267   5.561
 5060SOL    HW116079   0.281   3.212   5.643
 5060SOL    HW216080   0.338   3.240   5.493
 5061SOL     OW16081   2.917   3.689   4.260
 5061SOL    HW116082   2.922   3.731   4.350
 5061SOL    HW216083   3.000   3.709   4.208
 5062SOL     OW16084   4.588   1.672   2.337
 5062SOL    HW116085   4.562   1.576   2.325
 5062SOL    HW216086   4.563   1.724   2.256
 5063SOL     OW16087   1.896   6.232   1.542
 5063SOL    HW116088   1.939   6.232   1.451
 5063SOL    HW216089   1.964   6.252   1.611
 5064SOL     OW16090   4.694   5.305   0.884
 5064SOL    HW116091   4.596   5.320   0.881
 5064SOL    HW216092   4.718   5.228   0.825
 5065SOL     OW16093   1.742   0.550   3.709
 5065SOL    HW116094   1.788   0.551   3.620
 5065SOL    HW216095   1.807   0.574   3.780
 5066SOL     OW16096   2.166   4.328   2.146
 5066SOL    HW116097   2.176   4.281   2.234
 5066SOL    HW216098   2.072   4.360   2.136
 5067SOL     OW16099   4.063   2.074   1.669
 5067SOL    HW116100   4.008   2.003   1.623
 5067SOL    HW216101   4.095   2.039   1.757
 5068SOL     OW16102   3.663   6.047   0.763
 5068SOL    HW116103   3.638   6.144   0.771
 5068SOL    HW216104   3.623   6.010   0.679
 5069SOL     OW16105   2.529   3.783   6.502
 5069SOL    HW116106   2.553   3.729   6.583
 5069SOL    HW216107   2.436   3.759   6.474
 5070SOL     OW16108   6.193   2.907   3.790
 5070SOL    HW116109   6.254   2.959   3.850
 5070SOL    HW216110   6.244   2.833   3.746
 5071SOL     OW16111   3.835   1.186   4.029
 5071SOL    HW116112   3.933   1.194   4.044
 5071SOL    HW216113   3.790   1.271   4.056
 5072SOL     OW16114   1.408   0.707   1.037
 5072SOL    HW116115   1.481   0.754   1.087
 5072SOL    HW216116   1.327   0.701   1.096
 5073SOL     OW16117   2.479   6.000   2.295
 5073SOL    HW116118   2.416   6.038   2.363
 5073SOL    HW216119   2.547   6.070   2.271
 5074SOL     OW16120   3.215   1.587   1.811
 5074SOL    HW116121   3.260   1.665   1.770
 5074SOL    HW216122   3.210   1.512   1.745
 5075SOL     OW16123   0.911   3.040   6.977
 5075SOL    HW116124   0.932   2.944   6.957
 5075SOL    HW216125   0.926   3.058   0.045
 5076SOL     OW16126   5.383   0.457   0.118
 5076SOL    HW116127   5.336   0.416   0.197
 5076SOL    HW216128   5.373   0.398   0.039
 5077SOL     OW16129   1.636   3.945   4.782
 5077SOL    HW116130   1.719   4.000   4.780
 5077SOL    HW216131   1.659   3.851   4.808
 5078SOL     OW16132   0.537   1.355   4.079
 5078SOL    HW116133   0.514   1.372   4.175
 5078SOL    HW216134   0.484   1.277   4.045
 5079SOL     OW16135   1.859   1.950   5.723
 5079SOL    HW116136   1.857   2.029   5.783
 5079SOL    HW216137   1.776   1.947   5.667
 5080SOL     OW16138   5.863   5.302   5.890
 5080SOL    HW116139   5.908   5.232   5.834
 5080SOL    HW216140   5.915   5.315   5.975
 5081SOL     OW16141   2.996   5.460   5.023
 5081SOL    HW116142   3.026   5.556   5.029
 5081SOL    HW216143   2.998   5.419   5.114
 5082SOL     OW16144   4.571   6.757   0.187
 5082SOL    HW116145   4.528   6.689   0.247
 5082SOL    HW216146   4.616   6.710   0.111
 5083SOL     OW16147   2.990   0.849   2.053
 5083SOL    HW116148   3.001   0.750   2.039
 5083SOL    HW216149   3.023   0.873   2.145
 5084SOL     OW16150   0.962   5.115   5.281
 5084SOL    HW116151   0.949   5.179   5.357
 5084SOL    HW216152   0.875   5.101   5.234
 5085SOL     OW16153   1.364   3.301   5.783
 5085SOL    HW116154   1.425   3.301   5.704
 5085SOL    HW216155   1.269   3.297   5.752
 5086SOL     OW16156   0.772   4.570   2.740
 5086SOL    HW116157   0.676   4.558   2.766
 5086SOL    HW216158   0.827   4.590   2.821
 5087SOL     OW16159   6.851   5.360   2.222
 5087SOL    HW116160   6.837   5.373   2.320
 5087SOL    HW216161   6.948   5.375   2.201
 5088SOL     OW16162   4.552   5.791   2.667
 5088SOL    HW116163   4.482   5.738   2.714
 5088SOL    HW216164   4.531   5.889   2.675
 5089SOL     OW16165   6.058   4.233   4.461
 5089SOL    HW116166   6.010   4.320   4.461
 5089SOL    HW216167   6.030   4.178   4.382
 5090SOL     OW16168   1.823   0.109   3.919
 5090SOL    HW116169   1.771   0.044   3.974
 5090SOL    HW216170   1.888   0.158   3.977
 5091SOL     OW16171   6.668   0.168   0.005
 5091SOL    HW116172   6.618   0.155   0.091
 5091SOL    HW216173   6.713   0.083   7.008
 5092SOL     OW16174   3.933   3.574   4.316
 5092SOL    HW116175   3.976   3.661   4.337
 5092SOL    HW216176   3.998   3.500   4.332
 5093SOL     OW16177   2.202   0.951   2.994
 5093SOL    HW116178   2.302   0.955   3.005
 5093SOL    HW216179   2.179   0.948   2.897
 5094SOL     OW16180   2.697   5.633   6.998
 5094SOL    HW116181   2.662   5.590   0.052
 5094SOL    HW216182   2.796   5.641   7.004
 5095SOL     OW16183   0.789   1.305   4.013
 5095SOL    HW116184   0.696   1.317   4.048
 5095SOL    HW216185   0.855   1.338   4.081
 5096SOL     OW16186   5.774   3.849   6.468
 5096SOL    HW116187   5.742   3.799   6.549
 5096SOL    HW216188   5.852   3.801   6.428
 5097SOL     OW16189   6.859   6.623   0.119
 5097SOL    HW116190   6.925   6.661   0.054
 5097SOL    HW216191   6.845   6.689   0.193
 5098SOL     OW16192   3.934   2.331   1.749
 5098SOL    HW116193   3.954   2.234   1.732
 5098SOL    HW216194   3.841   2.339   1.786
 5099SOL     OW16195   6.884   6.013   1.147
 5099SOL    HW116196   6.883   6.100   1.195
 5099SOL    HW216197   6.915   5.941   1.208
 5100SOL     OW16198   4.670   5.186   3.127
 5100SOL    HW116199   4.584   5.217   3.167
 5100SOL    HW216200   4.746   5.226   3.178
 5101SOL     OW16201   3.998   0.428   4.922
 5101SOL    HW116202   3.936   0.504   4.942
 5101SOL    HW216203   4.075   0.430   4.985
 5102SOL     OW16204   4.952   6.046   4.085
 5102SOL    HW116205   4.964   5.978   4.013
 5102SOL    HW216206   4.976   6.006   4.174
 5103SOL     OW16207   0.597   0.333   4.880
 5103SOL    HW116208   0.635   0.250   4.837
 5103SOL    HW216209   0.520   0.365   4.826
 5104SOL     OW16210   3.388   6.193   1.931
 5104SOL    HW116211   3.443   6.251   1.870
 5104SOL    HW216212   3.388   6.233   2.023
 5105SOL     OW16213   3.121   3.365   0.003
 5105SOL    HW116214   3.142   3.288   6.972
 5105SOL    HW216215   3.192   3.435   7.022
 5106SOL     OW16216   4.084   2.027   0.884
 5106SOL    HW116217   3.985   2.015   0.878
 5106SOL    HW216218   4.107   2.080   0.965
 5107SOL     OW16219   5.597   3.178   1.338
 5107SOL    HW116220   5.624   3.264   1.295
 5107SOL    HW216221   5.610   3.184   1.437
 5108SOL     OW16222   4.766   4.066   5.705
 5108SOL    HW116223   4.860   4.032   5.709
 5108SOL    HW216224   4.704   3.991   5.730
 5109SOL     OW16225   1.911   2.718   1.082
 5109SOL    HW116226   1.975   2.794   1.075
 5109SOL    HW216227   1.902   2.689   1.177
 5110SOL     OW16228   0.063   0.024   6.046
 5110SOL    HW116229   0.130   0.074   6.100
 5110SOL    HW216230   0.103   6.968   6.013
 5111SOL     OW16231   0.955   6.527   4.965
 5111SOL    HW116232   1.012   6.541   5.046
 5111SOL    HW216233   0.889   6.602   4.957
 5112SOL     OW16234   0.413   6.993   2.612
 5112SOL    HW116235   0.411   0.033   2.540
 5112SOL    HW216236   0.390   6.904   2.574
 5113SOL     OW16237   1.646   5.176   0.479
 5113SOL    HW116238   1.665   5.111   0.405
 5113SOL    HW216239   1.562   5.149   0.526
 5114SOL     OW16240   3.573   6.975   0.607
 5114SOL    HW116241   3.521   6.974   0.522
 5114SOL    HW216242   3.579   0.039   0.641
 5115SOL     OW16243   2.264   3.671   1.341
 5115SOL    HW116244   2.288   3.607   1.413
 5115SOL    HW216245   2.218   3.751   1.380
 5116SOL     OW16246   2.938   6.212   6.832
 5116SOL    HW116247   3.008   6.269   6.789
 5116SOL    HW216248   2.972   6.118   6.841
 5117SOL     OW16249   1.036   3.214   4.336
 5117SOL    HW116250   1.070   3.157   4.261
 5117SOL    HW216251   0.945   3.248   4.314
 5118SOL     OW16252   6.165   6.924   0.769
 5118SOL    HW116253   6.154   6.994   0.839
 5118SOL    HW216254   6.143   6.835   0.807
 5119SOL     OW16255   5.146   1.742   0.997
 5119SOL    HW116256   5.180   1.836   0.989
 5119SOL    HW216257   5.085   1.723   0.921
 5120SOL     OW16258   4.821   0.299   5.106
 5120SOL    HW116259   4.875   0.359   5.046
 5120SOL    HW216260   4.740   0.266   5.056
 5121SOL     OW16261   3.544   3.697   0.306
 5121SOL    HW116262   3.641   3.699   0.329
 5121SOL    HW216263   3.533   3.661   0.213
 5122SOL     OW16264   3.764   5.178   3.220
 5122SOL    HW116265   3.751   5.083   3.189
 5122SOL    HW216266   3.684   5.232   3.195
 5123SOL     OW16267   5.456   2.452   2.347
 5123SOL    HW116268   5.431   2.395   2.426
 5123SOL    HW216269   5.379   2.456   2.284
 5124SOL     OW16270   2.002   6.307   3.277
 5124SOL    HW116271   2.015   6.328   3.180
 5124SOL    HW216272   1.908   6.330   3.304
 5125SOL     OW16273   0.399   1.771   3.969
 5125SOL    HW116274   0.478   1.711   3.957
 5125SOL    HW216275   0.429   1.866   3.966
 5126SOL     OW16276   1.148   6.318   7.000
 5126SOL    HW116277   1.186   6.364   6.920
 5126SOL    HW216278   1.091   6.242   6.971
 5127SOL     OW16279   2.096   5.708   0.127
 5127SOL    HW116280   2.088   5.620   0.080
 5127SOL    HW216281   2.098   5.693   0.226
 5128SOL     OW16282   0.007   5.970   0.903
 5128SOL    HW116283   0.068   6.036   0.858
 5128SOL    HW216284   7.026   5.995   0.999
 5129SOL     OW16285   5.028   6.396   1.584
 5129SOL    HW116286   4.984   6.377   1.671
 5129SOL    HW216287   5.042   6.494   1.574
 5130SOL     OW16288   7.009   4.691   2.961
 5130SOL    HW116289   6.936   4.710   2.895
 5130SOL    HW216290   0.069   4.710   2.920
 5131SOL     OW16291   1.282   3.558   3.848
 5131SOL    HW116292   1.316   3.470   3.882
 5131SOL    HW216293   1.284   3.559   3.748
 5132SOL     OW16294   3.786   3.706   6.251
 5132SOL    HW116295   3.763   3.673   6.160
 5132SOL    HW216296   3.837   3.792   6.243
 5133SOL     OW16297   3.376   5.248   0.087
 5133SOL    HW116298   3.350   5.151   0.088
 5133SOL    HW216299   3.475   5.256   0.100
 5134SOL     OW16300   0.520   2.917   1.558
 5134SOL    HW116301   0.421   2.919   1.539
 5134SOL    HW216302   0.536   2.945   1.652
 5135SOL     OW16303   6.588   1.955   5.981
 5135SOL    HW116304   6.635   2.000   6.057
 5135SOL    HW216305   6.493   1.985   5.979
 5136SOL     OW16306   5.100   0.585   4.808
 5136SOL    HW116307   5.028   0.590   4.877
 5136SOL    HW216308   5.134   0.678   4.789
 5137SOL     OW16309   5.954   3.186   6.339
 5137SOL    HW116310   5.995   3.223   6.256
 5137SOL    HW216311   5.867   3.231   6.357
 5138SOL     OW16312   3.762   3.180   6.713
 5138SOL    HW116313   3.847   3.132   6.689
 5138SOL    HW216314   3.729   3.229   6.632
 5139SOL     OW16315   1.659   6.828   3.778
 5139SOL    HW116316   1.696   6.890   3.709
 5139SOL    HW216317   1.570   6.794   3.749
 5140SOL     OW16318   2.344   1.587   0.255
 5140SOL    HW116319   2.410   1.603   0.329
 5140SOL    HW216320   2.390   1.538   0.180
 5141SOL     OW16321   5.919   3.406   0.962
 5141SOL    HW116322   5.834   3.359   0.939
 5141SOL    HW216323   5.934   3.402   1.061
 5142SOL     OW16324   5.699   1.967   4.204
 5142SOL    HW116325   5.757   2.046   4.226
 5142SOL    HW216326   5.742   1.884   4.241
 5143SOL     OW16327   0.920   3.950   4.167
 5143SOL    HW116328   0.911   4.048   4.150
 5143SOL    HW216329   1.017   3.926   4.177
 5144SOL     OW16330   1.841   6.846   6.195
 5144SOL    HW116331   1.763   6.785   6.178
 5144SOL    HW216332   1.840   6.921   6.129
 5145SOL     OW16333   2.590   5.159   6.369
 5145SOL    HW116334   2.658   5.232   6.379
 5145SOL    HW216335   2.583   5.133   6.273
 5146SOL     OW16336   4.520   3.778   6.667
 5146SOL    HW116337   4.518   3.681   6.645
 5146SOL    HW216338   4.476   3.793   6.755
 5147SOL     OW16339   6.804   3.979   1.934
 5147SOL    HW116340   6.902   3.995   1.944
 5147SOL    HW216341   6.754   4.061   1.961
 5148SOL     OW16342   0.758   6.090   0.940
 5148SOL    HW116343   0.838   6.035   0.964
 5148SOL    HW216344   0.720   6.057   0.853
 5149SOL     OW16345   5.617   0.075   3.530
 5149SOL    HW116346   5.615   0.171   3.502
 5149SOL    HW216347   5.664   0.067   3.618
 5150SOL     OW16348   1.956   5.960   4.010
 5150SOL    HW116349   2.010   6.042   4.029
 5150SOL    HW216350   1.880   5.983   3.950
 5151SOL     OW16351   5.611   0.757   6.958
 5151SOL    HW116352   5.667   0.704   6.894
 5151SOL    HW216353   5.598   0.849   6.923
 5152SOL     OW16354   2.496   4.691   6.851
 5152SOL    HW116355   2.576   4.743   6.822
 5152SOL    HW216356   2.416   4.752   6.853
 5153SOL     OW16357   2.036   1.784   6.613
 5153SOL    HW116358   2.055   1.871   6.659
 5153SOL    HW216359   2.034   1.797   6.514
 5154SOL     OW16360   2.105   3.425   6.113
 5154SOL    HW116361   2.169   3.350   6.127
 5154SOL    HW216362   2.042   3.430   6.191
 5155SOL     OW16363   4.450   6.668   2.005
 5155SOL    HW116364   4.423   6.573   1.996
 5155SOL    HW216365   4.510   6.693   1.929
 5156SOL     OW16366   6.815   2.511   6.365
 5156SOL    HW116367   6.744   2.502   6.295
 5156SOL    HW216368   6.776   2.553   6.447
 5157SOL     OW16369   4.873   3.066   3.225
 5157SOL    HW116370   4.956   3.014   3.244
 5157SOL    HW216371   4.864   3.080   3.126
 5158SOL     OW16372   3.137   2.069   1.433
 5158SOL    HW116373   3.168   2.019   1.513
 5158SOL    HW216374   3.080   2.009   1.376
 5159SOL     OW16375   1.226   3.907   5.076
 5159SOL    HW116376   1.287   3.959   5.136
 5159SOL    HW216377   1.154   3.864   5.131
 5160SOL     OW16378   1.533   4.038   4.483
 5160SOL    HW116379   1.611   4.092   4.513
 5160SOL    HW216380   1.527   3.954   4.538
 5161SOL     OW16381   1.427   4.241   5.502
 5161SOL    HW116382   1.327   4.246   5.499
 5161SOL    HW216383   1.463   4.247   5.410
 5162SOL     OW16384   0.226   5.237   4.274
 5162SOL    HW116385   0.161   5.234   4.350
 5162SOL    HW216386   0.320   5.232   4.310
 5163SOL     OW16387   4.368   4.919   1.555
 5163SOL    HW116388   4.453   4.881   1.517
 5163SOL    HW216389   4.291   4.863   1.526
 5164SOL     OW16390   5.664   2.195   5.889
 5164SOL    HW116391   5.684   2.147   5.974
 5164SOL    HW216392   5.723   2.160   5.816
 5165SOL     OW16393   5.719   4.712   4.698
 5165SOL    HW116394   5.783   4.779   4.658
 5165SOL    HW216395   5.626   4.732   4.667
 5166SOL     OW16396   2.085   4.923   1.674
 5166SOL    HW116397   2.011   4.961   1.617
 5166SOL    HW216398   2.162   4.986   1.674
 5167SOL     OW16399   6.209   6.776   5.432
 5167SOL    HW116400   6.279   6.745   5.496
 5167SOL    HW216401   6.232   6.868   5.400
 5168SOL     OW16402   4.598   2.681   3.679
 5168SOL    HW116403   4.620   2.655   3.585
 5168SOL    HW216404   4.511   2.640   3.705
 5169SOL     OW16405   3.570   3.661   6.719
 5169SOL    HW116406   3.490   3.638   6.663
 5169SOL    HW216407   3.654   3.645   6.666
 5170SOL     OW16408   6.854   4.403   6.233
 5170SOL    HW116409   6.891   4.491   6.262
 5170SOL    HW216410   6.901   4.374   6.149
 5171SOL     OW16411   2.407   4.408   4.539
 5171SOL    HW116412   2.340   4.336   4.554
 5171SOL    HW216413   2.421   4.459   4.623
 5172SOL     OW16414   1.094   3.185   1.657
 5172SOL    HW116415   1.019   3.213   1.598
 5172SOL    HW216416   1.125   3.093   1.630
 5173SOL     OW16417   5.945   4.103   6.584
 5173SOL    HW116418   6.019   4.058   6.632
 5173SOL    HW216419   5.897   4.038   6.525
 5174SOL     OW16420   1.709   4.476   4.478
 5174SOL    HW116421   1.614   4.445   4.479
 5174SOL    HW216422   1.727   4.523   4.392
 5175SOL     OW16423   2.055   4.553   6.952
 5175SOL    HW116424   1.988   4.571   7.024
 5175SOL    HW216425   2.074   4.455   6.949
 5176SOL     OW16426   3.842   3.232   0.430
 5176SOL    HW116427   3.795   3.208   0.345
 5176SOL    HW216428   3.899   3.156   0.459
 5177SOL     OW16429   4.601   0.168   5.599
 5177SOL    HW116430   4.673   0.183   5.667
 5177SOL    HW216431   4.590   0.070   5.582
 5178SOL     OW16432   2.532   2.189   1.326
 5178SOL    HW116433   2.521   2.160   1.231
 5178SOL    HW216434   2.621   2.158   1.360
 5179SOL     OW16435   5.019   6.274   4.956
 5179SOL    HW116436   4.976   6.225   4.880
 5179SOL    HW216437   4.949   6.320   5.010
 5180SOL     OW16438   3.429   2.377   6.672
 5180SOL    HW116439   3.505   2.348   6.731
 5180SOL    HW216440   3.398   2.468   6.699
 5181SOL     OW16441   3.812   0.548   3.166
 5181SOL    HW116442   3.896   0.601   3.154
 5181SOL    HW216443   3.733   0.609   3.156
 5182SOL     OW16444   5.620   4.806   1.701
 5182SOL    HW116445   5.548   4.831   1.765
 5182SOL    HW216446   5.623   4.706   1.692
 5183SOL     OW16447   4.817   6.978   1.792
 5183SOL    HW116448   4.861   6.924   1.864
 5183SOL    HW216449   4.770   0.027   1.833
 5184SOL     OW16450   0.857   1.748   3.992
 5184SOL    HW116451   0.891   1.699   3.912
 5184SOL    HW216452   0.795   1.688   4.043
 5185SOL     OW16453   3.894   6.826   3.028
 5185SOL    HW116454   3.951   6.907   3.021
 5185SOL    HW216455   3.924   6.770   3.105
 5186SOL     OW16456   6.664   4.165   0.879
 5186SOL    HW116457   6.626   4.092   0.936
 5186SOL    HW216458   6.729   4.127   0.813
 5187SOL     OW16459   6.536   0.930   3.619
 5187SOL    HW116460   6.459   0.927   3.683
 5187SOL    HW216461   6.535   1.017   3.569
 5188SOL     OW16462   0.709   4.848   0.276
 5188SOL    HW116463   0.757   4.874   0.360
 5188SOL    HW216464   0.631   4.789   0.300
 5189SOL     OW16465   4.539   4.880   6.891
 5189SOL    HW116466   4.503   4.787   6.884
 5189SOL    HW216467   4.622   4.888   6.836
 5190SOL     OW16468   0.962   2.242   4.447
 5190SOL    HW116469   1.061   2.232   4.456
 5190SOL    HW216470   0.926   2.168   4.390
 5191SOL     OW16471   3.295   1.047   1.453
 5191SOL    HW116472   3.231   1.036   1.529
 5191SOL    HW216473   3.373   0.985   1.466
 5192SOL     OW16474   4.997   5.372   2.820
 5192SOL    HW116475   4.957   5.307   2.756
 5192SOL    HW216476   4.925   5.409   2.880
 5193SOL     OW16477   4.390   4.675   3.748
 5193SOL    HW116478   4.443   4.755   3.720
 5193SOL    HW216479   4.310   4.704   3.800
 5194SOL     OW16480   5.462   0.187   5.829
 5194SOL    HW116481   5.472   0.212   5.733
 5194SOL    HW216482   5.366   0.190   5.855
 5195SOL     OW16483   6.486   7.023   4.432
 5195SOL    HW116484   6.551   6.947   4.444
 5195SOL    HW216485   6.453   7.023   4.337
 5196SOL     OW16486   0.890   4.216   1.737
 5196SOL    HW116487   0.927   4.124   1.753
 5196SOL    HW216488   0.963   4.283   1.746
 5197SOL     OW16489   1.688   6.146   4.172
 5197SOL    HW116490   1.595   6.111   4.157
 5197SOL    HW216491   1.737   6.147   4.085
 5198SOL     OW16492   2.804   6.950   4.875
 5198SOL    HW116493   2.799   6.852   4.898
 5198SOL    HW216494   2.888   6.989   4.913
 5199SOL     OW16495   2.475   5.399   1.314
 5199SOL    HW116496   2.396   5.347   1.283
 5199SOL    HW216497   2.545   5.399   1.242
 5200SOL     OW16498   0.864   1.730   5.118
 5200SOL    HW116499   0.873   1.809   5.058
 5200SOL    HW216500   0.878   1.646   5.065
 5201SOL     OW16501   5.862   5.181   4.463
 5201SOL    HW116502   5.765   5.170   4.439
 5201SOL    HW216503   5.917   5.168   4.381
 5202SOL     OW16504   5.426   3.322   6.921
 5202SOL    HW116505   5.359   3.299   6.850
 5202SOL    HW216506   5.402   3.275   7.006
 5203SOL     OW16507   1.530   0.378   6.115
 5203SOL    HW116508   1.457   0.395   6.049
 5203SOL    HW216509   1.514   0.290   6.160
 5204SOL     OW16510   3.296   6.293   6.388
 5204SOL    HW116511   3.202   6.309   6.356
 5204SOL    HW216512   3.294   6.228   6.464
 5205SOL     OW16513   6.598   5.870   1.260
 5205SOL    HW116514   6.515   5.832   1.302
 5205SOL    HW216515   6.654   5.796   1.223
 5206SOL     OW16516   1.085   4.496   5.312
 5206SOL    HW116517   1.052   4.506   5.219
 5206SOL    HW216518   1.160   4.560   5.328
 5207SOL     OW16519   0.033   0.058   3.911
 5207SOL    HW116520   0.081   7.000   3.927
 5207SOL    HW216521   6.986   0.066   3.975
 5208SOL     OW16522   4.494   2.768   0.218
 5208SOL    HW116523   4.434   2.843   0.247
 5208SOL    HW216524   4.588   2.788   0.246
 5209SOL     OW16525   4.473   6.855   3.187
 5209SOL    HW116526   4.424   6.925   3.239
 5209SOL    HW216527   4.496   6.890   3.097
 5210SOL     OW16528   4.967   4.471   1.323
 5210SOL    HW116529   4.962   4.546   1.258
 5210SOL    HW216530   5.046   4.413   1.301
 5211SOL     OW16531   4.693   2.009   4.409
 5211SOL    HW116532   4.616   1.947   4.391
 5211SOL    HW216533   4.771   1.982   4.353
 5212SOL     OW16534   1.404   2.265   0.892
 5212SOL    HW116535   1.460   2.343   0.918
 5212SOL    HW216536   1.454   2.180   0.910
 5213SOL     OW16537   4.168   3.838   1.851
 5213SOL    HW116538   4.256   3.824   1.805
 5213SOL    HW216539   4.165   3.931   1.887
 5214SOL     OW16540   5.620   4.389   6.423
 5214SOL    HW116541   5.586   4.297   6.441
 5214SOL    HW216542   5.680   4.388   6.343
 5215SOL     OW16543   0.168   3.191   4.809
 5215SOL    HW116544   0.167   3.184   4.710
 5215SOL    HW216545   0.165   3.287   4.836
 5216SOL     OW16546   5.476   5.439   1.040
 5216SOL    HW116547   5.465   5.498   0.959
 5216SOL    HW216548   5.573   5.414   1.049
 5217SOL     OW16549   3.680   5.682   4.156
 5217SOL    HW116550   3.778   5.695   4.171
 5217SOL    HW216551   3.631   5.690   4.243
 5218SOL     OW16552   0.743   1.309   0.648
 5218SOL    HW116553   0.705   1.222   0.618
 5218SOL    HW216554   0.669   1.374   0.663
 5219SOL     OW16555   3.090   1.674   4.694
 5219SOL    HW116556   3.041   1.761   4.701
 5219SOL    HW216557   3.142   1.673   4.608
 5220SOL     OW16558   2.244   5.540   3.463
 5220SOL    HW116559   2.149   5.537   3.434
 5220SOL    HW216560   2.249   5.577   3.557
 5221SOL     OW16561   6.831   0.469   1.513
 5221SOL    HW116562   6.921   0.428   1.501
 5221SOL    HW216563   6.820   0.543   1.446
 5222SOL     OW16564   4.705   4.695   1.722
 5222SOL    HW116565   4.614   4.707   1.682
 5222SOL    HW216566   4.698   4.644   1.807
 5223SOL     OW16567   0.168   2.946   0.638
 5223SOL    HW116568   0.218   3.009   0.579
 5223SOL    HW216569   0.086   2.991   0.673
 5224SOL     OW16570   0.805   1.880   4.871
 5224SOL    HW116571   0.856   1.950   4.822
 5224SOL    HW216572   0.707   1.895   4.858
 5225SOL     OW16573   6.204   1.073   4.567
 5225SOL    HW116574   6.181   1.170   4.568
 5225SOL    HW216575   6.256   1.051   4.650
 5226SOL     OW16576   0.368   5.856   3.394
 5226SOL    HW116577   0.357   5.939   3.449
 5226SOL    HW216578   0.465   5.833   3.388
 5227SOL     OW16579   6.863   3.743   5.973
 5227SOL    HW116580   6.774   3.697   5.966
 5227SOL    HW216581   6.900   3.729   6.065
 5228SOL     OW16582   0.892   2.882   6.618
 5228SOL    HW116583   0.934   2.792   6.605
 5228SOL    HW216584   0.963   2.949   6.642
 5229SOL     OW16585   3.610   6.263   6.602
 5229SOL    HW116586   3.579   6.344   6.553
 5229SOL    HW216587   3.662   6.204   6.540
 5230SOL     OW16588   6.743   6.844   2.234
 5230SOL    HW116589   6.708   6.887   2.317
 5230SOL    HW216590   6.706   6.751   2.227
 5231SOL     OW16591   5.585   1.512   3.125
 5231SOL    HW116592   5.518   1.584   3.137
 5231SOL    HW216593   5.655   1.542   3.060
 5232SOL     OW16594   1.768   3.957   6.211
 5232SOL    HW116595   1.867   3.969   6.215
 5232SOL    HW216596   1.723   4.042   6.237
 5233SOL     OW16597   3.172   1.365   2.568
 5233SOL    HW116598   3.095   1.326   2.518
 5233SOL    HW216599   3.180   1.463   2.546
 5234SOL     OW16600   1.892   3.028   0.600
 5234SOL    HW116601   1.970   2.969   0.622
 5234SOL    HW216602   1.910   3.075   0.514
 5235SOL     OW16603   2.064   1.934   0.618
 5235SOL    HW116604   2.067   1.891   0.528
 5235SOL    HW216605   2.147   1.912   0.669
 5236SOL     OW16606   3.329   4.899   2.022
 5236SOL    HW116607   3.242   4.870   1.982
 5236SOL    HW216608   3.404   4.846   1.980
 5237SOL     OW16609   1.685   1.872   4.481
 5237SOL    HW116610   1.636   1.809   4.542
 5237SOL    HW216611   1.716   1.951   4.533
 5238SOL     OW16612   1.248   4.849   3.236
 5238SOL    HW116613   1.194   4.928   3.207
 5238SOL    HW216614   1.345   4.870   3.232
 5239SOL     OW16615   3.399   4.081   1.158
 5239SOL    HW116616   3.394   3.998   1.213
 5239SOL    HW216617   3.435   4.059   1.067
 5240SOL     OW16618   2.764   2.852   5.856
 5240SOL    HW116619   2.704   2.772   5.853
 5240SOL    HW216620   2.799   2.863   5.949
 5241SOL     OW16621   1.583   6.032   2.245
 5241SOL    HW116622   1.646   6.016   2.169
 5241SOL    HW216623   1.609   5.975   2.322
 5242SOL     OW16624   4.776   0.939   1.522
 5242SOL    HW116625   4.755   0.922   1.425
 5242SOL    HW216626   4.699   0.910   1.578
 5243SOL     OW16627   2.214   6.430   1.689
 5243SOL    HW116628   2.243   6.498   1.756
 5243SOL    HW216629   2.175   6.477   1.610
 5244SOL     OW16630   5.164   3.221   0.483
 5244SOL    HW116631   5.243   3.163   0.461
 5244SOL    HW216632   5.193   3.296   0.542
 5245SOL     OW16633   3.915   4.527   0.304
 5245SOL    HW116634   3.848   4.470   0.257
 5245SOL    HW216635   3.961   4.587   0.238
 5246SOL     OW16636   6.746   2.650   1.713
 5246SOL    HW116637   6.778   2.693   1.629
 5246SOL    HW216638   6.772   2.706   1.791
 5247SOL     OW16639   4.025   1.433   5.324
 5247SOL    HW116640   4.115   1.434   5.281
 5247SOL    HW216641   4.026   1.491   5.405
 5248SOL     OW16642   6.906   1.980   2.958
 5248SOL    HW116643   6.917   1.933   3.046
 5248SOL    HW216644   6.996   2.003   2.921
 5249SOL     OW16645   0.977   5.006   6.974
 5249SOL    HW116646   0.896   4.968   7.019
 5249SOL    HW216647   1.051   4.939   6.976
 5250SOL     OW16648   1.866   5.345   0.523
 5250SOL    HW116649   1.804   5.276   0.485
 5250SOL    HW216650   1.946   5.299   0.561
 5251SOL     OW16651   1.012   4.686   1.094
 5251SOL    HW116652   1.053   4.597   1.114
 5251SOL    HW216653   1.011   4.741   1.177
 5252SOL     OW16654   3.090   6.588   2.405
 5252SOL    HW116655   3.064   6.534   2.325
 5252SOL    HW216656   3.122   6.678   2.375
 5253SOL     OW16657   5.603   4.231   4.679
 5253SOL    HW116658   5.608   4.329   4.659
 5253SOL    HW216659   5.560   4.217   4.768
 5254SOL     OW16660   5.687   0.312   3.172
 5254SOL    HW116661   5.629   0.238   3.205
 5254SOL    HW216662   5.637   0.366   3.104
 5255SOL     OW16663   5.010   2.100   4.474
 5255SOL    HW116664   5.049   2.027   4.530
 5255SOL    HW216665   4.996   2.182   4.530
 5256SOL     OW16666   4.866   1.000   2.863
 5256SOL    HW116667   4.913   1.077   2.906
 5256SOL    HW216668   4.927   0.920   2.863
 5257SOL     OW16669   4.490   0.370   0.126
 5257SOL    HW116670   4.424   0.298   0.101
 5257SOL    HW216671   4.580   0.346   0.090
 5258SOL     OW16672   5.803   1.999   2.978
 5258SOL    HW116673   5.732   2.010   3.047
 5258SOL    HW216674   5.778   2.049   2.895
 5259SOL     OW16675   5.026   5.634   2.815
 5259SOL    HW116676   5.013   5.535   2.808
 5259SOL    HW216677   5.020   5.662   2.911
 5260SOL     OW16678   3.260   5.487   0.118
 5260SOL    HW116679   3.294   5.396   0.095
 5260SOL    HW216680   3.179   5.508   0.064
 5261SOL     OW16681   0.346   5.036   0.931
 5261SOL    HW116682   0.314   5.124   0.967
 5261SOL    HW216683   0.290   5.011   0.852
 5262SOL     OW16684   2.603   0.523   2.866
 5262SOL    HW116685   2.587   0.503   2.962
 5262SOL    HW216686   2.693   0.564   2.854
 5263SOL     OW16687   1.808   1.151   3.054
 5263SOL    HW116688   1.784   1.097   2.973
 5263SOL    HW216689   1.907   1.164   3.058
 5264SOL     OW16690   0.005   2.171   1.912
 5264SOL    HW116691   0.043   2.081   1.889
 5264SOL    HW216692   7.016   2.176   2.010
 5265SOL     OW16693   5.667   2.721   4.499
 5265SOL    HW116694   5.668   2.643   4.562
 5265SOL    HW216695   5.579   2.770   4.508
 5266SOL     OW16696   2.391   6.461   0.797
 5266SOL    HW116697   2.313   6.456   0.735
 5266SOL    HW216698   2.381   6.538   0.859
 5267SOL     OW16699   4.359   2.251   4.643
 5267SOL    HW116700   4.367   2.267   4.742
 5267SOL    HW216701   4.328   2.335   4.598
 5268SOL     OW16702   5.368   0.612   6.918
 5268SOL    HW116703   5.365   0.598   7.017
 5268SOL    HW216704   5.449   0.665   6.894
 5269SOL     OW16705   0.554   6.873   2.270
 5269SOL    HW116706   0.585   6.896   2.178
 5269SOL    HW216707   0.546   6.773   2.278
 5270SOL     OW16708   5.685   1.711   0.373
 5270SOL    HW116709   5.601   1.715   0.427
 5270SOL    HW216710   5.734   1.626   0.393
 5271SOL     OW16711   6.490   5.328   4.954
 5271SOL    HW116712   6.493   5.246   4.897
 5271SOL    HW216713   6.578   5.377   4.947
 5272SOL     OW16714   4.225   6.241   1.074
 5272SOL    HW116715   4.161   6.293   1.130
 5272SOL    HW216716   4.175   6.169   1.025
 5273SOL     OW16717   1.123   3.125   2.711
 5273SOL    HW116718   1.203   3.075   2.745
 5273SOL    HW216719   1.152   3.191   2.641
 5274SOL     OW16720   4.643   6.714   2.636
 5274SOL    HW116721   4.670   6.640   2.574
 5274SOL    HW216722   4.721   6.773   2.654
 5275SOL     OW16723   2.615   0.561   0.822
 5275SOL    HW116724   2.697   0.618   0.827
 5275SOL    HW216725   2.563   0.570   0.907
 5276SOL     OW16726   2.376   0.087   2.210
 5276SOL    HW116727   2.323   0.153   2.157
 5276SOL    HW216728   2.314   0.019   2.250
 5277SOL     OW16729   3.116   0.923   2.835
 5277SOL    HW116730   3.059   0.901   2.756
 5277SOL    HW216731   3.205   0.877   2.827
 5278SOL     OW16732   4.400   4.843   3.081
 5278SOL    HW116733   4.317   4.813   3.032
 5278SOL    HW216734   4.375   4.871   3.173
 5279SOL     OW16735   2.725   5.533   0.913
 5279SOL    HW116736   2.795   5.542   0.842
 5279SOL    HW216737   2.641   5.495   0.872
 5280SOL     OW16738   2.716   6.393   4.970
 5280SOL    HW116739   2.665   6.470   4.931
 5280SOL    HW216740   2.691   6.382   5.066
 5281SOL     OW16741   6.977   1.643   2.762
 5281SOL    HW116742   6.906   1.711   2.781
 5281SOL    HW216743   6.985   1.580   2.840
 5282SOL     OW16744   2.252   1.847   3.710
 5282SOL    HW116745   2.305   1.809   3.634
 5282SOL    HW216746   2.192   1.919   3.675
 5283SOL     OW16747   5.426   5.575   0.820
 5283SOL    HW116748   5.481   5.579   0.737
 5283SOL    HW216749   5.414   5.667   0.857
 5284SOL     OW16750   5.690   4.595   2.932
 5284SOL    HW116751   5.788   4.607   2.915
 5284SOL    HW216752   5.671   4.609   3.029
 5285SOL     OW16753   3.178   4.899   3.850
 5285SOL    HW116754   3.144   4.837   3.920
 5285SOL    HW216755   3.269   4.932   3.876
 5286SOL     OW16756   2.256   4.322   1.021
 5286SOL    HW116757   2.218   4.394   0.964
 5286SOL    HW216758   2.198   4.309   1.102
 5287SOL     OW16759   2.540   1.256   0.588
 5287SOL    HW116760   2.552   1.351   0.618
 5287SOL    HW216761   2.444   1.241   0.565
 5288SOL     OW16762   3.515   0.146   1.297
 5288SOL    HW116763   3.567   0.116   1.377
 5288SOL    HW216764   3.527   0.245   1.284
 5289SOL     OW16765   0.797   5.306   0.511
 5289SOL    HW116766   0.730   5.254   0.458
 5289SOL    HW216767   0.759   5.329   0.600
 5290SOL     OW16768   3.801   5.944   6.752
 5290SOL    HW116769   3.865   5.986   6.817
 5290SOL    HW216770   3.849   5.876   6.697
 5291SOL     OW16771   1.577   4.852   5.550
 5291SOL    HW116772   1.598   4.781   5.483
 5291SOL    HW216773   1.501   4.907   5.516
 5292SOL     OW16774   5.147   2.926   6.764
 5292SOL    HW116775   5.109   3.012   6.798
 5292SOL    HW216776   5.150   2.860   6.839
 5293SOL     OW16777   0.776   0.928   4.368
 5293SOL    HW116778   0.800   0.834   4.389
 5293SOL    HW216779   0.738   0.933   4.276
 5294SOL     OW16780   5.606   2.911   6.175
 5294SOL    HW116781   5.528   2.947   6.226
 5294SOL    HW216782   5.597   2.812   6.165
 5295SOL     OW16783   5.324   1.123   3.056
 5295SOL    HW116784   5.338   1.194   2.987
 5295SOL    HW216785   5.344   1.162   3.147
 5296SOL     OW16786   1.811   4.283   0.460
 5296SOL    HW116787   1.850   4.321   0.376
 5296SOL    HW216788   1.880   4.283   0.532
 5297SOL     OW16789   2.200   1.441   1.131
 5297SOL    HW116790   2.167   1.456   1.224
 5297SOL    HW216791   2.161   1.356   1.095
 5298SOL     OW16792   6.373   4.729   1.971
 5298SOL    HW116793   6.279   4.734   2.004
 5298SOL    HW216794   6.412   4.640   1.992
 5299SOL     OW16795   2.793   0.417   1.609
 5299SOL    HW116796   2.777   0.490   1.543
 5299SOL    HW216797   2.884   0.378   1.595
 5300SOL     OW16798   0.178   6.343   3.797
 5300SOL    HW116799   0.121   6.344   3.715
 5300SOL    HW216800   0.159   6.424   3.852
 5301SOL     OW16801   4.211   1.721   6.813
 5301SOL    HW116802   4.147   1.644   6.808
 5301SOL    HW216803   4.296   1.696   6.767
 5302SOL     OW16804   6.763   4.526   3.044
 5302SOL    HW116805   6.678   4.552   3.000
 5302SOL    HW216806   6.836   4.520   2.976
 5303SOL     OW16807   6.954   4.876   3.544
 5303SOL    HW116808   7.010   4.865   3.626
 5303SOL    HW216809   6.866   4.917   3.569
 5304SOL     OW16810   4.951   1.770   5.841
 5304SOL    HW116811   5.009   1.720   5.906
 5304SOL    HW216812   4.872   1.808   5.889
 5305SOL     OW16813   2.216   0.613   3.908
 5305SOL    HW116814   2.240   0.682   3.839
 5305SOL    HW216815   2.246   0.645   3.998
 5306SOL     OW16816   2.666   6.838   5.966
 5306SOL    HW116817   2.616   6.758   5.933
 5306SOL    HW216818   2.605   6.895   6.021
 5307SOL     OW16819   4.448   6.674   6.187
 5307SOL    HW116820   4.348   6.669   6.186
 5307SOL    HW216821   4.479   6.733   6.113
 5308SOL     OW16822   6.807   0.713   3.338
 5308SOL    HW116823   6.898   0.678   3.317
 5308SOL    HW216824   6.815   0.787   3.405
 5309SOL     OW16825   3.802   4.026   4.058
 5309SOL    HW116826   3.863   4.050   3.982
 5309SOL    HW216827   3.717   4.077   4.049
 5310SOL     OW16828   5.449   2.425   1.359
 5310SOL    HW116829   5.469   2.443   1.455
 5310SOL    HW216830   5.514   2.476   1.302
 5311SOL     OW16831   2.286   5.238   6.963
 5311SOL    HW116832   2.214   5.280   7.020
 5311SOL    HW216833   2.352   5.309   6.937
 5312SOL     OW16834   1.116   4.327   2.955
 5312SOL    HW116835   1.100   4.384   3.036
 5312SOL    HW216836   1.179   4.253   2.977
 5313SOL     OW16837   1.194   5.872   6.408
 5313SOL    HW116838   1.114   5.818   6.434
 5313SOL    HW216839   1.275   5.814   6.407
 5314SOL     OW16840   4.224   5.411   6.712
 5314SOL    HW116841   4.257   5.379   6.623
 5314SOL    HW216842   4.126   5.394   6.720
 5315SOL     OW16843   5.924   3.764   1.640
 5315SOL    HW116844   5.827   3.785   1.656
 5315SOL    HW216845   5.963   3.724   1.723
 5316SOL     OW16846   0.002   5.010   4.628
 5316SOL    HW116847   0.044   4.934   4.578
 5316SOL    HW216848   6.932   4.994   4.635
 5317SOL     OW16849   5.237   0.426   2.240
 5317SOL    HW116850   5.264   0.509   2.289
 5317SOL    HW216851   5.137   0.418   2.242
 5318SOL     OW16852   6.762   2.430   4.687
 5318SOL    HW116853   6.735   2.466   4.776
 5318SOL    HW216854   6.680   2.407   4.634
 5319SOL     OW16855   5.421   0.104   0.208
 5319SOL    HW116856   5.354   0.142   0.272
 5319SOL    HW216857   5.484   0.176   0.179
 5320SOL     OW16858   5.407   3.630   6.700
 5320SOL    HW116859   5.308   3.631   6.718
 5320SOL    HW216860   5.442   3.723   6.698
 5321SOL     OW16861   1.906   5.570   5.518
 5321SOL    HW116862   1.904   5.516   5.434
 5321SOL    HW216863   1.899   5.508   5.597
 5322SOL     OW16864   3.861   5.658   6.289
 5322SOL    HW116865   3.934   5.641   6.354
 5322SOL    HW216866   3.789   5.713   6.332
 5323SOL     OW16867   3.955   1.658   0.443
 5323SOL    HW116868   3.915   1.748   0.458
 5323SOL    HW216869   4.050   1.667   0.414
 5324SOL     OW16870   4.230   2.966   1.518
 5324SOL    HW116871   4.216   2.967   1.617
 5324SOL    HW216872   4.208   3.057   1.481
 5325SOL     OW16873   5.235   6.393   1.873
 5325SOL    HW116874   5.288   6.384   1.788
 5325SOL    HW216875   5.257   6.316   1.933
 5326SOL     OW16876   6.630   5.778   2.111
 5326SOL    HW116877   6.638   5.835   2.029
 5326SOL    HW216878   6.536   5.780   2.145
 5327SOL     OW16879   6.666   6.655   4.200
 5327SOL    HW116880   6.634   6.606   4.118
 5327SOL    HW216881   6.711   6.740   4.173
 5328SOL     OW16882   3.789   3.917   0.119
 5328SOL    HW116883   3.834   3.879   0.038
 5328SOL    HW216884   3.851   3.979   0.166
 5329SOL     OW16885   0.768   4.835   0.991
 5329SOL    HW116886   0.697   4.847   1.061
 5329SOL    HW216887   0.820   4.752   1.010
 5330SOL     OW16888   4.010   4.095   1.403
 5330SOL    HW116889   4.027   4.004   1.365
 5330SOL    HW216890   3.999   4.087   1.502
 5331SOL     OW16891   4.038   2.246   0.393
 5331SOL    HW116892   4.070   2.284   0.480
 5331SOL    HW216893   4.107   2.262   0.323
 5332SOL     OW16894   6.026   4.769   0.338
 5332SOL    HW116895   6.062   4.859   0.315
 5332SOL    HW216896   6.024   4.757   0.437
 5333SOL     OW16897   1.450   1.006   3.687
 5333SOL    HW116898   1.394   0.939   3.737
 5333SOL    HW216899   1.486   1.073   3.752
 5334SOL     OW16900   4.491   4.485   3.163
 5334SOL    HW116901   4.471   4.515   3.070
 5334SOL    HW216902   4.538   4.396   3.160
 5335SOL     OW16903   0.246   4.830   1.137
 5335SOL    HW116904   0.322   4.781   1.180
 5335SOL    HW216905   0.283   4.891   1.065
 5336SOL     OW16906   1.687   2.273   4.554
 5336SOL    HW116907   1.648   2.199   4.609
 5336SOL    HW216908   1.783   2.286   4.579
 5337SOL     OW16909   6.834   4.463   1.230
 5337SOL    HW116910   6.781   4.460   1.316
 5337SOL    HW216911   6.881   4.551   1.224
 5338SOL     OW16912   6.222   3.312   0.135
 5338SOL    HW116913   6.282   3.312   0.054
 5338SOL    HW216914   6.217   3.405   0.173
 5339SOL     OW16915   6.207   2.403   2.807
 5339SOL    HW116916   6.187   2.329   2.742
 5339SOL    HW216917   6.306   2.415   2.814
 5340SOL     OW16918   5.605   2.951   2.747
 5340SOL    HW116919   5.582   2.876   2.685
 5340SOL    HW216920   5.655   3.022   2.697
 5341SOL     OW16921   4.659   4.973   3.523
 5341SOL    HW116922   4.677   4.971   3.621
 5341SOL    HW216923   4.648   5.067   3.493
 5342SOL     OW16924   5.830   0.307   5.190
 5342SOL    HW116925   5.811   0.210   5.173
 5342SOL    HW216926   5.765   0.364   5.141
 5343SOL     OW16927   3.955   3.673   5.493
 5343SOL    HW116928   3.994   3.742   5.554
 5343SOL    HW216929   4.006   3.672   5.407
 5344SOL     OW16930   0.403   1.823   6.399
 5344SOL    HW116931   0.366   1.864   6.482
 5344SOL    HW216932   0.347   1.849   6.321
 5345SOL     OW16933   5.321   1.153   6.963
 5345SOL    HW116934   5.413   1.141   7.000
 5345SOL    HW216935   5.315   1.243   6.920
 5346SOL     OW16936   2.849   5.284   3.777
 5346SOL    HW116937   2.917   5.296   3.704
 5346SOL    HW216938   2.795   5.202   3.759
 5347SOL     OW16939   6.404   2.022   4.056
 5347SOL    HW116940   6.423   2.030   3.958
 5347SOL    HW216941   6.465   1.954   4.097
 5348SOL     OW16942   5.371   2.423   4.069
 5348SOL    HW116943   5.446   2.434   4.003
 5348SOL    HW216944   5.286   2.453   4.027
 5349SOL     OW16945   0.878   2.994   1.797
 5349SOL    HW116946   0.860   2.993   1.699
 5349SOL    HW216947   0.910   2.904   1.826
 5350SOL     OW16948   2.565   6.838   5.649
 5350SOL    HW116949   2.541   6.802   5.739
 5350SOL    HW216950   2.627   6.915   5.659
 5351SOL     OW16951   0.424   5.410   1.540
 5351SOL    HW116952   0.447   5.320   1.501
 5351SOL    HW216953   0.480   5.426   1.621
 5352SOL     OW16954   1.776   4.053   4.006
 5352SOL    HW116955   1.800   4.016   4.096
 5352SOL    HW216956   1.811   4.146   3.998
 5353SOL     OW16957   4.775   5.699   3.225
 5353SOL    HW116958   4.811   5.614   3.264
 5353SOL    HW216959   4.736   5.756   3.297
 5354SOL     OW16960   4.286   5.525   0.668
 5354SOL    HW116961   4.190   5.497   0.666
 5354SOL    HW216962   4.295   5.612   0.715
 5355SOL     OW16963   4.973   4.964   5.119
 5355SOL    HW116964   5.066   4.988   5.089
 5355SOL    HW216965   4.975   4.942   5.217
 5356SOL     OW16966   0.540   4.930   1.129
 5356SOL    HW116967   0.483   4.985   1.069
 5356SOL    HW216968   0.484   4.891   1.202
 5357SOL     OW16969   4.989   4.920   2.057
 5357SOL    HW116970   5.006   4.928   2.156
 5357SOL    HW216971   4.956   5.008   2.023
 5358SOL     OW16972   4.471   1.359   0.319
 5358SOL    HW116973   4.384   1.326   0.281
 5358SOL    HW216974   4.539   1.364   0.246
 5359SOL     OW16975   1.742   1.963   6.675
 5359SOL    HW116976   1.734   2.059   6.649
 5359SOL    HW216977   1.808   1.954   6.750
 5360SOL     OW16978   5.588   4.597   3.526
 5360SOL    HW116979   5.488   4.597   3.535
 5360SOL    HW216980   5.624   4.506   3.544
 5361SOL     OW16981   3.317   5.863   2.753
 5361SOL    HW116982   3.302   5.770   2.720
 5361SOL    HW216983   3.378   5.911   2.690
 5362SOL     OW16984   5.593   0.127   1.870
 5362SOL    HW116985   5.549   0.101   1.784
 5362SOL    HW216986   5.576   0.224   1.888
 5363SOL     OW16987   5.512   5.198   4.980
 5363SOL    HW116988   5.521   5.146   5.065
 5363SOL    HW216989   5.431   5.168   4.930
 5364SOL     OW16990   4.874   0.914   2.361
 5364SOL    HW116991   4.911   0.833   2.316
 5364SOL    HW216992   4.856   0.985   2.294
 5365SOL     OW16993   3.222   3.308   4.114
 5365SOL    HW116994   3.304   3.310   4.057
 5365SOL    HW216995   3.237   3.248   4.193
 5366SOL     OW16996   6.500   6.528   1.867
 5366SOL    HW116997   6.417   6.515   1.813
 5366SOL    HW216998   6.574   6.558   1.807
 5367SOL     OW16999   7.000   6.363   1.550
 5367SOL    HW117000   6.916   6.414   1.532
 5367SOL    HW217001   0.007   6.388   1.640
 5368SOL     OW17002   6.721   5.674   3.757
 5368SOL    HW117003   6.783   5.673   3.836
 5368SOL    HW217004   6.628   5.656   3.787
 5369SOL     OW17005   2.842   5.725   1.903
 5369SOL    HW117006   2.934   5.688   1.887
 5369SOL    HW217007   2.810   5.771   1.821
 5370SOL     OW17008   3.004   3.789   1.568
 5370SOL    HW117009   3.083   3.770   1.510
 5370SOL    HW217010   2.949   3.707   1.579
 5371SOL     OW17011   6.619   5.185   5.477
 5371SOL    HW117012   6.709   5.148   5.454
 5371SOL    HW217013   6.568   5.201   5.392
 5372SOL     OW17014   0.786   0.157   2.293
 5372SOL    HW117015   0.732   0.204   2.363
 5372SOL    HW217016   0.845   0.223   2.247
 5373SOL     OW17017   3.695   0.343   6.078
 5373SOL    HW117018   3.720   0.378   6.169
 5373SOL    HW217019   3.637   0.262   6.089
 5374SOL     OW17020   3.019   5.191   1.422
 5374SOL    HW117021   3.055   5.104   1.387
 5374SOL    HW217022   2.979   5.243   1.346
 5375SOL     OW17023   0.476   5.967   4.779
 5375SOL    HW117024   0.523   5.922   4.704
 5375SOL    HW217025   0.458   5.901   4.852
 5376SOL     OW17026   0.819   1.684   6.963
 5376SOL    HW117027   0.809   1.589   6.994
 5376SOL    HW217028   0.805   1.746   0.011
 5377SOL     OW17029   2.280   0.457   3.468
 5377SOL    HW117030   2.316   0.518   3.398
 5377SOL    HW217031   2.251   0.371   3.426
 5378SOL     OW17032   5.565   0.614   1.772
 5378SOL    HW117033   5.497   0.629   1.700
 5378SOL    HW217034   5.549   0.678   1.847
 5379SOL     OW17035   0.926   3.141   6.200
 5379SOL    HW117036   0.843   3.150   6.254
 5379SOL    HW217037   0.950   3.229   6.159
 5380SOL     OW17038   4.955   0.180   1.363
 5380SOL    HW117039   5.031   0.130   1.405
 5380SOL    HW217040   4.871   0.127   1.371
 5381SOL     OW17041   4.578   6.290   2.798
 5381SOL    HW117042   4.553   6.197   2.771
 5381SOL    HW217043   4.649   6.325   2.737
 5382SOL     OW17044   4.034   1.819   1.851
 5382SOL    HW117045   3.955   1.877   1.869
 5382SOL    HW217046   4.044   1.752   1.924
 5383SOL     OW17047   2.276   2.852   4.482
 5383SOL    HW117048   2.213   2.893   4.549
 5383SOL    HW217049   2.302   2.761   4.514
 5384SOL     OW17050   4.535   6.102   5.503
 5384SOL    HW117051   4.602   6.111   5.577
 5384SOL    HW217052   4.548   6.014   5.457
 5385SOL     OW17053   5.428   2.514   5.479
 5385SOL    HW117054   5.350   2.461   5.515
 5385SOL    HW217055   5.506   2.453   5.467
 5386SOL     OW17056   0.094   3.725   4.009
 5386SOL    HW117057   0.146   3.653   4.056
 5386SOL    HW217058   0.155   3.780   3.953
 5387SOL     OW17059   2.058   1.525   2.633
 5387SOL    HW117060   2.156   1.517   2.613
 5387SOL    HW217061   2.040   1.496   2.727
 5388SOL     OW17062   0.648   6.822   2.560
 5388SOL    HW117063   0.737   6.858   2.533
 5388SOL    HW217064   0.584   6.833   2.484
 5389SOL     OW17065   4.471   1.856   4.076
 5389SOL    HW117066   4.475   1.831   4.173
 5389SOL    HW217067   4.384   1.902   4.057
 5390SOL     OW17068   6.739   3.155   3.555
 5390SOL    HW117069   6.659   3.107   3.591
 5390SOL    HW217070   6.711   3.240   3.511
 5391SOL     OW17071   2.230   2.631   0.363
 5391SOL    HW117072   2.262   2.542   0.330
 5391SOL    HW217073   2.161   2.618   0.434
 5392SOL     OW17074   5.399   1.791   3.492
 5392SOL    HW117075   5.336   1.823   3.422
 5392SOL    HW217076   5.483   1.758   3.449
 5393SOL     OW17077   3.908   1.892   5.470
 5393SOL    HW117078   3.950   1.970   5.423
 5393SOL    HW217079   3.964   1.867   5.549
 5394SOL     OW17080   2.008   0.396   1.082
 5394SOL    HW117081   1.999   0.351   0.993
 5394SOL    HW217082   2.049   0.486   1.070
 5395SOL     OW17083   5.431   2.160   1.321
 5395SOL    HW117084   5.443   2.256   1.343
 5395SOL    HW217085   5.356   2.149   1.256
 5396SOL     OW17086   5.892   5.405   3.369
 5396SOL    HW117087   5.985   5.375   3.393
 5396SOL    HW217088   5.898   5.487   3.311
 5397SOL     OW17089   6.278   1.195   3.079
 5397SOL    HW117090   6.316   1.234   2.995
 5397SOL    HW217091   6.189   1.238   3.098
 5398SOL     OW17092   4.929   1.756   3.365
 5398SOL    HW117093   4.857   1.804   3.314
 5398SOL    HW217094   4.898   1.664   3.387
 5399SOL     OW17095   2.358   0.214   5.648
 5399SOL    HW117096   2.451   0.250   5.644
 5399SOL    HW217097   2.344   0.167   5.735
 5400SOL     OW17098   3.681   3.276   1.498
 5400SOL    HW117099   3.706   3.316   1.586
 5400SOL    HW217100   3.666   3.178   1.509
 5401SOL     OW17101   5.913   4.475   1.671
 5401SOL    HW117102   5.895   4.524   1.585
 5401SOL    HW217103   6.002   4.503   1.707
 5402SOL     OW17104   1.784   6.963   1.070
 5402SOL    HW117105   1.827   0.013   1.113
 5402SOL    HW217106   1.802   6.965   0.972
 5403SOL     OW17107   5.164   3.571   0.347
 5403SOL    HW117108   5.118   3.647   0.391
 5403SOL    HW217109   5.143   3.486   0.396
 5404SOL     OW17110   6.251   1.095   1.322
 5404SOL    HW117111   6.281   1.189   1.332
 5404SOL    HW217112   6.151   1.091   1.320
 5405SOL     OW17113   5.047   5.809   0.017
 5405SOL    HW117114   5.124   5.745   0.014
 5405SOL    HW217115   4.967   5.769   7.002
 5406SOL     OW17116   2.916   0.292   4.039
 5406SOL    HW117117   2.942   0.288   4.136
 5406SOL    HW217118   2.999   0.292   3.983
 5407SOL     OW17119   1.889   0.508   1.759
 5407SOL    HW117120   1.966   0.570   1.746
 5407SOL    HW217121   1.882   0.446   1.680
 5408SOL     OW17122   2.572   2.424   4.357
 5408SOL    HW117123   2.588   2.328   4.334
 5408SOL    HW217124   2.636   2.452   4.428
 5409SOL     OW17125   1.388   2.618   1.250
 5409SOL    HW117126   1.299   2.573   1.243
 5409SOL    HW217127   1.386   2.705   1.203
 5410SOL     OW17128   0.828   2.455   1.024
 5410SOL    HW117129   0.871   2.377   0.977
 5410SOL    HW217130   0.735   2.430   1.050
 5411SOL     OW17131   3.857   5.030   6.703
 5411SOL    HW117132   3.866   5.070   6.612
 5411SOL    HW217133   3.807   4.944   6.696
 5412SOL     OW17134   0.240   2.304   5.876
 5412SOL    HW117135   0.158   2.351   5.842
 5412SOL    HW217136   0.216   2.252   5.958
 5413SOL     OW17137   6.714   6.831   4.486
 5413SOL    HW117138   6.792   6.892   4.468
 5413SOL    HW217139   6.722   6.750   4.428
 5414SOL     OW17140   6.326   3.982   5.297
 5414SOL    HW117141   6.393   4.045   5.337
 5414SOL    HW217142   6.240   3.988   5.349
 5415SOL     OW17143   3.412   0.491   0.536
 5415SOL    HW117144   3.436   0.585   0.562
 5415SOL    HW217145   3.496   0.436   0.530
 5416SOL     OW17146   3.472   5.186   5.732
 5416SOL    HW117147   3.442   5.199   5.826
 5416SOL    HW217148   3.450   5.093   5.702
 5417SOL     OW17149   4.233   6.345   3.754
 5417SOL    HW117150   4.250   6.255   3.713
 5417SOL    HW217151   4.230   6.415   3.682
 5418SOL     OW17152   6.448   3.911   4.785
 5418SOL    HW117153   6.384   3.975   4.742
 5418SOL    HW217154   6.542   3.939   4.763
 5419SOL     OW17155   4.256   0.111   6.361
 5419SOL    HW117156   4.235   0.034   6.300
 5419SOL    HW217157   4.193   0.186   6.341
 5420SOL     OW17158   1.111   0.911   1.657
 5420SOL    HW117159   1.050   0.917   1.737
 5420SOL    HW217160   1.072   0.846   1.592
 5421SOL     OW17161   3.584   5.421   2.223
 5421SOL    HW117162   3.559   5.408   2.319
 5421SOL    HW217163   3.571   5.335   2.174
 5422SOL     OW17164   2.311   6.559   3.961
 5422SOL    HW117165   2.336   6.655   3.967
 5422SOL    HW217166   2.347   6.510   4.040
 5423SOL     OW17167   6.379   6.297   2.538
 5423SOL    HW117168   6.285   6.275   2.565
 5423SOL    HW217169   6.438   6.219   2.558
 5424SOL     OW17170   4.262   4.268   5.521
 5424SOL    HW117171   4.197   4.249   5.448
 5424SOL    HW217172   4.343   4.312   5.483
 5425SOL     OW17173   0.276   3.571   6.019
 5425SOL    HW117174   0.261   3.513   6.098
 5425SOL    HW217175   0.190   3.614   5.992
 5426SOL     OW17176   5.657   5.213   2.632
 5426SOL    HW117177   5.601   5.130   2.637
 5426SOL    HW217178   5.645   5.257   2.544
 5427SOL     OW17179   4.845   2.543   6.401
 5427SOL    HW117180   4.839   2.490   6.316
 5427SOL    HW217181   4.859   2.640   6.378
 5428SOL     OW17182   6.973   5.613   3.381
 5428SOL    HW117183   6.959   5.579   3.288
 5428SOL    HW217184   0.040   5.601   3.406
 5429SOL     OW17185   2.920   0.140   3.626
 5429SOL    HW117186   2.871   0.081   3.690
 5429SOL    HW217187   3.018   0.131   3.640
 5430SOL     OW17188   2.724   3.710   6.330
 5430SOL    HW117189   2.745   3.613   6.334
 5430SOL    HW217190   2.668   3.736   6.408
 5431SOL     OW17191   3.458   5.225   6.012
 5431SOL    HW117192   3.429   5.177   6.095
 5431SOL    HW217193   3.542   5.277   6.030
 5432SOL     OW17194   5.353   5.194   0.597
 5432SOL    HW117195   5.257   5.185   0.625
 5432SOL    HW217196   5.410   5.205   0.678
 5433SOL     OW17197   1.569   6.861   1.141
 5433SOL    HW117198   1.661   6.888   1.111
 5433SOL    HW217199   1.501   6.900   1.079
 5434SOL     OW17200   4.969   0.788   4.510
 5434SOL    HW117201   5.018   0.825   4.589
 5434SOL    HW217202   5.024   0.717   4.466
 5435SOL     OW17203   6.687   3.886   0.984
 5435SOL    HW117204   6.660   3.798   1.024
 5435SOL    HW217205   6.743   3.870   0.903
 5436SOL     OW17206   1.228   4.598   2.708
 5436SOL    HW117207   1.263   4.566   2.620
 5436SOL    HW217208   1.155   4.664   2.693
 5437SOL     OW17209   3.847   5.859   0.642
 5437SOL    HW117210   3.805   5.943   0.677
 5437SOL    HW217211   3.881   5.874   0.550
 5438SOL     OW17212   4.781   4.587   2.921
 5438SOL    HW117213   4.682   4.602   2.918
 5438SOL    HW217214   4.808   4.525   2.847
 5439SOL     OW17215   1.273   4.594   1.706
 5439SOL    HW117216   1.198   4.560   1.650
 5439SOL    HW217217   1.355   4.605   1.650
 5440SOL     OW17218   5.817   6.083   3.668
 5440SOL    HW117219   5.783   5.989   3.666
 5440SOL    HW217220   5.878   6.098   3.590
 5441SOL     OW17221   4.474   2.221   3.917
 5441SOL    HW117222   4.375   2.218   3.908
 5441SOL    HW217223   4.513   2.131   3.897
 5442SOL     OW17224   5.007   0.040   4.805
 5442SOL    HW117225   5.037   0.134   4.818
 5442SOL    HW217226   5.087   7.010   4.791
 5443SOL     OW17227   4.575   6.975   4.609
 5443SOL    HW117228   4.540   6.887   4.643
 5443SOL    HW217229   4.577   6.975   4.509
 5444SOL     OW17230   6.938   0.861   4.490
 5444SOL    HW117231   6.853   0.892   4.449
 5444SOL    HW217232   6.935   0.761   4.501
 5445SOL     OW17233   5.231   5.529   5.209
 5445SOL    HW117234   5.210   5.567   5.299
 5445SOL    HW217235   5.154   5.543   5.148
 5446SOL     OW17236   1.047   4.480   6.025
 5446SOL    HW117237   1.002   4.391   6.017
 5446SOL    HW217238   1.145   4.467   6.040
 5447SOL     OW17239   1.170   1.573   0.435
 5447SOL    HW117240   1.206   1.480   0.438
 5447SOL    HW217241   1.104   1.582   0.361
 5448SOL     OW17242   4.553   5.565   2.963
 5448SOL    HW117243   4.604   5.633   3.015
 5448SOL    HW217244   4.501   5.508   3.027
 5449SOL     OW17245   2.996   1.867   2.149
 5449SOL    HW117246   2.928   1.867   2.076
 5449SOL    HW217247   3.021   1.961   2.172
 5450SOL     OW17248   3.835   5.738   1.477
 5450SOL    HW117249   3.929   5.772   1.482
 5450SOL    HW217250   3.824   5.683   1.394
 5451SOL     OW17251   1.069   0.367   3.169
 5451SOL    HW117252   1.093   0.270   3.157
 5451SOL    HW217253   1.146   0.417   3.206
 5452SOL     OW17254   2.065   4.780   1.930
 5452SOL    HW117255   2.100   4.851   1.868
 5452SOL    HW217256   2.084   4.690   1.891
 5453SOL     OW17257   5.779   4.277   3.077
 5453SOL    HW117258   5.709   4.283   3.148
 5453SOL    HW217259   5.836   4.359   3.078
 5454SOL     OW17260   5.897   5.061   3.721
 5454SOL    HW117261   5.956   5.129   3.764
 5454SOL    HW217262   5.852   5.006   3.791
 5455SOL     OW17263   0.242   1.709   2.945
 5455SOL    HW117264   0.266   1.637   2.881
 5455SOL    HW217265   0.324   1.743   2.991
 5456SOL     OW17266   5.442   0.950   6.714
 5456SOL    HW117267   5.480   0.916   6.628
 5456SOL    HW217268   5.474   1.044   6.729
 5457SOL     OW17269   6.202   2.482   0.395
 5457SOL    HW117270   6.288   2.441   0.367
 5457SOL    HW217271   6.153   2.419   0.455
 5458SOL     OW17272   6.438   4.672   0.651
 5458SOL    HW117273   6.383   4.591   0.635
 5458SOL    HW217274   6.533   4.645   0.667
 5459SOL     OW17275   2.146   4.607   5.545
 5459SOL    HW117276   2.193   4.521   5.523
 5459SOL    HW217277   2.213   4.681   5.549
 5460SOL     OW17278   2.015   0.119   0.088
 5460SOL    HW117279   1.946   0.118   0.160
 5460SOL    HW217280   1.986   0.180   0.015
 5461SOL     OW17281   6.856   1.334   6.592
 5461SOL    HW117282   6.915   1.385   6.529
 5461SOL    HW217283   6.832   1.246   6.552
 5462SOL     OW17284   5.717   5.570   6.515
 5462SOL    HW117285   5.626   5.556   6.476
 5462SOL    HW217286   5.709   5.603   6.609
 5463SOL     OW17287   0.060   2.729   0.510
 5463SOL    HW117288   0.011   2.803   0.464
 5463SOL    HW217289   0.130   2.767   0.571
 5464SOL     OW17290   6.753   6.409   5.250
 5464SOL    HW117291   6.804   6.324   5.265
 5464SOL    HW217292   6.726   6.415   5.154
 5465SOL     OW17293   6.808   6.627   3.715
 5465SOL    HW117294   6.823   6.555   3.647
 5465SOL    HW217295   6.886   6.689   3.716
 5466SOL     OW17296   5.666   2.920   5.486
 5466SOL    HW117297   5.618   2.923   5.574
 5466SOL    HW217298   5.621   2.853   5.427
 5467SOL     OW17299   5.523   3.727   3.545
 5467SOL    HW117300   5.533   3.640   3.499
 5467SOL    HW217301   5.487   3.795   3.481
 5468SOL     OW17302   0.033   1.277   2.405
 5468SOL    HW117303   6.976   1.270   2.456
 5468SOL    HW217304   0.017   1.321   2.317
 5469SOL     OW17305   2.097   1.144   5.294
 5469SOL    HW117306   2.140   1.214   5.237
 5469SOL    HW217307   2.149   1.132   5.378
 5470SOL     OW17308   3.807   5.320   4.178
 5470SOL    HW117309   3.871   5.266   4.233
 5470SOL    HW217310   3.723   5.334   4.229
 5471SOL     OW17311   4.828   6.954   2.601
 5471SOL    HW117312   4.777   0.007   2.627
 5471SOL    HW217313   4.846   6.954   2.503
 5472SOL     OW17314   2.902   1.231   6.109
 5472SOL    HW117315   2.980   1.174   6.084
 5472SOL    HW217316   2.921   1.277   6.195
 5473SOL     OW17317   2.437   4.372   1.477
 5473SOL    HW117318   2.445   4.278   1.445
 5473SOL    HW217319   2.422   4.373   1.576
 5474SOL     OW17320   0.626   5.507   3.379
 5474SOL    HW117321   0.632   5.411   3.351
 5474SOL    HW217322   0.564   5.515   3.457
 5475SOL     OW17323   0.088   1.837   6.628
 5475SOL    HW117324   0.040   1.842   6.715
 5475SOL    HW217325   0.175   1.886   6.634
 5476SOL     OW17326   2.538   6.255   6.189
 5476SOL    HW117327   2.551   6.240   6.287
 5476SOL    HW217328   2.440   6.265   6.170
 5477SOL     OW17329   2.027   5.622   4.415
 5477SOL    HW117330   2.120   5.589   4.395
 5477SOL    HW217331   1.999   5.687   4.345
 5478SOL     OW17332   5.483   4.805   6.490
 5478SOL    HW117333   5.574   4.845   6.496
 5478SOL    HW217334   5.446   4.817   6.398
 5479SOL     OW17335   4.265   1.982   4.655
 5479SOL    HW117336   4.220   1.978   4.744
 5479SOL    HW217337   4.303   2.073   4.640
 5480SOL     OW17338   6.258   4.637   5.029
 5480SOL    HW117339   6.169   4.679   5.010
 5480SOL    HW217340   6.263   4.548   4.983
 5481SOL     OW17341   4.502   1.161   6.321
 5481SOL    HW117342   4.490   1.252   6.363
 5481SOL    HW217343   4.596   1.130   6.337
 5482SOL     OW17344   3.986   3.453   1.727
 5482SOL    HW117345   3.997   3.441   1.628
 5482SOL    HW217346   4.011   3.369   1.774
 5483SOL     OW17347   6.939   3.400   6.030
 5483SOL    HW117348   7.013   3.336   6.049
 5483SOL    HW217349   6.906   3.440   6.115
 5484SOL     OW17350   6.979   6.323   4.294
 5484SOL    HW117351   6.902   6.313   4.358
 5484SOL    HW217352   6.948   6.303   4.201
 5485SOL     OW17353   3.944   6.847   4.871
 5485SOL    HW117354   4.008   6.821   4.943
 5485SOL    HW217355   3.879   6.773   4.856
 5486SOL     OW17356   0.886   0.543   3.382
 5486SOL    HW117357   0.860   0.526   3.287
 5486SOL    HW217358   0.912   0.639   3.393
 5487SOL     OW17359   6.268   4.588   0.330
 5487SOL    HW117360   6.262   4.527   0.409
 5487SOL    HW217361   6.191   4.652   0.330
 5488SOL     OW17362   5.174   2.211   0.089
 5488SOL    HW117363   5.238   2.145   0.127
 5488SOL    HW217364   5.097   2.222   0.151
 5489SOL     OW17365   1.676   4.537   2.459
 5489SOL    HW117366   1.720   4.591   2.388
 5489SOL    HW217367   1.718   4.557   2.548
 5490SOL     OW17368   3.409   1.063   0.029
 5490SOL    HW117369   3.467   1.106   0.098
 5490SOL    HW217370   3.466   1.012   6.994
 5491SOL     OW17371   1.814   4.818   0.470
 5491SOL    HW117372   1.852   4.785   0.384
 5491SOL    HW217373   1.873   4.890   0.507
 5492SOL     OW17374   0.803   2.142   6.936
 5492SOL    HW117375   0.803   2.242   6.930
 5492SOL    HW217376   0.737   2.106   6.870
 5493SOL     OW17377   3.749   3.283   5.724
 5493SOL    HW117378   3.736   3.236   5.811
 5493SOL    HW217379   3.674   3.260   5.662
 5494SOL     OW17380   6.629   3.438   1.784
 5494SOL    HW117381   6.565   3.361   1.790
 5494SOL    HW217382   6.691   3.437   1.863
 5495SOL     OW17383   3.839   4.018   1.822
 5495SOL    HW117384   3.893   4.072   1.758
 5495SOL    HW217385   3.803   3.937   1.776
 5496SOL     OW17386   3.748   6.219   1.854
 5496SOL    HW117387   3.775   6.263   1.768
 5496SOL    HW217388   3.708   6.288   1.915
 5497SOL     OW17389   0.483   1.250   3.000
 5497SOL    HW117390   0.428   1.210   3.074
 5497SOL    HW217391   0.424   1.302   2.940
 5498SOL     OW17392   4.757   1.188   5.994
 5498SOL    HW117393   4.809   1.224   5.917
 5498SOL    HW217394   4.689   1.123   5.961
 5499SOL     OW17395   6.835   1.187   3.583
 5499SOL    HW117396   6.912   1.195   3.520
 5499SOL    HW217397   6.793   1.096   3.574
 5500SOL     OW17398   2.676   5.196   0.892
 5500SOL    HW117399   2.763   5.245   0.902
 5500SOL    HW217400   2.664   5.167   0.797
 5501SOL     OW17401   2.589   6.904   2.219
 5501SOL    HW117402   2.657   6.963   2.262
 5501SOL    HW217403   2.500   6.949   2.221
 5502SOL     OW17404   5.975   4.344   5.591
 5502SOL    HW117405   5.912   4.281   5.636
 5502SOL    HW217406   5.957   4.437   5.622
 5503SOL     OW17407   1.061   4.808   3.655
 5503SOL    HW117408   0.972   4.851   3.666
 5503SOL    HW217409   1.049   4.714   3.623
 5504SOL     OW17410   3.603   1.101   5.118
 5504SOL    HW117411   3.660   1.041   5.175
 5504SOL    HW217412   3.508   1.096   5.149
 5505SOL     OW17413   2.462   5.864   5.158
 5505SOL    HW117414   2.385   5.809   5.191
 5505SOL    HW217415   2.540   5.804   5.140
 5506SOL     OW17416   6.576   0.475   4.742
 5506SOL    HW117417   6.633   0.489   4.823
 5506SOL    HW217418   6.527   0.560   4.721
 5507SOL     OW17419   2.193   6.771   3.173
 5507SOL    HW117420   2.124   6.779   3.102
 5507SOL    HW217421   2.195   6.677   3.207
 5508SOL     OW17422   2.317   0.716   6.299
 5508SOL    HW117423   2.399   0.762   6.332
 5508SOL    HW217424   2.310   0.726   6.200
 5509SOL     OW17425   5.690   6.096   0.287
 5509SOL    HW117426   5.725   6.153   0.361
 5509SOL    HW217427   5.591   6.083   0.298
 5510SOL     OW17428   4.555   0.053   6.445
 5510SOL    HW117429   4.468   0.072   6.401
 5510SOL    HW217430   4.622   0.122   6.418
 5511SOL     OW17431   0.574   0.633   2.495
 5511SOL    HW117432   0.671   0.655   2.512
 5511SOL    HW217433   0.520   0.663   2.574
 5512SOL     OW17434   6.615   2.017   0.508
 5512SOL    HW117435   6.558   1.953   0.454
 5512SOL    HW217436   6.675   2.067   0.447
 5513SOL     OW17437   4.442   4.666   4.647
 5513SOL    HW117438   4.506   4.637   4.717
 5513SOL    HW217439   4.358   4.698   4.690
 5514SOL     OW17440   5.995   4.910   3.029
 5514SOL    HW117441   6.042   4.937   3.113
 5514SOL    HW217442   5.901   4.947   3.030
 5515SOL     OW17443   6.783   2.858   1.905
 5515SOL    HW117444   6.747   2.901   1.988
 5515SOL    HW217445   6.772   2.921   1.828
 5516SOL     OW17446   1.623   2.732   0.017
 5516SOL    HW117447   1.650   2.642   0.051
 5516SOL    HW217448   1.675   2.803   0.064
 5517SOL     OW17449   3.161   2.326   1.444
 5517SOL    HW117450   3.154   2.226   1.451
 5517SOL    HW217451   3.258   2.351   1.435
 5518SOL     OW17452   5.168   5.057   6.418
 5518SOL    HW117453   5.253   5.043   6.367
 5518SOL    HW217454   5.188   5.109   6.502
 5519SOL     OW17455   5.239   3.838   3.025
 5519SOL    HW117456   5.256   3.779   3.104
 5519SOL    HW217457   5.246   3.785   2.941
 5520SOL     OW17458   1.629   4.340   2.689
 5520SOL    HW117459   1.550   4.386   2.729
 5520SOL    HW217460   1.638   4.366   2.593
 5521SOL     OW17461   4.955   6.298   1.843
 5521SOL    HW117462   5.052   6.316   1.828
 5521SOL    HW217463   4.945   6.228   1.914
 5522SOL     OW17464   2.585   3.297   1.595
 5522SOL    HW117465   2.597   3.204   1.629
 5522SOL    HW217466   2.609   3.300   1.497
 5523SOL     OW17467   3.507   6.682   3.178
 5523SOL    HW117468   3.444   6.724   3.242
 5523SOL    HW217469   3.461   6.666   3.091
 5524SOL     OW17470   0.415   5.802   4.972
 5524SOL    HW117471   0.505   5.779   5.010
 5524SOL    HW217472   0.376   5.722   4.927
 5525SOL     OW17473   6.756   5.005   0.020
 5525SOL    HW117474   6.713   5.000   0.111
 5525SOL    HW217475   6.834   5.066   0.024
 5526SOL     OW17476   6.362   3.499   3.873
 5526SOL    HW117477   6.459   3.518   3.858
 5526SOL    HW217478   6.309   3.580   3.850
 5527SOL     OW17479   0.684   2.716   1.849
 5527SOL    HW117480   0.644   2.799   1.811
 5527SOL    HW217481   0.682   2.643   1.781
 5528SOL     OW17482   6.770   2.774   5.164
 5528SOL    HW117483   6.865   2.804   5.165
 5528SOL    HW217484   6.764   2.681   5.200
 5529SOL     OW17485   2.478   0.521   4.805
 5529SOL    HW117486   2.533   0.581   4.747
 5529SOL    HW217487   2.388   0.562   4.818
 5530SOL     OW17488   0.071   2.627   1.176
 5530SOL    HW117489   0.029   2.559   1.116
 5530SOL    HW217490   0.072   2.593   1.270
 5531SOL     OW17491   4.154   3.382   4.733
 5531SOL    HW117492   4.112   3.473   4.738
 5531SOL    HW217493   4.145   3.337   4.822
 5532SOL     OW17494   1.609   0.889   0.491
 5532SOL    HW117495   1.686   0.919   0.434
 5532SOL    HW217496   1.524   0.895   0.438
 5533SOL     OW17497   2.786   0.797   3.267
 5533SOL    HW117498   2.875   0.836   3.291
 5533SOL    HW217499   2.793   0.747   3.181
 5534SOL     OW17500   1.085   3.075   6.736
 5534SOL    HW117501   1.061   3.054   6.831
 5534SOL    HW217502   1.162   3.018   6.707
 5535SOL     OW17503   6.640   3.147   2.951
 5535SOL    HW117504   6.657   3.049   2.936
 5535SOL    HW217505   6.611   3.161   3.046
 5536SOL     OW17506   2.281   0.654   4.157
 5536SOL    HW117507   2.305   0.750   4.140
 5536SOL    HW217508   2.207   0.650   4.225
 5537SOL     OW17509   3.628   0.183   4.608
 5537SOL    HW117510   3.707   0.242   4.590
 5537SOL    HW217511   3.641   0.137   4.695
 5538SOL     OW17512   4.004   0.513   5.588
 5538SOL    HW117513   4.035   0.445   5.522
 5538SOL    HW217514   4.052   0.500   5.674
 5539SOL     OW17515   0.753   1.701   2.249
 5539SOL    HW117516   0.686   1.762   2.291
 5539SOL    HW217517   0.802   1.751   2.177
 5540SOL     OW17518   5.118   3.096   1.303
 5540SOL    HW117519   5.184   3.116   1.231
 5540SOL    HW217520   5.152   3.132   1.390
 5541SOL     OW17521   4.992   3.294   5.604
 5541SOL    HW117522   5.057   3.249   5.665
 5541SOL    HW217523   4.907   3.312   5.654
 5542SOL     OW17524   5.537   5.308   6.338
 5542SOL    HW117525   5.446   5.350   6.334
 5542SOL    HW217526   5.588   5.331   6.255
 5543SOL     OW17527   2.398   5.505   7.027
 5543SOL    HW117528   2.343   5.580   6.991
 5543SOL    HW217529   2.468   5.540   0.060
 5544SOL     OW17530   5.375   5.090   6.046
 5544SOL    HW117531   5.338   5.183   6.054
 5544SOL    HW217532   5.322   5.039   5.979
 5545SOL     OW17533   4.215   1.123   2.844
 5545SOL    HW117534   4.268   1.144   2.926
 5545SOL    HW217535   4.274   1.079   2.776
 5546SOL     OW17536   0.884   6.667   4.488
 5546SOL    HW117537   0.908   6.581   4.534
 5546SOL    HW217538   0.916   6.744   4.544
 5547SOL     OW17539   3.631   1.336   5.456
 5547SOL    HW117540   3.556   1.369   5.398
 5547SOL    HW217541   3.598   1.323   5.549
 5548SOL     OW17542   6.628   4.261   6.094
 5548SOL    HW117543   6.549   4.321   6.105
 5548SOL    HW217544   6.698   4.285   6.161
 5549SOL     OW17545   3.915   3.131   1.366
 5549SOL    HW117546   3.859   3.213   1.383
 5549SOL    HW217547   3.909   3.071   1.445
 5550SOL     OW17548   2.499   4.458   3.048
 5550SOL    HW117549   2.573   4.513   3.010
 5550SOL    HW217550   2.470   4.391   2.980
 5551SOL     OW17551   1.653   6.346   2.629
 5551SOL    HW117552   1.586   6.272   2.641
 5551SOL    HW217553   1.606   6.429   2.597
 5552SOL     OW17554   5.993   0.143   6.156
 5552SOL    HW117555   5.997   0.084   6.076
 5552SOL    HW217556   6.001   0.087   6.239
 5553SOL     OW17557   4.291   6.777   6.705
 5553SOL    HW117558   4.314   6.735   6.793
 5553SOL    HW217559   4.311   6.875   6.710
 5554SOL     OW17560   4.783   3.375   1.767
 5554SOL    HW117561   4.704   3.429   1.737
 5554SOL    HW217562   4.765   3.278   1.750
 5555SOL     OW17563   1.105   3.545   2.186
 5555SOL    HW117564   1.037   3.537   2.258
 5555SOL    HW217565   1.177   3.608   2.215
 5556SOL     OW17566   6.358   0.951   3.838
 5556SOL    HW117567   6.322   1.044   3.833
 5556SOL    HW217568   6.282   0.886   3.831
 5557SOL     OW17569   4.257   5.348   1.979
 5557SOL    HW117570   4.208   5.291   1.914
 5557SOL    HW217571   4.191   5.393   2.040
 5558SOL     OW17572   3.845   3.718   0.317
 5558SOL    HW117573   3.823   3.779   0.241
 5558SOL    HW217574   3.923   3.755   0.368
 5559SOL     OW17575   1.217   0.457   2.131
 5559SOL    HW117576   1.178   0.418   2.048
 5559SOL    HW217577   1.258   0.546   2.110
 5560SOL     OW17578   6.962   5.819   1.332
 5560SOL    HW117579   6.915   5.767   1.403
 5560SOL    HW217580   7.004   5.757   1.266
 5561SOL     OW17581   2.870   0.819   4.685
 5561SOL    HW117582   2.874   0.805   4.783
 5561SOL    HW217583   2.861   0.917   4.665
 5562SOL     OW17584   4.532   3.883   0.601
 5562SOL    HW117585   4.606   3.818   0.616
 5562SOL    HW217586   4.481   3.857   0.519
 5563SOL     OW17587   2.868   5.053   3.097
 5563SOL    HW117588   2.896   4.959   3.073
 5563SOL    HW217589   2.774   5.068   3.068
 5564SOL     OW17590   4.770   6.849   6.340
 5564SOL    HW117591   4.678   6.850   6.300
 5564SOL    HW217592   4.795   6.756   6.364
 5565SOL     OW17593   3.850   2.577   6.282
 5565SOL    HW117594   3.838   2.478   6.295
 5565SOL    HW217595   3.832   2.624   6.369
 5566SOL     OW17596   2.223   4.210   0.183
 5566SOL    HW117597   2.195   4.143   0.251
 5566SOL    HW217598   2.284   4.277   0.225
 5567SOL     OW17599   0.048   3.776   2.168
 5567SOL    HW117600   0.130   3.723   2.146
 5567SOL    HW217601   0.043   3.856   2.108
 5568SOL     OW17602   4.749   0.849   3.116
 5568SOL    HW117603   4.749   0.910   3.037
 5568SOL    HW217604   4.842   0.839   3.151
 5569SOL     OW17605   1.953   2.033   2.585
 5569SOL    HW117606   2.025   2.027   2.655
 5569SOL    HW217607   1.891   1.956   2.595
 5570SOL     OW17608   6.476   3.044   3.587
 5570SOL    HW117609   6.440   3.113   3.651
 5570SOL    HW217610   6.443   3.064   3.495
 5571SOL     OW17611   6.985   5.879   2.381
 5571SOL    HW117612   6.981   5.802   2.444
 5571SOL    HW217613   7.021   5.849   2.293
 5572SOL     OW17614   1.385   4.325   4.886
 5572SOL    HW117615   1.475   4.287   4.906
 5572SOL    HW217616   1.360   4.306   4.791
 5573SOL     OW17617   1.482   5.959   5.626
 5573SOL    HW117618   1.511   5.994   5.536
 5573SOL    HW217619   1.390   5.993   5.646
 5574SOL     OW17620   0.207   3.441   0.964
 5574SOL    HW117621   0.230   3.539   0.960
 5574SOL    HW217622   0.261   3.397   1.035
 5575SOL     OW17623   6.675   0.711   0.855
 5575SOL    HW117624   6.658   0.629   0.800
 5575SOL    HW217625   6.605   0.718   0.926
 5576SOL     OW17626   1.380   4.126   2.259
 5576SOL    HW117627   1.396   4.166   2.350
 5576SOL    HW217628   1.282   4.113   2.245
 5577SOL     OW17629   2.317   2.799   6.671
 5577SOL    HW117630   2.399   2.846   6.703
 5577SOL    HW217631   2.282   2.844   6.589
 5578SOL     OW17632   3.225   4.050   2.334
 5578SOL    HW117633   3.287   4.058   2.411
 5578SOL    HW217634   3.222   4.137   2.284
 5579SOL     OW17635   0.550   4.049   0.711
 5579SOL    HW117636   0.605   3.978   0.665
 5579SOL    HW217637   0.554   4.035   0.810
 5580SOL     OW17638   4.564   1.915   5.659
 5580SOL    HW117639   4.578   1.885   5.565
 5580SOL    HW217640   4.600   1.846   5.722
 5581SOL     OW17641   1.336   0.658   1.767
 5581SOL    HW117642   1.283   0.597   1.708
 5581SOL    HW217643   1.279   0.735   1.795
 5582SOL     OW17644   2.668   4.384   6.340
 5582SOL    HW117645   2.625   4.474   6.333
 5582SOL    HW217646   2.654   4.348   6.432
 5583SOL     OW17647   4.422   0.547   2.809
 5583SOL    HW117648   4.449   0.640   2.837
 5583SOL    HW217649   4.323   0.536   2.822
 5584SOL     OW17650   6.554   3.604   4.498
 5584SOL    HW117651   6.548   3.589   4.399
 5584SOL    HW217652   6.524   3.522   4.546
 5585SOL     OW17653   5.385   5.864   3.211
 5585SOL    HW117654   5.418   5.952   3.179
 5585SOL    HW217655   5.462   5.812   3.251
 5586SOL     OW17656   0.166   3.923   5.958
 5586SOL    HW117657   0.174   3.838   5.905
 5586SOL    HW217658   0.138   3.903   6.051
 5587SOL     OW17659   4.334   0.133   0.400
 5587SOL    HW117660   4.291   0.193   0.468
 5587SOL    HW217661   4.314   0.167   0.308
 5588SOL     OW17662   2.581   5.922   3.045
 5588SOL    HW117663   2.612   5.967   3.129
 5588SOL    HW217664   2.511   5.979   3.001
 5589SOL     OW17665   6.418   3.814   6.108
 5589SOL    HW117666   6.334   3.821   6.054
 5589SOL    HW217667   6.489   3.769   6.054
 5590SOL     OW17668   6.603   6.583   3.915
 5590SOL    HW117669   6.687   6.556   3.867
 5590SOL    HW217670   6.567   6.503   3.963
 5591SOL     OW17671   6.889   2.087   1.485
 5591SOL    HW117672   6.988   2.085   1.471
 5591SOL    HW217673   6.869   2.135   1.571
 5592SOL     OW17674   2.287   5.783   3.284
 5592SOL    HW117675   2.311   5.880   3.287
 5592SOL    HW217676   2.305   5.742   3.374
 5593SOL     OW17677   6.916   2.818   6.744
 5593SOL    HW117678   7.008   2.835   6.710
 5593SOL    HW217679   6.920   2.789   6.839
 5594SOL     OW17680   4.888   0.569   5.002
 5594SOL    HW117681   4.885   0.586   5.101
 5594SOL    HW217682   4.795   0.563   4.966
 5595SOL     OW17683   0.785   1.434   4.800
 5595SOL    HW117684   0.830   1.509   4.851
 5595SOL    HW217685   0.847   1.401   4.729
 5596SOL     OW17686   3.680   6.737   2.864
 5596SOL    HW117687   3.665   6.643   2.833
 5596SOL    HW217688   3.767   6.743   2.912
 5597SOL     OW17689   4.387   2.449   4.462
 5597SOL    HW117690   4.477   2.491   4.454
 5597SOL    HW217691   4.322   2.518   4.495
 5598SOL     OW17692   5.419   3.729   4.286
 5598SOL    HW117693   5.350   3.724   4.358
 5598SOL    HW217694   5.378   3.763   4.201
 5599SOL     OW17695   1.086   1.597   4.371
 5599SOL    HW117696   1.122   1.551   4.453
 5599SOL    HW217697   0.991   1.571   4.357
 5600SOL     OW17698   0.915   0.958   1.843
 5600SOL    HW117699   0.958   0.876   1.881
 5600SOL    HW217700   0.956   1.040   1.884
 5601SOL     OW17701   2.310   1.071   5.036
 5601SOL    HW117702   2.284   0.978   5.010
 5601SOL    HW217703   2.393   1.098   4.988
 5602SOL     OW17704   6.108   1.971   1.293
 5602SOL    HW117705   6.205   1.994   1.290
 5602SOL    HW217706   6.073   1.963   1.200
 5603SOL     OW17707   5.459   1.762   6.478
 5603SOL    HW117708   5.359   1.769   6.480
 5603SOL    HW217709   5.499   1.848   6.510
 5604SOL     OW17710   6.322   1.927   4.641
 5604SOL    HW117711   6.350   1.907   4.547
 5604SOL    HW217712   6.253   1.999   4.641
 5605SOL     OW17713   0.488   0.375   5.215
 5605SOL    HW117714   0.489   0.425   5.128
 5605SOL    HW217715   0.579   0.378   5.256
 5606SOL     OW17716   4.742   6.987   0.190
 5606SOL    HW117717   4.833   6.952   0.212
 5606SOL    HW217718   4.675   6.915   0.203
 5607SOL     OW17719   5.301   0.690   2.390
 5607SOL    HW117720   5.385   0.714   2.341
 5607SOL    HW217721   5.271   0.769   2.444
 5608SOL     OW17722   4.766   0.046   5.200
 5608SOL    HW117723   4.670   0.070   5.186
 5608SOL    HW217724   4.825   0.123   5.176
 5609SOL     OW17725   3.179   5.942   1.058
 5609SOL    HW117726   3.119   5.877   1.010
 5609SOL    HW217727   3.161   5.937   1.156
 5610SOL     OW17728   4.545   6.552   0.765
 5610SOL    HW117729   4.621   6.563   0.701
 5610SOL    HW217730   4.465   6.602   0.732
 5611SOL     OW17731   0.634   5.315   2.441
 5611SOL    HW117732   0.660   5.405   2.406
 5611SOL    HW217733   0.714   5.255   2.440
 5612SOL     OW17734   3.773   1.727   6.778
 5612SOL    HW117735   3.819   1.713   6.691
 5612SOL    HW217736   3.825   1.791   6.834
 5613SOL     OW17737   5.560   3.688   3.867
 5613SOL    HW117738   5.657   3.675   3.885
 5613SOL    HW217739   5.519   3.601   3.840
 5614SOL     OW17740   4.639   2.621   4.435
 5614SOL    HW117741   4.682   2.705   4.469
 5614SOL    HW217742   4.704   2.573   4.377
 5615SOL     OW17743   0.203   1.116   4.640
 5615SOL    HW117744   0.233   1.061   4.717
 5615SOL    HW217745   0.253   1.203   4.640
 5616SOL     OW17746   2.505   1.923   5.121
 5616SOL    HW117747   2.453   1.963   5.045
 5616SOL    HW217748   2.441   1.890   5.190
 5617SOL     OW17749   3.270   0.437   6.553
 5617SOL    HW117750   3.285   0.535   6.568
 5617SOL    HW217751   3.177   0.413   6.582
 5618SOL     OW17752   0.386   4.314   3.893
 5618SOL    HW117753   0.478   4.352   3.879
 5618SOL    HW217754   0.335   4.374   3.954
 5619SOL     OW17755   3.050   3.916   5.998
 5619SOL    HW117756   3.034   3.906   6.096
 5619SOL    HW217757   2.981   3.976   5.959
 5620SOL     OW17758   3.594   2.869   0.837
 5620SOL    HW117759   3.614   2.941   0.904
 5620SOL    HW217760   3.505   2.830   0.856
 5621SOL     OW17761   0.911   2.681   6.072
 5621SOL    HW117762   0.971   2.692   6.152
 5621SOL    HW217763   0.891   2.584   6.058
 5622SOL     OW17764   4.615   0.208   6.041
 5622SOL    HW117765   4.541   0.142   6.047
 5622SOL    HW217766   4.691   0.169   5.988
 5623SOL     OW17767   2.247   6.121   5.533
 5623SOL    HW117768   2.174   6.171   5.579
 5623SOL    HW217769   2.314   6.186   5.497
 5624SOL     OW17770   1.022   4.697   3.357
 5624SOL    HW117771   1.098   4.739   3.308
 5624SOL    HW217772   1.055   4.624   3.417
 5625SOL     OW17773   6.571   1.582   4.280
 5625SOL    HW117774   6.585   1.488   4.248
 5625SOL    HW217775   6.548   1.640   4.202
 5626SOL     OW17776   2.861   6.653   3.984
 5626SOL    HW117777   2.878   6.573   4.042
 5626SOL    HW217778   2.806   6.719   4.035
 5627SOL     OW17779   1.009   5.705   6.573
 5627SOL    HW117780   1.054   5.621   6.603
 5627SOL    HW217781   0.937   5.729   6.639
 5628SOL     OW17782   1.338   2.760   6.895
 5628SOL    HW117783   1.262   2.804   6.943
 5628SOL    HW217784   1.416   2.752   6.957
 5629SOL     OW17785   2.889   3.743   2.302
 5629SOL    HW117786   2.934   3.783   2.382
 5629SOL    HW217787   2.791   3.761   2.306
 5630SOL     OW17788   2.082   4.725   1.098
 5630SOL    HW117789   2.043   4.680   1.179
 5630SOL    HW217790   2.152   4.665   1.058
 5631SOL     OW17791   4.512   2.094   0.212
 5631SOL    HW117792   4.505   2.119   0.309
 5631SOL    HW217793   4.598   2.130   0.175
 5632SOL     OW17794   3.460   3.086   6.110
 5632SOL    HW117795   3.483   3.136   6.194
 5632SOL    HW217796   3.418   2.999   6.135
 5633SOL     OW17797   6.881   2.880   4.609
 5633SOL    HW117798   6.909   2.801   4.554
 5633SOL    HW217799   6.781   2.883   4.615
 5634SOL     OW17800   1.925   5.562   5.054
 5634SOL    HW117801   1.850   5.611   5.009
 5634SOL    HW217802   2.010   5.613   5.041
 5635SOL     OW17803   2.366   3.792   5.376
 5635SOL    HW117804   2.394   3.859   5.307
 5635SOL    HW217805   2.369   3.834   5.467
 5636SOL     OW17806   3.748   6.744   3.490
 5636SOL    HW117807   3.826   6.714   3.434
 5636SOL    HW217808   3.763   6.839   3.519
 5637SOL     OW17809   5.049   6.517   3.487
 5637SOL    HW117810   4.973   6.462   3.452
 5637SOL    HW217811   5.078   6.582   3.417
 5638SOL     OW17812   6.040   3.956   1.503
 5638SOL    HW117813   5.999   3.876   1.545
 5638SOL    HW217814   6.022   4.037   1.560
 5639SOL     OW17815   0.605   0.427   0.035
 5639SOL    HW117816   0.622   0.509   7.009
 5639SOL    HW217817   0.508   0.406   0.033
 5640SOL     OW17818   2.954   0.584   3.992
 5640SOL    HW117819   2.905   0.581   3.905
 5640SOL    HW217820   2.944   0.497   4.039
 5641SOL     OW17821   0.470   5.056   5.293
 5641SOL    HW117822   0.370   5.052   5.286
 5641SOL    HW217823   0.500   5.003   5.372
 5642SOL     OW17824   2.072   6.840   5.749
 5642SOL    HW117825   2.079   6.741   5.754
 5642SOL    HW217826   1.977   6.868   5.757
 5643SOL     OW17827   4.817   0.970   5.004
 5643SOL    HW117828   4.809   0.973   4.905
 5643SOL    HW217829   4.906   0.933   5.030
 5644SOL     OW17830   3.383   0.165   4.964
 5644SOL    HW117831   3.355   0.073   4.993
 5644SOL    HW217832   3.371   0.174   4.865
 5645SOL     OW17833   6.535   4.282   4.144
 5645SOL    HW117834   6.587   4.281   4.058
 5645SOL    HW217835   6.494   4.192   4.160
 5646SOL     OW17836   1.873   5.340   3.139
 5646SOL    HW117837   1.872   5.348   3.039
 5646SOL    HW217838   1.953   5.288   3.168
 5647SOL     OW17839   5.300   6.702   1.190
 5647SOL    HW117840   5.240   6.623   1.204
 5647SOL    HW217841   5.315   6.715   1.092
 5648SOL     OW17842   2.156   6.117   2.887
 5648SOL    HW117843   2.093   6.048   2.924
 5648SOL    HW217844   2.220   6.145   2.959
 5649SOL     OW17845   1.336   6.753   3.958
 5649SOL    HW117846   1.333   6.689   3.881
 5649SOL    HW217847   1.259   6.816   3.952
 5650SOL     OW17848   1.479   4.612   1.525
 5650SOL    HW117849   1.481   4.698   1.475
 5650SOL    HW217850   1.500   4.537   1.462
 5651SOL     OW17851   1.415   0.829   0.312
 5651SOL    HW117852   1.360   0.745   0.309
 5651SOL    HW217853   1.447   0.851   0.220
 5652SOL     OW17854   6.783   5.762   1.056
 5652SOL    HW117855   6.874   5.724   1.042
 5652SOL    HW217856   6.786   5.862   1.048
 5653SOL     OW17857   0.638   6.064   6.833
 5653SOL    HW117858   0.582   6.126   6.778
 5653SOL    HW217859   0.708   6.023   6.776
 5654SOL     OW17860   1.393   5.658   4.374
 5654SOL    HW117861   1.356   5.718   4.444
 5654SOL    HW217862   1.463   5.706   4.322
 5655SOL     OW17863   0.393   2.975   3.292
 5655SOL    HW117864   0.493   2.983   3.287
 5655SOL    HW217865   0.361   2.913   3.222
 5656SOL     OW17866   6.864   4.216   6.418
 5656SOL    HW117867   6.868   4.269   6.334
 5656SOL    HW217868   6.770   4.215   6.452
 5657SOL     OW17869   4.615   4.491   5.197
 5657SOL    HW117870   4.642   4.416   5.137
 5657SOL    HW217871   4.686   4.506   5.266
 5658SOL     OW17872   2.844   3.650   5.603
 5658SOL    HW117873   2.827   3.567   5.550
 5658SOL    HW217874   2.884   3.625   5.691
 5659SOL     OW17875   3.627   4.108   5.903
 5659SOL    HW117876   3.674   4.091   5.816
 5659SOL    HW217877   3.558   4.037   5.917
 5660SOL     OW17878   4.323   6.332   6.428
 5660SOL    HW117879   4.283   6.279   6.354
 5660SOL    HW217880   4.411   6.370   6.398
 5661SOL     OW17881   1.201   5.503   5.068
 5661SOL    HW117882   1.248   5.415   5.078
 5661SOL    HW217883   1.268   5.577   5.067
 5662SOL     OW17884   2.509   0.191   2.465
 5662SOL    HW117885   2.452   0.144   2.532
 5662SOL    HW217886   2.473   0.176   2.373
 5663SOL     OW17887   2.186   2.160   1.067
 5663SOL    HW117888   2.169   2.064   1.088
 5663SOL    HW217889   2.283   2.180   1.083
 5664SOL     OW17890   6.262   3.457   4.243
 5664SOL    HW117891   6.318   3.394   4.189
 5664SOL    HW217892   6.209   3.407   4.310
 5665SOL     OW17893   1.101   5.840   0.254
 5665SOL    HW117894   1.100   5.940   0.261
 5665SOL    HW217895   1.012   5.808   0.220
 5666SOL     OW17896   6.096   0.549   3.948
 5666SOL    HW117897   6.136   0.479   4.006
 5666SOL    HW217898   6.169   0.599   3.900
 5667SOL     OW17899   1.580   5.085   4.783
 5667SOL    HW117900   1.480   5.075   4.788
 5667SOL    HW217901   1.603   5.181   4.770
 5668SOL     OW17902   6.284   2.707   2.879
 5668SOL    HW117903   6.350   2.633   2.864
 5668SOL    HW217904   6.258   2.710   2.976
 5669SOL     OW17905   6.686   4.894   0.571
 5669SOL    HW117906   6.665   4.969   0.634
 5669SOL    HW217907   6.605   4.870   0.518
 5670SOL     OW17908   1.706   3.474   3.932
 5670SOL    HW117909   1.743   3.483   4.024
 5670SOL    HW217910   1.620   3.423   3.935
 5671SOL     OW17911   6.170   5.319   5.552
 5671SOL    HW117912   6.209   5.236   5.593
 5671SOL    HW217913   6.171   5.393   5.620
 5672SOL     OW17914   4.757   4.138   5.129
 5672SOL    HW117915   4.789   4.050   5.095
 5672SOL    HW217916   4.776   4.145   5.227
 5673SOL     OW17917   1.305   6.167   1.168
 5673SOL    HW117918   1.376   6.196   1.105
 5673SOL    HW217919   1.215   6.192   1.131
 5674SOL     OW17920   1.997   5.060   4.911
 5674SOL    HW117921   2.004   5.017   4.821
 5674SOL    HW217922   1.993   5.160   4.900
 5675SOL     OW17923   4.205   2.107   0.095
 5675SOL    HW117924   4.288   2.127   0.148
 5675SOL    HW217925   4.201   2.009   0.077
 5676SOL     OW17926   2.895   1.682   2.340
 5676SOL    HW117927   2.924   1.725   2.255
 5676SOL    HW217928   2.926   1.736   2.418
 5677SOL     OW17929   0.363   0.713   0.073
 5677SOL    HW117930   0.369   0.613   0.078
 5677SOL    HW217931   0.273   0.743   0.105
 5678SOL     OW17932   4.299   0.977   1.864
 5678SOL    HW117933   4.277   0.885   1.898
 5678SOL    HW217934   4.383   0.974   1.812
 5679SOL     OW17935   5.543   1.988   3.955
 5679SOL    HW117936   5.621   1.995   4.018
 5679SOL    HW217937   5.502   1.898   3.963
 5680SOL     OW17938   1.412   5.252   6.629
 5680SOL    HW117939   1.479   5.192   6.672
 5680SOL    HW217940   1.324   5.241   6.673
 5681SOL     OW17941   0.506   4.130   2.426
 5681SOL    HW117942   0.483   4.190   2.349
 5681SOL    HW217943   0.574   4.175   2.484
 5682SOL     OW17944   2.152   5.598   4.024
 5682SOL    HW117945   2.115   5.507   4.008
 5682SOL    HW217946   2.243   5.590   4.065
 5683SOL     OW17947   3.935   2.518   5.996
 5683SOL    HW117948   4.033   2.539   5.996
 5683SOL    HW217949   3.906   2.495   6.089
 5684SOL     OW17950   1.959   3.543   6.329
 5684SOL    HW117951   1.862   3.547   6.353
 5684SOL    HW217952   1.983   3.624   6.274
 5685SOL     OW17953   2.359   2.239   3.214
 5685SOL    HW117954   2.325   2.272   3.302
 5685SOL    HW217955   2.288   2.251   3.145
 5686SOL     OW17956   3.218   1.279   4.667
 5686SOL    HW117957   3.146   1.296   4.735
 5686SOL    HW217958   3.260   1.190   4.684
 5687SOL     OW17959   1.191   5.998   6.154
 5687SOL    HW117960   1.198   5.937   6.233
 5687SOL    HW217961   1.116   6.063   6.169
 5688SOL     OW17962   2.189   3.021   2.971
 5688SOL    HW117963   2.224   2.949   3.032
 5688SOL    HW217964   2.099   2.993   2.936
 5689SOL     OW17965   2.250   0.285   2.045
 5689SOL    HW117966   2.325   0.275   1.979
 5689SOL    HW217967   2.169   0.321   1.998
 5690SOL     OW17968   1.124   5.177   6.488
 5690SOL    HW117969   1.155   5.214   6.401
 5690SOL    HW217970   1.131   5.077   6.487
 5691SOL     OW17971   3.781   1.289   2.804
 5691SOL    HW117972   3.744   1.373   2.844
 5691SOL    HW217973   3.828   1.238   2.876
 5692SOL     OW17974   4.935   4.647   1.115
 5692SOL    HW117975   4.909   4.589   1.038
 5692SOL    HW217976   4.984   4.728   1.082
 5693SOL     OW17977   4.526   0.257   1.393
 5693SOL    HW117978   4.462   0.206   1.451
 5693SOL    HW217979   4.476   0.297   1.316
 5694SOL     OW17980   0.434   0.090   2.321
 5694SOL    HW117981   0.512   0.031   2.296
 5694SOL    HW217982   0.464   0.185   2.324
 5695SOL     OW17983   0.966   0.817   2.934
 5695SOL    HW117984   0.895   0.848   2.871
 5695SOL    HW217985   0.948   0.722   2.961
 5696SOL     OW17986   1.227   0.098   4.361
 5696SOL    HW117987   1.190   0.005   4.360
 5696SOL    HW217988   1.243   0.127   4.455
 5697SOL     OW17989   5.929   2.325   2.229
 5697SOL    HW117990   5.960   2.413   2.194
 5697SOL    HW217991   5.831   2.313   2.210
 5698SOL     OW17992   1.381   4.091   4.112
 5698SOL    HW117993   1.416   4.074   4.020
 5698SOL    HW217994   1.400   4.012   4.170
 5699SOL     OW17995   2.013   2.576   2.964
 5699SOL    HW117996   1.921   2.571   3.004
 5699SOL    HW217997   2.007   2.553   2.866
 5700SOL     OW17998   6.594   0.232   3.319
 5700SOL    HW117999   6.665   0.168   3.288
 5700SOL    HW218000   6.616   0.324   3.285
 5701SOL     OW18001   6.744   0.729   1.375
 5701SOL    HW118002   6.645   0.736   1.369
 5701SOL    HW218003   6.779   0.675   1.299
 5702SOL     OW18004   1.641   6.482   4.474
 5702SOL    HW118005   1.666   6.386   4.473
 5702SOL    HW218006   1.709   6.535   4.525
 5703SOL     OW18007   0.174   4.316   6.773
 5703SOL    HW118008   0.210   4.247   6.836
 5703SOL    HW218009   0.131   4.390   6.825
 5704SOL     OW18010   5.156   4.190   3.533
 5704SOL    HW118011   5.061   4.173   3.557
 5704SOL    HW218012   5.160   4.257   3.459
 5705SOL     OW18013   6.061   5.564   0.048
 5705SOL    HW118014   5.995   5.613   0.104
 5705SOL    HW218015   6.046   5.466   0.057
 5706SOL     OW18016   5.158   3.015   1.756
 5706SOL    HW118017   5.061   2.989   1.751
 5706SOL    HW218018   5.177   3.052   1.847
 5707SOL     OW18019   6.121   0.321   0.918
 5707SOL    HW118020   6.022   0.314   0.905
 5707SOL    HW218021   6.139   0.367   1.005
 5708SOL     OW18022   5.201   6.077   2.697
 5708SOL    HW118023   5.187   6.151   2.630
 5708SOL    HW218024   5.216   6.117   2.787
 5709SOL     OW18025   0.463   0.957   2.497
 5709SOL    HW118026   0.507   1.030   2.548
 5709SOL    HW218027   0.386   0.994   2.444
 5710SOL     OW18028   2.851   2.094   0.598
 5710SOL    HW118029   2.864   2.008   0.647
 5710SOL    HW218030   2.901   2.091   0.511
 5711SOL     OW18031   4.797   0.330   1.760
 5711SOL    HW118032   4.785   0.418   1.805
 5711SOL    HW218033   4.727   0.266   1.792
 5712SOL     OW18034   6.380   6.701   0.219
 5712SOL    HW118035   6.380   6.731   0.315
 5712SOL    HW218036   6.466   6.729   0.176
 5713SOL     OW18037   3.317   5.044   0.940
 5713SOL    HW118038   3.248   5.062   1.010
 5713SOL    HW218039   3.275   5.049   0.850
 5714SOL     OW18040   0.039   6.313   0.818
 5714SOL    HW118041   7.026   6.386   0.764
 5714SOL    HW218042   0.102   6.261   0.759
 5715SOL     OW18043   6.922   0.217   2.259
 5715SOL    HW118044   6.894   0.312   2.247
 5715SOL    HW218045   6.885   0.161   2.185
 5716SOL     OW18046   0.644   5.681   6.253
 5716SOL    HW118047   0.611   5.745   6.322
 5716SOL    HW218048   0.737   5.652   6.276
 5717SOL     OW18049   2.321   4.962   1.919
 5717SOL    HW118050   2.299   5.023   1.843
 5717SOL    HW218051   2.272   4.992   2.001
 5718SOL     OW18052   0.667   3.463   0.340
 5718SOL    HW118053   0.761   3.489   0.361
 5718SOL    HW218054   0.639   3.506   0.254
 5719SOL     OW18055   3.215   3.858   0.974
 5719SOL    HW118056   3.261   3.844   1.061
 5719SOL    HW218057   3.259   3.802   0.904
 5720SOL     OW18058   1.697   6.809   4.986
 5720SOL    HW118059   1.620   6.751   5.010
 5720SOL    HW218060   1.776   6.786   5.042
 5721SOL     OW18061   6.020   4.195   0.853
 5721SOL    HW118062   5.957   4.117   0.855
 5721SOL    HW218063   6.006   4.251   0.934
 5722SOL     OW18064   0.049   2.272   5.610
 5722SOL    HW118065   7.013   2.297   5.539
 5722SOL    HW218066   0.030   2.324   5.693
 5723SOL     OW18067   4.024   3.543   0.123
 5723SOL    HW118068   4.031   3.485   0.204
 5723SOL    HW218069   4.098   3.611   0.125
 5724SOL     OW18070   6.276   2.753   3.547
 5724SOL    HW118071   6.354   2.704   3.586
 5724SOL    HW218072   6.275   2.740   3.447
 5725SOL     OW18073   6.590   5.018   3.980
 5725SOL    HW118074   6.638   5.070   3.909
 5725SOL    HW218075   6.655   4.995   4.053
 5726SOL     OW18076   6.141   4.730   3.898
 5726SOL    HW118077   6.063   4.752   3.957
 5726SOL    HW218078   6.122   4.759   3.804
 5727SOL     OW18079   0.089   2.769   4.846
 5727SOL    HW118080   0.152   2.786   4.771
 5727SOL    HW218081   0.006   2.823   4.833
 5728SOL     OW18082   5.208   6.069   5.270
 5728SOL    HW118083   5.257   6.067   5.357
 5728SOL    HW218084   5.205   5.977   5.232
 5729SOL     OW18085   1.183   2.397   6.114
 5729SOL    HW118086   1.222   2.305   6.117
 5729SOL    HW218087   1.094   2.396   6.161
 5730SOL     OW18088   6.608   4.232   6.501
 5730SOL    HW118089   6.518   4.229   6.457
 5730SOL    HW218090   6.596   4.254   6.598
 5731SOL     OW18091   6.740   6.598   1.738
 5731SOL    HW118092   6.709   6.685   1.775
 5731SOL    HW218093   6.736   6.600   1.639
 5732SOL     OW18094   1.035   6.821   3.520
 5732SOL    HW118095   1.101   6.847   3.450
 5732SOL    HW218096   0.950   6.872   3.506
 5733SOL     OW18097   4.243   6.463   5.318
 5733SOL    HW118098   4.221   6.557   5.344
 5733SOL    HW218099   4.279   6.414   5.397
 5734SOL     OW18100   1.166   6.838   5.184
 5734SOL    HW118101   1.076   6.874   5.160
 5734SOL    HW218102   1.236   6.879   5.125
 5735SOL     OW18103   2.981   1.056   1.117
 5735SOL    HW118104   3.005   1.091   1.027
 5735SOL    HW218105   2.919   0.977   1.108
 5736SOL     OW18106   0.708   4.145   7.007
 5736SOL    HW118107   0.666   4.216   0.036
 5736SOL    HW218108   0.762   4.189   6.935
 5737SOL     OW18109   5.512   6.404   6.807
 5737SOL    HW118110   5.591   6.449   6.766
 5737SOL    HW218111   5.432   6.464   6.803
 5738SOL     OW18112   1.429   3.501   6.910
 5738SOL    HW118113   1.417   3.464   7.002
 5738SOL    HW218114   1.526   3.496   6.885
 5739SOL     OW18115   1.680   0.990   6.833
 5739SOL    HW118116   1.746   1.063   6.852
 5739SOL    HW218117   1.727   0.915   6.787
 5740SOL     OW18118   4.459   5.905   0.348
 5740SOL    HW118119   4.379   5.950   0.388
 5740SOL    HW218120   4.522   5.878   0.421
 5741SOL     OW18121   6.575   5.710   4.428
 5741SOL    HW118122   6.661   5.760   4.439
 5741SOL    HW218123   6.559   5.654   4.509
 5742SOL     OW18124   5.445   6.330   2.219
 5742SOL    HW118125   5.509   6.300   2.290
 5742SOL    HW218126   5.493   6.389   2.153
 5743SOL     OW18127   2.415   6.963   4.596
 5743SOL    HW118128   2.441   6.871   4.567
 5743SOL    HW218129   2.470   6.990   4.675
 5744SOL     OW18130   5.009   1.083   0.553
 5744SOL    HW118131   5.014   1.034   0.467
 5744SOL    HW218132   4.915   1.116   0.568
 5745SOL     OW18133   2.082   1.720   4.590
 5745SOL    HW118134   2.059   1.624   4.576
 5745SOL    HW218135   2.040   1.775   4.518
 5746SOL     OW18136   5.040   0.938   0.321
 5746SOL    HW118137   5.088   0.851   0.304
 5746SOL    HW218138   5.073   1.007   0.257
 5747SOL     OW18139   0.207   5.695   2.880
 5747SOL    HW118140   0.273   5.620   2.886
 5747SOL    HW218141   0.254   5.780   2.855
 5748SOL     OW18142   2.591   4.948   1.950
 5748SOL    HW118143   2.501   4.978   1.918
 5748SOL    HW218144   2.595   4.849   1.948
 5749SOL     OW18145   2.028   1.526   4.231
 5749SOL    HW118146   1.962   1.469   4.183
 5749SOL    HW218147   2.117   1.520   4.186
 5750SOL     OW18148   6.312   4.946   4.342
 5750SOL    HW118149   6.289   5.038   4.374
 5750SOL    HW218150   6.311   4.944   4.242
 5751SOL     OW18151   2.177   3.055   5.241
 5751SOL    HW118152   2.268   3.056   5.200
 5751SOL    HW218153   2.148   2.960   5.256
 5752SOL     OW18154   6.787   0.228   5.850
 5752SOL    HW118155   6.715   0.170   5.890
 5752SOL    HW218156   6.864   0.234   5.914
 5753SOL     OW18157   3.453   3.107   6.505
 5753SOL    HW118158   3.388   3.178   6.478
 5753SOL    HW218159   3.539   3.150   6.533
 5754SOL     OW18160   5.793   4.932   2.364
 5754SOL    HW118161   5.732   4.872   2.416
 5754SOL    HW218162   5.743   4.971   2.286
 5755SOL     OW18163   2.960   3.837   6.526
 5755SOL    HW118164   2.914   3.901   6.587
 5755SOL    HW218165   2.981   3.753   6.576
 5756SOL     OW18166   6.860   4.895   3.137
 5756SOL    HW118167   6.829   4.892   3.232
 5756SOL    HW218168   6.943   4.840   3.127
 5757SOL     OW18169   6.294   5.908   1.270
 5757SOL    HW118170   6.291   5.808   1.266
 5757SOL    HW218171   6.220   5.946   1.215
 5758SOL     OW18172   2.640   2.454   4.926
 5758SOL    HW118173   2.716   2.394   4.949
 5758SOL    HW218174   2.620   2.514   5.003
 5759SOL     OW18175   5.148   2.072   6.203
 5759SOL    HW118176   5.188   2.161   6.225
 5759SOL    HW218177   5.141   2.062   6.104
 5760SOL     OW18178   1.906   5.710   2.132
 5760SOL    HW118179   1.894   5.673   2.224
 5760SOL    HW218180   1.820   5.705   2.082
 5761SOL     OW18181   5.372   0.451   4.800
 5761SOL    HW118182   5.437   0.501   4.856
 5761SOL    HW218183   5.295   0.510   4.777
 5762SOL     OW18184   5.860   0.004   0.668
 5762SOL    HW118185   5.867   0.028   0.571
 5762SOL    HW218186   5.934   6.971   0.693
 5763SOL     OW18187   1.070   0.025   0.295
 5763SOL    HW118188   1.039   0.120   0.293
 5763SOL    HW218189   0.994   6.995   0.323
 5764SOL     OW18190   5.501   4.587   5.454
 5764SOL    HW118191   5.413   4.573   5.500
 5764SOL    HW218192   5.501   4.539   5.367
 5765SOL     OW18193   6.584   4.296   6.772
 5765SOL    HW118194   6.648   4.367   6.801
 5765SOL    HW218195   6.572   4.230   6.847
 5766SOL     OW18196   3.434   1.366   1.961
 5766SOL    HW118197   3.397   1.339   1.872
 5766SOL    HW218198   3.437   1.466   1.966
 5767SOL     OW18199   0.908   6.263   0.623
 5767SOL    HW118200   1.007   6.248   0.626
 5767SOL    HW218201   0.860   6.180   0.652
 5768SOL     OW18202   6.699   0.850   3.057
 5768SOL    HW118203   6.621   0.795   3.027
 5768SOL    HW218204   6.687   0.873   3.154
 5769SOL     OW18205   2.715   6.321   3.325
 5769SOL    HW118206   2.779   6.373   3.269
 5769SOL    HW218207   2.759   6.293   3.410
 5770SOL     OW18208   6.990   6.765   0.934
 5770SOL    HW118209   6.965   6.783   1.029
 5770SOL    HW218210   0.060   6.762   0.925
 5771SOL     OW18211   1.194   0.757   1.225
 5771SOL    HW118212   1.139   0.686   1.181
 5771SOL    HW218213   1.162   0.847   1.195
 5772SOL     OW18214   6.228   2.722   0.508
 5772SOL    HW118215   6.292   2.793   0.477
 5772SOL    HW218216   6.240   2.640   0.453
 5773SOL     OW18217   5.530   6.737   3.980
 5773SOL    HW118218   5.560   6.668   3.915
 5773SOL    HW218219   5.599   6.810   3.985
 5774SOL     OW18220   2.327   4.459   3.260
 5774SOL    HW118221   2.307   4.544   3.307
 5774SOL    HW218222   2.390   4.476   3.184
 5775SOL     OW18223   0.167   6.866   0.197
 5775SOL    HW118224   0.197   6.956   0.167
 5775SOL    HW218225   0.192   6.797   0.128
 5776SOL     OW18226   5.489   0.439   6.228
 5776SOL    HW118227   5.456   0.423   6.321
 5776SOL    HW218228   5.448   0.523   6.192
 5777SOL     OW18229   5.975   0.751   4.130
 5777SOL    HW118230   5.988   0.849   4.121
 5777SOL    HW218231   6.026   0.703   4.059
 5778SOL     OW18232   1.436   6.736   2.894
 5778SOL    HW118233   1.497   6.746   2.816
 5778SOL    HW218234   1.364   6.806   2.889
 5779SOL     OW18235   3.768   1.131   1.275
 5779SOL    HW118236   3.715   1.133   1.190
 5779SOL    HW218237   3.856   1.176   1.260
 5780SOL     OW18238   6.828   4.262   1.624
 5780SOL    HW118239   6.871   4.335   1.679
 5780SOL    HW218240   6.737   4.291   1.594
 5781SOL     OW18241   1.907   4.112   4.749
 5781SOL    HW118242   1.908   4.194   4.806
 5781SOL    HW218243   1.988   4.057   4.768
 5782SOL     OW18244   2.049   1.100   1.635
 5782SOL    HW118245   2.043   1.088   1.536
 5782SOL    HW218246   2.134   1.148   1.658
 5783SOL     OW18247   1.587   0.229   1.152
 5783SOL    HW118248   1.537   0.314   1.164
 5783SOL    HW218249   1.542   0.174   1.082
 5784SOL     OW18250   0.862   6.126   6.994
 5784SOL    HW118251   0.784   6.104   6.936
 5784SOL    HW218252   0.849   6.215   0.007
 5785SOL     OW18253   1.319   0.854   0.656
 5785SOL    HW118254   1.261   0.801   0.593
 5785SOL    HW218255   1.411   0.860   0.618
 5786SOL     OW18256   1.890   3.188   1.511
 5786SOL    HW118257   1.869   3.095   1.480
 5786SOL    HW218258   1.934   3.184   1.600
 5787SOL     OW18259   5.706   2.450   4.623
 5787SOL    HW118260   5.724   2.487   4.714
 5787SOL    HW218261   5.776   2.382   4.601
 5788SOL     OW18262   3.514   0.881   2.367
 5788SOL    HW118263   3.612   0.894   2.356
 5788SOL    HW218264   3.492   0.879   2.464
 5789SOL     OW18265   4.255   4.117   0.398
 5789SOL    HW118266   4.323   4.073   0.340
 5789SOL    HW218267   4.250   4.215   0.376
 5790SOL     OW18268   5.926   5.211   4.718
 5790SOL    HW118269   5.991   5.284   4.699
 5790SOL    HW218270   5.876   5.188   4.634
 5791SOL     OW18271   3.678   1.397   2.525
 5791SOL    HW118272   3.732   1.359   2.601
 5791SOL    HW218273   3.623   1.325   2.484
 5792SOL     OW18274   4.826   3.984   3.127
 5792SOL    HW118275   4.821   4.078   3.163
 5792SOL    HW218276   4.883   3.983   3.045
 5793SOL     OW18277   5.448   2.231   5.200
 5793SOL    HW118278   5.517   2.250   5.270
 5793SOL    HW218279   5.397   2.148   5.225
 5794SOL     OW18280   3.125   6.537   5.684
 5794SOL    HW118281   3.161   6.449   5.653
 5794SOL    HW218282   3.062   6.573   5.615
 5795SOL     OW18283   1.214   5.290   1.882
 5795SOL    HW118284   1.121   5.314   1.852
 5795SOL    HW218285   1.280   5.326   1.816
 5796SOL     OW18286   4.532   1.339   6.077
 5796SOL    HW118287   4.533   1.384   6.166
 5796SOL    HW218288   4.621   1.296   6.060
 5797SOL     OW18289   5.318   2.391   6.852
 5797SOL    HW118290   5.392   2.350   6.904
 5797SOL    HW218291   5.250   2.430   6.915
 5798SOL     OW18292   1.480   3.635   5.251
 5798SOL    HW118293   1.523   3.567   5.192
 5798SOL    HW218294   1.381   3.620   5.252
 5799SOL     OW18295   1.398   6.494   3.354
 5799SOL    HW118296   1.315   6.448   3.385
 5799SOL    HW218297   1.473   6.475   3.417
 5800SOL     OW18298   0.244   6.712   0.898
 5800SOL    HW118299   0.295   6.798   0.895
 5800SOL    HW218300   0.306   6.637   0.876
 5801SOL     OW18301   2.457   2.575   2.391
 5801SOL    HW118302   2.427   2.593   2.484
 5801SOL    HW218303   2.549   2.612   2.378
 5802SOL     OW18304   0.118   1.758   2.554
 5802SOL    HW118305   0.089   1.689   2.620
 5802SOL    HW218306   0.045   1.775   2.488
 5803SOL     OW18307   1.030   5.545   4.509
 5803SOL    HW118308   1.102   5.492   4.552
 5803SOL    HW218309   1.010   5.508   4.419
 5804SOL     OW18310   5.766   7.013   3.777
 5804SOL    HW118311   5.752   6.921   3.741
 5804SOL    HW218312   5.729   7.019   3.870
 5805SOL     OW18313   2.719   3.231   0.676
 5805SOL    HW118314   2.738   3.153   0.616
 5805SOL    HW218315   2.622   3.256   0.668
 5806SOL     OW18316   0.786   3.257   3.194
 5806SOL    HW118317   0.862   3.305   3.237
 5806SOL    HW218318   0.804   3.247   3.096
 5807SOL     OW18319   1.375   6.398   0.472
 5807SOL    HW118320   1.473   6.399   0.453
 5807SOL    HW218321   1.325   6.434   0.393
 5808SOL     OW18322   5.641   1.095   4.464
 5808SOL    HW118323   5.625   1.012   4.518
 5808SOL    HW218324   5.737   1.101   4.439
 5809SOL     OW18325   0.404   2.647   6.035
 5809SOL    HW118326   0.328   2.653   6.100
 5809SOL    HW218327   0.368   2.637   5.943
 5810SOL     OW18328   4.100   6.454   4.696
 5810SOL    HW118329   4.132   6.372   4.649
 5810SOL    HW218330   4.012   6.482   4.657
 5811SOL     OW18331   2.844   3.505   6.134
 5811SOL    HW118332   2.906   3.519   6.211
 5811SOL    HW218333   2.834   3.407   6.116
 5812SOL     OW18334   6.033   3.366   0.444
 5812SOL    HW118335   6.036   3.266   0.446
 5812SOL    HW218336   5.940   3.397   0.462
 5813SOL     OW18337   4.815   6.688   1.067
 5813SOL    HW118338   4.778   6.778   1.044
 5813SOL    HW218339   4.834   6.683   1.165
 5814SOL     OW18340   5.546   2.025   2.206
 5814SOL    HW118341   5.589   1.959   2.144
 5814SOL    HW218342   5.609   2.100   2.224
 5815SOL     OW18343   6.554   0.945   4.012
 5815SOL    HW118344   6.483   0.939   3.941
 5815SOL    HW218345   6.616   1.020   3.990
 5816SOL     OW18346   0.152   4.232   3.246
 5816SOL    HW118347   0.240   4.224   3.201
 5816SOL    HW218348   0.087   4.170   3.203
 5817SOL     OW18349   5.460   4.281   3.955
 5817SOL    HW118350   5.415   4.273   3.866
 5817SOL    HW218351   5.462   4.192   4.000
 5818SOL     OW18352   1.805   0.226   4.831
 5818SOL    HW118353   1.805   0.275   4.744
 5818SOL    HW218354   1.859   0.278   4.898
 5819SOL     OW18355   4.296   5.008   6.896
 5819SOL    HW118356   4.218   4.952   6.923
 5819SOL    HW218357   4.381   4.955   6.909
 5820SOL     OW18358   6.234   4.998   2.890
 5820SOL    HW118359   6.141   4.964   2.906
 5820SOL    HW218360   6.300   4.939   2.937
 5821SOL     OW18361   6.378   0.830   1.532
 5821SOL    HW118362   6.299   0.800   1.586
 5821SOL    HW218363   6.418   0.911   1.575
 5822SOL     OW18364   1.405   2.712   2.121
 5822SOL    HW118365   1.307   2.715   2.140
 5822SOL    HW218366   1.449   2.792   2.160
 5823SOL     OW18367   2.443   6.338   3.557
 5823SOL    HW118368   2.484   6.253   3.527
 5823SOL    HW218369   2.343   6.328   3.561
 5824SOL     OW18370   0.944   0.276   2.077
 5824SOL    HW118371   0.966   0.348   2.143
 5824SOL    HW218372   1.028   0.244   2.033
 5825SOL     OW18373   6.224   0.395   4.139
 5825SOL    HW118374   6.285   0.331   4.093
 5825SOL    HW218375   6.208   0.364   4.233
 5826SOL     OW18376   0.337   6.698   5.014
 5826SOL    HW118377   0.379   6.778   4.972
 5826SOL    HW218378   0.281   6.651   4.945
 5827SOL     OW18379   2.260   4.474   5.087
 5827SOL    HW118380   2.355   4.488   5.115
 5827SOL    HW218381   2.255   4.393   5.029
 5828SOL     OW18382   4.626   0.216   4.260
 5828SOL    HW118383   4.598   0.247   4.169
 5828SOL    HW218384   4.547   0.178   4.308
 5829SOL     OW18385   2.626   1.056   3.893
 5829SOL    HW118386   2.545   1.096   3.936
 5829SOL    HW218387   2.656   0.976   3.946
 5830SOL     OW18388   3.883   5.858   4.981
 5830SOL    HW118389   3.842   5.920   4.915
 5830SOL    HW218390   3.811   5.807   5.028
 5831SOL     OW18391   1.544   1.301   5.653
 5831SOL    HW118392   1.466   1.341   5.605
 5831SOL    HW218393   1.531   1.309   5.752
 5832SOL     OW18394   3.495   4.903   1.249
 5832SOL    HW118395   3.557   4.910   1.171
 5832SOL    HW218396   3.483   4.993   1.291
 5833SOL     OW18397   3.804   3.520   6.012
 5833SOL    HW118398   3.842   3.558   5.928
 5833SOL    HW218399   3.852   3.435   6.035
 5834SOL     OW18400   6.257   4.302   6.759
 5834SOL    HW118401   6.244   4.371   6.687
 5834SOL    HW218402   6.211   4.333   6.843
 5835SOL     OW18403   5.578   1.107   2.481
 5835SOL    HW118404   5.496   1.151   2.516
 5835SOL    HW218405   5.623   1.057   2.555
 5836SOL     OW18406   4.160   6.762   1.605
 5836SOL    HW118407   4.258   6.742   1.608
 5836SOL    HW218408   4.143   6.838   1.542
 5837SOL     OW18409   3.741   4.425   0.108
 5837SOL    HW118410   3.723   4.523   0.103
 5837SOL    HW218411   3.656   4.375   0.092
 5838SOL     OW18412   2.643   1.968   1.035
 5838SOL    HW118413   2.636   1.938   0.940
 5838SOL    HW218414   2.626   2.067   1.040
 5839SOL     OW18415   1.304   2.046   1.614
 5839SOL    HW118416   1.331   2.127   1.564
 5839SOL    HW218417   1.384   2.004   1.657
 5840SOL     OW18418   0.803   3.160   2.169
 5840SOL    HW118419   0.890   3.207   2.188
 5840SOL    HW218420   0.748   3.157   2.252
 5841SOL     OW18421   4.891   1.447   0.384
 5841SOL    HW118422   4.816   1.407   0.437
 5841SOL    HW218423   4.974   1.393   0.400
 5842SOL     OW18424   3.096   1.339   0.913
 5842SOL    HW118425   3.115   1.298   0.824
 5842SOL    HW218426   2.999   1.329   0.935
 5843SOL     OW18427   1.678   3.134   1.192
 5843SOL    HW118428   1.771   3.170   1.182
 5843SOL    HW218429   1.614   3.210   1.206
 5844SOL     OW18430   0.586   0.741   4.808
 5844SOL    HW118431   0.548   0.666   4.862
 5844SOL    HW218432   0.526   0.760   4.731
 5845SOL     OW18433   0.677   5.778   1.893
 5845SOL    HW118434   0.696   5.865   1.848
 5845SOL    HW218435   0.741   5.765   1.969
 5846SOL     OW18436   6.366   3.697   5.601
 5846SOL    HW118437   6.429   3.759   5.648
 5846SOL    HW218438   6.375   3.708   5.502
 5847SOL     OW18439   3.028   3.204   0.430
 5847SOL    HW118440   2.931   3.227   0.440
 5847SOL    HW218441   3.042   3.157   0.342
 5848SOL     OW18442   2.036   5.977   3.537
 5848SOL    HW118443   2.021   5.891   3.488
 5848SOL    HW218444   2.079   5.958   3.625
 5849SOL     OW18445   2.549   5.973   5.388
 5849SOL    HW118446   2.507   6.064   5.393
 5849SOL    HW218447   2.513   5.924   5.308
 5850SOL     OW18448   0.897   1.975   1.554
 5850SOL    HW118449   0.861   2.057   1.509
 5850SOL    HW218450   0.837   1.898   1.533
 5851SOL     OW18451   5.446   2.896   4.576
 5851SOL    HW118452   5.460   2.975   4.516
 5851SOL    HW218453   5.434   2.927   4.670
 5852SOL     OW18454   5.205   5.137   3.532
 5852SOL    HW118455   5.292   5.154   3.486
 5852SOL    HW218456   5.148   5.078   3.475
 5853SOL     OW18457   3.872   5.061   5.495
 5853SOL    HW118458   3.784   5.102   5.473
 5853SOL    HW218459   3.927   5.054   5.411
 5854SOL     OW18460   2.427   5.007   6.135
 5854SOL    HW118461   2.379   4.950   6.068
 5854SOL    HW218462   2.525   4.988   6.132
 5855SOL     OW18463   1.967   2.478   3.761
 5855SOL    HW118464   2.014   2.566   3.767
 5855SOL    HW218465   1.954   2.442   3.854
 5856SOL     OW18466   1.754   0.487   2.905
 5856SOL    HW118467   1.685   0.493   2.833
 5856SOL    HW218468   1.712   0.449   2.988
 5857SOL     OW18469   0.539   4.243   6.275
 5857SOL    HW118470   0.522   4.159   6.223
 5857SOL    HW218471   0.453   4.274   6.317
 5858SOL     OW18472   1.688   2.124   3.264
 5858SOL    HW118473   1.786   2.125   3.286
 5858SOL    HW218474   1.647   2.210   3.294
 5859SOL     OW18475   6.252   0.104   2.763
 5859SOL    HW118476   6.348   0.079   2.755
 5859SOL    HW218477   6.228   0.167   2.689
 5860SOL     OW18478   0.180   3.239   3.653
 5860SOL    HW118479   0.265   3.238   3.600
 5860SOL    HW218480   0.194   3.193   3.740
 5861SOL     OW18481   5.813   1.416   5.095
 5861SOL    HW118482   5.772   1.388   5.182
 5861SOL    HW218483   5.843   1.512   5.102
 5862SOL     OW18484   0.143   5.400   3.147
 5862SOL    HW118485   0.114   5.474   3.087
 5862SOL    HW218486   0.191   5.330   3.093
 5863SOL     OW18487   3.890   0.179   5.029
 5863SOL    HW118488   3.804   0.199   5.076
 5863SOL    HW218489   3.933   0.264   5.000
 5864SOL     OW18490   3.311   4.119   3.142
 5864SOL    HW118491   3.312   4.217   3.123
 5864SOL    HW218492   3.380   4.074   3.085
 5865SOL     OW18493   5.936   1.104   5.591
 5865SOL    HW118494   5.840   1.076   5.591
 5865SOL    HW218495   5.973   1.100   5.499
 5866SOL     OW18496   4.173   3.428   2.135
 5866SOL    HW118497   4.168   3.528   2.143
 5866SOL    HW218498   4.168   3.387   2.226
 5867SOL     OW18499   2.879   2.402   1.541
 5867SOL    HW118500   2.954   2.446   1.590
 5867SOL    HW218501   2.880   2.429   1.445
 5868SOL     OW18502   0.509   1.587   6.527
 5868SOL    HW118503   0.443   1.656   6.499
 5868SOL    HW218504   0.461   1.500   6.543
 5869SOL     OW18505   1.452   4.730   4.371
 5869SOL    HW118506   1.428   4.669   4.297
 5869SOL    HW218507   1.418   4.693   4.458
 5870SOL     OW18508   4.373   4.869   5.305
 5870SOL    HW118509   4.403   4.867   5.400
 5870SOL    HW218510   4.428   4.935   5.254
 5871SOL     OW18511   3.194   3.315   2.984
 5871SOL    HW118512   3.249   3.304   2.901
 5871SOL    HW218513   3.154   3.406   2.986
 5872SOL     OW18514   4.461   6.662   2.280
 5872SOL    HW118515   4.397   6.734   2.307
 5872SOL    HW218516   4.468   6.659   2.181
 5873SOL     OW18517   3.613   4.853   2.742
 5873SOL    HW118518   3.519   4.828   2.767
 5873SOL    HW218519   3.617   4.870   2.643
 5874SOL     OW18520   2.067   4.409   5.769
 5874SOL    HW118521   2.074   4.485   5.705
 5874SOL    HW218522   2.021   4.332   5.725
 5875SOL     OW18523   3.541   1.529   0.232
 5875SOL    HW118524   3.506   1.504   0.142
 5875SOL    HW218525   3.466   1.565   0.288
 5876SOL     OW18526   3.682   3.276   2.051
 5876SOL    HW118527   3.691   3.365   2.096
 5876SOL    HW218528   3.638   3.287   1.962
 5877SOL     OW18529   6.047   5.687   1.073
 5877SOL    HW118530   6.063   5.686   1.172
 5877SOL    HW218531   5.958   5.646   1.054
 5878SOL     OW18532   1.824   4.936   2.691
 5878SOL    HW118533   1.746   4.889   2.733
 5878SOL    HW218534   1.853   4.887   2.609
 5879SOL     OW18535   6.869   3.991   0.029
 5879SOL    HW118536   6.861   3.996   0.128
 5879SOL    HW218537   6.789   3.943   7.021
 5880SOL     OW18538   2.753   6.637   1.400
 5880SOL    HW118539   2.775   6.586   1.484
 5880SOL    HW218540   2.831   6.635   1.338
 5881SOL     OW18541   0.638   4.797   3.906
 5881SOL    HW118542   0.606   4.725   3.845
 5881SOL    HW218543   0.604   4.779   3.999
 5882SOL     OW18544   5.035   0.726   1.188
 5882SOL    HW118545   5.044   0.687   1.096
 5882SOL    HW218546   5.044   0.654   1.256
 5883SOL     OW18547   6.501   2.655   6.461
 5883SOL    HW118548   6.559   2.649   6.543
 5883SOL    HW218549   6.408   2.682   6.488
 5884SOL     OW18550   0.715   1.146   3.250
 5884SOL    HW118551   0.678   1.066   3.202
 5884SOL    HW218552   0.786   1.188   3.193
 5885SOL     OW18553   6.794   6.560   1.157
 5885SOL    HW118554   6.838   6.648   1.178
 5885SOL    HW218555   6.845   6.514   1.085
 5886SOL     OW18556   0.689   2.741   5.239
 5886SOL    HW118557   0.709   2.771   5.332
 5886SOL    HW218558   0.649   2.650   5.241
 5887SOL     OW18559   3.316   1.020   4.327
 5887SOL    HW118560   3.224   1.050   4.301
 5887SOL    HW218561   3.357   0.968   4.251
 5888SOL     OW18562   1.751   6.331   2.926
 5888SOL    HW118563   1.748   6.354   2.828
 5888SOL    HW218564   1.845   6.335   2.958
 5889SOL     OW18565   2.419   0.356   1.083
 5889SOL    HW118566   2.468   0.443   1.074
 5889SOL    HW218567   2.352   0.349   1.009
 5890SOL     OW18568   1.890   6.474   5.014
 5890SOL    HW118569   1.842   6.460   5.101
 5890SOL    HW218570   1.959   6.546   5.025
 5891SOL     OW18571   3.954   3.088   0.064
 5891SOL    HW118572   3.980   3.124   7.003
 5891SOL    HW218573   3.876   3.138   0.099
 5892SOL     OW18574   0.762   6.138   1.306
 5892SOL    HW118575   0.834   6.201   1.277
 5892SOL    HW218576   0.709   6.180   1.380
 5893SOL     OW18577   1.338   2.221   3.684
 5893SOL    HW118578   1.321   2.293   3.752
 5893SOL    HW218579   1.350   2.133   3.731
 5894SOL     OW18580   1.515   4.586   3.538
 5894SOL    HW118581   1.538   4.489   3.551
 5894SOL    HW218582   1.595   4.636   3.507
 5895SOL     OW18583   5.107   2.878   4.571
 5895SOL    HW118584   5.127   2.807   4.503
 5895SOL    HW218585   5.024   2.926   4.545
 5896SOL     OW18586   3.769   2.306   6.355
 5896SOL    HW118587   3.671   2.317   6.372
 5896SOL    HW218588   3.818   2.304   6.442
 5897SOL     OW18589   3.933   0.689   0.774
 5897SOL    HW118590   3.908   0.593   0.761
 5897SOL    HW218591   3.849   0.743   0.784
 5898SOL     OW18592   1.368   0.322   1.522
 5898SOL    HW118593   1.399   0.313   1.616
 5898SOL    HW218594   1.378   0.235   1.474
 5899SOL     OW18595   5.443   7.000   4.946
 5899SOL    HW118596   5.374   0.009   5.007
 5899SOL    HW218597   5.527   0.026   4.953
 5900SOL     OW18598   4.929   4.916   3.109
 5900SOL    HW118599   4.952   4.820   3.125
 5900SOL    HW218600   4.833   4.923   3.083
 5901SOL     OW18601   2.403   6.328   6.654
 5901SOL    HW118602   2.320   6.384   6.655
 5901SOL    HW218603   2.446   6.332   6.745
 5902SOL     OW18604   6.890   2.440   0.796
 5902SOL    HW118605   6.814   2.384   0.761
 5902SOL    HW218606   6.904   2.518   0.736
 5903SOL     OW18607   5.990   4.487   0.207
 5903SOL    HW118608   5.982   4.574   0.255
 5903SOL    HW218609   5.949   4.414   0.262
 5904SOL     OW18610   0.486   3.429   2.373
 5904SOL    HW118611   0.397   3.396   2.343
 5904SOL    HW218612   0.480   3.461   2.467
 5905SOL     OW18613   6.756   6.127   2.781
 5905SOL    HW118614   6.701   6.048   2.809
 5905SOL    HW218615   6.757   6.134   2.681
 5906SOL     OW18616   5.767   0.947   3.965
 5906SOL    HW118617   5.730   1.040   3.959
 5906SOL    HW218618   5.778   0.910   3.872
 5907SOL     OW18619   1.089   6.276   0.967
 5907SOL    HW118620   0.991   6.259   0.970
 5907SOL    HW218621   1.135   6.196   0.928
 5908SOL     OW18622   0.871   2.351   5.934
 5908SOL    HW118623   0.793   2.389   5.984
 5908SOL    HW218624   0.876   2.394   5.844
 5909SOL     OW18625   1.436   6.144   0.391
 5909SOL    HW118626   1.418   6.143   0.293
 5909SOL    HW218627   1.378   6.212   0.435
 5910SOL     OW18628   1.063   2.636   3.433
 5910SOL    HW118629   0.982   2.597   3.389
 5910SOL    HW218630   1.094   2.574   3.506
 5911SOL     OW18631   6.484   5.686   6.708
 5911SOL    HW118632   6.461   5.620   6.779
 5911SOL    HW218633   6.521   5.638   6.629
 5912SOL     OW18634   6.454   1.475   5.892
 5912SOL    HW118635   6.489   1.393   5.936
 5912SOL    HW218636   6.490   1.556   5.939
 5913SOL     OW18637   5.665   3.147   0.161
 5913SOL    HW118638   5.645   3.069   0.102
 5913SOL    HW218639   5.582   3.202   0.173
 5914SOL     OW18640   0.909   6.583   6.318
 5914SOL    HW118641   0.996   6.626   6.296
 5914SOL    HW218642   0.925   6.496   6.364
 5915SOL     OW18643   3.432   6.849   0.354
 5915SOL    HW118644   3.342   6.821   0.321
 5915SOL    HW218645   3.503   6.810   0.296
 5916SOL     OW18646   0.900   6.544   1.745
 5916SOL    HW118647   0.974   6.611   1.745
 5916SOL    HW218648   0.922   6.470   1.807
 5917SOL     OW18649   3.295   4.463   6.392
 5917SOL    HW118650   3.313   4.365   6.394
 5917SOL    HW218651   3.216   4.481   6.334
 5918SOL     OW18652   2.595   5.842   5.937
 5918SOL    HW118653   2.500   5.811   5.937
 5918SOL    HW218654   2.625   5.858   5.843
 5919SOL     OW18655   3.378   3.417   3.414
 5919SOL    HW118656   3.413   3.354   3.344
 5919SOL    HW218657   3.328   3.365   3.483
 5920SOL     OW18658   5.912   0.969   6.077
 5920SOL    HW118659   5.990   0.907   6.083
 5920SOL    HW218660   5.945   1.062   6.061
 5921SOL     OW18661   3.935   4.631   6.878
 5921SOL    HW118662   3.949   4.635   6.976
 5921SOL    HW218663   3.837   4.637   6.858
 5922SOL     OW18664   6.601   4.058   3.721
 5922SOL    HW118665   6.511   4.050   3.764
 5922SOL    HW218666   6.597   4.126   3.648
 5923SOL     OW18667   6.175   1.350   1.973
 5923SOL    HW118668   6.270   1.330   1.998
 5923SOL    HW218669   6.173   1.402   1.888
 5924SOL     OW18670   5.371   6.940   3.020
 5924SOL    HW118671   5.346   6.962   2.925
 5924SOL    HW218672   5.291   6.954   3.079
 5925SOL     OW18673   4.334   5.396   1.431
 5925SOL    HW118674   4.321   5.494   1.420
 5925SOL    HW218675   4.431   5.376   1.441
 5926SOL     OW18676   3.971   4.873   3.326
 5926SOL    HW118677   4.036   4.835   3.393
 5926SOL    HW218678   3.878   4.862   3.360
 5927SOL     OW18679   1.707   3.792   2.143
 5927SOL    HW118680   1.744   3.701   2.161
 5927SOL    HW218681   1.753   3.831   2.064
 5928SOL     OW18682   4.415   0.369   0.921
 5928SOL    HW118683   4.374   0.444   0.870
 5928SOL    HW218684   4.351   0.292   0.924
 5929SOL     OW18685   6.470   0.552   5.371
 5929SOL    HW118686   6.403   0.624   5.387
 5929SOL    HW218687   6.474   0.533   5.273
 5930SOL     OW18688   1.440   3.040   1.342
 5930SOL    HW118689   1.493   3.018   1.259
 5930SOL    HW218690   1.352   3.080   1.315
 5931SOL     OW18691   5.501   6.044   2.964
 5931SOL    HW118692   5.411   6.087   2.968
 5931SOL    HW218693   5.572   6.114   2.964
 5932SOL     OW18694   3.427   0.121   6.729
 5932SOL    HW118695   3.421   0.218   6.751
 5932SOL    HW218696   3.337   0.079   6.743
 5933SOL     OW18697   0.275   5.738   4.444
 5933SOL    HW118698   0.372   5.760   4.437
 5933SOL    HW218699   0.253   5.666   4.378
 5934SOL     OW18700   3.493   3.870   5.624
 5934SOL    HW118701   3.409   3.824   5.656
 5934SOL    HW218702   3.569   3.843   5.682
 5935SOL     OW18703   0.264   5.864   5.792
 5935SOL    HW118704   0.343   5.832   5.739
 5935SOL    HW218705   0.221   5.786   5.837
 5936SOL     OW18706   3.100   3.066   2.715
 5936SOL    HW118707   3.101   3.031   2.621
 5936SOL    HW218708   3.178   3.029   2.765
 5937SOL     OW18709   0.075   2.580   2.109
 5937SOL    HW118710   0.009   2.543   2.043
 5937SOL    HW218711   0.087   2.678   2.091
 5938SOL     OW18712   5.709   5.436   5.171
 5938SOL    HW118713   5.713   5.403   5.077
 5938SOL    HW218714   5.641   5.509   5.178
 5939SOL     OW18715   3.525   6.355   4.170
 5939SOL    HW118716   3.609   6.380   4.219
 5939SOL    HW218717   3.505   6.425   4.101
 5940SOL     OW18718   4.868   5.322   3.335
 5940SOL    HW118719   4.934   5.390   3.301
 5940SOL    HW218720   4.916   5.257   3.394
 5941SOL     OW18721   6.250   2.512   2.284
 5941SOL    HW118722   6.157   2.518   2.321
 5941SOL    HW218723   6.248   2.465   2.196
 5942SOL     OW18724   6.379   3.149   5.595
 5942SOL    HW118725   6.467   3.190   5.574
 5942SOL    HW218726   6.305   3.212   5.568
 5943SOL     OW18727   4.153   3.144   0.227
 5943SOL    HW118728   4.185   3.229   0.185
 5943SOL    HW218729   4.078   3.107   0.173
 5944SOL     OW18730   0.375   2.960   0.129
 5944SOL    HW118731   0.378   3.007   0.041
 5944SOL    HW218732   0.456   2.903   0.140
 5945SOL     OW18733   0.573   6.205   4.942
 5945SOL    HW118734   0.558   6.142   4.865
 5945SOL    HW218735   0.671   6.211   4.961
 5946SOL     OW18736   3.703   4.437   6.490
 5946SOL    HW118737   3.630   4.491   6.533
 5946SOL    HW218738   3.783   4.435   6.550
 5947SOL     OW18739   3.136   3.075   4.817
 5947SOL    HW118740   3.095   3.039   4.901
 5947SOL    HW218741   3.074   3.140   4.775
 5948SOL     OW18742   4.877   4.238   2.195
 5948SOL    HW118743   4.955   4.294   2.168
 5948SOL    HW218744   4.858   4.170   2.124
 5949SOL     OW18745   5.751   5.375   1.120
 5949SOL    HW118746   5.780   5.373   1.216
 5949SOL    HW218747   5.772   5.465   1.081
 5950SOL     OW18748   5.089   2.254   5.319
 5950SOL    HW118749   5.113   2.217   5.229
 5950SOL    HW218750   5.002   2.303   5.313
 5951SOL     OW18751   0.526   5.359   5.004
 5951SOL    HW118752   0.557   5.274   4.961
 5951SOL    HW218753   0.604   5.406   5.045
 5952SOL     OW18754   4.436   4.973   2.222
 5952SOL    HW118755   4.496   5.025   2.282
 5952SOL    HW218756   4.376   4.915   2.277
 5953SOL     OW18757   6.285   2.897   4.980
 5953SOL    HW118758   6.305   2.866   4.888
 5953SOL    HW218759   6.291   2.997   4.983
 5954SOL     OW18760   0.371   5.559   5.627
 5954SOL    HW118761   0.316   5.586   5.548
 5954SOL    HW218762   0.350   5.464   5.651
 5955SOL     OW18763   4.867   4.805   1.327
 5955SOL    HW118764   4.873   4.739   1.251
 5955SOL    HW218765   4.865   4.898   1.290
 5956SOL     OW18766   5.477   2.605   4.280
 5956SOL    HW118767   5.399   2.666   4.268
 5956SOL    HW218768   5.455   2.515   4.243
 5957SOL     OW18769   1.135   0.862   3.137
 5957SOL    HW118770   1.136   0.943   3.196
 5957SOL    HW218771   1.052   0.862   3.082
 5958SOL     OW18772   3.530   0.091   3.089
 5958SOL    HW118773   3.500   0.031   3.015
 5958SOL    HW218774   3.580   0.036   3.157
 5959SOL     OW18775   4.897   2.457   5.274
 5959SOL    HW118776   4.861   2.543   5.311
 5959SOL    HW218777   4.849   2.435   5.189
 5960SOL     OW18778   3.127   6.474   4.834
 5960SOL    HW118779   3.191   6.397   4.838
 5960SOL    HW218780   3.067   6.463   4.755
 5961SOL     OW18781   3.985   1.948   2.338
 5961SOL    HW118782   3.948   2.040   2.327
 5961SOL    HW218783   3.943   1.904   2.417
 5962SOL     OW18784   4.703   6.233   6.358
 5962SOL    HW118785   4.784   6.235   6.299
 5962SOL    HW218786   4.658   6.322   6.356
 5963SOL     OW18787   3.453   4.570   6.575
 5963SOL    HW118788   3.405   4.624   6.644
 5963SOL    HW218789   3.388   4.540   6.505
 5964SOL     OW18790   2.297   0.363   3.080
 5964SOL    HW118791   2.334   0.436   3.023
 5964SOL    HW218792   2.329   0.375   3.174
 5965SOL     OW18793   1.824   0.528   6.685
 5965SOL    HW118794   1.874   0.514   6.599
 5965SOL    HW218795   1.733   0.487   6.677
 5966SOL     OW18796   1.801   6.886   5.713
 5966SOL    HW118797   1.756   6.966   5.672
 5966SOL    HW218798   1.759   6.803   5.678
 5967SOL     OW18799   2.367   2.318   5.203
 5967SOL    HW118800   2.463   2.343   5.218
 5967SOL    HW218801   2.353   2.298   5.106
 5968SOL     OW18802   5.782   2.339   0.128
 5968SOL    HW118803   5.754   2.404   0.199
 5968SOL    HW218804   5.860   2.285   0.161
 5969SOL     OW18805   4.986   0.258   6.576
 5969SOL    HW118806   4.981   0.351   6.541
 5969SOL    HW218807   4.927   0.198   6.521
 5970SOL     OW18808   0.144   4.236   0.645
 5970SOL    HW118809   0.226   4.292   0.648
 5970SOL    HW218810   0.169   4.139   0.651
 5971SOL     OW18811   5.763   0.288   2.423
 5971SOL    HW118812   5.703   0.352   2.374
 5971SOL    HW218813   5.844   0.270   2.368
 5972SOL     OW18814   5.146   5.229   6.967
 5972SOL    HW118815   5.231   5.190   6.934
 5972SOL    HW218816   5.071   5.165   6.948
 5973SOL     OW18817   2.134   3.555   2.793
 5973SOL    HW118818   2.133   3.634   2.853
 5973SOL    HW218819   2.171   3.476   2.843
 5974SOL     OW18820   4.541   0.775   0.105
 5974SOL    HW118821   4.462   0.732   0.061
 5974SOL    HW218822   4.512   0.818   0.190
 5975SOL     OW18823   5.056   4.897   0.744
 5975SOL    HW118824   5.078   4.801   0.725
 5975SOL    HW218825   5.136   4.942   0.783
 5976SOL     OW18826   3.831   3.576   5.735
 5976SOL    HW118827   3.864   3.631   5.659
 5976SOL    HW218828   3.774   3.502   5.701
 5977SOL     OW18829   0.814   5.645   0.209
 5977SOL    HW118830   0.719   5.619   0.225
 5977SOL    HW218831   0.824   5.682   0.117
 5978SOL     OW18832   3.786   5.251   0.298
 5978SOL    HW118833   3.881   5.227   0.321
 5978SOL    HW218834   3.784   5.298   0.210
 5979SOL     OW18835   6.108   0.409   2.130
 5979SOL    HW118836   6.071   0.334   2.185
 5979SOL    HW218837   6.179   0.374   2.069
 5980SOL     OW18838   3.355   2.899   1.999
 5980SOL    HW118839   3.453   2.889   1.981
 5980SOL    HW218840   3.305   2.834   1.942
 5981SOL     OW18841   4.864   2.612   0.375
 5981SOL    HW118842   4.867   2.584   0.279
 5981SOL    HW218843   4.785   2.571   0.419
 5982SOL     OW18844   5.248   2.257   2.152
 5982SOL    HW118845   5.162   2.307   2.158
 5982SOL    HW218846   5.264   2.230   2.057
 5983SOL     OW18847   0.497   0.648   3.892
 5983SOL    HW118848   0.538   0.558   3.877
 5983SOL    HW218849   0.488   0.695   3.804
 5984SOL     OW18850   5.758   6.309   3.296
 5984SOL    HW118851   5.682   6.361   3.335
 5984SOL    HW218852   5.839   6.367   3.293
 5985SOL     OW18853   6.283   2.309   3.755
 5985SOL    HW118854   6.301   2.385   3.817
 5985SOL    HW218855   6.325   2.226   3.792
 5986SOL     OW18856   4.083   3.839   5.688
 5986SOL    HW118857   4.175   3.874   5.707
 5986SOL    HW218858   4.017   3.914   5.693
 5987SOL     OW18859   6.584   0.962   4.598
 5987SOL    HW118860   6.564   0.865   4.610
 5987SOL    HW218861   6.548   0.993   4.510
 5988SOL     OW18862   2.963   1.185   6.675
 5988SOL    HW118863   3.031   1.124   6.716
 5988SOL    HW218864   2.880   1.133   6.656
 5989SOL     OW18865   1.106   5.446   6.623
 5989SOL    HW118866   1.070   5.359   6.655
 5989SOL    HW218867   1.156   5.432   6.538
 5990SOL     OW18868   4.366   4.135   0.928
 5990SOL    HW118869   4.338   4.070   0.999
 5990SOL    HW218870   4.341   4.099   0.838
 5991SOL     OW18871   4.053   5.697   0.233
 5991SOL    HW118872   4.145   5.736   0.223
 5991SOL    HW218873   4.047   5.612   0.180
 5992SOL     OW18874   3.138   0.414   2.550
 5992SOL    HW118875   3.220   0.467   2.569
 5992SOL    HW218876   3.146   0.323   2.590
 5993SOL     OW18877   6.371   3.663   6.783
 5993SOL    HW118878   6.367   3.683   6.881
 5993SOL    HW218879   6.371   3.564   6.769
 5994SOL     OW18880   6.984   3.309   0.939
 5994SOL    HW118881   0.045   3.345   0.963
 5994SOL    HW218882   6.993   3.214   0.909
 5995SOL     OW18883   4.176   3.197   1.329
 5995SOL    HW118884   4.080   3.168   1.331
 5995SOL    HW218885   4.220   3.157   1.248
 5996SOL     OW18886   2.277   5.666   1.247
 5996SOL    HW118887   2.297   5.763   1.263
 5996SOL    HW218888   2.296   5.614   1.330
 5997SOL     OW18889   6.827   6.811   3.419
 5997SOL    HW118890   6.924   6.817   3.443
 5997SOL    HW218891   6.797   6.716   3.425
 5998SOL     OW18892   5.382   0.689   1.578
 5998SOL    HW118893   5.360   0.787   1.573
 5998SOL    HW218894   5.298   0.636   1.586
 5999SOL     OW18895   4.006   3.237   0.983
 5999SOL    HW118896   4.047   3.226   0.892
 5999SOL    HW218897   3.910   3.211   0.980
 6000SOL     OW18898   0.534   5.601   0.252
 6000SOL    HW118899   0.542   5.695   0.284
 6000SOL    HW218900   0.439   5.570   0.261
 6001SOL     OW18901   5.309   5.965   6.467
 6001SOL    HW118902   5.211   5.981   6.460
 6001SOL    HW218903   5.347   6.021   6.540
 6002SOL     OW18904   6.879   6.839   4.758
 6002SOL    HW118905   6.837   6.858   4.669
 6002SOL    HW218906   6.860   6.915   4.821
 6003SOL     OW18907   6.507   2.346   4.599
 6003SOL    HW118908   6.422   2.382   4.638
 6003SOL    HW218909   6.499   2.247   4.589
 6004SOL     OW18910   5.804   2.621   3.170
 6004SOL    HW118911   5.798   2.522   3.186
 6004SOL    HW218912   5.719   2.664   3.201
 6005SOL     OW18913   5.121   4.251   5.179
 6005SOL    HW118914   5.117   4.152   5.165
 6005SOL    HW218915   5.103   4.298   5.093
 6006SOL     OW18916   3.605   0.239   5.117
 6006SOL    HW118917   3.520   0.240   5.065
 6006SOL    HW218918   3.626   0.331   5.149
 6007SOL     OW18919   0.374   3.917   6.764
 6007SOL    HW118920   0.349   3.964   6.679
 6007SOL    HW218921   0.316   3.949   6.839
 6008SOL     OW18922   1.732   4.709   5.722
 6008SOL    HW118923   1.662   4.750   5.664
 6008SOL    HW218924   1.808   4.773   5.733
 6009SOL     OW18925   5.073   6.064   3.228
 6009SOL    HW118926   5.030   6.155   3.229
 6009SOL    HW218927   5.059   6.021   3.317
 6010SOL     OW18928   0.344   4.162   4.427
 6010SOL    HW118929   0.425   4.185   4.374
 6010SOL    HW218930   0.267   4.143   4.366
 6011SOL     OW18931   4.677   2.096   2.778
 6011SOL    HW118932   4.757   2.076   2.722
 6011SOL    HW218933   4.594   2.082   2.724
 6012SOL     OW18934   5.762   0.385   6.805
 6012SOL    HW118935   5.766   0.316   6.733
 6012SOL    HW218936   5.838   0.372   6.868
 6013SOL     OW18937   5.052   1.174   2.661
 6013SOL    HW118938   5.003   1.247   2.709
 6013SOL    HW218939   5.032   1.180   2.563
 6014SOL     OW18940   3.341   3.438   3.798
 6014SOL    HW118941   3.373   3.500   3.727
 6014SOL    HW218942   3.254   3.470   3.834
 6015SOL     OW18943   6.011   2.907   4.553
 6015SOL    HW118944   5.965   2.909   4.642
 6015SOL    HW218945   5.947   2.874   4.484
 6016SOL     OW18946   4.733   1.806   5.430
 6016SOL    HW118947   4.814   1.804   5.488
 6016SOL    HW218948   4.753   1.854   5.345
 6017SOL     OW18949   0.225   3.947   4.545
 6017SOL    HW118950   0.296   3.880   4.566
 6017SOL    HW218951   0.268   4.037   4.530
 6018SOL     OW18952   3.255   1.668   4.482
 6018SOL    HW118953   3.241   1.752   4.430
 6018SOL    HW218954   3.347   1.669   4.522
 6019SOL     OW18955   1.058   3.998   6.017
 6019SOL    HW118956   1.156   3.977   6.019
 6019SOL    HW218957   1.006   3.913   6.004
 6020SOL     OW18958   1.397   5.342   1.205
 6020SOL    HW118959   1.412   5.319   1.109
 6020SOL    HW218960   1.338   5.273   1.246
 6021SOL     OW18961   4.439   0.300   2.667
 6021SOL    HW118962   4.366   0.347   2.618
 6021SOL    HW218963   4.446   0.338   2.760
 6022SOL     OW18964   6.455   1.920   3.189
 6022SOL    HW118965   6.466   1.949   3.094
 6022SOL    HW218966   6.534   1.950   3.243
 6023SOL     OW18967   5.206   0.344   1.563
 6023SOL    HW118968   5.166   0.286   1.634
 6023SOL    HW218969   5.275   0.292   1.513
 6024SOL     OW18970   0.821   5.010   0.765
 6024SOL    HW118971   0.726   5.041   0.768
 6024SOL    HW218972   0.840   4.952   0.844
 6025SOL     OW18973   2.580   1.650   3.559
 6025SOL    HW118974   2.659   1.680   3.611
 6025SOL    HW218975   2.599   1.659   3.461
 6026SOL     OW18976   6.322   4.554   4.681
 6026SOL    HW118977   6.311   4.496   4.600
 6026SOL    HW218978   6.260   4.632   4.675
 6027SOL     OW18979   6.170   3.458   5.984
 6027SOL    HW118980   6.249   3.439   5.926
 6027SOL    HW218981   6.199   3.464   6.080
 6028SOL     OW18982   5.431   5.055   1.225
 6028SOL    HW118983   5.497   5.020   1.291
 6028SOL    HW218984   5.377   4.979   1.188
 6029SOL     OW18985   2.205   6.927   3.418
 6029SOL    HW118986   2.221   6.876   3.334
 6029SOL    HW218987   2.190   7.023   3.397
 6030SOL     OW18988   5.024   3.487   4.852
 6030SOL    HW118989   5.001   3.550   4.777
 6030SOL    HW218990   4.961   3.501   4.928
 6031SOL     OW18991   1.417   6.101   4.131
 6031SOL    HW118992   1.345   6.044   4.091
 6031SOL    HW218993   1.434   6.179   4.071
 6032SOL     OW18994   3.209   5.822   3.838
 6032SOL    HW118995   3.277   5.753   3.864
 6032SOL    HW218996   3.224   5.905   3.891
 6033SOL     OW18997   2.415   2.613   2.661
 6033SOL    HW118998   2.352   2.539   2.683
 6033SOL    HW218999   2.508   2.588   2.689
 6034SOL     OW19000   0.893   0.136   6.305
 6034SOL    HW119001   0.908   0.037   6.300
 6034SOL    HW219002   0.874   0.162   6.400
 6035SOL     OW19003   0.924   1.229   2.569
 6035SOL    HW119004   0.838   1.188   2.539
 6035SOL    HW219005   1.000   1.190   2.518
 6036SOL     OW19006   6.347   4.926   1.758
 6036SOL    HW119007   6.379   4.891   1.670
 6036SOL    HW219008   6.369   4.860   1.830
 6037SOL     OW19009   4.056   1.095   0.890
 6037SOL    HW119010   4.009   1.012   0.919
 6037SOL    HW219011   4.115   1.075   0.812
 6038SOL     OW19012   0.313   2.402   6.763
 6038SOL    HW119013   0.260   2.454   6.830
 6038SOL    HW219014   0.370   2.464   6.710
 6039SOL     OW19015   4.079   3.519   3.888
 6039SOL    HW119016   4.150   3.452   3.907
 6039SOL    HW219017   4.020   3.485   3.814
 6040SOL     OW19018   1.934   1.592   0.352
 6040SOL    HW119019   1.984   1.506   0.350
 6040SOL    HW219020   1.837   1.576   0.333
 6041SOL     OW19021   3.032   3.066   5.525
 6041SOL    HW119022   2.938   3.097   5.514
 6041SOL    HW219023   3.059   3.011   5.445
 6042SOL     OW19024   4.421   5.887   2.998
 6042SOL    HW119025   4.356   5.811   2.989
 6042SOL    HW219026   4.425   5.916   3.094
 6043SOL     OW19027   1.235   0.827   3.763
 6043SOL    HW119028   1.232   0.769   3.682
 6043SOL    HW219029   1.143   0.831   3.804
 6044SOL     OW19030   2.142   1.666   1.881
 6044SOL    HW119031   2.085   1.584   1.876
 6044SOL    HW219032   2.235   1.639   1.908
 6045SOL     OW19033   4.845   3.078   3.666
 6045SOL    HW119034   4.825   3.114   3.575
 6045SOL    HW219035   4.869   3.153   3.727
 6046SOL     OW19036   3.082   2.661   1.116
 6046SOL    HW119037   3.181   2.647   1.112
 6046SOL    HW219038   3.059   2.751   1.081
 6047SOL     OW19039   5.578   2.373   0.764
 6047SOL    HW119040   5.523   2.294   0.792
 6047SOL    HW219041   5.594   2.432   0.844
 6048SOL     OW19042   5.229   5.059   5.067
 6048SOL    HW119043   5.231   5.135   5.131
 6048SOL    HW219044   5.244   5.093   4.974
 6049SOL     OW19045   5.748   4.403   6.168
 6049SOL    HW119046   5.809   4.457   6.110
 6049SOL    HW219047   5.747   4.309   6.136
 6050SOL     OW19048   3.047   5.103   0.447
 6050SOL    HW119049   3.130   5.157   0.429
 6050SOL    HW219050   2.999   5.085   0.361
 6051SOL     OW19051   0.739   0.945   2.434
 6051SOL    HW119052   0.734   0.984   2.342
 6051SOL    HW219053   0.646   0.937   2.471
 6052SOL     OW19054   5.301   0.419   1.163
 6052SOL    HW119055   5.367   0.344   1.153
 6052SOL    HW219056   5.350   0.506   1.167
 6053SOL     OW19057   4.535   0.729   6.106
 6053SOL    HW119058   4.454   0.786   6.110
 6053SOL    HW219059   4.508   0.632   6.102
 6054SOL     OW19060   3.578   5.103   0.936
 6054SOL    HW119061   3.478   5.098   0.940
 6054SOL    HW219062   3.607   5.198   0.949
 6055SOL     OW19063   3.354   4.989   6.525
 6055SOL    HW119064   3.425   5.056   6.543
 6055SOL    HW219065   3.319   5.002   6.432
 6056SOL     OW19066   5.892   2.973   4.815
 6056SOL    HW119067   5.795   2.950   4.820
 6056SOL    HW219068   5.940   2.931   4.893
 6057SOL     OW19069   5.565   0.448   2.301
 6057SOL    HW119070   5.590   0.543   2.315
 6057SOL    HW219071   5.465   0.439   2.300
 6058SOL     OW19072   6.241   3.536   0.330
 6058SOL    HW119073   6.309   3.584   0.386
 6058SOL    HW219074   6.175   3.490   0.389
 6059SOL     OW19075   5.127   4.076   5.389
 6059SOL    HW119076   5.108   4.169   5.360
 6059SOL    HW219077   5.102   4.012   5.316
 6060SOL     OW19078   3.363   3.173   0.224
 6060SOL    HW119079   3.410   3.260   0.241
 6060SOL    HW219080   3.408   3.125   0.149
 6061SOL     OW19081   4.672   4.937   0.111
 6061SOL    HW119082   4.656   4.846   0.150
 6061SOL    HW219083   4.635   4.940   0.018
 6062SOL     OW19084   2.681   1.755   6.779
 6062SOL    HW119085   2.756   1.797   6.831
 6062SOL    HW219086   2.717   1.703   6.702
 6063SOL     OW19087   3.939   4.399   5.418
 6063SOL    HW119088   3.849   4.377   5.379
 6063SOL    HW219089   3.999   4.320   5.408
 6064SOL     OW19090   0.722   0.264   0.826
 6064SOL    HW119091   0.654   0.203   0.869
 6064SOL    HW219092   0.738   0.235   0.732
 6065SOL     OW19093   1.275   5.122   1.335
 6065SOL    HW119094   1.253   5.040   1.282
 6065SOL    HW219095   1.356   5.104   1.390
 6066SOL     OW19096   5.336   1.321   3.690
 6066SOL    HW119097   5.326   1.385   3.766
 6066SOL    HW219098   5.312   1.367   3.604
 6067SOL     OW19099   5.622   0.295   6.021
 6067SOL    HW119100   5.557   0.255   5.956
 6067SOL    HW219101   5.574   0.359   6.081
 6068SOL     OW19102   5.015   2.219   4.850
 6068SOL    HW119103   4.934   2.247   4.798
 6068SOL    HW219104   4.990   2.144   4.911
 6069SOL     OW19105   6.841   2.968   5.911
 6069SOL    HW119106   6.793   2.981   5.824
 6069SOL    HW219107   6.795   3.022   5.982
 6070SOL     OW19108   3.610   2.285   1.566
 6070SOL    HW119109   3.675   2.329   1.629
 6070SOL    HW219110   3.655   2.211   1.517
 6071SOL     OW19111   0.229   6.211   4.257
 6071SOL    HW119112   0.185   6.240   4.342
 6071SOL    HW219113   0.160   6.200   4.185
 6072SOL     OW19114   6.628   1.753   0.943
 6072SOL    HW119115   6.705   1.763   1.006
 6072SOL    HW219116   6.640   1.671   0.888
 6073SOL     OW19117   4.910   2.923   1.200
 6073SOL    HW119118   4.838   2.877   1.252
 6073SOL    HW219119   4.964   2.980   1.262
 6074SOL     OW19120   1.705   0.227   2.131
 6074SOL    HW119121   1.778   0.284   2.169
 6074SOL    HW219122   1.618   0.255   2.170
 6075SOL     OW19123   4.561   6.758   5.971
 6075SOL    HW119124   4.570   6.834   5.907
 6075SOL    HW219125   4.620   6.683   5.943
 6076SOL     OW19126   2.496   5.528   3.659
 6076SOL    HW119127   2.441   5.467   3.715
 6076SOL    HW219128   2.518   5.611   3.711
 6077SOL     OW19129   6.092   6.655   0.927
 6077SOL    HW119130   6.042   6.663   1.013
 6077SOL    HW219131   6.101   6.558   0.902
 6078SOL     OW19132   4.444   4.631   0.869
 6078SOL    HW119133   4.446   4.620   0.968
 6078SOL    HW219134   4.468   4.545   0.825
 6079SOL     OW19135   4.871   4.586   6.697
 6079SOL    HW119136   4.846   4.626   6.609
 6079SOL    HW219137   4.957   4.535   6.688
 6080SOL     OW19138   0.651   5.131   1.666
 6080SOL    HW119139   0.600   5.154   1.749
 6080SOL    HW219140   0.748   5.118   1.689
 6081SOL     OW19141   0.639   3.313   5.762
 6081SOL    HW119142   0.644   3.273   5.670
 6081SOL    HW219143   0.722   3.288   5.813
 6082SOL     OW19144   3.299   6.970   1.903
 6082SOL    HW119145   3.365   6.988   1.830
 6082SOL    HW219146   3.207   6.991   1.871
 6083SOL     OW19147   5.621   6.590   0.044
 6083SOL    HW119148   5.587   6.548   6.989
 6083SOL    HW219149   5.718   6.613   0.033
 6084SOL     OW19150   0.516   5.987   2.135
 6084SOL    HW119151   0.552   6.057   2.196
 6084SOL    HW219152   0.524   6.017   2.040
 6085SOL     OW19153   5.991   6.080   6.290
 6085SOL    HW119154   6.018   6.047   6.381
 6085SOL    HW219155   5.972   6.178   6.295
 6086SOL     OW19156   3.887   3.079   6.441
 6086SOL    HW119157   3.815   3.023   6.482
 6086SOL    HW219158   3.879   3.076   6.341
 6087SOL     OW19159   5.339   6.167   0.716
 6087SOL    HW119160   5.242   6.159   0.739
 6087SOL    HW219161   5.393   6.171   0.799
 6088SOL     OW19162   5.750   6.254   5.253
 6088SOL    HW119163   5.653   6.268   5.228
 6088SOL    HW219164   5.772   6.311   5.332
 6089SOL     OW19165   6.682   2.092   2.257
 6089SOL    HW119166   6.687   2.078   2.356
 6089SOL    HW219167   6.588   2.079   2.226
 6090SOL     OW19168   2.630   5.000   4.515
 6090SOL    HW119169   2.537   5.005   4.552
 6090SOL    HW219170   2.641   4.915   4.464
 6091SOL     OW19171   2.588   1.512   0.937
 6091SOL    HW119172   2.668   1.573   0.939
 6091SOL    HW219173   2.532   1.528   1.018
 6092SOL     OW19174   4.270   0.437   2.044
 6092SOL    HW119175   4.171   0.452   2.057
 6092SOL    HW219176   4.314   0.433   2.133
 6093SOL     OW19177   2.370   1.876   2.283
 6093SOL    HW119178   2.306   1.887   2.206
 6093SOL    HW219179   2.457   1.919   2.260
 6094SOL     OW19180   1.598   6.442   3.766
 6094SOL    HW119181   1.678   6.484   3.807
 6094SOL    HW219182   1.611   6.435   3.667
 6095SOL     OW19183   4.786   5.372   6.775
 6095SOL    HW119184   4.820   5.377   6.681
 6095SOL    HW219185   4.777   5.276   6.802
 6096SOL     OW19186   5.592   6.157   2.398
 6096SOL    HW119187   5.685   6.192   2.404
 6096SOL    HW219188   5.566   6.114   2.485
 6097SOL     OW19189   1.205   5.821   1.812
 6097SOL    HW119190   1.160   5.826   1.723
 6097SOL    HW219191   1.235   5.728   1.829
 6098SOL     OW19192   6.121   0.564   5.796
 6098SOL    HW119193   6.148   0.656   5.825
 6098SOL    HW219194   6.129   0.501   5.874
 6099SOL     OW19195   4.409   6.216   5.840
 6099SOL    HW119196   4.482   6.197   5.775
 6099SOL    HW219197   4.439   6.289   5.903
 6100SOL     OW19198   0.270   5.625   1.595
 6100SOL    HW119199   0.305   5.653   1.685
 6100SOL    HW219200   0.318   5.542   1.565
 6101SOL     OW19201   6.047   2.956   2.884
 6101SOL    HW119202   6.012   2.864   2.869
 6101SOL    HW219203   6.096   2.987   2.803
 6102SOL     OW19204   4.011   5.625   2.771
 6102SOL    HW119205   4.037   5.532   2.794
 6102SOL    HW219206   3.922   5.646   2.810
 6103SOL     OW19207   6.273   1.377   1.353
 6103SOL    HW119208   6.178   1.404   1.348
 6103SOL    HW219209   6.324   1.443   1.409
 6104SOL     OW19210   6.075   1.337   5.144
 6104SOL    HW119211   6.116   1.423   5.174
 6104SOL    HW219212   5.976   1.350   5.131
 6105SOL     OW19213   2.697   5.506   5.550
 6105SOL    HW119214   2.614   5.535   5.503
 6105SOL    HW219215   2.682   5.509   5.649
 6106SOL     OW19216   1.153   4.915   0.739
 6106SOL    HW119217   1.227   4.865   0.695
 6106SOL    HW219218   1.072   4.914   0.679
 6107SOL     OW19219   4.700   5.683   4.128
 6107SOL    HW119220   4.768   5.628   4.177
 6107SOL    HW219221   4.745   5.764   4.089
 6108SOL     OW19222   0.948   2.093   3.243
 6108SOL    HW119223   1.036   2.075   3.201
 6108SOL    HW219224   0.952   2.180   3.293
 6109SOL     OW19225   4.858   1.002   4.329
 6109SOL    HW119226   4.930   1.049   4.379
 6109SOL    HW219227   4.863   0.904   4.347
 6110SOL     OW19228   1.481   2.398   6.862
 6110SOL    HW119229   1.469   2.385   6.763
 6110SOL    HW219230   1.578   2.395   6.885
 6111SOL     OW19231   1.339   3.268   1.674
 6111SOL    HW119232   1.351   3.293   1.770
 6111SOL    HW219233   1.248   3.228   1.661
 6112SOL     OW19234   4.253   0.105   2.215
 6112SOL    HW119235   4.312   0.167   2.267
 6112SOL    HW219236   4.186   0.158   2.163
 6113SOL     OW19237   2.652   4.044   6.482
 6113SOL    HW119238   2.596   3.962   6.470
 6113SOL    HW219239   2.710   4.033   6.563
 6114SOL     OW19240   4.981   2.945   2.383
 6114SOL    HW119241   4.928   3.013   2.334
 6114SOL    HW219242   4.929   2.911   2.462
 6115SOL     OW19243   0.086   1.719   5.135
 6115SOL    HW119244   7.025   1.754   5.157
 6115SOL    HW219245   0.147   1.794   5.112
 6116SOL     OW19246   4.222   2.396   5.523
 6116SOL    HW119247   4.228   2.319   5.585
 6116SOL    HW219248   4.148   2.457   5.553
 6117SOL     OW19249   1.148   1.438   3.237
 6117SOL    HW119250   1.162   1.414   3.141
 6117SOL    HW219251   1.076   1.508   3.244
 6118SOL     OW19252   5.633   1.565   1.643
 6118SOL    HW119253   5.607   1.470   1.634
 6118SOL    HW219254   5.558   1.618   1.683
 6119SOL     OW19255   0.539   3.007   0.494
 6119SOL    HW119256   0.551   3.091   0.441
 6119SOL    HW219257   0.510   3.031   0.586
 6120SOL     OW19258   1.683   6.648   5.639
 6120SOL    HW119259   1.671   6.655   5.540
 6120SOL    HW219260   1.621   6.577   5.675
 6121SOL     OW19261   0.650   4.189   5.607
 6121SOL    HW119262   0.614   4.220   5.519
 6121SOL    HW219263   0.597   4.111   5.639
 6122SOL     OW19264   5.004   5.420   6.269
 6122SOL    HW119265   5.079   5.375   6.220
 6122SOL    HW219266   4.918   5.397   6.224
 6123SOL     OW19267   5.282   0.960   5.356
 6123SOL    HW119268   5.224   1.025   5.405
 6123SOL    HW219269   5.346   1.010   5.297
 6124SOL     OW19270   1.389   6.754   5.398
 6124SOL    HW119271   1.381   6.655   5.413
 6124SOL    HW219272   1.306   6.787   5.354
 6125SOL     OW19273   2.522   3.507   0.055
 6125SOL    HW119274   2.585   3.430   0.062
 6125SOL    HW219275   2.474   3.502   6.997
 6126SOL     OW19276   0.887   2.054   5.479
 6126SOL    HW119277   0.812   2.094   5.426
 6126SOL    HW219278   0.884   1.955   5.471
 6127SOL     OW19279   4.307   1.103   1.482
 6127SOL    HW119280   4.268   1.046   1.410
 6127SOL    HW219281   4.372   1.168   1.442
 6128SOL     OW19282   5.800   5.434   0.548
 6128SOL    HW119283   5.765   5.524   0.522
 6128SOL    HW219284   5.869   5.404   0.482
 6129SOL     OW19285   1.682   4.421   3.177
 6129SOL    HW119286   1.620   4.498   3.193
 6129SOL    HW219287   1.768   4.455   3.139
 6130SOL     OW19288   6.487   2.442   2.803
 6130SOL    HW119289   6.540   2.358   2.795
 6130SOL    HW219290   6.543   2.519   2.771
 6131SOL     OW19291   0.828   2.256   2.111
 6131SOL    HW119292   0.814   2.227   2.206
 6131SOL    HW219293   0.752   2.315   2.083
 6132SOL     OW19294   3.508   1.737   6.727
 6132SOL    HW119295   3.606   1.743   6.746
 6132SOL    HW219296   3.467   1.666   6.785
 6133SOL     OW19297   1.032   2.354   3.297
 6133SOL    HW119298   1.070   2.364   3.389
 6133SOL    HW219299   1.105   2.325   3.235
 6134SOL     OW19300   4.681   6.954   6.735
 6134SOL    HW119301   4.602   6.905   6.697
 6134SOL    HW219302   4.657   6.989   6.826
 6135SOL     OW19303   5.858   6.546   0.390
 6135SOL    HW119304   5.795   6.560   0.314
 6135SOL    HW219305   5.900   6.634   0.414
 6136SOL     OW19306   1.586   2.440   1.003
 6136SOL    HW119307   1.563   2.533   1.032
 6136SOL    HW219308   1.674   2.413   1.043
 6137SOL     OW19309   0.852   3.988   2.590
 6137SOL    HW119310   0.921   3.920   2.566
 6137SOL    HW219311   0.803   3.959   2.672
 6138SOL     OW19312   3.563   0.486   1.961
 6138SOL    HW119313   3.489   0.494   2.028
 6138SOL    HW219314   3.572   0.391   1.932
 6139SOL     OW19315   0.824   6.888   5.488
 6139SOL    HW119316   0.755   6.817   5.474
 6139SOL    HW219317   0.806   6.964   5.426
 6140SOL     OW19318   0.697   0.792   3.214
 6140SOL    HW119319   0.665   0.832   3.128
 6140SOL    HW219320   0.624   0.798   3.282
 6141SOL     OW19321   0.996   0.433   5.940
 6141SOL    HW119322   0.945   0.503   5.891
 6141SOL    HW219323   0.959   0.343   5.919
 6142SOL     OW19324   0.764   0.518   5.581
 6142SOL    HW119325   0.670   0.492   5.604
 6142SOL    HW219326   0.801   0.576   5.654
 6143SOL     OW19327   7.013   4.381   0.852
 6143SOL    HW119328   6.914   4.387   0.837
 6143SOL    HW219329   0.019   4.295   0.815
 6144SOL     OW19330   5.027   4.228   3.114
 6144SOL    HW119331   5.072   4.307   3.072
 6144SOL    HW219332   5.014   4.156   3.045
 6145SOL     OW19333   5.839   4.586   4.011
 6145SOL    HW119334   5.851   4.611   3.915
 6145SOL    HW219335   5.863   4.490   4.024
 6146SOL     OW19336   3.693   6.638   3.724
 6146SOL    HW119337   3.786   6.645   3.760
 6146SOL    HW219338   3.692   6.669   3.629
 6147SOL     OW19339   1.790   2.976   4.709
 6147SOL    HW119340   1.710   3.001   4.764
 6147SOL    HW219341   1.834   2.895   4.748
 6148SOL     OW19342   3.889   5.256   6.489
 6148SOL    HW119343   3.970   5.272   6.547
 6148SOL    HW219344   3.904   5.298   6.399
 6149SOL     OW19345   1.896   7.024   1.819
 6149SOL    HW119346   1.871   0.088   1.844
 6149SOL    HW219347   1.893   7.015   1.719
 6150SOL     OW19348   6.375   4.075   6.625
 6150SOL    HW119349   6.394   4.149   6.690
 6150SOL    HW219350   6.326   4.112   6.546
 6151SOL     OW19351   5.191   4.906   4.180
 6151SOL    HW119352   5.214   4.903   4.082
 6151SOL    HW219353   5.125   4.835   4.201
 6152SOL     OW19354   0.772   6.075   4.706
 6152SOL    HW119355   0.724   5.996   4.669
 6152SOL    HW219356   0.833   6.046   4.779
 6153SOL     OW19357   4.920   5.347   1.066
 6153SOL    HW119358   5.016   5.349   1.094
 6153SOL    HW219359   4.912   5.384   0.974
 6154SOL     OW19360   5.337   3.591   3.289
 6154SOL    HW119361   5.260   3.576   3.227
 6154SOL    HW219362   5.415   3.536   3.260
 6155SOL     OW19363   2.690   0.920   2.822
 6155SOL    HW119364   2.752   0.842   2.817
 6155SOL    HW219365   2.742   1.004   2.804
 6156SOL     OW19366   5.196   3.917   1.696
 6156SOL    HW119367   5.197   3.974   1.778
 6156SOL    HW219368   5.112   3.933   1.645
 6157SOL     OW19369   0.593   2.201   3.352
 6157SOL    HW119370   0.570   2.145   3.273
 6157SOL    HW219371   0.512   2.208   3.411
 6158SOL     OW19372   3.064   2.193   6.770
 6158SOL    HW119373   3.103   2.147   6.690
 6158SOL    HW219374   3.098   2.150   6.853
 6159SOL     OW19375   5.400   3.561   0.723
 6159SOL    HW119376   5.479   3.568   0.662
 6159SOL    HW219377   5.380   3.651   0.762
 6160SOL     OW19378   6.841   0.024   6.706
 6160SOL    HW119379   6.768   0.065   6.652
 6160SOL    HW219380   6.845   6.955   6.687
 6161SOL     OW19381   5.032   1.540   6.985
 6161SOL    HW119382   5.110   1.490   6.946
 6161SOL    HW219383   5.050   1.638   6.981
 6162SOL     OW19384   6.092   6.761   3.639
 6162SOL    HW119385   5.992   6.767   3.629
 6162SOL    HW219386   6.117   6.773   3.735
 6163SOL     OW19387   5.465   5.789   2.421
 6163SOL    HW119388   5.417   5.877   2.427
 6163SOL    HW219389   5.487   5.769   2.326
 6164SOL     OW19390   3.433   4.098   4.579
 6164SOL    HW119391   3.389   4.035   4.643
 6164SOL    HW219392   3.363   4.142   4.523
 6165SOL     OW19393   3.993   2.063   6.018
 6165SOL    HW119394   4.075   2.118   6.000
 6165SOL    HW219395   3.922   2.121   6.058
 6166SOL     OW19396   6.332   1.652   0.183
 6166SOL    HW119397   6.314   1.610   0.093
 6166SOL    HW219398   6.254   1.709   0.210
 6167SOL     OW19399   1.034   4.621   2.901
 6167SOL    HW119400   1.042   4.718   2.879
 6167SOL    HW219401   1.099   4.569   2.847
 6168SOL     OW19402   0.252   2.318   3.333
 6168SOL    HW119403   0.165   2.290   3.290
 6168SOL    HW219404   0.315   2.348   3.262
 6169SOL     OW19405   0.913   1.158   6.263
 6169SOL    HW119406   0.936   1.193   6.172
 6169SOL    HW219407   0.988   1.102   6.297
 6170SOL     OW19408   3.371   4.188   6.412
 6170SOL    HW119409   3.325   4.131   6.344
 6170SOL    HW219410   3.468   4.198   6.387
 6171SOL     OW19411   1.403   3.444   1.881
 6171SOL    HW119412   1.308   3.473   1.896
 6171SOL    HW219413   1.442   3.497   1.807
 6172SOL     OW19414   0.181   0.377   2.405
 6172SOL    HW119415   0.233   0.455   2.370
 6172SOL    HW219416   0.168   0.310   2.332
 6173SOL     OW19417   0.027   5.148   2.415
 6173SOL    HW119418   0.011   5.119   2.321
 6173SOL    HW219419   0.021   5.069   2.476
 6174SOL     OW19420   5.954   4.692   2.866
 6174SOL    HW119421   5.971   4.778   2.914
 6174SOL    HW219422   5.997   4.694   2.776
 6175SOL     OW19423   5.225   0.299   2.653
 6175SOL    HW119424   5.188   0.284   2.562
 6175SOL    HW219425   5.307   0.356   2.647
 6176SOL     OW19426   6.422   3.146   6.623
 6176SOL    HW119427   6.375   3.112   6.541
 6176SOL    HW219428   6.420   3.076   6.694
 6177SOL     OW19429   5.471   1.592   1.354
 6177SOL    HW119430   5.554   1.645   1.339
 6177SOL    HW219431   5.392   1.645   1.323
 6178SOL     OW19432   5.223   5.406   1.554
 6178SOL    HW119433   5.152   5.336   1.549
 6178SOL    HW219434   5.211   5.460   1.637
 6179SOL     OW19435   0.088   3.708   5.058
 6179SOL    HW119436   0.047   3.754   4.980
 6179SOL    HW219437   0.131   3.775   5.118
 6180SOL     OW19438   3.247   6.586   6.196
 6180SOL    HW119439   3.255   6.598   6.097
 6180SOL    HW219440   3.187   6.508   6.215
 6181SOL     OW19441   4.801   6.504   0.624
 6181SOL    HW119442   4.882   6.513   0.682
 6181SOL    HW219443   4.826   6.516   0.528
 6182SOL     OW19444   5.315   5.283   5.638
 6182SOL    HW119445   5.352   5.362   5.588
 6182SOL    HW219446   5.286   5.213   5.573
 6183SOL     OW19447   2.085   0.217   2.970
 6183SOL    HW119448   2.117   0.134   2.925
 6183SOL    HW219449   2.164   0.271   2.999
 6184SOL     OW19450   2.082   6.553   5.743
 6184SOL    HW119451   2.002   6.544   5.802
 6184SOL    HW219452   2.153   6.489   5.773
 6185SOL     OW19453   1.657   4.101   0.013
 6185SOL    HW119454   1.665   4.101   0.113
 6185SOL    HW219455   1.671   4.008   7.008
 6186SOL     OW19456   5.748   0.267   4.006
 6186SOL    HW119457   5.787   0.350   3.967
 6186SOL    HW219458   5.658   0.250   3.965
 6187SOL     OW19459   4.897   4.602   4.039
 6187SOL    HW119460   4.825   4.611   3.970
 6187SOL    HW219461   4.918   4.505   4.053
 6188SOL     OW19462   2.556   5.972   1.170
 6188SOL    HW119463   2.519   6.015   1.252
 6188SOL    HW219464   2.570   5.874   1.186
 6189SOL     OW19465   4.482   4.449   3.618
 6189SOL    HW119466   4.448   4.526   3.672
 6189SOL    HW219467   4.441   4.364   3.650
 6190SOL     OW19468   5.771   3.627   5.809
 6190SOL    HW119469   5.865   3.651   5.783
 6190SOL    HW219470   5.707   3.677   5.751
 6191SOL     OW19471   4.932   3.106   0.647
 6191SOL    HW119472   4.975   3.119   0.736
 6191SOL    HW219473   4.973   3.168   0.580
 6192SOL     OW19474   4.011   3.621   0.557
 6192SOL    HW119475   4.020   3.720   0.558
 6192SOL    HW219476   4.007   3.587   0.651
 6193SOL     OW19477   4.056   0.629   2.547
 6193SOL    HW119478   4.074   0.675   2.634
 6193SOL    HW219479   3.959   0.638   2.524
 6194SOL     OW19480   1.825   6.733   7.002
 6194SOL    HW119481   1.831   6.643   6.958
 6194SOL    HW219482   1.734   6.743   0.015
 6195SOL     OW19483   3.643   5.649   5.350
 6195SOL    HW119484   3.676   5.577   5.411
 6195SOL    HW219485   3.672   5.738   5.386
 6196SOL     OW19486   6.234   2.275   0.722
 6196SOL    HW119487   6.233   2.193   0.779
 6196SOL    HW219488   6.278   2.350   0.772
 6197SOL     OW19489   4.735   3.447   0.236
 6197SOL    HW119490   4.775   3.357   0.255
 6197SOL    HW219491   4.787   3.518   0.284
 6198SOL     OW19492   3.519   5.260   2.800
 6198SOL    HW119493   3.596   5.199   2.781
 6198SOL    HW219494   3.550   5.355   2.800
 6199SOL     OW19495   0.032   0.348   1.501
 6199SOL    HW119496   0.065   0.316   1.590
 6199SOL    HW219497   0.111   0.370   1.443
 6200SOL     OW19498   2.444   1.293   6.312
 6200SOL    HW119499   2.446   1.338   6.223
 6200SOL    HW219500   2.536   1.295   6.352
 6201SOL     OW19501   2.385   4.221   5.703
 6201SOL    HW119502   2.479   4.222   5.737
 6201SOL    HW219503   2.324   4.192   5.777
 6202SOL     OW19504   3.566   1.518   1.342
 6202SOL    HW119505   3.649   1.469   1.370
 6202SOL    HW219506   3.533   1.573   1.419
 6203SOL     OW19507   5.271   0.218   3.756
 6203SOL    HW119508   5.325   0.265   3.687
 6203SOL    HW219509   5.174   0.229   3.736
 6204SOL     OW19510   0.723   5.080   5.177
 6204SOL    HW119511   0.721   5.119   5.085
 6204SOL    HW219512   0.634   5.094   5.221
 6205SOL     OW19513   5.732   6.988   6.832
 6205SOL    HW119514   5.700   0.001   6.747
 6205SOL    HW219515   5.679   7.024   6.909
 6206SOL     OW19516   6.586   0.251   2.734
 6206SOL    HW119517   6.644   0.255   2.653
 6206SOL    HW219518   6.584   0.158   2.769
 6207SOL     OW19519   1.616   3.668   4.878
 6207SOL    HW119520   1.522   3.700   4.884
 6207SOL    HW219521   1.618   3.569   4.887
 6208SOL     OW19522   6.030   7.000   6.362
 6208SOL    HW119523   6.094   7.011   6.438
 6208SOL    HW219524   6.044   6.910   6.319
 6209SOL     OW19525   4.362   5.855   6.995
 6209SOL    HW119526   4.385   5.766   6.955
 6209SOL    HW219527   4.375   5.927   6.927
 6210SOL     OW19528   5.293   4.600   3.545
 6210SOL    HW119529   5.270   4.639   3.456
 6210SOL    HW219530   5.214   4.548   3.580
 6211SOL     OW19531   3.154   6.684   4.997
 6211SOL    HW119532   3.130   6.628   4.917
 6211SOL    HW219533   3.080   6.680   5.063
 6212SOL     OW19534   0.899   5.506   3.010
 6212SOL    HW119535   0.996   5.500   2.984
 6212SOL    HW219536   0.886   5.464   3.099
 6213SOL     OW19537   5.205   0.107   6.336
 6213SOL    HW119538   5.109   0.080   6.332
 6213SOL    HW219539   5.255   0.063   6.261
 6214SOL     OW19540   6.125   5.214   3.401
 6214SOL    HW119541   6.131   5.139   3.335
 6214SOL    HW219542   6.186   5.288   3.373
 6215SOL     OW19543   3.348   1.577   6.867
 6215SOL    HW119544   3.270   1.568   6.928
 6215SOL    HW219545   3.342   1.508   6.795
 6216SOL     OW19546   6.288   2.327   2.082
 6216SOL    HW119547   6.264   2.230   2.094
 6216SOL    HW219548   6.387   2.335   2.074
 6217SOL     OW19549   5.896   2.898   2.012
 6217SOL    HW119550   5.958   2.820   2.005
 6217SOL    HW219551   5.855   2.901   2.103
 6218SOL     OW19552   3.429   5.033   4.504
 6218SOL    HW119553   3.374   4.995   4.430
 6218SOL    HW219554   3.389   5.119   4.535
 6219SOL     OW19555   0.365   1.329   4.663
 6219SOL    HW119556   0.441   1.282   4.709
 6219SOL    HW219557   0.354   1.421   4.701
 6220SOL     OW19558   1.515   4.456   5.776
 6220SOL    HW119559   1.554   4.504   5.854
 6220SOL    HW219560   1.580   4.388   5.742
 6221SOL     OW19561   5.980   5.150   5.707
 6221SOL    HW119562   6.012   5.209   5.633
 6221SOL    HW219563   5.941   5.066   5.668
 6222SOL     OW19564   0.699   6.792   1.372
 6222SOL    HW119565   0.783   6.748   1.340
 6222SOL    HW219566   0.660   6.738   1.446
 6223SOL     OW19567   0.356   3.255   4.405
 6223SOL    HW119568   0.291   3.200   4.458
 6223SOL    HW219569   0.326   3.260   4.310
 6224SOL     OW19570   1.862   1.999   6.298
 6224SOL    HW119571   1.893   2.057   6.374
 6224SOL    HW219572   1.792   2.047   6.246
 6225SOL     OW19573   2.910   3.148   1.426
 6225SOL    HW119574   2.947   3.241   1.429
 6225SOL    HW219575   2.928   3.103   1.514
 6226SOL     OW19576   5.142   1.565   4.139
 6226SOL    HW119577   5.225   1.570   4.195
 6226SOL    HW219578   5.167   1.536   4.046
 6227SOL     OW19579   3.684   4.990   6.386
 6227SOL    HW119580   3.784   4.995   6.393
 6227SOL    HW219581   3.643   5.034   6.466
 6228SOL     OW19582   7.000   2.477   2.361
 6228SOL    HW119583   0.019   2.515   2.282
 6228SOL    HW219584   0.009   2.388   2.385
 6229SOL     OW19585   1.174   2.761   2.499
 6229SOL    HW119586   1.187   2.737   2.403
 6229SOL    HW219587   1.257   2.806   2.533
 6230SOL     OW19588   1.281   0.992   4.459
 6230SOL    HW119589   1.352   0.971   4.526
 6230SOL    HW219590   1.319   1.051   4.388
 6231SOL     OW19591   6.614   4.437   1.584
 6231SOL    HW119592   6.516   4.452   1.578
 6231SOL    HW219593   6.662   4.524   1.568
 6232SOL     OW19594   6.231   1.602   0.778
 6232SOL    HW119595   6.165   1.531   0.756
 6232SOL    HW219596   6.220   1.629   0.874
 6233SOL     OW19597   5.296   1.407   0.312
 6233SOL    HW119598   5.257   1.415   0.403
 6233SOL    HW219599   5.306   1.498   0.272
 6234SOL     OW19600   0.192   1.102   5.508
 6234SOL    HW119601   0.165   1.197   5.519
 6234SOL    HW219602   0.244   1.073   5.588
 6235SOL     OW19603   1.421   0.305   2.226
 6235SOL    HW119604   1.389   0.255   2.306
 6235SOL    HW219605   1.357   0.379   2.205
 6236SOL     OW19606   0.902   5.393   0.267
 6236SOL    HW119607   0.883   5.491   0.271
 6236SOL    HW219608   0.857   5.347   0.344
 6237SOL     OW19609   3.662   6.419   0.326
 6237SOL    HW119610   3.596   6.349   0.299
 6237SOL    HW219611   3.644   6.503   0.274
 6238SOL     OW19612   4.425   4.852   3.375
 6238SOL    HW119613   4.508   4.883   3.422
 6238SOL    HW219614   4.419   4.752   3.381
 6239SOL     OW19615   2.876   6.601   1.666
 6239SOL    HW119616   2.801   6.566   1.723
 6239SOL    HW219617   2.864   6.700   1.654
 6240SOL     OW19618   2.965   2.327   0.143
 6240SOL    HW119619   3.016   2.284   0.068
 6240SOL    HW219620   2.906   2.399   0.107
 6241SOL     OW19621   2.464   0.918   2.659
 6241SOL    HW119622   2.529   0.902   2.733
 6241SOL    HW219623   2.371   0.901   2.691
 6242SOL     OW19624   5.494   0.908   3.620
 6242SOL    HW119625   5.500   0.991   3.677
 6242SOL    HW219626   5.441   0.838   3.669
 6243SOL     OW19627   5.652   6.818   2.898
 6243SOL    HW119628   5.614   6.727   2.912
 6243SOL    HW219629   5.580   6.880   2.867
 6244SOL     OW19630   1.496   2.295   1.590
 6244SOL    HW119631   1.530   2.234   1.518
 6244SOL    HW219632   1.452   2.375   1.548
 6245SOL     OW19633   2.787   4.493   1.470
 6245SOL    HW119634   2.778   4.453   1.561
 6245SOL    HW219635   2.777   4.592   1.476
 6246SOL     OW19636   2.900   2.773   6.342
 6246SOL    HW119637   2.813   2.811   6.374
 6246SOL    HW219638   2.926   2.695   6.399
 6247SOL     OW19639   0.700   6.253   3.149
 6247SOL    HW119640   0.628   6.224   3.212
 6247SOL    HW219641   0.759   6.320   3.194
 6248SOL     OW19642   1.966   3.729   1.252
 6248SOL    HW119643   1.891   3.718   1.317
 6248SOL    HW219644   2.032   3.654   1.265
 6249SOL     OW19645   0.832   4.548   0.197
 6249SOL    HW119646   0.842   4.582   0.104
 6249SOL    HW219647   0.895   4.597   0.258
 6250SOL     OW19648   6.382   5.779   0.378
 6250SOL    HW119649   6.344   5.702   0.327
 6250SOL    HW219650   6.415   5.747   0.467
 6251SOL     OW19651   3.671   6.693   0.251
 6251SOL    HW119652   3.641   6.753   0.176
 6251SOL    HW219653   3.765   6.714   0.275
 6252SOL     OW19654   1.872   6.602   4.559
 6252SOL    HW119655   1.914   6.640   4.477
 6252SOL    HW219656   1.835   6.676   4.615
 6253SOL     OW19657   2.007   3.778   2.651
 6253SOL    HW119658   2.069   3.733   2.587
 6253SOL    HW219659   1.967   3.709   2.712
 6254SOL     OW19660   5.463   0.708   0.444
 6254SOL    HW119661   5.493   0.732   0.352
 6254SOL    HW219662   5.400   0.778   0.478
 6255SOL     OW19663   1.960   1.069   1.338
 6255SOL    HW119664   1.881   1.015   1.365
 6255SOL    HW219665   1.934   1.165   1.328
 6256SOL     OW19666   3.780   4.894   3.147
 6256SOL    HW119667   3.871   4.895   3.189
 6256SOL    HW219668   3.789   4.899   3.047
 6257SOL     OW19669   5.730   2.322   1.034
 6257SOL    HW119670   5.824   2.287   1.028
 6257SOL    HW219671   5.690   2.296   1.121
 6258SOL     OW19672   4.624   0.124   3.582
 6258SOL    HW119673   4.656   0.205   3.632
 6258SOL    HW219674   4.662   0.125   3.489
 6259SOL     OW19675   2.783   1.687   1.063
 6259SOL    HW119676   2.755   1.779   1.037
 6259SOL    HW219677   2.867   1.693   1.117
 6260SOL     OW19678   2.902   4.198   0.100
 6260SOL    HW119679   2.823   4.140   0.082
 6260SOL    HW219680   2.984   4.142   0.106
 6261SOL     OW19681   3.127   0.110   6.479
 6261SOL    HW119682   3.221   0.086   6.500
 6261SOL    HW219683   3.095   0.178   6.545
 6262SOL     OW19684   1.820   3.892   1.011
 6262SOL    HW119685   1.803   3.973   1.068
 6262SOL    HW219686   1.788   3.810   1.059
 6263SOL     OW19687   0.483   0.455   5.544
 6263SOL    HW119688   0.423   0.434   5.622
 6263SOL    HW219689   0.442   0.528   5.489
 6264SOL     OW19690   1.421   6.908   0.826
 6264SOL    HW119691   1.515   6.901   0.794
 6264SOL    HW219692   1.376   6.818   0.819
 6265SOL     OW19693   3.359   3.819   1.221
 6265SOL    HW119694   3.431   3.753   1.199
 6265SOL    HW219695   3.305   3.785   1.297
 6266SOL     OW19696   4.379   0.949   4.750
 6266SOL    HW119697   4.427   0.951   4.838
 6266SOL    HW219698   4.348   1.041   4.727
 6267SOL     OW19699   3.575   0.803   0.288
 6267SOL    HW119700   3.495   0.857   0.313
 6267SOL    HW219701   3.640   0.801   0.364
 6268SOL     OW19702   3.202   6.250   2.648
 6268SOL    HW119703   3.218   6.320   2.717
 6268SOL    HW219704   3.135   6.184   2.683
 6269SOL     OW19705   6.529   5.653   2.489
 6269SOL    HW119706   6.615   5.691   2.523
 6269SOL    HW219707   6.527   5.554   2.507
 6270SOL     OW19708   1.982   0.494   4.929
 6270SOL    HW119709   1.944   0.443   5.006
 6270SOL    HW219710   1.928   0.576   4.913
 6271SOL     OW19711   6.243   2.193   5.519
 6271SOL    HW119712   6.277   2.100   5.527
 6271SOL    HW219713   6.313   2.251   5.477
 6272SOL     OW19714   0.885   2.835   5.746
 6272SOL    HW119715   0.863   2.874   5.835
 6272SOL    HW219716   0.984   2.838   5.731
 6273SOL     OW19717   1.141   0.631   2.694
 6273SOL    HW119718   1.131   0.602   2.790
 6273SOL    HW219719   1.102   0.722   2.683
 6274SOL     OW19720   2.474   5.449   6.288
 6274SOL    HW119721   2.514   5.490   6.370
 6274SOL    HW219722   2.547   5.417   6.228
 6275SOL     OW19723   2.513   6.585   4.841
 6275SOL    HW119724   2.514   6.626   4.750
 6275SOL    HW219725   2.426   6.537   4.854
 6276SOL     OW19726   1.506   5.306   3.943
 6276SOL    HW119727   1.562   5.364   3.883
 6276SOL    HW219728   1.440   5.364   3.992
 6277SOL     OW19729   5.268   3.170   2.200
 6277SOL    HW119730   5.203   3.132   2.135
 6277SOL    HW219731   5.332   3.099   2.229
 6278SOL     OW19732   4.581   0.255   4.982
 6278SOL    HW119733   4.561   0.241   4.885
 6278SOL    HW219734   4.516   0.321   5.020
 6279SOL     OW19735   4.101   0.912   6.463
 6279SOL    HW119736   4.173   0.956   6.518
 6279SOL    HW219737   4.083   0.968   6.382
 6280SOL     OW19738   0.326   2.627   5.765
 6280SOL    HW119739   0.303   2.719   5.733
 6280SOL    HW219740   0.370   2.576   5.690
 6281SOL     OW19741   2.226   6.251   5.017
 6281SOL    HW119742   2.317   6.211   5.009
 6281SOL    HW219743   2.182   6.218   5.100
 6282SOL     OW19744   1.480   0.426   4.907
 6282SOL    HW119745   1.396   0.480   4.905
 6282SOL    HW219746   1.550   0.472   4.853
 6283SOL     OW19747   5.982   3.196   4.691
 6283SOL    HW119748   5.922   3.269   4.724
 6283SOL    HW219749   5.952   3.109   4.730
 6284SOL     OW19750   2.217   5.676   4.703
 6284SOL    HW119751   2.169   5.671   4.790
 6284SOL    HW219752   2.155   5.648   4.629
 6285SOL     OW19753   1.709   2.830   3.784
 6285SOL    HW119754   1.649   2.762   3.741
 6285SOL    HW219755   1.747   2.890   3.714
 6286SOL     OW19756   6.157   2.111   4.147
 6286SOL    HW119757   6.141   2.202   4.110
 6286SOL    HW219758   6.251   2.082   4.128
 6287SOL     OW19759   4.154   4.720   2.989
 6287SOL    HW119760   4.120   4.689   3.078
 6287SOL    HW219761   4.085   4.702   2.919
 6288SOL     OW19762   5.758   4.218   2.025
 6288SOL    HW119763   5.695   4.257   2.093
 6288SOL    HW219764   5.733   4.252   1.934
 6289SOL     OW19765   1.523   3.771   2.614
 6289SOL    HW119766   1.590   3.836   2.576
 6289SOL    HW219767   1.555   3.678   2.599
 6290SOL     OW19768   6.042   4.122   4.219
 6290SOL    HW119769   6.030   4.023   4.224
 6290SOL    HW219770   5.995   4.157   4.139
 6291SOL     OW19771   3.782   2.933   3.115
 6291SOL    HW119772   3.758   2.925   3.019
 6291SOL    HW219773   3.866   2.986   3.124
 6292SOL     OW19774   0.690   2.752   3.361
 6292SOL    HW119775   0.705   2.759   3.459
 6292SOL    HW219776   0.751   2.684   3.322
 6293SOL     OW19777   4.045   0.009   6.889
 6293SOL    HW119778   4.139   0.011   6.857
 6293SOL    HW219779   4.009   6.945   6.881
 6294SOL     OW19780   3.430   4.973   3.950
 6294SOL    HW119781   3.451   4.976   4.047
 6294SOL    HW219782   3.513   4.952   3.898
 6295SOL     OW19783   5.182   5.101   5.419
 6295SOL    HW119784   5.092   5.140   5.436
 6295SOL    HW219785   5.229   5.155   5.349
 6296SOL     OW19786   6.882   6.247   4.622
 6296SOL    HW119787   6.842   6.165   4.664
 6296SOL    HW219788   6.900   6.315   4.694
 6297SOL     OW19789   4.896   6.799   5.144
 6297SOL    HW119790   4.847   6.880   5.175
 6297SOL    HW219791   4.992   6.804   5.172
 6298SOL     OW19792   1.492   2.739   5.935
 6298SOL    HW119793   1.410   2.689   5.960
 6298SOL    HW219794   1.469   2.836   5.920
 6299SOL     OW19795   5.238   1.889   0.344
 6299SOL    HW119796   5.235   1.969   0.404
 6299SOL    HW219797   5.330   1.881   0.305
 6300SOL     OW19798   5.086   1.117   4.813
 6300SOL    HW119799   4.989   1.124   4.791
 6300SOL    HW219800   5.102   1.148   4.906
 6301SOL     OW19801   2.669   0.313   0.760
 6301SOL    HW119802   2.645   0.261   0.842
 6301SOL    HW219803   2.637   0.408   0.771
 6302SOL     OW19804   1.519   1.773   4.297
 6302SOL    HW119805   1.576   1.806   4.372
 6302SOL    HW219806   1.577   1.751   4.218
 6303SOL     OW19807   2.513   0.994   4.392
 6303SOL    HW119808   2.511   1.015   4.490
 6303SOL    HW219809   2.585   1.049   4.348
 6304SOL     OW19810   2.052   0.962   0.949
 6304SOL    HW119811   1.973   0.903   0.932
 6304SOL    HW219812   2.120   0.912   1.002
 6305SOL     OW19813   6.394   6.866   0.449
 6305SOL    HW119814   6.476   6.848   0.503
 6305SOL    HW219815   6.350   6.949   0.483
 6306SOL     OW19816   0.721   4.255   4.782
 6306SOL    HW119817   0.638   4.280   4.732
 6306SOL    HW219818   0.784   4.208   4.720
 6307SOL     OW19819   4.121   4.053   5.940
 6307SOL    HW119820   4.108   4.150   5.958
 6307SOL    HW219821   4.133   4.004   6.027
 6308SOL     OW19822   1.370   1.863   4.829
 6308SOL    HW119823   1.397   1.791   4.766
 6308SOL    HW219824   1.397   1.952   4.793
 6309SOL     OW19825   4.911   3.921   4.610
 6309SOL    HW119826   5.006   3.952   4.614
 6309SOL    HW219827   4.850   3.998   4.631
 6310SOL     OW19828   1.908   5.396   4.323
 6310SOL    HW119829   1.955   5.471   4.369
 6310SOL    HW219830   1.833   5.433   4.268
 6311SOL     OW19831   6.049   0.823   5.506
 6311SOL    HW119832   6.020   0.825   5.602
 6311SOL    HW219833   5.983   0.769   5.453
 6312SOL     OW19834   5.568   5.119   5.537
 6312SOL    HW119835   5.626   5.135   5.618
 6312SOL    HW219836   5.497   5.052   5.559
 6313SOL     OW19837   1.470   6.254   3.038
 6313SOL    HW119838   1.406   6.325   3.065
 6313SOL    HW219839   1.520   6.283   2.957
 6314SOL     OW19840   3.982   6.790   1.810
 6314SOL    HW119841   4.052   6.764   1.743
 6314SOL    HW219842   3.933   6.870   1.776
 6315SOL     OW19843   3.890   2.892   6.805
 6315SOL    HW119844   3.974   2.925   6.763
 6315SOL    HW219845   3.828   2.859   6.734
 6316SOL     OW19846   4.790   2.312   6.242
 6316SOL    HW119847   4.718   2.300   6.173
 6316SOL    HW219848   4.810   2.224   6.285
 6317SOL     OW19849   5.324   5.494   3.693
 6317SOL    HW119850   5.409   5.495   3.746
 6317SOL    HW219851   5.338   5.444   3.608
 6318SOL     OW19852   2.914   1.658   5.017
 6318SOL    HW119853   2.842   1.678   5.083
 6318SOL    HW219854   2.991   1.614   5.064
 6319SOL     OW19855   0.044   2.685   3.277
 6319SOL    HW119856   0.125   2.702   3.221
 6319SOL    HW219857   0.044   2.749   3.354
 6320SOL     OW19858   6.032   4.677   4.368
 6320SOL    HW119859   6.076   4.720   4.447
 6320SOL    HW219860   5.949   4.726   4.345
 6321SOL     OW19861   3.628   5.354   1.035
 6321SOL    HW119862   3.689   5.316   1.104
 6321SOL    HW219863   3.541   5.381   1.077
 6322SOL     OW19864   1.739   2.227   6.608
 6322SOL    HW119865   1.666   2.289   6.581
 6322SOL    HW219866   1.772   2.252   6.699
 6323SOL     OW19867   3.342   2.592   1.070
 6323SOL    HW119868   3.397   2.512   1.092
 6323SOL    HW219869   3.315   2.589   0.974
 6324SOL     OW19870   4.747   0.785   6.361
 6324SOL    HW119871   4.789   0.768   6.272
 6324SOL    HW219872   4.647   0.780   6.353
 6325SOL     OW19873   1.325   2.049   2.023
 6325SOL    HW119874   1.228   2.069   2.011
 6325SOL    HW219875   1.339   1.950   2.023
 6326SOL     OW19876   5.394   5.964   1.216
 6326SOL    HW119877   5.402   5.990   1.119
 6326SOL    HW219878   5.484   5.938   1.250
 6327SOL     OW19879   6.913   0.159   5.389
 6327SOL    HW119880   6.818   0.187   5.375
 6327SOL    HW219881   6.949   0.119   5.305
 6328SOL     OW19882   1.628   3.661   0.449
 6328SOL    HW119883   1.706   3.666   0.386
 6328SOL    HW219884   1.657   3.617   0.534
 6329SOL     OW19885   1.647   2.390   3.081
 6329SOL    HW119886   1.647   2.304   3.030
 6329SOL    HW219887   1.604   2.462   3.025
 6330SOL     OW19888   4.567   0.749   1.560
 6330SOL    HW119889   4.575   0.650   1.572
 6330SOL    HW219890   4.527   0.789   1.643
 6331SOL     OW19891   5.813   2.182   0.684
 6331SOL    HW119892   5.744   2.142   0.624
 6331SOL    HW219893   5.769   2.246   0.747
 6332SOL     OW19894   7.017   4.541   2.345
 6332SOL    HW119895   6.961   4.509   2.421
 6332SOL    HW219896   0.085   4.537   2.371
 6333SOL     OW19897   3.528   4.956   4.218
 6333SOL    HW119898   3.474   4.894   4.276
 6333SOL    HW219899   3.625   4.939   4.233
 6334SOL     OW19900   2.124   0.261   2.567
 6334SOL    HW119901   2.192   0.194   2.597
 6334SOL    HW219902   2.167   0.351   2.557
 6335SOL     OW19903   5.006   1.768   0.748
 6335SOL    HW119904   5.015   1.821   0.664
 6335SOL    HW219905   5.008   1.670   0.726
 6336SOL     OW19906   6.956   1.950   5.756
 6336SOL    HW119907   6.964   1.982   5.850
 6336SOL    HW219908   0.008   1.976   5.704
 6337SOL     OW19909   4.956   3.688   6.540
 6337SOL    HW119910   4.909   3.630   6.474
 6337SOL    HW219911   4.984   3.773   6.495
 6338SOL     OW19912   2.871   2.300   3.004
 6338SOL    HW119913   2.880   2.299   2.905
 6338SOL    HW219914   2.783   2.342   3.030
 6339SOL     OW19915   0.527   2.920   3.938
 6339SOL    HW119916   0.498   2.982   3.865
 6339SOL    HW219917   0.541   2.829   3.900
 6340SOL     OW19918   2.353   5.022   3.205
 6340SOL    HW119919   2.391   4.949   3.147
 6340SOL    HW219920   2.420   5.047   3.274
 6341SOL     OW19921   0.621   5.031   3.447
 6341SOL    HW119922   0.618   5.110   3.509
 6341SOL    HW219923   0.530   4.990   3.441
 6342SOL     OW19924   2.611   1.202   1.641
 6342SOL    HW119925   2.585   1.298   1.626
 6342SOL    HW219926   2.596   1.178   1.737
 6343SOL     OW19927   5.069   2.705   6.616
 6343SOL    HW119928   4.995   2.654   6.660
 6343SOL    HW219929   5.078   2.794   6.660
 6344SOL     OW19930   6.062   3.648   5.828
 6344SOL    HW119931   6.066   3.635   5.729
 6344SOL    HW219932   6.101   3.569   5.874
 6345SOL     OW19933   4.285   1.261   2.000
 6345SOL    HW119934   4.234   1.176   1.986
 6345SOL    HW219935   4.277   1.289   2.095
 6346SOL     OW19936   6.841   3.543   3.536
 6346SOL    HW119937   6.848   3.574   3.631
 6346SOL    HW219938   6.838   3.622   3.475
 6347SOL     OW19939   2.611   0.598   1.466
 6347SOL    HW119940   2.566   0.638   1.546
 6347SOL    HW219941   2.554   0.524   1.429
 6348SOL     OW19942   1.315   3.869   5.425
 6348SOL    HW119943   1.353   3.784   5.387
 6348SOL    HW219944   1.342   3.946   5.368
 6349SOL     OW19945   2.943   0.560   1.265
 6349SOL    HW119946   2.904   0.469   1.257
 6349SOL    HW219947   3.038   0.553   1.295
 6350SOL     OW19948   2.438   4.815   3.781
 6350SOL    HW119949   2.494   4.891   3.814
 6350SOL    HW219950   2.341   4.838   3.792
 6351SOL     OW19951   6.737   3.217   2.283
 6351SOL    HW119952   6.648   3.209   2.238
 6351SOL    HW219953   6.738   3.298   2.341
 6352SOL     OW19954   1.883   4.919   4.407
 6352SOL    HW119955   1.820   4.959   4.472
 6352SOL    HW219956   1.949   4.988   4.377
 6353SOL     OW19957   6.403   0.718   6.194
 6353SOL    HW119958   6.495   0.743   6.221
 6353SOL    HW219959   6.370   0.643   6.251
 6354SOL     OW19960   1.295   6.974   2.444
 6354SOL    HW119961   1.369   6.915   2.412
 6354SOL    HW219962   1.208   6.941   2.407
 6355SOL     OW19963   1.008   4.850   5.403
 6355SOL    HW119964   0.997   4.945   5.376
 6355SOL    HW219965   0.935   4.794   5.364
 6356SOL     OW19966   4.748   4.780   2.001
 6356SOL    HW119967   4.837   4.819   1.974
 6356SOL    HW219968   4.758   4.682   2.016
 6357SOL     OW19969   4.951   2.734   1.591
 6357SOL    HW119970   4.935   2.739   1.492
 6357SOL    HW219971   4.926   2.821   1.633
 6358SOL     OW19972   0.572   2.494   5.595
 6358SOL    HW119973   0.586   2.492   5.496
 6358SOL    HW219974   0.654   2.531   5.639
 6359SOL     OW19975   5.826   6.833   6.055
 6359SOL    HW119976   5.875   6.870   5.975
 6359SOL    HW219977   5.820   6.734   6.047
 6360SOL     OW19978   2.220   4.217   4.145
 6360SOL    HW119979   2.225   4.200   4.046
 6360SOL    HW219980   2.125   4.233   4.171
 6361SOL     OW19981   5.817   0.070   0.208
 6361SOL    HW119982   5.881   0.053   0.132
 6361SOL    HW219983   5.751   0.140   0.181
 6362SOL     OW19984   5.794   5.085   6.228
 6362SOL    HW119985   5.889   5.062   6.206
 6362SOL    HW219986   5.791   5.175   6.272
 6363SOL     OW19987   2.499   4.833   3.066
 6363SOL    HW119988   2.487   4.787   3.153
 6363SOL    HW219989   2.569   4.786   3.012
 6364SOL     OW19990   3.057   0.948   5.799
 6364SOL    HW119991   2.998   1.015   5.754
 6364SOL    HW219992   3.122   0.911   5.733
 6365SOL     OW19993   4.716   6.710   4.418
 6365SOL    HW119994   4.788   6.779   4.423
 6365SOL    HW219995   4.741   6.641   4.350
 6366SOL     OW19996   0.315   6.251   6.517
 6366SOL    HW119997   0.219   6.254   6.488
 6366SOL    HW219998   0.372   6.292   6.446
 6367SOL     OW19999   4.260   0.716   4.232
 6367SOL    HW120000   4.322   0.644   4.262
 6367SOL    HW220001   4.165   0.687   4.247
 6368SOL     OW20002   3.264   0.249   3.250
 6368SOL    HW120003   3.289   0.293   3.337
 6368SOL    HW220004   3.286   0.310   3.175
 6369SOL     OW20005   2.796   5.198   4.652
 6369SOL    HW120006   2.730   5.142   4.602
 6369SOL    HW220007   2.783   5.185   4.750
 6370SOL     OW20008   1.577   3.115   2.759
 6370SOL    HW120009   1.666   3.143   2.797
 6370SOL    HW220010   1.593   3.057   2.679
 6371SOL     OW20011   4.997   3.269   3.803
 6371SOL    HW120012   5.081   3.230   3.766
 6371SOL    HW220013   5.012   3.366   3.824
 6372SOL     OW20014   3.025   7.020   1.787
 6372SOL    HW120015   2.974   6.992   1.705
 6372SOL    HW220016   2.982   6.981   1.868
 6373SOL     OW20017   6.333   4.106   4.210
 6373SOL    HW120018   6.328   4.016   4.252
 6373SOL    HW220019   6.241   4.144   4.201
 6374SOL     OW20020   3.580   3.662   4.365
 6374SOL    HW120021   3.613   3.679   4.457
 6374SOL    HW220022   3.595   3.743   4.308
 6375SOL     OW20023   0.651   1.594   4.107
 6375SOL    HW120024   0.711   1.586   4.187
 6375SOL    HW220025   0.599   1.510   4.096
 6376SOL     OW20026   6.446   2.382   5.399
 6376SOL    HW120027   6.470   2.332   5.315
 6376SOL    HW220028   6.524   2.382   5.461
 6377SOL     OW20029   6.889   1.675   6.104
 6377SOL    HW120030   6.913   1.589   6.058
 6377SOL    HW220031   6.938   1.680   6.191
 6378SOL     OW20032   5.655   4.838   3.754
 6378SOL    HW120033   5.557   4.820   3.754
 6378SOL    HW220034   5.698   4.792   3.676
 6379SOL     OW20035   2.149   4.736   4.546
 6379SOL    HW120036   2.204   4.703   4.623
 6379SOL    HW220037   2.052   4.732   4.571
 6380SOL     OW20038   1.059   1.208   5.509
 6380SOL    HW120039   0.977   1.260   5.534
 6380SOL    HW220040   1.044   1.111   5.526
 6381SOL     OW20041   3.571   3.419   3.002
 6381SOL    HW120042   3.540   3.439   2.910
 6381SOL    HW220043   3.506   3.358   3.047
 6382SOL     OW20044   1.171   2.875   0.450
 6382SOL    HW120045   1.236   2.805   0.480
 6382SOL    HW220046   1.191   2.899   0.355
 6383SOL     OW20047   2.177   2.338   3.000
 6383SOL    HW120048   2.139   2.420   3.043
 6383SOL    HW220049   2.106   2.268   2.992
 6384SOL     OW20050   5.763   4.419   1.269
 6384SOL    HW120051   5.791   4.369   1.350
 6384SOL    HW220052   5.672   4.458   1.283
 6385SOL     OW20053   6.685   5.287   4.204
 6385SOL    HW120054   6.730   5.272   4.115
 6385SOL    HW220055   6.732   5.234   4.274
 6386SOL     OW20056   2.480   4.213   7.017
 6386SOL    HW120057   2.418   4.219   0.065
 6386SOL    HW220058   2.489   4.303   6.974
 6387SOL     OW20059   0.552   1.830   6.764
 6387SOL    HW120060   0.573   1.733   6.752
 6387SOL    HW220061   0.604   1.884   6.697
 6388SOL     OW20062   4.411   4.369   1.694
 6388SOL    HW120063   4.458   4.297   1.744
 6388SOL    HW220064   4.393   4.447   1.754
 6389SOL     OW20065   0.520   5.731   2.204
 6389SOL    HW120066   0.426   5.706   2.225
 6389SOL    HW220067   0.523   5.823   2.165
 6390SOL     OW20068   1.011   2.448   4.198
 6390SOL    HW120069   0.987   2.393   4.278
 6390SOL    HW220070   1.077   2.518   4.225
 6391SOL     OW20071   3.114   0.248   6.245
 6391SOL    HW120072   3.103   0.197   6.330
 6391SOL    HW220073   3.179   0.200   6.185
 6392SOL     OW20074   2.442   6.716   3.345
 6392SOL    HW120075   2.525   6.676   3.382
 6392SOL    HW220076   2.372   6.645   3.335
 6393SOL     OW20077   6.389   6.383   1.455
 6393SOL    HW120078   6.456   6.417   1.389
 6393SOL    HW220079   6.314   6.339   1.406
 6394SOL     OW20080   2.499   4.219   1.054
 6394SOL    HW120081   2.416   4.273   1.063
 6394SOL    HW220082   2.552   4.253   0.976
 6395SOL     OW20083   5.819   2.572   1.950
 6395SOL    HW120084   5.779   2.484   1.923
 6395SOL    HW220085   5.841   2.625   1.868
 6396SOL     OW20086   5.306   2.586   6.351
 6396SOL    HW120087   5.360   2.637   6.418
 6396SOL    HW220088   5.327   2.619   6.259
 6397SOL     OW20089   5.899   1.837   6.871
 6397SOL    HW120090   5.956   1.794   6.940
 6397SOL    HW220091   5.840   1.768   6.828
 6398SOL     OW20092   3.369   0.926   0.620
 6398SOL    HW120093   3.433   0.957   0.550
 6398SOL    HW220094   3.292   0.878   0.577
 6399SOL     OW20095   2.048   5.060   6.234
 6399SOL    HW120096   2.034   4.975   6.184
 6399SOL    HW220097   2.130   5.105   6.200
 6400SOL     OW20098   2.050   5.731   3.185
 6400SOL    HW120099   2.135   5.732   3.239
 6400SOL    HW220100   1.979   5.683   3.236
 6401SOL     OW20101   6.951   4.514   3.570
 6401SOL    HW120102   6.981   4.419   3.567
 6401SOL    HW220103   7.002   4.567   3.503
 6402SOL     OW20104   2.902   0.718   2.904
 6402SOL    HW120105   2.975   0.774   2.865
 6402SOL    HW220106   2.940   0.628   2.929
 6403SOL     OW20107   0.778   6.441   6.671
 6403SOL    HW120108   0.819   6.456   6.760
 6403SOL    HW220109   0.730   6.353   6.671
 6404SOL     OW20110   4.388   1.191   3.045
 6404SOL    HW120111   4.381   1.268   2.981
 6404SOL    HW220112   4.316   1.197   3.113
 6405SOL     OW20113   1.684   1.025   3.540
 6405SOL    HW120114   1.600   1.003   3.589
 6405SOL    HW220115   1.684   1.122   3.515
 6406SOL     OW20116   1.603   2.449   3.862
 6406SOL    HW120117   1.678   2.413   3.918
 6406SOL    HW220118   1.581   2.383   3.790
 6407SOL     OW20119   3.045   6.419   3.110
 6407SOL    HW120120   2.960   6.467   3.129
 6407SOL    HW220121   3.121   6.465   3.156
 6408SOL     OW20122   6.407   2.467   0.074
 6408SOL    HW120123   6.438   2.379   0.111
 6408SOL    HW220124   6.435   2.541   0.135
 6409SOL     OW20125   0.485   4.297   3.542
 6409SOL    HW120126   0.493   4.200   3.516
 6409SOL    HW220127   0.408   4.338   3.493
 6410SOL     OW20128   1.520   1.777   0.910
 6410SOL    HW120129   1.606   1.726   0.906
 6410SOL    HW220130   1.452   1.730   0.853
 6411SOL     OW20131   1.003   2.940   3.125
 6411SOL    HW120132   1.023   2.857   3.072
 6411SOL    HW220133   1.041   2.931   3.217
 6412SOL     OW20134   6.882   2.929   5.415
 6412SOL    HW120135   6.901   3.007   5.356
 6412SOL    HW220136   6.801   2.881   5.381
 6413SOL     OW20137   5.482   4.899   2.951
 6413SOL    HW120138   5.397   4.912   2.901
 6413SOL    HW220139   5.519   4.988   2.978
 6414SOL     OW20140   5.928   0.722   1.860
 6414SOL    HW120141   5.945   0.634   1.816
 6414SOL    HW220142   5.941   0.713   1.958
 6415SOL     OW20143   3.245   1.884   2.843
 6415SOL    HW120144   3.305   1.924   2.774
 6415SOL    HW220145   3.154   1.924   2.835
 6416SOL     OW20146   0.734   0.731   6.162
 6416SOL    HW120147   0.686   0.775   6.086
 6416SOL    HW220148   0.696   0.640   6.177
 6417SOL     OW20149   0.569   4.932   2.708
 6417SOL    HW120150   0.522   4.997   2.649
 6417SOL    HW220151   0.528   4.933   2.799
 6418SOL     OW20152   6.494   4.970   2.746
 6418SOL    HW120153   6.453   4.963   2.836
 6418SOL    HW220154   6.426   5.003   2.680
 6419SOL     OW20155   2.903   5.090   2.333
 6419SOL    HW120156   2.900   5.165   2.399
 6419SOL    HW220157   2.993   5.087   2.291
 6420SOL     OW20158   2.944   3.890   5.609
 6420SOL    HW120159   2.897   3.805   5.582
 6420SOL    HW220160   2.876   3.959   5.632
 6421SOL     OW20161   6.027   1.790   1.971
 6421SOL    HW120162   6.014   1.695   2.002
 6421SOL    HW220163   5.992   1.852   2.042
 6422SOL     OW20164   6.784   0.200   3.947
 6422SOL    HW120165   6.697   0.192   3.899
 6422SOL    HW220166   6.812   0.296   3.949
 6423SOL     OW20167   4.639   4.394   2.195
 6423SOL    HW120168   4.732   4.361   2.178
 6423SOL    HW220169   4.575   4.347   2.134
 6424SOL     OW20170   6.549   5.204   5.743
 6424SOL    HW120171   6.627   5.232   5.798
 6424SOL    HW220172   6.568   5.222   5.647
 6425SOL     OW20173   0.226   5.572   4.235
 6425SOL    HW120174   0.250   5.482   4.273
 6425SOL    HW220175   0.130   5.573   4.209
 6426SOL     OW20176   0.912   4.170   3.765
 6426SOL    HW120177   0.960   4.193   3.681
 6426SOL    HW220178   0.920   4.071   3.782
 6427SOL     OW20179   1.684   3.376   0.250
 6427SOL    HW120180   1.619   3.452   0.237
 6427SOL    HW220181   1.711   3.340   0.161
 6428SOL     OW20182   6.305   3.298   0.670
 6428SOL    HW120183   6.294   3.199   0.683
 6428SOL    HW220184   6.253   3.326   0.589
 6429SOL     OW20185   0.586   1.257   4.785
 6429SOL    HW120186   0.642   1.339   4.770
 6429SOL    HW220187   0.620   1.183   4.727
 6430SOL     OW20188   4.478   1.388   1.865
 6430SOL    HW120189   4.446   1.482   1.879
 6430SOL    HW220190   4.420   1.325   1.916
 6431SOL     OW20191   5.504   0.037   3.227
 6431SOL    HW120192   5.589   7.020   3.200
 6431SOL    HW220193   5.428   0.000   3.174
 6432SOL     OW20194   4.425   4.186   0.023
 6432SOL    HW120195   4.414   4.267   0.080
 6432SOL    HW220196   4.521   4.157   0.023
 6433SOL     OW20197   3.555   4.237   1.335
 6433SOL    HW120198   3.503   4.170   1.283
 6433SOL    HW220199   3.493   4.307   1.371
 6434SOL     OW20200   1.487   3.421   0.849
 6434SOL    HW120201   1.566   3.471   0.814
 6434SOL    HW220202   1.514   3.326   0.868
 6435SOL     OW20203   4.095   5.286   0.007
 6435SOL    HW120204   4.071   5.248   6.947
 6435SOL    HW220205   4.129   5.214   0.067
 6436SOL     OW20206   2.164   3.178   4.269
 6436SOL    HW120207   2.119   3.250   4.322
 6436SOL    HW220208   2.220   3.121   4.330
 6437SOL     OW20209   1.406   1.058   0.948
 6437SOL    HW120210   1.341   1.000   0.897
 6437SOL    HW220211   1.499   1.027   0.930
 6438SOL     OW20212   0.008   4.595   5.730
 6438SOL    HW120213   0.017   4.500   5.699
 6438SOL    HW220214   0.033   4.601   5.827
 6439SOL     OW20215   0.273   6.904   1.667
 6439SOL    HW120216   0.189   6.932   1.621
 6439SOL    HW220217   0.252   6.834   1.736
 6440SOL     OW20218   2.332   1.326   2.154
 6440SOL    HW120219   2.372   1.248   2.202
 6440SOL    HW220220   2.330   1.406   2.214
 6441SOL     OW20221   0.904   6.981   2.419
 6441SOL    HW120222   0.957   6.915   2.367
 6441SOL    HW220223   0.856   0.013   2.357
 6442SOL     OW20224   1.424   1.246   3.542
 6442SOL    HW120225   1.455   1.283   3.630
 6442SOL    HW220226   1.349   1.183   3.557
 6443SOL     OW20227   3.563   2.807   0.545
 6443SOL    HW120228   3.586   2.816   0.642
 6443SOL    HW220229   3.590   2.716   0.513
 6444SOL     OW20230   0.934   2.595   3.842
 6444SOL    HW120231   0.896   2.550   3.923
 6444SOL    HW220232   0.872   2.580   3.764
 6445SOL     OW20233   4.913   2.553   5.608
 6445SOL    HW120234   4.970   2.635   5.609
 6445SOL    HW220235   4.966   2.477   5.570
 6446SOL     OW20236   0.627   2.172   6.068
 6446SOL    HW120237   0.538   2.128   6.070
 6446SOL    HW220238   0.628   2.243   5.997
 6447SOL     OW20239   0.290   6.109   2.491
 6447SOL    HW120240   0.287   6.165   2.574
 6447SOL    HW220241   0.372   6.052   2.492
 6448SOL     OW20242   6.083   4.606   2.318
 6448SOL    HW120243   6.128   4.532   2.268
 6448SOL    HW220244   6.037   4.568   2.398
 6449SOL     OW20245   3.714   4.593   1.398
 6449SOL    HW120246   3.638   4.601   1.463
 6449SOL    HW220247   3.681   4.555   1.312
 6450SOL     OW20248   6.934   3.435   1.552
 6450SOL    HW120249   6.871   3.498   1.506
 6450SOL    HW220250   6.955   3.470   1.643
 6451SOL     OW20251   2.786   5.944   5.063
 6451SOL    HW120252   2.731   5.934   5.146
 6451SOL    HW220253   2.727   5.971   4.987
 6452SOL     OW20254   3.552   6.357   5.275
 6452SOL    HW120255   3.600   6.275   5.308
 6452SOL    HW220256   3.454   6.340   5.275
 6453SOL     OW20257   2.204   6.008   6.845
 6453SOL    HW120258   2.125   5.998   6.904
 6453SOL    HW220259   2.268   6.074   6.885
 6454SOL     OW20260   3.011   0.819   3.561
 6454SOL    HW120261   3.065   0.835   3.643
 6454SOL    HW220262   2.931   0.878   3.561
 6455SOL     OW20263   0.561   2.476   4.429
 6455SOL    HW120264   0.570   2.441   4.335
 6455SOL    HW220265   0.465   2.492   4.450
 6456SOL     OW20266   1.317   7.014   3.683
 6456SOL    HW120267   1.326   6.935   3.622
 6456SOL    HW220268   1.326   0.069   3.630
 6457SOL     OW20269   5.420   1.236   1.073
 6457SOL    HW120270   5.359   1.197   1.142
 6457SOL    HW220271   5.369   1.297   1.013
 6458SOL     OW20272   1.233   6.361   2.771
 6458SOL    HW120273   1.212   6.357   2.673
 6458SOL    HW220274   1.158   6.321   2.823
 6459SOL     OW20275   5.861   5.586   0.905
 6459SOL    HW120276   5.823   5.503   0.865
 6459SOL    HW220277   5.879   5.653   0.833
 6460SOL     OW20278   4.423   5.249   6.004
 6460SOL    HW120279   4.417   5.215   5.910
 6460SOL    HW220280   4.418   5.172   6.068
 6461SOL     OW20281   3.027   5.159   5.046
 6461SOL    HW120282   3.016   5.106   5.130
 6461SOL    HW220283   2.992   5.251   5.059
 6462SOL     OW20284   2.399   2.799   5.273
 6462SOL    HW120285   2.418   2.896   5.258
 6462SOL    HW220286   2.454   2.766   5.350
 6463SOL     OW20287   1.752   3.955   6.544
 6463SOL    HW120288   1.765   4.054   6.546
 6463SOL    HW220289   1.752   3.923   6.450
 6464SOL     OW20290   0.826   4.827   5.168
 6464SOL    HW120291   0.784   4.916   5.155
 6464SOL    HW220292   0.755   4.756   5.169
 6465SOL     OW20293   6.390   2.762   4.049
 6465SOL    HW120294   6.329   2.823   4.099
 6465SOL    HW220295   6.418   2.806   3.964
 6466SOL     OW20296   0.249   1.830   6.155
 6466SOL    HW120297   0.243   1.731   6.172
 6466SOL    HW220298   0.306   1.846   6.074
 6467SOL     OW20299   2.937   0.893   6.842
 6467SOL    HW120300   3.036   0.896   6.858
 6467SOL    HW220301   2.902   0.805   6.873
 6468SOL     OW20302   4.348   6.217   1.447
 6468SOL    HW120303   4.406   6.276   1.390
 6468SOL    HW220304   4.387   6.125   1.450
 6469SOL     OW20305   4.786   0.602   5.294
 6469SOL    HW120306   4.847   0.672   5.332
 6469SOL    HW220307   4.691   0.630   5.308
 6470SOL     OW20308   6.259   5.115   6.492
 6470SOL    HW120309   6.312   5.079   6.568
 6470SOL    HW220310   6.219   5.039   6.440
 6471SOL     OW20311   6.393   5.628   5.825
 6471SOL    HW120312   6.394   5.626   5.925
 6471SOL    HW220313   6.388   5.722   5.793
 6472SOL     OW20314   0.533   4.665   0.610
 6472SOL    HW120315   0.628   4.696   0.601
 6472SOL    HW220316   0.474   4.743   0.633
 6473SOL     OW20317   2.200   1.881   5.420
 6473SOL    HW120318   2.260   1.959   5.402
 6473SOL    HW220319   2.171   1.883   5.516
 6474SOL     OW20320   1.637   3.620   6.014
 6474SOL    HW120321   1.726   3.657   5.989
 6474SOL    HW220322   1.627   3.623   6.114
 6475SOL     OW20323   6.507   5.866   4.779
 6475SOL    HW120324   6.487   5.783   4.727
 6475SOL    HW220325   6.572   5.844   4.852
 6476SOL     OW20326   4.652   3.783   1.607
 6476SOL    HW120327   4.628   3.873   1.645
 6476SOL    HW220328   4.706   3.796   1.524
 6477SOL     OW20329   0.304   5.294   0.951
 6477SOL    HW120330   0.267   5.346   0.874
 6477SOL    HW220331   0.335   5.358   1.021
 6478SOL     OW20332   3.598   5.847   1.958
 6478SOL    HW120333   3.520   5.801   1.999
 6478SOL    HW220334   3.590   5.945   1.973
 6479SOL     OW20335   4.090   5.254   2.600
 6479SOL    HW120336   4.056   5.302   2.681
 6479SOL    HW220337   4.065   5.305   2.518
 6480SOL     OW20338   3.725   2.925   5.682
 6480SOL    HW120339   3.720   3.024   5.695
 6480SOL    HW220340   3.676   2.880   5.756
 6481SOL     OW20341   3.410   2.259   1.747
 6481SOL    HW120342   3.457   2.249   1.659
 6481SOL    HW220343   3.476   2.290   1.816
 6482SOL     OW20344   0.237   0.905   6.095
 6482SOL    HW120345   0.197   0.844   6.026
 6482SOL    HW220346   0.188   0.893   6.182
 6483SOL     OW20347   2.362   5.540   1.506
 6483SOL    HW120348   2.434   5.573   1.567
 6483SOL    HW220349   2.404   5.494   1.428
 6484SOL     OW20350   4.128   0.411   3.146
 6484SOL    HW120351   4.137   0.502   3.105
 6484SOL    HW220352   4.039   0.372   3.121
 6485SOL     OW20353   1.449   3.785   3.404
 6485SOL    HW120354   1.486   3.728   3.331
 6485SOL    HW220355   1.507   3.777   3.485
 6486SOL     OW20356   1.088   4.773   4.001
 6486SOL    HW120357   1.036   4.693   3.972
 6486SOL    HW220358   1.182   4.767   3.966
 6487SOL     OW20359   6.079   5.694   5.065
 6487SOL    HW120360   6.120   5.780   5.035
 6487SOL    HW220361   5.996   5.676   5.012
 6488SOL     OW20362   3.022   5.803   4.999
 6488SOL    HW120363   2.923   5.821   5.000
 6488SOL    HW220364   3.059   5.816   5.092
 6489SOL     OW20365   1.954   3.462   6.781
 6489SOL    HW120366   2.028   3.504   6.728
 6489SOL    HW220367   1.992   3.391   6.840
 6490SOL     OW20368   4.159   2.423   6.724
 6490SOL    HW120369   4.161   2.511   6.770
 6490SOL    HW220370   4.064   2.394   6.711
 6491SOL     OW20371   4.174   1.252   6.534
 6491SOL    HW120372   4.143   1.210   6.448
 6491SOL    HW220373   4.199   1.180   6.598
 6492SOL     OW20374   6.076   6.305   6.774
 6492SOL    HW120375   5.983   6.270   6.762
 6492SOL    HW220376   6.139   6.229   6.789
 6493SOL     OW20377   1.410   6.156   5.402
 6493SOL    HW120378   1.311   6.145   5.406
 6493SOL    HW220379   1.440   6.153   5.307
 6494SOL     OW20380   0.464   0.388   3.158
 6494SOL    HW120381   0.385   0.448   3.148
 6494SOL    HW220382   0.539   0.420   3.099
 6495SOL     OW20383   5.016   6.319   4.125
 6495SOL    HW120384   4.981   6.226   4.142
 6495SOL    HW220385   5.111   6.313   4.095
 6496SOL     OW20386   7.004   6.187   2.114
 6496SOL    HW120387   7.001   6.127   2.193
 6496SOL    HW220388   6.915   6.233   2.104
 6497SOL     OW20389   2.225   3.085   0.062
 6497SOL    HW120390   2.186   2.993   0.056
 6497SOL    HW220391   2.233   3.112   0.158
 6498SOL     OW20392   2.502   4.605   4.385
 6498SOL    HW120393   2.519   4.585   4.288
 6498SOL    HW220394   2.458   4.526   4.428
 6499SOL     OW20395   5.904   1.665   5.077
 6499SOL    HW120396   5.973   1.655   5.005
 6499SOL    HW220397   5.831   1.726   5.045
 6500SOL     OW20398   0.103   4.811   3.744
 6500SOL    HW120399   0.114   4.860   3.831
 6500SOL    HW220400   0.152   4.724   3.749
 6501SOL     OW20401   6.777   2.873   0.806
 6501SOL    HW120402   6.690   2.923   0.812
 6501SOL    HW220403   6.793   2.823   0.890
 6502SOL     OW20404   0.187   3.830   3.261
 6502SOL    HW120405   0.264   3.892   3.274
 6502SOL    HW220406   0.130   3.829   3.343
 6503SOL     OW20407   5.076   0.082   3.513
 6503SOL    HW120408   5.175   0.084   3.524
 6503SOL    HW220409   5.041   7.023   3.545
 6504SOL     OW20410   4.461   6.405   6.060
 6504SOL    HW120411   4.560   6.417   6.050
 6504SOL    HW220412   4.423   6.481   6.112
 6505SOL     OW20413   6.159   4.577   1.759
 6505SOL    HW120414   6.201   4.626   1.835
 6505SOL    HW220415   6.220   4.579   1.680
 6506SOL     OW20416   0.402   3.460   0.588
 6506SOL    HW120417   0.424   3.388   0.522
 6506SOL    HW220418   0.315   3.502   0.565
 6507SOL     OW20419   1.474   5.716   6.770
 6507SOL    HW120420   1.400   5.657   6.803
 6507SOL    HW220421   1.527   5.750   6.848
 6508SOL     OW20422   1.841   1.914   3.676
 6508SOL    HW120423   1.842   1.816   3.655
 6508SOL    HW220424   1.904   1.962   3.616
 6509SOL     OW20425   2.050   2.526   4.648
 6509SOL    HW120426   1.969   2.583   4.662
 6509SOL    HW220427   2.130   2.585   4.633
 6510SOL     OW20428   0.731   5.501   6.656
 6510SOL    HW120429   0.805   5.444   6.620
 6510SOL    HW220430   0.727   5.491   6.756
 6511SOL     OW20431   5.421   0.733   4.557
 6511SOL    HW120432   5.403   0.823   4.517
 6511SOL    HW220433   5.347   0.670   4.532
 6512SOL     OW20434   4.868   0.383   2.577
 6512SOL    HW120435   4.782   0.431   2.591
 6512SOL    HW220436   4.916   0.373   2.664
 6513SOL     OW20437   3.649   5.944   4.044
 6513SOL    HW120438   3.644   5.947   3.944
 6513SOL    HW220439   3.657   5.849   4.074
 6514SOL     OW20440   5.406   0.350   3.169
 6514SOL    HW120441   5.382   0.431   3.116
 6514SOL    HW220442   5.333   0.281   3.160
 6515SOL     OW20443   0.224   5.444   3.771
 6515SOL    HW120444   0.185   5.483   3.854
 6515SOL    HW220445   0.152   5.424   3.706
 6516SOL     OW20446   0.362   1.989   0.418
 6516SOL    HW120447   0.309   2.074   0.418
 6516SOL    HW220448   0.419   1.984   0.500
 6517SOL     OW20449   6.023   1.449   0.720
 6517SOL    HW120450   5.999   1.352   0.712
 6517SOL    HW220451   5.941   1.502   0.741
 6518SOL     OW20452   0.560   6.234   0.166
 6518SOL    HW120453   0.557   6.134   0.165
 6518SOL    HW220454   0.654   6.264   0.150
 6519SOL     OW20455   2.007   2.134   3.209
 6519SOL    HW120456   1.967   2.220   3.241
 6519SOL    HW220457   1.999   2.127   3.110
 6520SOL     OW20458   6.568   5.991   3.693
 6520SOL    HW120459   6.506   6.019   3.620
 6520SOL    HW220460   6.588   5.894   3.684
 6521SOL     OW20461   0.601   1.068   4.555
 6521SOL    HW120462   0.546   1.136   4.507
 6521SOL    HW220463   0.645   1.007   4.489
 6522SOL     OW20464   3.136   4.537   6.842
 6522SOL    HW120465   3.087   4.518   6.758
 6522SOL    HW220466   3.161   4.633   6.846
 6523SOL     OW20467   2.824   1.584   6.115
 6523SOL    HW120468   2.788   1.526   6.188
 6523SOL    HW220469   2.917   1.557   6.093
 6524SOL     OW20470   3.297   2.910   3.447
 6524SOL    HW120471   3.231   2.977   3.482
 6524SOL    HW220472   3.384   2.919   3.496
 6525SOL     OW20473   2.278   2.831   2.743
 6525SOL    HW120474   2.290   2.848   2.841
 6525SOL    HW220475   2.327   2.748   2.717
 6526SOL     OW20476   0.738   6.383   4.568
 6526SOL    HW120477   0.821   6.429   4.599
 6526SOL    HW220478   0.725   6.299   4.621
 6527SOL     OW20479   0.331   1.611   4.755
 6527SOL    HW120480   0.323   1.587   4.851
 6527SOL    HW220481   0.276   1.692   4.736
 6528SOL     OW20482   0.008   0.755   3.611
 6528SOL    HW120483   6.978   0.823   3.568
 6528SOL    HW220484   6.985   0.703   3.679
 6529SOL     OW20485   5.678   1.746   3.605
 6529SOL    HW120486   5.656   1.724   3.510
 6529SOL    HW220487   5.663   1.843   3.622
 6530SOL     OW20488   6.971   3.728   0.916
 6530SOL    HW120489   6.896   3.671   0.881
 6530SOL    HW220490   6.985   3.707   1.013
 6531SOL     OW20491   5.207   3.102   4.250
 6531SOL    HW120492   5.209   3.098   4.349
 6531SOL    HW220493   5.115   3.126   4.219
 6532SOL     OW20494   5.610   1.382   1.228
 6532SOL    HW120495   5.536   1.329   1.185
 6532SOL    HW220496   5.572   1.438   1.302
 6533SOL     OW20497   5.840   5.534   2.003
 6533SOL    HW120498   5.766   5.564   1.942
 6533SOL    HW220499   5.813   5.449   2.049
 6534SOL     OW20500   2.691   4.379   1.722
 6534SOL    HW120501   2.599   4.392   1.760
 6534SOL    HW220502   2.754   4.444   1.765
 6535SOL     OW20503   0.506   2.941   4.570
 6535SOL    HW120504   0.580   2.898   4.622
 6535SOL    HW220505   0.526   3.038   4.558
 6536SOL     OW20506   6.830   2.577   5.670
 6536SOL    HW120507   6.788   2.665   5.689
 6536SOL    HW220508   6.761   2.514   5.634
 6537SOL     OW20509   6.289   5.656   6.962
 6537SOL    HW120510   6.313   5.747   6.995
 6537SOL    HW220511   6.192   5.638   6.981
 6538SOL     OW20512   3.935   4.102   0.308
 6538SOL    HW120513   3.925   4.120   0.406
 6538SOL    HW220514   3.966   4.185   0.262
 6539SOL     OW20515   2.638   1.565   6.342
 6539SOL    HW120516   2.572   1.523   6.280
 6539SOL    HW220517   2.644   1.663   6.322
 6540SOL     OW20518   4.328   1.709   4.744
 6540SOL    HW120519   4.426   1.694   4.734
 6540SOL    HW220520   4.306   1.803   4.721
 6541SOL     OW20521   3.245   2.102   4.593
 6541SOL    HW120522   3.212   2.054   4.675
 6541SOL    HW220523   3.218   2.198   4.599
 6542SOL     OW20524   0.283   4.445   3.403
 6542SOL    HW120525   0.214   4.379   3.431
 6542SOL    HW220526   0.238   4.528   3.370
 6543SOL     OW20527   6.616   4.739   0.086
 6543SOL    HW120528   6.685   4.800   0.047
 6543SOL    HW220529   6.587   4.673   0.017
 6544SOL     OW20530   0.791   6.538   3.639
 6544SOL    HW120531   0.721   6.467   3.628
 6544SOL    HW220532   0.766   6.600   3.713
 6545SOL     OW20533   4.786   1.807   6.211
 6545SOL    HW120534   4.825   1.716   6.199
 6545SOL    HW220535   4.773   1.850   6.122
 6546SOL     OW20536   4.311   4.232   6.199
 6546SOL    HW120537   4.400   4.262   6.234
 6546SOL    HW220538   4.239   4.260   6.262
 6547SOL     OW20539   4.118   1.498   5.822
 6547SOL    HW120540   4.197   1.530   5.874
 6547SOL    HW220541   4.034   1.535   5.862
 6548SOL     OW20542   0.820   4.082   6.659
 6548SOL    HW120543   0.892   4.150   6.670
 6548SOL    HW220544   0.731   4.127   6.656
 6549SOL     OW20545   3.353   1.257   1.014
 6549SOL    HW120546   3.378   1.281   1.108
 6549SOL    HW220547   3.259   1.284   0.997
 6550SOL     OW20548   0.021   6.110   3.038
 6550SOL    HW120549   0.075   6.164   3.103
 6550SOL    HW220550   6.996   6.043   3.088
 6551SOL     OW20551   1.889   4.063   2.543
 6551SOL    HW120552   1.912   3.966   2.535
 6551SOL    HW220553   1.868   4.085   2.638
 6552SOL     OW20554   2.460   6.841   4.194
 6552SOL    HW120555   2.427   6.761   4.243
 6552SOL    HW220556   2.402   6.920   4.216
 6553SOL     OW20557   0.226   2.330   1.216
 6553SOL    HW120558   0.132   2.331   1.184
 6553SOL    HW220559   0.288   2.343   1.138
 6554SOL     OW20560   6.210   1.647   6.043
 6554SOL    HW120561   6.192   1.693   5.956
 6554SOL    HW220562   6.231   1.551   6.026
 6555SOL     OW20563   1.853   0.910   2.725
 6555SOL    HW120564   1.822   0.867   2.810
 6555SOL    HW220565   1.926   0.975   2.746
 6556SOL     OW20566   4.656   4.787   5.131
 6556SOL    HW120567   4.732   4.762   5.191
 6556SOL    HW220568   4.691   4.836   5.051
 6557SOL     OW20569   5.077   5.532   1.324
 6557SOL    HW120570   5.132   5.480   1.390
 6557SOL    HW220571   5.137   5.574   1.256
 6558SOL     OW20572   6.818   5.676   1.493
 6558SOL    HW120573   6.867   5.594   1.525
 6558SOL    HW220574   6.724   5.652   1.470
 6559SOL     OW20575   6.414   3.936   0.810
 6559SOL    HW120576   6.462   3.854   0.842
 6559SOL    HW220577   6.347   3.964   0.879
 6560SOL     OW20578   3.619   2.881   1.906
 6560SOL    HW120579   3.636   2.783   1.915
 6560SOL    HW220580   3.609   2.904   1.810
 6561SOL     OW20581   3.652   3.941   2.564
 6561SOL    HW120582   3.618   3.848   2.579
 6561SOL    HW220583   3.739   3.952   2.613
 6562SOL     OW20584   6.216   4.521   6.573
 6562SOL    HW120585   6.273   4.587   6.525
 6562SOL    HW220586   6.129   4.564   6.597
 6563SOL     OW20587   0.801   6.352   0.096
 6563SOL    HW120588   0.848   6.370   0.183
 6563SOL    HW220589   0.830   6.419   0.028
 6564SOL     OW20590   0.957   3.962   1.864
 6564SOL    HW120591   0.957   3.873   1.818
 6564SOL    HW220592   1.051   3.993   1.876
 6565SOL     OW20593   6.539   2.091   4.738
 6565SOL    HW120594   6.622   2.036   4.745
 6565SOL    HW220595   6.471   2.043   4.683
 6566SOL     OW20596   3.463   6.767   1.245
 6566SOL    HW120597   3.462   6.684   1.189
 6566SOL    HW220598   3.480   6.846   1.187
 6567SOL     OW20599   4.352   2.515   1.474
 6567SOL    HW120600   4.294   2.552   1.547
 6567SOL    HW220601   4.294   2.467   1.408
 6568SOL     OW20602   5.047   5.336   2.129
 6568SOL    HW120603   5.083   5.349   2.037
 6568SOL    HW220604   4.951   5.365   2.131
 6569SOL     OW20605   3.197   4.701   1.179
 6569SOL    HW120606   3.228   4.712   1.085
 6569SOL    HW220607   3.209   4.605   1.207
 6570SOL     OW20608   5.137   6.905   1.484
 6570SOL    HW120609   5.215   6.923   1.543
 6570SOL    HW220610   5.166   6.908   1.388
 6571SOL     OW20611   1.880   6.617   2.354
 6571SOL    HW120612   1.927   6.690   2.304
 6571SOL    HW220613   1.942   6.577   2.421
 6572SOL     OW20614   6.104   5.026   4.828
 6572SOL    HW120615   6.034   5.086   4.790
 6572SOL    HW220616   6.174   5.082   4.873
 6573SOL     OW20617   3.446   1.563   3.220
 6573SOL    HW120618   3.431   1.661   3.206
 6573SOL    HW220619   3.364   1.512   3.192
 6574SOL     OW20620   2.789   6.011   2.054
 6574SOL    HW120621   2.715   5.962   2.008
 6574SOL    HW220622   2.876   5.991   2.009
 6575SOL     OW20623   0.850   1.357   1.721
 6575SOL    HW120624   0.813   1.384   1.810
 6575SOL    HW220625   0.899   1.435   1.681
 6576SOL     OW20626   1.637   6.240   6.283
 6576SOL    HW120627   1.604   6.167   6.343
 6576SOL    HW220628   1.732   6.261   6.306
 6577SOL     OW20629   0.438   1.151   3.270
 6577SOL    HW120630   0.404   1.239   3.304
 6577SOL    HW220631   0.538   1.151   3.272
 6578SOL     OW20632   7.012   5.019   2.882
 6578SOL    HW120633   6.943   5.087   2.905
 6578SOL    HW220634   0.037   4.997   2.963
 6579SOL     OW20635   6.989   4.045   4.654
 6579SOL    HW120636   0.037   4.029   4.593
 6579SOL    HW220637   6.944   4.131   4.630
 6580SOL     OW20638   6.024   1.427   1.336
 6580SOL    HW120639   5.943   1.377   1.366
 6580SOL    HW220640   6.051   1.491   1.408
 6581SOL     OW20641   3.729   0.982   5.944
 6581SOL    HW120642   3.698   0.965   6.038
 6581SOL    HW220643   3.785   0.906   5.913
 6582SOL     OW20644   1.448   0.116   2.034
 6582SOL    HW120645   1.542   0.083   2.033
 6582SOL    HW220646   1.433   0.175   2.113
 6583SOL     OW20647   4.299   1.166   6.138
 6583SOL    HW120648   4.385   1.171   6.189
 6583SOL    HW220649   4.311   1.209   6.048
 6584SOL     OW20650   5.183   1.181   0.211
 6584SOL    HW120651   5.236   1.258   0.246
 6584SOL    HW220652   5.229   1.142   0.131
 6585SOL     OW20653   6.658   1.116   0.893
 6585SOL    HW120654   6.566   1.151   0.910
 6585SOL    HW220655   6.690   1.067   0.974
 6586SOL     OW20656   6.259   2.291   5.890
 6586SOL    HW120657   6.162   2.308   5.873
 6586SOL    HW220658   6.273   2.194   5.912
 6587SOL     OW20659   2.911   5.868   4.445
 6587SOL    HW120660   2.973   5.806   4.396
 6587SOL    HW220661   2.881   5.825   4.530
 6588SOL     OW20662   1.808   3.915   1.605
 6588SOL    HW120663   1.834   3.932   1.510
 6588SOL    HW220664   1.768   3.997   1.644
 6589SOL     OW20665   4.446   0.616   6.764
 6589SOL    HW120666   4.492   0.542   6.715
 6589SOL    HW220667   4.434   0.590   6.860
 6590SOL     OW20668   0.720   1.920   5.935
 6590SOL    HW120669   0.815   1.890   5.950
 6590SOL    HW220670   0.721   2.010   5.891
 6591SOL     OW20671   5.591   5.982   2.184
 6591SOL    HW120672   5.597   6.033   2.270
 6591SOL    HW220673   5.594   6.046   2.107
 6592SOL     OW20674   4.974   6.915   3.666
 6592SOL    HW120675   5.024   6.853   3.727
 6592SOL    HW220676   4.886   6.937   3.708
 6593SOL     OW20677   2.117   2.494   3.249
 6593SOL    HW120678   2.028   2.461   3.281
 6593SOL    HW220679   2.186   2.477   3.319
 6594SOL     OW20680   4.170   1.223   0.415
 6594SOL    HW120681   4.140   1.242   0.322
 6594SOL    HW220682   4.116   1.149   0.455
 6595SOL     OW20683   0.552   4.184   1.649
 6595SOL    HW120684   0.600   4.211   1.733
 6595SOL    HW220685   0.455   4.173   1.669
 6596SOL     OW20686   3.976   6.999   5.193
 6596SOL    HW120687   4.023   6.926   5.142
 6596SOL    HW220688   3.947   0.041   5.130
 6597SOL     OW20689   1.105   6.537   3.549
 6597SOL    HW120690   1.070   6.627   3.576
 6597SOL    HW220691   1.096   6.525   3.450
 6598SOL     OW20692   1.866   6.121   5.553
 6598SOL    HW120693   1.904   6.029   5.540
 6598SOL    HW220694   1.933   6.177   5.603
 6599SOL     OW20695   4.023   5.412   5.554
 6599SOL    HW120696   4.055   5.469   5.629
 6599SOL    HW220697   4.069   5.438   5.470
 6600SOL     OW20698   4.915   5.156   4.822
 6600SOL    HW120699   4.997   5.183   4.873
 6600SOL    HW220700   4.838   5.147   4.886
 6601SOL     OW20701   1.015   0.687   0.695
 6601SOL    HW120702   1.091   0.627   0.719
 6601SOL    HW220703   0.978   0.729   0.777
 6602SOL     OW20704   6.780   1.684   1.380
 6602SOL    HW120705   6.762   1.782   1.377
 6602SOL    HW220706   6.878   1.667   1.371
 6603SOL     OW20707   1.462   2.984   4.180
 6603SOL    HW120708   1.527   2.997   4.105
 6603SOL    HW220709   1.511   2.971   4.266
 6604SOL     OW20710   2.731   6.282   1.432
 6604SOL    HW120711   2.635   6.299   1.455
 6604SOL    HW220712   2.788   6.299   1.513
 6605SOL     OW20713   4.781   4.887   0.699
 6605SOL    HW120714   4.772   4.850   0.606
 6605SOL    HW220715   4.875   4.918   0.713
 6606SOL     OW20716   5.071   6.516   2.069
 6606SOL    HW120717   5.028   6.441   2.118
 6606SOL    HW220718   5.159   6.486   2.032
 6607SOL     OW20719   2.240   1.298   1.802
 6607SOL    HW120720   2.148   1.337   1.791
 6607SOL    HW220721   2.305   1.370   1.825
 6608SOL     OW20722   5.337   4.686   2.349
 6608SOL    HW120723   5.386   4.654   2.269
 6608SOL    HW220724   5.239   4.691   2.329
 6609SOL     OW20725   4.902   1.043   6.199
 6609SOL    HW120726   4.849   1.029   6.282
 6609SOL    HW220727   4.840   1.068   6.124
 6610SOL     OW20728   2.249   0.151   6.699
 6610SOL    HW120729   2.295   0.191   6.778
 6610SOL    HW220730   2.245   0.051   6.710
 6611SOL     OW20731   6.876   2.347   2.746
 6611SOL    HW120732   6.934   2.307   2.675
 6611SOL    HW220733   6.888   2.446   2.748
 6612SOL     OW20734   0.622   3.905   6.866
 6612SOL    HW120735   0.670   3.989   6.888
 6612SOL    HW220736   0.545   3.925   6.806
 6613SOL     OW20737   6.109   5.919   3.521
 6613SOL    HW120738   6.044   5.993   3.503
 6613SOL    HW220739   6.171   5.946   3.594
 6614SOL     OW20740   4.739   6.622   6.719
 6614SOL    HW120741   4.685   6.549   6.762
 6614SOL    HW220742   4.680   6.700   6.699
 6615SOL     OW20743   0.871   3.726   4.659
 6615SOL    HW120744   0.949   3.772   4.700
 6615SOL    HW220745   0.813   3.686   4.731
 6616SOL     OW20746   4.494   1.280   5.733
 6616SOL    HW120747   4.506   1.216   5.657
 6616SOL    HW220748   4.407   1.263   5.778
 6617SOL     OW20749   3.672   6.431   3.485
 6617SOL    HW120750   3.613   6.445   3.565
 6617SOL    HW220751   3.688   6.518   3.439
 6618SOL     OW20752   0.939   3.184   2.440
 6618SOL    HW120753   1.011   3.225   2.496
 6618SOL    HW220754   0.872   3.140   2.500
 6619SOL     OW20755   5.893   6.880   4.611
 6619SOL    HW120756   5.807   6.845   4.649
 6619SOL    HW220757   5.895   6.980   4.619
 6620SOL     OW20758   1.660   3.020   5.770
 6620SOL    HW120759   1.668   3.037   5.868
 6620SOL    HW220760   1.732   3.069   5.721
 6621SOL     OW20761   3.353   3.838   0.424
 6621SOL    HW120762   3.426   3.786   0.381
 6621SOL    HW220763   3.392   3.914   0.476
 6622SOL     OW20764   6.328   6.031   1.712
 6622SOL    HW120765   6.296   6.024   1.617
 6622SOL    HW220766   6.389   6.110   1.720
 6623SOL     OW20767   3.486   3.402   1.889
 6623SOL    HW120768   3.434   3.385   1.805
 6623SOL    HW220769   3.470   3.496   1.919
 6624SOL     OW20770   2.652   7.012   4.086
 6624SOL    HW120771   2.572   6.971   4.131
 6624SOL    HW220772   2.670   0.073   4.126
 6625SOL     OW20773   5.546   1.980   6.224
 6625SOL    HW120774   5.639   2.013   6.205
 6625SOL    HW220775   5.501   2.042   6.287
 6626SOL     OW20776   3.517   4.924   3.184
 6626SOL    HW120777   3.587   4.853   3.178
 6626SOL    HW220778   3.513   4.959   3.277
 6627SOL     OW20779   2.081   0.889   5.712
 6627SOL    HW120780   2.005   0.954   5.724
 6627SOL    HW220781   2.103   0.847   5.801
 6628SOL     OW20782   5.034   5.516   3.545
 6628SOL    HW120783   5.083   5.429   3.534
 6628SOL    HW220784   5.046   5.550   3.638
 6629SOL     OW20785   3.215   6.460   0.601
 6629SOL    HW120786   3.273   6.541   0.604
 6629SOL    HW220787   3.124   6.483   0.636
 6630SOL     OW20788   3.813   1.955   0.847
 6630SOL    HW120789   3.786   2.050   0.832
 6630SOL    HW220790   3.742   1.894   0.813
 6631SOL     OW20791   4.752   0.123   2.158
 6631SOL    HW120792   4.710   0.033   2.146
 6631SOL    HW220793   4.781   0.134   2.253
 6632SOL     OW20794   6.545   1.154   1.804
 6632SOL    HW120795   6.491   1.118   1.881
 6632SOL    HW220796   6.574   1.247   1.824
 6633SOL     OW20797   1.453   5.671   5.878
 6633SOL    HW120798   1.522   5.616   5.924
 6633SOL    HW220799   1.445   5.760   5.923
 6634SOL     OW20800   5.592   3.383   5.831
 6634SOL    HW120801   5.632   3.294   5.812
 6634SOL    HW220802   5.661   3.454   5.816
 6635SOL     OW20803   4.403   5.179   3.226
 6635SOL    HW120804   4.306   5.157   3.243
 6635SOL    HW220805   4.457   5.152   3.305
 6636SOL     OW20806   1.963   2.550   5.769
 6636SOL    HW120807   1.940   2.647   5.758
 6636SOL    HW220808   2.039   2.541   5.832
 6637SOL     OW20809   1.385   0.543   0.156
 6637SOL    HW120810   1.482   0.550   0.182
 6637SOL    HW220811   1.352   0.633   0.127
 6638SOL     OW20812   4.128   4.847   5.180
 6638SOL    HW120813   4.219   4.883   5.202
 6638SOL    HW220814   4.107   4.771   5.240
 6639SOL     OW20815   5.565   6.156   6.105
 6639SOL    HW120816   5.632   6.087   6.133
 6639SOL    HW220817   5.473   6.124   6.127
 6640SOL     OW20818   0.131   2.132   4.961
 6640SOL    HW120819   0.202   2.194   4.993
 6640SOL    HW220820   0.051   2.184   4.931
 6641SOL     OW20821   2.488   3.286   6.421
 6641SOL    HW120822   2.417   3.323   6.481
 6641SOL    HW220823   2.459   3.294   6.326
 6642SOL     OW20824   2.942   4.849   0.495
 6642SOL    HW120825   2.995   4.934   0.490
 6642SOL    HW220826   2.844   4.872   0.499
 6643SOL     OW20827   6.929   4.784   7.015
 6643SOL    HW120828   6.945   4.761   6.919
 6643SOL    HW220829   6.861   4.857   7.021
 6644SOL     OW20830   3.064   4.820   1.932
 6644SOL    HW120831   3.037   4.914   1.914
 6644SOL    HW220832   2.983   4.762   1.937
 6645SOL     OW20833   6.349   5.024   0.603
 6645SOL    HW120834   6.381   4.945   0.549
 6645SOL    HW220835   6.410   5.036   0.682
 6646SOL     OW20836   4.508   5.850   4.266
 6646SOL    HW120837   4.597   5.810   4.241
 6646SOL    HW220838   4.511   5.880   4.361
 6647SOL     OW20839   3.437   1.308   2.715
 6647SOL    HW120840   3.502   1.379   2.743
 6647SOL    HW220841   3.382   1.342   2.638
 6648SOL     OW20842   3.656   6.421   1.992
 6648SOL    HW120843   3.723   6.487   1.959
 6648SOL    HW220844   3.591   6.466   2.053
 6649SOL     OW20845   5.191   1.627   6.509
 6649SOL    HW120846   5.116   1.666   6.563
 6649SOL    HW220847   5.167   1.534   6.482
 6650SOL     OW20848   3.906   1.540   3.907
 6650SOL    HW120849   3.958   1.469   3.955
 6650SOL    HW220850   3.821   1.559   3.955
 6651SOL     OW20851   1.538   1.711   7.028
 6651SOL    HW120852   1.454   1.672   0.038
 6651SOL    HW220853   1.588   1.760   0.070
 6652SOL     OW20854   6.501   4.473   0.208
 6652SOL    HW120855   6.572   4.542   0.197
 6652SOL    HW220856   6.429   4.507   0.269
 6653SOL     OW20857   4.047   3.263   3.015
 6653SOL    HW120858   4.051   3.197   3.091
 6653SOL    HW220859   4.024   3.214   2.930
 6654SOL     OW20860   2.255   2.645   1.250
 6654SOL    HW120861   2.285   2.597   1.333
 6654SOL    HW220862   2.294   2.737   1.249
 6655SOL     OW20863   2.650   6.773   1.940
 6655SOL    HW120864   2.590   6.798   1.864
 6655SOL    HW220865   2.620   6.820   2.023
 6656SOL     OW20866   6.355   1.572   2.936
 6656SOL    HW120867   6.339   1.611   3.026
 6656SOL    HW220868   6.448   1.597   2.906
 6657SOL     OW20869   4.570   6.496   6.341
 6657SOL    HW120870   4.646   6.537   6.390
 6657SOL    HW220871   4.519   6.568   6.293
 6658SOL     OW20872   6.206   1.585   5.151
 6658SOL    HW120873   6.142   1.630   5.213
 6658SOL    HW220874   6.178   1.603   5.056
 6659SOL     OW20875   2.650   2.265   0.091
 6659SOL    HW120876   2.584   2.339   0.083
 6659SOL    HW220877   2.726   2.294   0.150
 6660SOL     OW20878   6.949   6.224   1.302
 6660SOL    HW120879   6.987   6.273   1.381
 6660SOL    HW220880   6.987   6.262   1.218
 6661SOL     OW20881   0.418   5.021   4.207
 6661SOL    HW120882   0.443   5.066   4.121
 6661SOL    HW220883   0.499   4.980   4.248
 6662SOL     OW20884   1.701   0.769   0.093
 6662SOL    HW120885   1.770   0.795   0.025
 6662SOL    HW220886   1.619   0.824   0.080
 6663SOL     OW20887   0.246   5.814   3.160
 6663SOL    HW120888   0.277   5.819   3.255
 6663SOL    HW220889   0.206   5.724   3.142
 6664SOL     OW20890   1.499   0.080   1.398
 6664SOL    HW120891   1.540   0.138   1.327
 6664SOL    HW220892   1.443   0.009   1.355
 6665SOL     OW20893   1.862   0.542   3.472
 6665SOL    HW120894   1.895   0.617   3.415
 6665SOL    HW220895   1.830   0.468   3.413
 6666SOL     OW20896   5.859   1.832   5.363
 6666SOL    HW120897   5.901   1.750   5.326
 6666SOL    HW220898   5.857   1.827   5.463
 6667SOL     OW20899   6.479   5.126   4.758
 6667SOL    HW120900   6.572   5.151   4.731
 6667SOL    HW220901   6.453   5.040   4.714
 6668SOL     OW20902   6.702   5.909   2.343
 6668SOL    HW120903   6.662   5.865   2.263
 6668SOL    HW220904   6.802   5.902   2.339
 6669SOL     OW20905   2.092   3.350   3.871
 6669SOL    HW120906   2.131   3.364   3.780
 6669SOL    HW220907   2.028   3.424   3.892
 6670SOL     OW20908   3.496   3.919   6.790
 6670SOL    HW120909   3.524   3.823   6.783
 6670SOL    HW220910   3.426   3.939   6.722
 6671SOL     OW20911   6.014   5.209   0.841
 6671SOL    HW120912   6.049   5.150   0.769
 6671SOL    HW220913   6.061   5.297   0.837
 6672SOL     OW20914   0.626   1.358   5.223
 6672SOL    HW120915   0.723   1.380   5.214
 6672SOL    HW220916   0.604   1.341   5.319
 6673SOL     OW20917   4.860   5.485   3.019
 6673SOL    HW120918   4.775   5.526   3.051
 6673SOL    HW220919   4.938   5.534   3.058
 6674SOL     OW20920   0.774   5.389   5.960
 6674SOL    HW120921   0.709   5.457   5.925
 6674SOL    HW220922   0.729   5.300   5.965
 6675SOL     OW20923   4.943   3.972   1.622
 6675SOL    HW120924   4.888   3.911   1.565
 6675SOL    HW220925   4.884   4.039   1.666
 6676SOL     OW20926   0.720   3.712   5.852
 6676SOL    HW120927   0.641   3.651   5.864
 6676SOL    HW220928   0.798   3.659   5.819
 6677SOL     OW20929   0.008   3.123   0.205
 6677SOL    HW120930   0.079   3.190   0.226
 6677SOL    HW220931   6.948   3.169   0.203
 6678SOL     OW20932   1.305   2.456   0.023
 6678SOL    HW120933   1.235   2.387   0.003
 6678SOL    HW220934   1.376   2.453   6.981
 6679SOL     OW20935   1.497   1.691   4.678
 6679SOL    HW120936   1.427   1.622   4.659
 6679SOL    HW220937   1.549   1.665   4.759
 6680SOL     OW20938   4.167   5.842   5.964
 6680SOL    HW120939   4.235   5.911   5.940
 6680SOL    HW220940   4.090   5.847   5.900
 6681SOL     OW20941   4.812   5.446   0.045
 6681SOL    HW120942   4.802   5.359   7.026
 6681SOL    HW220943   4.804   5.522   7.010
 6682SOL     OW20944   1.118   4.303   2.482
 6682SOL    HW120945   1.103   4.383   2.424
 6682SOL    HW220946   1.062   4.310   2.565
 6683SOL     OW20947   5.128   2.015   5.495
 6683SOL    HW120948   5.114   2.096   5.439
 6683SOL    HW220949   5.210   2.027   5.551
 6684SOL     OW20950   1.640   6.582   1.006
 6684SOL    HW120951   1.622   6.519   1.081
 6684SOL    HW220952   1.598   6.670   1.025
 6685SOL     OW20953   5.507   1.704   6.155
 6685SOL    HW120954   5.454   1.698   6.071
 6685SOL    HW220955   5.548   1.795   6.162
 6686SOL     OW20956   6.043   4.713   3.598
 6686SOL    HW120957   6.101   4.646   3.644
 6686SOL    HW220958   6.098   4.765   3.532
 6687SOL     OW20959   0.601   1.741   1.173
 6687SOL    HW120960   0.698   1.724   1.154
 6687SOL    HW220961   0.551   1.655   1.174
 6688SOL     OW20962   0.448   4.036   1.945
 6688SOL    HW120963   0.445   4.135   1.958
 6688SOL    HW220964   0.406   4.013   1.857
 6689SOL     OW20965   4.180   2.551   0.506
 6689SOL    HW120966   4.250   2.528   0.438
 6689SOL    HW220967   4.217   2.538   0.598
 6690SOL     OW20968   2.792   0.788   1.707
 6690SOL    HW120969   2.754   0.852   1.774
 6690SOL    HW220970   2.719   0.728   1.674
 6691SOL     OW20971   3.316   5.631   0.865
 6691SOL    HW120972   3.391   5.583   0.821
 6691SOL    HW220973   3.298   5.591   0.955
 6692SOL     OW20974   2.734   4.889   5.068
 6692SOL    HW120975   2.713   4.891   5.166
 6692SOL    HW220976   2.759   4.796   5.041
 6693SOL     OW20977   5.244   3.429   6.408
 6693SOL    HW120978   5.331   3.431   6.458
 6693SOL    HW220979   5.253   3.487   6.326
 6694SOL     OW20980   4.653   5.718   0.162
 6694SOL    HW120981   4.743   5.676   0.174
 6694SOL    HW220982   4.582   5.648   0.170
 6695SOL     OW20983   0.720   1.946   6.549
 6695SOL    HW120984   0.725   1.953   6.449
 6695SOL    HW220985   0.774   1.868   6.580
 6696SOL     OW20986   2.075   2.552   0.928
 6696SOL    HW120987   2.041   2.458   0.927
 6696SOL    HW220988   2.019   2.607   0.990
 6697SOL     OW20989   4.482   2.498   3.081
 6697SOL    HW120990   4.535   2.555   3.018
 6697SOL    HW220991   4.494   2.530   3.175
 6698SOL     OW20992   3.616   2.574   0.457
 6698SOL    HW120993   3.672   2.517   0.517
 6698SOL    HW220994   3.627   2.544   0.363
 6699SOL     OW20995   3.515   4.446   6.804
 6699SOL    HW120996   3.497   4.443   6.705
 6699SOL    HW220997   3.509   4.353   6.841
 6700SOL     OW20998   0.744   5.712   0.738
 6700SOL    HW120999   0.799   5.645   0.687
 6700SOL    HW221000   0.648   5.685   0.735
 6701SOL     OW21001   5.991   2.914   1.439
 6701SOL    HW121002   5.900   2.938   1.405
 6701SOL    HW221003   6.007   2.961   1.525
 6702SOL     OW21004   2.850   2.363   6.807
 6702SOL    HW121005   2.760   2.331   6.777
 6702SOL    HW221006   2.917   2.291   6.793
 6703SOL     OW21007   6.239   1.822   6.887
 6703SOL    HW121008   6.179   1.866   6.819
 6703SOL    HW221009   6.334   1.829   6.856
 6704SOL     OW21010   4.205   2.267   2.819
 6704SOL    HW121011   4.177   2.265   2.915
 6704SOL    HW221012   4.124   2.257   2.760
 6705SOL     OW21013   0.122   1.923   1.880
 6705SOL    HW121014   0.183   1.989   1.924
 6705SOL    HW221015   0.130   1.834   1.926
 6706SOL     OW21016   1.338   4.539   0.551
 6706SOL    HW121017   1.349   4.633   0.585
 6706SOL    HW221018   1.422   4.509   0.507
 6707SOL     OW21019   6.223   5.916   5.003
 6707SOL    HW121020   6.282   5.939   5.081
 6707SOL    HW221021   6.260   5.957   4.920
 6708SOL     OW21022   1.662   5.860   2.446
 6708SOL    HW121023   1.701   5.912   2.521
 6708SOL    HW221024   1.723   5.783   2.424
 6709SOL     OW21025   3.617   6.068   1.040
 6709SOL    HW121026   3.527   6.094   1.004
 6709SOL    HW221027   3.675   6.036   0.964
 6710SOL     OW21028   2.547   1.994   5.829
 6710SOL    HW121029   2.599   1.966   5.748
 6710SOL    HW221030   2.535   1.915   5.890
 6711SOL     OW21031   5.865   4.365   6.637
 6711SOL    HW121032   5.787   4.365   6.574
 6711SOL    HW221033   5.918   4.281   6.623
 6712SOL     OW21034   4.432   5.445   0.455
 6712SOL    HW121035   4.401   5.486   0.540
 6712SOL    HW221036   4.525   5.409   0.467
 6713SOL     OW21037   2.473   1.412   1.547
 6713SOL    HW121038   2.395   1.469   1.572
 6713SOL    HW221039   2.531   1.462   1.483
 6714SOL     OW21040   5.272   0.050   5.200
 6714SOL    HW121041   5.243   0.084   5.110
 6714SOL    HW221042   5.290   0.127   5.261
 6715SOL     OW21043   0.052   0.760   0.016
 6715SOL    HW121044   0.004   0.810   0.088
 6715SOL    HW221045   0.081   0.823   6.973
 6716SOL     OW21046   1.541   6.380   1.200
 6716SOL    HW121047   1.611   6.320   1.239
 6716SOL    HW221048   1.503   6.338   1.117
 6717SOL     OW21049   4.201   3.203   0.503
 6717SOL    HW121050   4.172   3.222   0.409
 6717SOL    HW221051   4.301   3.201   0.507
 6718SOL     OW21052   3.949   5.945   6.462
 6718SOL    HW121053   3.877   5.876   6.470
 6718SOL    HW221054   3.995   5.935   6.373
 6719SOL     OW21055   0.535   0.052   6.010
 6719SOL    HW121056   0.608   0.119   6.025
 6719SOL    HW221057   0.505   0.056   5.915
 6720SOL     OW21058   2.514   6.096   1.618
 6720SOL    HW121059   2.489   6.151   1.539
 6720SOL    HW221060   2.532   6.002   1.589
 6721SOL     OW21061   5.402   6.599   4.446
 6721SOL    HW121062   5.406   6.501   4.463
 6721SOL    HW221063   5.365   6.616   4.355
 6722SOL     OW21064   5.226   3.356   0.923
 6722SOL    HW121065   5.289   3.425   0.958
 6722SOL    HW221066   5.209   3.373   0.826
 6723SOL     OW21067   2.132   6.952   2.954
 6723SOL    HW121068   2.179   6.985   3.036
 6723SOL    HW221069   2.196   6.902   2.896
 6724SOL     OW21070   1.650   4.613   5.961
 6724SOL    HW121071   1.622   4.691   6.017
 6724SOL    HW221072   1.687   4.647   5.874
 6725SOL     OW21073   1.000   4.523   2.354
 6725SOL    HW121074   1.063   4.584   2.402
 6725SOL    HW221075   0.912   4.523   2.401
 6726SOL     OW21076   1.673   2.429   4.880
 6726SOL    HW121077   1.671   2.493   4.956
 6726SOL    HW221078   1.580   2.414   4.846
 6727SOL     OW21079   5.757   3.743   6.177
 6727SOL    HW121080   5.712   3.727   6.265
 6727SOL    HW221081   5.747   3.662   6.119
 6728SOL     OW21082   4.144   1.659   4.323
 6728SOL    HW121083   4.167   1.749   4.361
 6728SOL    HW221084   4.222   1.623   4.272
 6729SOL     OW21085   6.467   1.240   2.457
 6729SOL    HW121086   6.386   1.275   2.409
 6729SOL    HW221087   6.440   1.169   2.521
 6730SOL     OW21088   2.451   6.957   6.930
 6730SOL    HW121089   2.458   7.010   7.014
 6730SOL    HW221090   2.388   6.881   6.943
 6731SOL     OW21091   3.084   4.470   1.364
 6731SOL    HW121092   2.986   4.490   1.361
 6731SOL    HW221093   3.104   4.394   1.302
 6732SOL     OW21094   2.960   5.658   0.076
 6732SOL    HW121095   2.944   5.728   0.146
 6732SOL    HW221096   3.027   5.692   0.011
 6733SOL     OW21097   4.646   5.542   6.446
 6733SOL    HW121098   4.701   5.594   6.511
 6733SOL    HW221099   4.618   5.456   6.489
 6734SOL     OW21100   0.890   3.231   5.873
 6734SOL    HW121101   0.894   3.316   5.925
 6734SOL    HW221102   0.970   3.225   5.814
 6735SOL     OW21103   0.205   5.107   5.219
 6735SOL    HW121104   0.143   5.170   5.172
 6735SOL    HW221105   0.198   5.016   5.178
 6736SOL     OW21106   2.169   3.696   0.621
 6736SOL    HW121107   2.159   3.668   0.526
 6736SOL    HW221108   2.254   3.658   0.659
 6737SOL     OW21109   2.300   1.176   1.482
 6737SOL    HW121110   2.367   1.229   1.533
 6737SOL    HW221111   2.316   1.188   1.384
 6738SOL     OW21112   2.336   2.166   2.387
 6738SOL    HW121113   2.353   2.168   2.288
 6738SOL    HW221114   2.270   2.237   2.411
 6739SOL     OW21115   3.075   5.606   5.413
 6739SOL    HW121116   3.068   5.622   5.512
 6739SOL    HW221117   3.084   5.508   5.396
 6740SOL     OW21118   1.839   1.117   4.168
 6740SOL    HW121119   1.907   1.072   4.226
 6740SOL    HW221120   1.790   1.186   4.221
 6741SOL     OW21121   5.080   1.669   6.058
 6741SOL    HW121122   5.125   1.731   6.122
 6741SOL    HW221123   5.049   1.587   6.107
 6742SOL     OW21124   0.177   6.042   4.777
 6742SOL    HW121125   0.177   6.106   4.700
 6742SOL    HW221126   0.270   6.009   4.794
 6743SOL     OW21127   4.054   3.526   6.690
 6743SOL    HW121128   3.957   3.506   6.682
 6743SOL    HW221129   4.101   3.500   6.605
 6744SOL     OW21130   3.784   5.125   5.867
 6744SOL    HW121131   3.771   5.199   5.933
 6744SOL    HW221132   3.703   5.117   5.809
 6745SOL     OW21133   1.072   5.150   2.873
 6745SOL    HW121134   1.141   5.199   2.820
 6745SOL    HW221135   0.983   5.159   2.828
 6746SOL     OW21136   0.784   1.135   1.583
 6746SOL    HW121137   0.794   1.062   1.650
 6746SOL    HW221138   0.821   1.220   1.620
 6747SOL     OW21139   5.392   6.337   4.489
 6747SOL    HW121140   5.454   6.342   4.411
 6747SOL    HW221141   5.354   6.245   4.497
 6748SOL     OW21142   0.985   1.152   2.229
 6748SOL    HW121143   1.038   1.112   2.155
 6748SOL    HW221144   1.000   1.251   2.232
 6749SOL     OW21145   3.480   0.662   0.063
 6749SOL    HW121146   3.538   0.581   0.052
 6749SOL    HW221147   3.493   0.700   0.155
 6750SOL     OW21148   2.806   1.917   4.180
 6750SOL    HW121149   2.841   1.889   4.269
 6750SOL    HW221150   2.881   1.918   4.114
 6751SOL     OW21151   2.523   2.072   3.867
 6751SOL    HW121152   2.622   2.073   3.882
 6751SOL    HW221153   2.480   2.008   3.931
 6752SOL     OW21154   6.097   2.696   1.300
 6752SOL    HW121155   6.061   2.772   1.353
 6752SOL    HW221156   6.112   2.617   1.360
 6753SOL     OW21157   4.221   1.634   6.123
 6753SOL    HW121158   4.201   1.578   6.203
 6753SOL    HW221159   4.149   1.703   6.112
 6754SOL     OW21160   6.438   2.161   6.333
 6754SOL    HW121161   6.524   2.152   6.283
 6754SOL    HW221162   6.445   2.235   6.399
 6755SOL     OW21163   5.447   1.750   3.107
 6755SOL    HW121164   5.365   1.807   3.112
 6755SOL    HW221165   5.467   1.728   3.011
 6756SOL     OW21166   4.859   4.239   4.349
 6756SOL    HW121167   4.941   4.296   4.343
 6756SOL    HW221168   4.783   4.293   4.387
 6757SOL     OW21169   4.918   5.990   0.914
 6757SOL    HW121170   4.888   6.082   0.938
 6757SOL    HW221171   4.842   5.926   0.924
 6758SOL     OW21172   5.287   3.609   2.066
 6758SOL    HW121173   5.226   3.585   2.141
 6758SOL    HW221174   5.235   3.616   1.981
 6759SOL     OW21175   1.547   4.659   3.187
 6759SOL    HW121176   1.498   4.666   3.100
 6759SOL    HW221177   1.536   4.744   3.238
 6760SOL     OW21178   0.508   4.926   4.770
 6760SOL    HW121179   0.566   4.851   4.739
 6760SOL    HW221180   0.469   4.904   4.859
 6761SOL     OW21181   5.075   3.021   5.865
 6761SOL    HW121182   5.015   3.045   5.941
 6761SOL    HW221183   5.021   2.983   5.790
 6762SOL     OW21184   6.491   5.164   3.484
 6762SOL    HW121185   6.570   5.184   3.543
 6762SOL    HW221186   6.523   5.129   3.396
 6763SOL     OW21187   5.988   6.103   5.203
 6763SOL    HW121188   5.938   6.017   5.196
 6763SOL    HW221189   5.927   6.174   5.240
 6764SOL     OW21190   2.915   3.913   6.289
 6764SOL    HW121191   2.941   3.903   6.385
 6764SOL    HW221192   2.843   3.847   6.267
 6765SOL     OW21193   6.774   4.590   3.319
 6765SOL    HW121194   6.867   4.595   3.357
 6765SOL    HW221195   6.779   4.553   3.226
 6766SOL     OW21196   1.673   0.686   6.239
 6766SOL    HW121197   1.640   0.592   6.235
 6766SOL    HW221198   1.652   0.732   6.152
 6767SOL     OW21199   0.061   2.639   0.228
 6767SOL    HW121200   0.056   2.612   0.324
 6767SOL    HW221201   0.043   2.738   0.220
 6768SOL     OW21202   0.801   0.148   3.682
 6768SOL    HW121203   0.847   0.236   3.670
 6768SOL    HW221204   0.868   0.075   3.692
 6769SOL     OW21205   2.754   1.979   5.315
 6769SOL    HW121206   2.694   1.991   5.236
 6769SOL    HW221207   2.848   2.003   5.290
 6770SOL     OW21208   0.276   2.633   3.647
 6770SOL    HW121209   0.325   2.576   3.581
 6770SOL    HW221210   0.181   2.603   3.652
 6771SOL     OW21211   3.733   2.136   3.629
 6771SOL    HW121212   3.807   2.076   3.597
 6771SOL    HW221213   3.754   2.231   3.604
 6772SOL     OW21214   6.166   1.466   2.793
 6772SOL    HW121215   6.243   1.508   2.840
 6772SOL    HW221216   6.199   1.395   2.731
 6773SOL     OW21217   0.113   5.972   1.709
 6773SOL    HW121218   0.130   5.948   1.804
 6773SOL    HW221219   0.175   6.046   1.682
 6774SOL     OW21220   1.495   2.107   5.149
 6774SOL    HW121221   1.442   2.041   5.095
 6774SOL    HW221222   1.485   2.198   5.109
 6775SOL     OW21223   0.687   1.679   4.597
 6775SOL    HW121224   0.695   1.775   4.568
 6775SOL    HW221225   0.710   1.672   4.694
 6776SOL     OW21226   3.953   4.201   1.652
 6776SOL    HW121227   3.858   4.199   1.621
 6776SOL    HW221228   3.990   4.293   1.637
 6777SOL     OW21229   4.518   5.729   1.666
 6777SOL    HW121230   4.449   5.707   1.735
 6777SOL    HW221231   4.607   5.696   1.697
 6778SOL     OW21232   6.397   3.776   2.873
 6778SOL    HW121233   6.374   3.730   2.787
 6778SOL    HW221234   6.354   3.866   2.875
 6779SOL     OW21235   6.004   4.032   5.941
 6779SOL    HW121236   5.984   4.010   6.036
 6779SOL    HW221237   6.098   4.005   5.920
 6780SOL     OW21238   2.717   2.415   3.358
 6780SOL    HW121239   2.643   2.477   3.384
 6780SOL    HW221240   2.731   2.347   3.429
 6781SOL     OW21241   6.637   1.434   3.996
 6781SOL    HW121242   6.626   1.371   4.072
 6781SOL    HW221243   6.569   1.507   4.003
 6782SOL     OW21244   6.440   2.076   3.779
 6782SOL    HW121245   6.418   1.996   3.723
 6782SOL    HW221246   6.538   2.093   3.776
 6783SOL     OW21247   1.129   5.128   5.053
 6783SOL    HW121248   1.072   5.132   5.134
 6783SOL    HW221249   1.203   5.194   5.060
 6784SOL     OW21250   1.718   3.418   1.503
 6784SOL    HW121251   1.807   3.374   1.501
 6784SOL    HW221252   1.646   3.349   1.500
 6785SOL     OW21253   5.478   4.788   4.567
 6785SOL    HW121254   5.400   4.749   4.616
 6785SOL    HW221255   5.473   4.761   4.470
 6786SOL     OW21256   6.680   2.275   0.750
 6786SOL    HW121257   6.694   2.176   0.741
 6786SOL    HW221258   6.607   2.293   0.816
 6787SOL     OW21259   3.647   2.293   6.841
 6787SOL    HW121260   3.721   2.348   6.880
 6787SOL    HW221261   3.685   2.229   6.774
 6788SOL     OW21262   0.502   4.105   3.996
 6788SOL    HW121263   0.555   4.037   3.945
 6788SOL    HW221264   0.451   4.162   3.932
 6789SOL     OW21265   6.570   3.829   4.022
 6789SOL    HW121266   6.504   3.898   3.993
 6789SOL    HW221267   6.635   3.811   3.949
 6790SOL     OW21268   0.988   5.069   6.038
 6790SOL    HW121269   0.985   4.982   5.990
 6790SOL    HW221270   0.909   5.076   6.100
 6791SOL     OW21271   4.112   1.154   3.903
 6791SOL    HW121272   4.174   1.206   3.844
 6791SOL    HW221273   4.165   1.089   3.957
 6792SOL     OW21274   4.154   0.067   5.364
 6792SOL    HW121275   4.086   0.054   5.293
 6792SOL    HW221276   4.236   0.013   5.343
 6793SOL     OW21277   2.317   3.542   0.259
 6793SOL    HW121278   2.367   3.456   0.261
 6793SOL    HW221279   2.238   3.534   0.198
 6794SOL     OW21280   4.604   1.695   5.834
 6794SOL    HW121281   4.697   1.670   5.862
 6794SOL    HW221282   4.547   1.613   5.834
 6795SOL     OW21283   0.864   0.841   1.395
 6795SOL    HW121284   0.896   0.934   1.378
 6795SOL    HW221285   0.937   0.787   1.436
 6796SOL     OW21286   5.923   1.456   2.456
 6796SOL    HW121287   5.913   1.361   2.485
 6796SOL    HW221288   5.908   1.516   2.535
 6797SOL     OW21289   0.315   2.119   1.997
 6797SOL    HW121290   0.350   2.125   1.903
 6797SOL    HW221291   0.303   2.211   2.033
 6798SOL     OW21292   5.480   0.399   1.943
 6798SOL    HW121293   5.519   0.464   1.877
 6798SOL    HW221294   5.441   0.449   2.020
 6799SOL     OW21295   5.121   0.463   3.331
 6799SOL    HW121296   5.080   0.394   3.391
 6799SOL    HW221297   5.200   0.503   3.376
 6800SOL     OW21298   0.054   1.394   1.345
 6800SOL    HW121299   0.073   1.299   1.367
 6800SOL    HW221300   0.139   1.447   1.353
 6801SOL     OW21301   1.099   5.827   5.205
 6801SOL    HW121302   1.145   5.813   5.293
 6801SOL    HW221303   1.003   5.803   5.214
 6802SOL     OW21304   3.231   5.714   1.411
 6802SOL    HW121305   3.289   5.687   1.334
 6802SOL    HW221306   3.287   5.722   1.493
 6803SOL     OW21307   5.046   4.405   6.282
 6803SOL    HW121308   5.069   4.440   6.191
 6803SOL    HW221309   5.100   4.452   6.351
 6804SOL     OW21310   2.593   4.620   2.686
 6804SOL    HW121311   2.633   4.695   2.634
 6804SOL    HW221312   2.595   4.536   2.630
 6805SOL     OW21313   0.055   4.338   5.663
 6805SOL    HW121314   0.084   4.275   5.735
 6805SOL    HW221315   0.039   4.286   5.579
 6806SOL     OW21316   6.722   1.137   3.063
 6806SOL    HW121317   6.806   1.127   3.116
 6806SOL    HW221318   6.684   1.047   3.042
 6807SOL     OW21319   3.529   3.711   1.821
 6807SOL    HW121320   3.452   3.723   1.884
 6807SOL    HW221321   3.612   3.748   1.863
 6808SOL     OW21322   3.870   1.509   4.397
 6808SOL    HW121323   3.951   1.486   4.451
 6808SOL    HW221324   3.888   1.590   4.341
 6809SOL     OW21325   5.654   4.114   2.267
 6809SOL    HW121326   5.623   4.056   2.191
 6809SOL    HW221327   5.684   4.056   2.343
 6810SOL     OW21328   2.797   1.260   3.816
 6810SOL    HW121329   2.735   1.338   3.815
 6810SOL    HW221330   2.747   1.177   3.841
 6811SOL     OW21331   6.290   1.720   2.113
 6811SOL    HW121332   6.232   1.704   2.192
 6811SOL    HW221333   6.234   1.722   2.030
 6812SOL     OW21334   2.964   3.965   4.965
 6812SOL    HW121335   2.883   4.022   4.973
 6812SOL    HW221336   3.046   4.020   4.983
 6813SOL     OW21337   5.749   3.601   2.015
 6813SOL    HW121338   5.666   3.607   1.959
 6813SOL    HW221339   5.742   3.667   2.090
 6814SOL     OW21340   5.035   1.290   6.250
 6814SOL    HW121341   5.134   1.283   6.234
 6814SOL    HW221342   4.990   1.206   6.220
 6815SOL     OW21343   2.605   4.923   6.528
 6815SOL    HW121344   2.618   4.962   6.619
 6815SOL    HW221345   2.602   4.998   6.461
 6816SOL     OW21346   0.574   1.999   3.924
 6816SOL    HW121347   0.590   2.095   3.945
 6816SOL    HW221348   0.649   1.965   3.866
 6817SOL     OW21349   3.509   1.999   2.029
 6817SOL    HW121350   3.577   2.072   2.034
 6817SOL    HW221351   3.486   1.968   2.121
 6818SOL     OW21352   2.005   6.429   6.190
 6818SOL    HW121353   2.035   6.524   6.196
 6818SOL    HW221354   1.972   6.410   6.098
 6819SOL     OW21355   4.452   4.563   2.348
 6819SOL    HW121356   4.505   4.479   2.342
 6819SOL    HW221357   4.416   4.586   2.257
 6820SOL     OW21358   2.914   6.187   1.209
 6820SOL    HW121359   2.842   6.226   1.266
 6820SOL    HW221360   2.916   6.235   1.121
 6821SOL     OW21361   4.551   2.878   5.244
 6821SOL    HW121362   4.599   2.917   5.166
 6821SOL    HW221363   4.483   2.944   5.277
 6822SOL     OW21364   6.966   2.323   6.492
 6822SOL    HW121365   6.958   2.358   6.585
 6822SOL    HW221366   6.938   2.394   6.427
 6823SOL     OW21367   5.735   3.653   6.693
 6823SOL    HW121368   5.798   3.593   6.643
 6823SOL    HW221369   5.695   3.604   6.770
 6824SOL     OW21370   0.908   2.315   6.513
 6824SOL    HW121371   0.944   2.222   6.518
 6824SOL    HW221372   0.871   2.341   6.602
 6825SOL     OW21373   6.120   5.904   1.879
 6825SOL    HW121374   6.160   5.815   1.859
 6825SOL    HW221375   6.170   5.975   1.831
 6826SOL     OW21376   0.564   3.602   3.623
 6826SOL    HW121377   0.649   3.625   3.672
 6826SOL    HW221378   0.582   3.601   3.525
 6827SOL     OW21379   4.598   6.031   4.849
 6827SOL    HW121380   4.603   6.131   4.856
 6827SOL    HW221381   4.654   5.990   4.921
 6828SOL     OW21382   3.460   1.760   2.644
 6828SOL    HW121383   3.501   1.717   2.563
 6828SOL    HW221384   3.477   1.702   2.724
 6829SOL     OW21385   5.376   6.853   4.542
 6829SOL    HW121386   5.358   6.757   4.523
 6829SOL    HW221387   5.312   6.886   4.611
 6830SOL     OW21388   5.037   0.227   2.885
 6830SOL    HW121389   5.080   0.227   2.975
 6830SOL    HW221390   5.096   0.275   2.820
 6831SOL     OW21391   1.317   1.568   6.648
 6831SOL    HW121392   1.225   1.543   6.681
 6831SOL    HW221393   1.367   1.485   6.624
 6832SOL     OW21394   3.216   2.433   0.444
 6832SOL    HW121395   3.121   2.463   0.437
 6832SOL    HW221396   3.264   2.489   0.511
 6833SOL     OW21397   3.133   5.318   5.884
 6833SOL    HW121398   3.147   5.235   5.938
 6833SOL    HW221399   3.218   5.371   5.883
 6834SOL     OW21400   5.215   0.024   0.614
 6834SOL    HW121401   5.274   7.014   0.684
 6834SOL    HW221402   5.267   0.034   0.529
 6835SOL     OW21403   2.456   2.253   4.651
 6835SOL    HW121404   2.412   2.243   4.740
 6835SOL    HW221405   2.387   2.244   4.579
 6836SOL     OW21406   1.767   5.101   6.548
 6836SOL    HW121407   1.802   5.009   6.533
 6836SOL    HW221408   1.713   5.103   6.633
 6837SOL     OW21409   0.892   0.616   1.748
 6837SOL    HW121410   0.806   0.581   1.785
 6837SOL    HW221411   0.894   0.603   1.649
 6838SOL     OW21412   2.782   4.583   5.341
 6838SOL    HW121413   2.714   4.513   5.318
 6838SOL    HW221414   2.836   4.604   5.259
 6839SOL     OW21415   5.732   2.817   3.713
 6839SOL    HW121416   5.731   2.762   3.796
 6839SOL    HW221417   5.729   2.914   3.736
 6840SOL     OW21418   2.775   6.701   5.007
 6840SOL    HW121419   2.851   6.679   5.067
 6840SOL    HW221420   2.693   6.719   5.061
 6841SOL     OW21421   4.098   5.744   1.526
 6841SOL    HW121422   4.056   5.748   1.617
 6841SOL    HW221423   4.175   5.680   1.528
 6842SOL     OW21424   0.557   4.171   6.673
 6842SOL    HW121425   0.478   4.139   6.620
 6842SOL    HW221426   0.590   4.257   6.635
 6843SOL     OW21427   3.770   1.852   2.146
 6843SOL    HW121428   3.813   1.919   2.207
 6843SOL    HW221429   3.767   1.888   2.053
 6844SOL     OW21430   4.569   5.046   4.143
 6844SOL    HW121431   4.647   5.001   4.099
 6844SOL    HW221432   4.534   5.117   4.082
 6845SOL     OW21433   4.454   4.761   2.032
 6845SOL    HW121434   4.550   4.746   2.058
 6845SOL    HW221435   4.427   4.853   2.058
 6846SOL     OW21436   3.837   2.980   2.557
 6846SOL    HW121437   3.893   2.969   2.475
 6846SOL    HW221438   3.749   3.019   2.532
 6847SOL     OW21439   5.483   3.614   1.682
 6847SOL    HW121440   5.443   3.649   1.597
 6847SOL    HW221441   5.420   3.547   1.723
 6848SOL     OW21442   0.768   5.644   4.145
 6848SOL    HW121443   0.781   5.743   4.158
 6848SOL    HW221444   0.817   5.615   4.063
 6849SOL     OW21445   3.578   5.921   3.747
 6849SOL    HW121446   3.605   5.977   3.669
 6849SOL    HW221447   3.499   5.864   3.723
 6850SOL     OW21448   5.420   2.722   2.860
 6850SOL    HW121449   5.470   2.642   2.825
 6850SOL    HW221450   5.450   2.804   2.812
 6851SOL     OW21451   1.768   5.248   5.923
 6851SOL    HW121452   1.710   5.171   5.897
 6851SOL    HW221453   1.819   5.224   6.006
 6852SOL     OW21454   1.240   4.106   1.946
 6852SOL    HW121455   1.279   4.036   2.005
 6852SOL    HW221456   1.229   4.070   1.853
 6853SOL     OW21457   0.714   4.442   5.707
 6853SOL    HW121458   0.693   4.351   5.669
 6853SOL    HW221459   0.796   4.478   5.663
 6854SOL     OW21460   0.205   2.156   6.134
 6854SOL    HW121461   0.216   2.057   6.141
 6854SOL    HW221462   0.271   2.201   6.193
 6855SOL     OW21463   3.345   6.822   2.664
 6855SOL    HW121464   3.379   6.856   2.576
 6855SOL    HW221465   3.271   6.756   2.648
 6856SOL     OW21466   6.044   3.830   4.620
 6856SOL    HW121467   6.124   3.890   4.622
 6856SOL    HW221468   6.048   3.772   4.539
 6857SOL     OW21469   2.749   2.312   5.944
 6857SOL    HW121470   2.700   2.226   5.961
 6857SOL    HW221471   2.847   2.293   5.936
 6858SOL     OW21472   4.078   3.650   4.726
 6858SOL    HW121473   4.106   3.714   4.654
 6858SOL    HW221474   3.987   3.615   4.706
 6859SOL     OW21475   2.874   6.918   0.812
 6859SOL    HW121476   2.822   6.981   0.870
 6859SOL    HW221477   2.815   6.885   0.738
 6860SOL     OW21478   5.913   4.608   1.136
 6860SOL    HW121479   5.946   4.698   1.163
 6860SOL    HW221480   5.861   4.567   1.211
 6861SOL     OW21481   5.762   5.937   6.791
 6861SOL    HW121482   5.671   5.966   6.823
 6861SOL    HW221483   5.775   5.840   6.812
 6862SOL     OW21484   3.232   5.479   4.866
 6862SOL    HW121485   3.177   5.540   4.809
 6862SOL    HW221486   3.173   5.436   4.935
 6863SOL     OW21487   5.152   1.829   3.988
 6863SOL    HW121488   5.125   1.741   4.029
 6863SOL    HW221489   5.251   1.829   3.974
 6864SOL     OW21490   2.836   6.222   3.540
 6864SOL    HW121491   2.901   6.151   3.513
 6864SOL    HW221492   2.886   6.300   3.579
 6865SOL     OW21493   6.686   4.050   4.732
 6865SOL    HW121494   6.771   4.087   4.771
 6865SOL    HW221495   6.708   3.995   4.652
 6866SOL     OW21496   6.598   3.736   1.936
 6866SOL    HW121497   6.589   3.830   1.970
 6866SOL    HW221498   6.508   3.702   1.908
 6867SOL     OW21499   2.393   4.273   2.026
 6867SOL    HW121500   2.310   4.304   2.073
 6867SOL    HW221501   2.393   4.173   2.021
 6868SOL     OW21502   2.147   6.096   4.790
 6868SOL    HW121503   2.187   6.137   4.872
 6868SOL    HW221504   2.104   6.167   4.734
 6869SOL     OW21505   5.319   1.651   5.909
 6869SOL    HW121506   5.315   1.747   5.939
 6869SOL    HW221507   5.232   1.606   5.929
 6870SOL     OW21508   5.628   3.640   3.221
 6870SOL    HW121509   5.634   3.739   3.208
 6870SOL    HW221510   5.716   3.605   3.253
 6871SOL     OW21511   6.021   4.878   1.219
 6871SOL    HW121512   6.065   4.924   1.142
 6871SOL    HW221513   5.982   4.945   1.281
 6872SOL     OW21514   2.194   2.960   0.617
 6872SOL    HW121515   2.162   2.867   0.633
 6872SOL    HW221516   2.249   2.990   0.695
 6873SOL     OW21517   5.801   3.050   5.961
 6873SOL    HW121518   5.703   3.063   5.979
 6873SOL    HW221519   5.833   2.969   6.009
 6874SOL     OW21520   0.227   3.178   3.905
 6874SOL    HW121521   0.254   3.275   3.909
 6874SOL    HW221522   0.306   3.123   3.880
 6875SOL     OW21523   1.718   1.363   2.735
 6875SOL    HW121524   1.707   1.274   2.780
 6875SOL    HW221525   1.659   1.367   2.655
 6876SOL     OW21526   3.661   5.791   0.263
 6876SOL    HW121527   3.728   5.748   0.324
 6876SOL    HW221528   3.573   5.746   0.274
 6877SOL     OW21529   2.280   3.798   0.024
 6877SOL    HW121530   2.188   3.821   7.022
 6877SOL    HW221531   2.277   3.767   0.119
 6878SOL     OW21532   2.006   1.755   5.050
 6878SOL    HW121533   2.006   1.655   5.047
 6878SOL    HW221534   1.981   1.786   5.142
 6879SOL     OW21535   0.346   2.162   6.931
 6879SOL    HW121536   0.274   2.176   6.999
 6879SOL    HW221537   0.340   2.234   6.861
 6880SOL     OW21538   2.078   4.125   5.285
 6880SOL    HW121539   2.112   4.099   5.375
 6880SOL    HW221540   2.058   4.042   5.232
 6881SOL     OW21541   0.340   4.522   1.570
 6881SOL    HW121542   0.384   4.611   1.565
 6881SOL    HW221543   0.383   4.460   1.504
 6882SOL     OW21544   2.253   1.054   5.575
 6882SOL    HW121545   2.296   1.102   5.651
 6882SOL    HW221546   2.183   0.992   5.609
 6883SOL     OW21547   4.012   0.637   1.404
 6883SOL    HW121548   4.045   0.554   1.358
 6883SOL    HW221549   4.036   0.717   1.349
 6884SOL     OW21550   2.453   4.479   4.832
 6884SOL    HW121551   2.511   4.521   4.902
 6884SOL    HW221552   2.408   4.398   4.870
 6885SOL     OW21553   2.848   6.276   3.892
 6885SOL    HW121554   2.903   6.199   3.859
 6885SOL    HW221555   2.834   6.342   3.819
 6886SOL     OW21556   5.213   1.098   2.375
 6886SOL    HW121557   5.213   1.008   2.418
 6886SOL    HW221558   5.271   1.161   2.427
 6887SOL     OW21559   5.654   0.490   5.054
 6887SOL    HW121560   5.617   0.551   5.124
 6887SOL    HW221561   5.744   0.524   5.026
 6888SOL     OW21562   6.235   0.406   4.734
 6888SOL    HW121563   6.330   0.375   4.726
 6888SOL    HW221564   6.179   0.331   4.768
 6889SOL     OW21565   1.417   3.696   6.328
 6889SOL    HW121566   1.395   3.713   6.424
 6889SOL    HW221567   1.341   3.728   6.270
 6890SOL     OW21568   2.328   6.822   1.347
 6890SOL    HW121569   2.312   6.897   1.283
 6890SOL    HW221570   2.425   6.819   1.370
 6891SOL     OW21571   2.050   3.777   4.308
 6891SOL    HW121572   1.987   3.839   4.356
 6891SOL    HW221573   2.021   3.683   4.322
 6892SOL     OW21574   3.567   0.046   4.067
 6892SOL    HW121575   3.600   0.116   4.004
 6892SOL    HW221576   3.494   0.084   4.124
 6893SOL     OW21577   5.483   5.752   3.504
 6893SOL    HW121578   5.462   5.654   3.504
 6893SOL    HW221579   5.411   5.801   3.553
 6894SOL     OW21580   5.864   5.693   0.180
 6894SOL    HW121581   5.765   5.704   0.169
 6894SOL    HW221582   5.902   5.778   0.216
 6895SOL     OW21583   2.714   3.717   0.128
 6895SOL    HW121584   2.641   3.650   0.117
 6895SOL    HW221585   2.751   3.711   0.220
 6896SOL     OW21586   3.813   0.547   3.458
 6896SOL    HW121587   3.895   0.595   3.489
 6896SOL    HW221588   3.821   0.527   3.360
 6897SOL     OW21589   3.304   3.566   0.537
 6897SOL    HW121590   3.343   3.486   0.491
 6897SOL    HW221591   3.362   3.646   0.518
 6898SOL     OW21592   3.982   1.234   1.893
 6898SOL    HW121593   4.028   1.320   1.873
 6898SOL    HW221594   4.019   1.162   1.835
 6899SOL     OW21595   5.075   6.826   6.145
 6899SOL    HW121596   5.027   6.743   6.174
 6899SOL    HW221597   5.090   6.885   6.225
 6900SOL     OW21598   5.677   0.726   6.138
 6900SOL    HW121599   5.717   0.639   6.108
 6900SOL    HW221600   5.746   0.798   6.133
 6901SOL     OW21601   1.428   0.184   6.268
 6901SOL    HW121602   1.408   0.257   6.334
 6901SOL    HW221603   1.342   0.144   6.236
 6902SOL     OW21604   0.825   6.517   6.921
 6902SOL    HW121605   0.730   6.549   6.917
 6902SOL    HW221606   0.886   6.593   6.899
 6903SOL     OW21607   3.921   4.034   0.597
 6903SOL    HW121608   3.959   3.943   0.579
 6903SOL    HW221609   3.902   4.043   0.695
 6904SOL     OW21610   6.261   0.813   4.229
 6904SOL    HW121611   6.179   0.857   4.264
 6904SOL    HW221612   6.237   0.725   4.188
 6905SOL     OW21613   6.577   6.427   1.266
 6905SOL    HW121614   6.597   6.332   1.240
 6905SOL    HW221615   6.627   6.489   1.206
 6906SOL     OW21616   3.634   0.925   3.690
 6906SOL    HW121617   3.726   0.959   3.670
 6906SOL    HW221618   3.567   0.976   3.635
 6907SOL     OW21619   3.675   0.967   1.881
 6907SOL    HW121620   3.758   0.925   1.844
 6907SOL    HW221621   3.641   0.911   1.956
 6908SOL     OW21622   1.384   6.491   5.452
 6908SOL    HW121623   1.308   6.463   5.511
 6908SOL    HW221624   1.466   6.440   5.477
 6909SOL     OW21625   4.471   4.388   0.557
 6909SOL    HW121626   4.519   4.300   0.551
 6909SOL    HW221627   4.532   4.456   0.598
 6910SOL     OW21628   6.435   1.831   1.859
 6910SOL    HW121629   6.368   1.895   1.896
 6910SOL    HW221630   6.506   1.881   1.810
 6911SOL     OW21631   4.375   0.084   3.957
 6911SOL    HW121632   4.296   0.105   4.015
 6911SOL    HW221633   4.436   0.021   4.005
 6912SOL     OW21634   5.001   4.919   1.029
 6912SOL    HW121635   4.981   4.927   0.932
 6912SOL    HW221636   4.931   4.969   1.081
 6913SOL     OW21637   4.861   4.970   4.374
 6913SOL    HW121638   4.839   5.053   4.322
 6913SOL    HW221639   4.785   4.949   4.436
 6914SOL     OW21640   5.931   4.851   6.647
 6914SOL    HW121641   6.009   4.909   6.666
 6914SOL    HW221642   5.938   4.766   6.699
 6915SOL     OW21643   0.753   4.778   2.591
 6915SOL    HW121644   0.756   4.686   2.630
 6915SOL    HW221645   0.681   4.831   2.636
 6916SOL     OW21646   6.564   4.121   6.989
 6916SOL    HW121647   6.565   4.022   6.973
 6916SOL    HW221648   6.492   4.143   0.026
 6917SOL     OW21649   4.153   6.132   5.927
 6917SOL    HW121650   4.245   6.159   5.896
 6917SOL    HW221651   4.085   6.170   5.865
 6918SOL     OW21652   0.337   3.886   4.100
 6918SOL    HW121653   0.306   3.854   4.190
 6918SOL    HW221654   0.374   3.978   4.109
 6919SOL     OW21655   2.300   6.136   2.490
 6919SOL    HW121656   2.296   6.234   2.512
 6919SOL    HW221657   2.339   6.086   2.567
 6920SOL     OW21658   5.236   5.156   4.261
 6920SOL    HW121659   5.246   5.057   4.253
 6920SOL    HW221660   5.191   5.178   4.348
 6921SOL     OW21661   6.283   6.548   3.624
 6921SOL    HW121662   6.271   6.503   3.712
 6921SOL    HW221663   6.225   6.630   3.620
 6922SOL     OW21664   2.211   6.419   7.013
 6922SOL    HW121665   2.143   6.444   6.944
 6922SOL    HW221666   2.260   6.337   6.984
 6923SOL     OW21667   4.375   0.071   3.672
 6923SOL    HW121668   4.398   0.070   3.770
 6923SOL    HW221669   4.458   0.088   3.619
 6924SOL     OW21670   0.930   5.019   0.438
 6924SOL    HW121671   0.919   5.113   0.406
 6924SOL    HW221672   0.987   4.968   0.374
 6925SOL     OW21673   4.261   6.120   3.599
 6925SOL    HW121674   4.185   6.070   3.640
 6925SOL    HW221675   4.347   6.071   3.615
 6926SOL     OW21676   3.878   3.767   3.729
 6926SOL    HW121677   3.794   3.728   3.765
 6926SOL    HW221678   3.906   3.716   3.647
 6927SOL     OW21679   5.130   3.643   6.753
 6927SOL    HW121680   5.073   3.602   6.682
 6927SOL    HW221681   5.085   3.633   6.842
 6928SOL     OW21682   4.478   0.364   6.588
 6928SOL    HW121683   4.569   0.364   6.629
 6928SOL    HW221684   4.476   0.429   6.511
 6929SOL     OW21685   4.424   6.136   6.855
 6929SOL    HW121686   4.488   6.100   6.787
 6929SOL    HW221687   4.360   6.198   6.810
 6930SOL     OW21688   0.869   6.472   2.030
 6930SOL    HW121689   0.882   6.378   1.998
 6930SOL    HW221690   0.793   6.514   1.981
 6931SOL     OW21691   0.644   0.346   1.685
 6931SOL    HW121692   0.685   0.384   1.602
 6931SOL    HW221693   0.711   0.289   1.732
 6932SOL     OW21694   2.809   1.087   6.981
 6932SOL    HW121695   2.877   1.038   6.928
 6932SOL    HW221696   2.731   1.111   6.923
 6933SOL     OW21697   3.704   5.668   5.076
 6933SOL    HW121698   3.702   5.655   5.175
 6933SOL    HW221699   3.613   5.696   5.044
 6934SOL     OW21700   5.131   2.722   6.982
 6934SOL    HW121701   5.036   2.742   7.008
 6934SOL    HW221702   5.151   2.626   7.002
 6935SOL     OW21703   4.017   5.996   3.700
 6935SOL    HW121704   4.037   5.947   3.785
 6935SOL    HW221705   3.939   6.057   3.715
 6936SOL     OW21706   0.336   2.464   1.791
 6936SOL    HW121707   0.412   2.427   1.737
 6936SOL    HW221708   0.253   2.413   1.771
 6937SOL     OW21709   4.140   6.451   5.942
 6937SOL    HW121710   4.147   6.482   5.847
 6937SOL    HW221711   4.230   6.424   5.976
 6938SOL     OW21712   5.145   3.434   5.904
 6938SOL    HW121713   5.220   3.471   5.958
 6938SOL    HW221714   5.180   3.364   5.841
 6939SOL     OW21715   0.335   4.694   2.107
 6939SOL    HW121716   0.395   4.666   2.182
 6939SOL    HW221717   0.382   4.762   2.051
 6940SOL     OW21718   4.992   0.442   6.173
 6940SOL    HW121719   5.026   0.524   6.127
 6940SOL    HW221720   4.986   0.460   6.272
 6941SOL     OW21721   3.195   3.007   2.461
 6941SOL    HW121722   3.125   3.050   2.405
 6941SOL    HW221723   3.280   2.999   2.407
 6942SOL     OW21724   0.472   2.581   0.823
 6942SOL    HW121725   0.558   2.626   0.801
 6942SOL    HW221726   0.399   2.649   0.829
 6943SOL     OW21727   5.315   6.053   6.188
 6943SOL    HW121728   5.311   6.078   6.285
 6943SOL    HW221729   5.225   6.022   6.158
 6944SOL     OW21730   1.223   5.730   5.760
 6944SOL    HW121731   1.151   5.709   5.827
 6944SOL    HW221732   1.312   5.710   5.800
 6945SOL     OW21733   6.218   2.997   6.038
 6945SOL    HW121734   6.173   3.075   6.080
 6945SOL    HW221735   6.299   2.972   6.091
 6946SOL     OW21736   5.957   4.514   3.145
 6946SOL    HW121737   5.922   4.536   3.236
 6946SOL    HW221738   5.904   4.563   3.076
 6947SOL     OW21739   3.684   6.905   3.215
 6947SOL    HW121740   3.643   6.814   3.206
 6947SOL    HW221741   3.742   6.923   3.136
 6948SOL     OW21742   5.020   0.306   0.524
 6948SOL    HW121743   4.951   0.245   0.562
 6948SOL    HW221744   5.007   0.398   0.560
 6949SOL     OW21745   4.806   6.766   3.302
 6949SOL    HW121746   4.896   6.727   3.279
 6949SOL    HW221747   4.742   6.748   3.227
 6950SOL     OW21748   2.105   0.657   3.555
 6950SOL    HW121749   2.152   0.571   3.574
 6950SOL    HW221750   2.007   0.641   3.550
 6951SOL     OW21751   6.526   6.285   5.889
 6951SOL    HW121752   6.520   6.375   5.846
 6951SOL    HW221753   6.566   6.220   5.824
 6952SOL     OW21754   6.994   5.368   3.619
 6952SOL    HW121755   7.006   5.369   3.520
 6952SOL    HW221756   6.930   5.439   3.646
 6953SOL     OW21757   5.074   0.753   6.247
 6953SOL    HW121758   5.097   0.830   6.307
 6953SOL    HW221759   5.146   0.684   6.252
 6954SOL     OW21760   0.160   2.799   4.379
 6954SOL    HW121761   0.240   2.819   4.322
 6954SOL    HW221762   0.077   2.828   4.331
 6955SOL     OW21763   0.617   6.223   1.531
 6955SOL    HW121764   0.648   6.129   1.540
 6955SOL    HW221765   0.605   6.263   1.622
 6956SOL     OW21766   4.996   5.540   1.890
 6956SOL    HW121767   5.090   5.529   1.856
 6956SOL    HW221768   4.933   5.491   1.829
 6957SOL     OW21769   6.688   4.407   1.859
 6957SOL    HW121770   6.643   4.443   1.777
 6957SOL    HW221771   6.788   4.415   1.848
 6958SOL     OW21772   2.283   2.309   6.057
 6958SOL    HW121773   2.288   2.301   5.958
 6958SOL    HW221774   2.240   2.227   6.095
 6959SOL     OW21775   3.262   1.569   4.882
 6959SOL    HW121776   3.240   1.479   4.920
 6959SOL    HW221777   3.217   1.580   4.794
 6960SOL     OW21778   7.018   5.000   0.285
 6960SOL    HW121779   0.037   5.013   0.198
 6960SOL    HW221780   6.975   4.910   0.286
 6961SOL     OW21781   0.772   1.913   3.426
 6961SOL    HW121782   0.863   1.873   3.437
 6961SOL    HW221783   0.777   1.990   3.362
 6962SOL     OW21784   5.394   5.543   2.801
 6962SOL    HW121785   5.394   5.626   2.856
 6962SOL    HW221786   5.446   5.559   2.717
 6963SOL     OW21787   0.194   5.247   1.580
 6963SOL    HW121788   0.119   5.240   1.513
 6963SOL    HW221789   0.246   5.330   1.563
 6964SOL     OW21790   4.759   5.218   5.329
 6964SOL    HW121791   4.725   5.312   5.334
 6964SOL    HW221792   4.700   5.159   5.384
 6965SOL     OW21793   6.501   3.451   6.124
 6965SOL    HW121794   6.438   3.479   6.196
 6965SOL    HW221795   6.475   3.361   6.090
 6966SOL     OW21796   5.296   2.912   2.670
 6966SOL    HW121797   5.278   2.981   2.600
 6966SOL    HW221798   5.210   2.875   2.704
 6967SOL     OW21799   1.352   2.196   6.175
 6967SOL    HW121800   1.347   2.175   6.273
 6967SOL    HW221801   1.447   2.194   6.145
 6968SOL     OW21802   4.576   5.886   1.129
 6968SOL    HW121803   4.657   5.914   1.181
 6968SOL    HW221804   4.566   5.787   1.133
 6969SOL     OW21805   3.501   1.094   1.715
 6969SOL    HW121806   3.567   1.071   1.787
 6969SOL    HW221807   3.546   1.091   1.626
 6970SOL     OW21808   4.144   4.727   0.524
 6970SOL    HW121809   4.098   4.639   0.529
 6970SOL    HW221810   4.075   4.799   0.512
 6971SOL     OW21811   6.180   2.783   1.707
 6971SOL    HW121812   6.264   2.756   1.660
 6971SOL    HW221813   6.188   2.764   1.804
 6972SOL     OW21814   5.728   4.375   3.615
 6972SOL    HW121815   5.727   4.332   3.706
 6972SOL    HW221816   5.823   4.382   3.583
 6973SOL     OW21817   1.675   4.969   4.556
 6973SOL    HW121818   1.638   5.025   4.630
 6973SOL    HW221819   1.600   4.939   4.496
 6974SOL     OW21820   3.870   3.663   3.470
 6974SOL    HW121821   3.842   3.755   3.443
 6974SOL    HW221822   3.821   3.596   3.416
 6975SOL     OW21823   3.544   0.206   5.769
 6975SOL    HW121824   3.628   0.208   5.715
 6975SOL    HW221825   3.555   0.144   5.846
 6976SOL     OW21826   3.226   4.768   6.632
 6976SOL    HW121827   3.264   4.835   6.569
 6976SOL    HW221828   3.193   4.688   6.582
 6977SOL     OW21829   4.215   1.808   2.197
 6977SOL    HW121830   4.152   1.870   2.243
 6977SOL    HW221831   4.304   1.852   2.188
 6978SOL     OW21832   6.789   0.764   1.944
 6978SOL    HW121833   6.779   0.854   1.902
 6978SOL    HW221834   6.811   0.696   1.874
 6979SOL     OW21835   1.196   4.962   2.167
 6979SOL    HW121836   1.197   5.047   2.114
 6979SOL    HW221837   1.244   4.891   2.117
 6980SOL     OW21838   2.537   0.900   3.336
 6980SOL    HW121839   2.612   0.834   3.334
 6980SOL    HW221840   2.521   0.935   3.244
 6981SOL     OW21841   2.697   4.031   0.035
 6981SOL    HW121842   2.630   3.960   0.056
 6981SOL    HW221843   2.650   4.108   7.021
 6982SOL     OW21844   1.266   0.969   4.033
 6982SOL    HW121845   1.261   0.898   3.962
 6982SOL    HW221846   1.215   1.050   4.002
 6983SOL     OW21847   6.945   0.586   4.482
 6983SOL    HW121848   0.012   0.557   4.482
 6983SOL    HW221849   6.900   0.552   4.399
 6984SOL     OW21850   1.980   1.768   5.323
 6984SOL    HW121851   1.954   1.718   5.406
 6984SOL    HW221852   2.052   1.833   5.345
 6985SOL     OW21853   3.910   5.826   2.019
 6985SOL    HW121854   3.917   5.805   2.117
 6985SOL    HW221855   3.815   5.814   1.989
 6986SOL     OW21856   1.989   6.319   5.938
 6986SOL    HW121857   1.893   6.340   5.921
 6986SOL    HW221858   2.005   6.221   5.924
 6987SOL     OW21859   0.192   2.531   6.309
 6987SOL    HW121860   0.187   2.437   6.343
 6987SOL    HW221861   0.125   2.543   6.235
 6988SOL     OW21862   5.089   1.392   4.656
 6988SOL    HW121863   5.051   1.377   4.747
 6988SOL    HW221864   5.172   1.447   4.664
 6989SOL     OW21865   0.908   1.495   3.490
 6989SOL    HW121866   0.987   1.482   3.550
 6989SOL    HW221867   0.940   1.511   3.397
 6990SOL     OW21868   4.948   2.259   0.299
 6990SOL    HW121869   4.885   2.323   0.344
 6990SOL    HW221870   4.896   2.188   0.252
 6991SOL     OW21871   2.565   4.625   5.108
 6991SOL    HW121872   2.648   4.638   5.055
 6991SOL    HW221873   2.554   4.528   5.129
 6992SOL     OW21874   6.016   6.273   4.629
 6992SOL    HW121875   6.050   6.358   4.590
 6992SOL    HW221876   6.070   6.196   4.595
 6993SOL     OW21877   6.450   6.665   3.439
 6993SOL    HW121878   6.392   6.622   3.508
 6993SOL    HW221879   6.469   6.759   3.465
 6994SOL     OW21880   1.090   3.676   5.937
 6994SOL    HW121881   1.185   3.647   5.940
 6994SOL    HW221882   1.051   3.672   6.029
 6995SOL     OW21883   5.670   5.612   4.736
 6995SOL    HW121884   5.609   5.564   4.798
 6995SOL    HW221885   5.722   5.545   4.682
 6996SOL     OW21886   2.761   0.881   5.092
 6996SOL    HW121887   2.803   0.808   5.038
 6996SOL    HW221888   2.677   0.847   5.135
 6997SOL     OW21889   4.658   6.240   4.584
 6997SOL    HW121890   4.648   6.219   4.486
 6997SOL    HW221891   4.747   6.208   4.616
 6998SOL     OW21892   1.785   2.930   1.673
 6998SOL    HW121893   1.857   2.937   1.742
 6998SOL    HW221894   1.824   2.900   1.586
 6999SOL     OW21895   2.108   1.595   5.978
 6999SOL    HW121896   2.144   1.646   6.056
 6999SOL    HW221897   2.019   1.632   5.951
 7000SOL     OW21898   0.725   5.795   2.475
 7000SOL    HW121899   0.754   5.877   2.427
 7000SOL    HW221900   0.655   5.818   2.542
 7001SOL     OW21901   2.639   2.505   5.500
 7001SOL    HW121902   2.641   2.441   5.424
 7001SOL    HW221903   2.577   2.471   5.571
 7002SOL     OW21904   2.774   4.701   3.801
 7002SOL    HW121905   2.742   4.671   3.891
 7002SOL    HW221906   2.829   4.784   3.811
 7003SOL     OW21907   2.886   0.060   6.703
 7003SOL    HW121908   2.915   6.994   6.690
 7003SOL    HW221909   2.823   0.086   6.630
 7004SOL     OW21910   2.066   4.078   1.862
 7004SOL    HW121911   2.103   4.135   1.789
 7004SOL    HW221912   1.993   4.021   1.826
 7005SOL     OW21913   6.490   5.961   5.908
 7005SOL    HW121914   6.583   5.998   5.916
 7005SOL    HW221915   6.426   6.024   5.951
 7006SOL     OW21916   4.738   4.328   4.891
 7006SOL    HW121917   4.713   4.279   4.808
 7006SOL    HW221918   4.728   4.267   4.970
 7007SOL     OW21919   4.708   6.727   3.036
 7007SOL    HW121920   4.629   6.756   2.982
 7007SOL    HW221921   4.734   6.634   3.009
 7008SOL     OW21922   2.043   4.986   4.655
 7008SOL    HW121923   2.102   4.929   4.598
 7008SOL    HW221924   2.000   5.056   4.599
 7009SOL     OW21925   6.386   5.456   2.862
 7009SOL    HW121926   6.483   5.477   2.874
 7009SOL    HW221927   6.360   5.383   2.925
 7010SOL     OW21928   3.465   4.643   6.233
 7010SOL    HW121929   3.555   4.607   6.208
 7010SOL    HW221930   3.414   4.572   6.282
 7011SOL     OW21931   1.658   6.856   5.384
 7011SOL    HW121932   1.699   6.947   5.378
 7011SOL    HW221933   1.559   6.863   5.371
 7012SOL     OW21934   1.168   0.181   1.927
 7012SOL    HW121935   1.264   0.182   1.955
 7012SOL    HW221936   1.161   0.142   1.835
 7013SOL     OW21937   0.978   6.923   1.200
 7013SOL    HW121938   1.070   6.963   1.207
 7013SOL    HW221939   0.985   6.824   1.194
 7014SOL     OW21940   4.091   3.897   0.847
 7014SOL    HW121941   4.180   3.934   0.819
 7014SOL    HW221942   4.105   3.833   0.923
 7015SOL     OW21943   5.433   3.511   2.599
 7015SOL    HW121944   5.494   3.515   2.520
 7015SOL    HW221945   5.344   3.475   2.571
 7016SOL     OW21946   4.761   5.338   2.156
 7016SOL    HW121947   4.728   5.279   2.082
 7016SOL    HW221948   4.693   5.409   2.174
 7017SOL     OW21949   2.616   1.198   3.153
 7017SOL    HW121950   2.713   1.191   3.132
 7017SOL    HW221951   2.603   1.242   3.242
 7018SOL     OW21952   6.857   4.270   5.158
 7018SOL    HW121953   6.923   4.206   5.119
 7018SOL    HW221954   6.816   4.325   5.085
 7019SOL     OW21955   2.134   4.614   6.696
 7019SOL    HW121956   2.077   4.613   6.778
 7019SOL    HW221957   2.147   4.708   6.665
 7020SOL     OW21958   5.678   0.346   0.502
 7020SOL    HW121959   5.705   0.369   0.408
 7020SOL    HW221960   5.605   0.408   0.532
 7021SOL     OW21961   2.857   1.269   4.435
 7021SOL    HW121962   2.926   1.339   4.448
 7021SOL    HW221963   2.766   1.310   4.440
 7022SOL     OW21964   5.133   3.471   0.687
 7022SOL    HW121965   5.062   3.541   0.680
 7022SOL    HW221966   5.222   3.515   0.694
 7023SOL     OW21967   6.544   2.642   2.616
 7023SOL    HW121968   6.626   2.693   2.642
 7023SOL    HW221969   6.473   2.706   2.586
 7024SOL     OW21970   1.847   5.807   6.552
 7024SOL    HW121971   1.782   5.861   6.499
 7024SOL    HW221972   1.893   5.741   6.492
 7025SOL     OW21973   3.018   1.893   6.455
 7025SOL    HW121974   3.001   1.909   6.358
 7025SOL    HW221975   2.977   1.805   6.481
 7026SOL     OW21976   2.954   1.252   2.419
 7026SOL    HW121977   3.010   1.231   2.339
 7026SOL    HW221978   2.900   1.334   2.402
 7027SOL     OW21979   4.051   5.599   3.360
 7027SOL    HW121980   4.070   5.696   3.346
 7027SOL    HW221981   3.998   5.564   3.282
 7028SOL     OW21982   4.814   6.651   3.805
 7028SOL    HW121983   4.812   6.719   3.878
 7028SOL    HW221984   4.752   6.678   3.732
 7029SOL     OW21985   3.057   6.377   6.253
 7029SOL    HW121986   3.079   6.285   6.221
 7029SOL    HW221987   2.976   6.411   6.204
 7030SOL     OW21988   0.331   3.815   5.682
 7030SOL    HW121989   0.348   3.779   5.774
 7030SOL    HW221990   0.318   3.914   5.686
 7031SOL     OW21991   2.390   5.930   4.043
 7031SOL    HW121992   2.424   5.873   4.117
 7031SOL    HW221993   2.326   5.999   4.079
 7032SOL     OW21994   4.495   6.907   2.920
 7032SOL    HW121995   4.407   6.950   2.901
 7032SOL    HW221996   4.553   6.913   2.838
 7033SOL     OW21997   6.881   1.224   4.114
 7033SOL    HW121998   6.894   1.209   4.016
 7033SOL    HW221999   6.933   1.305   4.142
 7034SOL     OW22000   5.122   0.102   2.498
 7034SOL    HW122001   5.185   0.049   2.441
 7034SOL    HW222002   5.112   0.058   2.587
 7035SOL     OW22003   0.983   6.673   2.750
 7035SOL    HW122004   1.028   6.623   2.676
 7035SOL    HW222005   0.975   6.769   2.724
 7036SOL     OW22006   6.331   5.594   1.559
 7036SOL    HW122007   6.381   5.525   1.613
 7036SOL    HW222008   6.235   5.568   1.553
 7037SOL     OW22009   0.550   6.619   5.970
 7037SOL    HW122010   0.490   6.544   5.943
 7037SOL    HW222011   0.633   6.583   6.010
 7038SOL     OW22012   1.279   4.546   3.909
 7038SOL    HW122013   1.291   4.598   3.824
 7038SOL    HW222014   1.208   4.477   3.896
 7039SOL     OW22015   3.580   0.056   6.972
 7039SOL    HW122016   3.662   0.113   6.972
 7039SOL    HW222017   3.530   0.071   6.886
 7040SOL     OW22018   4.865   2.692   5.882
 7040SOL    HW122019   4.915   2.747   5.815
 7040SOL    HW222020   4.809   2.751   5.940
 7041SOL     OW22021   1.169   1.091   3.266
 7041SOL    HW122022   1.118   1.065   3.349
 7041SOL    HW222023   1.157   1.189   3.249
 7042SOL     OW22024   4.867   5.306   6.519
 7042SOL    HW122025   4.925   5.350   6.450
 7042SOL    HW222026   4.840   5.216   6.487
 7043SOL     OW22027   1.733   3.096   3.175
 7043SOL    HW122028   1.821   3.108   3.220
 7043SOL    HW222029   1.684   3.184   3.173
 7044SOL     OW22030   4.654   4.927   3.017
 7044SOL    HW122031   4.669   5.023   3.045
 7044SOL    HW222032   4.586   4.886   3.077
 7045SOL     OW22033   4.939   6.683   0.818
 7045SOL    HW122034   4.879   6.684   0.898
 7045SOL    HW222035   4.931   6.769   0.769
 7046SOL     OW22036   3.640   1.387   4.483
 7046SOL    HW122037   3.579   1.362   4.408
 7046SOL    HW222038   3.726   1.424   4.447
 7047SOL     OW22039   0.503   2.104   3.089
 7047SOL    HW122040   0.420   2.057   3.118
 7047SOL    HW222041   0.560   2.042   3.035
 7048SOL     OW22042   1.374   5.835   0.846
 7048SOL    HW122043   1.395   5.866   0.753
 7048SOL    HW222044   1.354   5.737   0.844
 7049SOL     OW22045   2.108   0.659   0.946
 7049SOL    HW122046   2.178   0.719   0.985
 7049SOL    HW222047   2.146   0.610   0.867
 7050SOL     OW22048   3.766   4.005   4.321
 7050SOL    HW122049   3.816   3.924   4.351
 7050SOL    HW222050   3.786   4.024   4.225
 7051SOL     OW22051   7.015   0.698   1.523
 7051SOL    HW122052   0.074   0.686   1.569
 7051SOL    HW222053   6.967   0.776   1.564
 7052SOL     OW22054   6.740   1.897   4.772
 7052SOL    HW122055   6.827   1.931   4.736
 7052SOL    HW222056   6.716   1.811   4.727
 7053SOL     OW22057   6.919   3.719   6.231
 7053SOL    HW122058   6.851   3.650   6.253
 7053SOL    HW222059   6.885   3.809   6.259
 7054SOL     OW22060   0.411   6.313   1.374
 7054SOL    HW122061   0.375   6.390   1.428
 7054SOL    HW222062   0.473   6.259   1.431
 7055SOL     OW22063   4.385   0.028   5.825
 7055SOL    HW122064   4.371   0.074   5.913
 7055SOL    HW222065   4.369   0.093   5.751
 7056SOL     OW22066   5.557   4.885   3.461
 7056SOL    HW122067   5.630   4.952   3.474
 7056SOL    HW222068   5.587   4.796   3.495
 7057SOL     OW22069   0.493   3.976   4.696
 7057SOL    HW122070   0.535   3.938   4.778
 7057SOL    HW222071   0.531   4.066   4.677
 7058SOL     OW22072   0.065   5.505   5.053
 7058SOL    HW122073   0.059   5.426   4.993
 7058SOL    HW222074   0.159   5.539   5.054
 7059SOL     OW22075   0.456   0.050   1.983
 7059SOL    HW122076   0.539   0.011   2.022
 7059SOL    HW222077   0.455   0.148   1.998
 7060SOL     OW22078   3.510   0.281   1.709
 7060SOL    HW122079   3.497   0.240   1.799
 7060SOL    HW222080   3.430   0.264   1.651
 7061SOL     OW22081   0.437   1.980   3.430
 7061SOL    HW122082   0.537   1.977   3.421
 7061SOL    HW222083   0.413   2.025   3.515
 7062SOL     OW22084   5.774   2.043   5.678
 7062SOL    HW122085   5.834   2.112   5.638
 7062SOL    HW222086   5.699   2.023   5.615
 7063SOL     OW22087   1.641   6.227   0.580
 7063SOL    HW122088   1.705   6.272   0.517
 7063SOL    HW222089   1.564   6.189   0.528
 7064SOL     OW22090   4.356   2.253   1.788
 7064SOL    HW122091   4.290   2.198   1.839
 7064SOL    HW222092   4.335   2.248   1.690
 7065SOL     OW22093   4.832   4.248   1.249
 7065SOL    HW122094   4.864   4.165   1.204
 7065SOL    HW222095   4.909   4.310   1.265
 7066SOL     OW22096   3.536   1.076   0.408
 7066SOL    HW122097   3.494   1.161   0.442
 7066SOL    HW222098   3.575   1.092   0.317
 7067SOL     OW22099   0.899   3.570   5.328
 7067SOL    HW122100   0.890   3.516   5.245
 7067SOL    HW222101   0.817   3.626   5.341
 7068SOL     OW22102   1.329   2.836   3.083
 7068SOL    HW122103   1.352   2.860   3.178
 7068SOL    HW222104   1.243   2.785   3.083
 7069SOL     OW22105   6.164   3.955   5.043
 7069SOL    HW122106   6.198   3.987   5.131
 7069SOL    HW222107   6.133   4.033   4.989
 7070SOL     OW22108   6.494   5.254   5.226
 7070SOL    HW122109   6.476   5.323   5.155
 7070SOL    HW222110   6.547   5.179   5.186
 7071SOL     OW22111   0.823   6.220   5.414
 7071SOL    HW122112   0.847   6.123   5.419
 7071SOL    HW222113   0.735   6.231   5.367
 7072SOL     OW22114   6.776   6.906   5.932
 7072SOL    HW122115   6.688   6.858   5.935
 7072SOL    HW222116   6.773   6.975   5.860
 7073SOL     OW22117   6.580   0.931   5.046
 7073SOL    HW122118   6.622   0.998   5.107
 7073SOL    HW222119   6.646   0.859   5.025
 7074SOL     OW22120   3.330   3.173   2.001
 7074SOL    HW122121   3.362   3.080   1.984
 7074SOL    HW222122   3.405   3.237   1.986
 7075SOL     OW22123   1.616   6.146   4.534
 7075SOL    HW122124   1.554   6.080   4.491
 7075SOL    HW222125   1.700   6.154   4.481
 7076SOL     OW22126   3.458   1.792   0.048
 7076SOL    HW122127   3.519   1.714   0.041
 7076SOL    HW222128   3.367   1.766   0.014
 7077SOL     OW22129   2.421   5.646   5.514
 7077SOL    HW122130   2.379   5.678   5.429
 7077SOL    HW222131   2.352   5.605   5.573
 7078SOL     OW22132   5.980   0.008   2.730
 7078SOL    HW122133   6.056   0.060   2.770
 7078SOL    HW222134   5.899   0.066   2.724
 7079SOL     OW22135   6.781   6.269   5.717
 7079SOL    HW122136   6.857   6.332   5.734
 7079SOL    HW222137   6.777   6.246   5.620
 7080SOL     OW22138   3.973   2.173   3.850
 7080SOL    HW122139   3.955   2.120   3.767
 7080SOL    HW222140   3.893   2.172   3.909
 7081SOL     OW22141   3.840   1.237   5.300
 7081SOL    HW122142   3.902   1.316   5.305
 7081SOL    HW222143   3.755   1.259   5.348
 7082SOL     OW22144   5.475   6.981   0.492
 7082SOL    HW122145   5.531   0.016   0.546
 7082SOL    HW222146   5.520   6.962   0.405
 7083SOL     OW22147   2.946   0.976   6.272
 7083SOL    HW122148   2.908   1.055   6.224
 7083SOL    HW222149   2.871   0.917   6.304
 7084SOL     OW22150   0.048   6.666   5.547
 7084SOL    HW122151   0.139   6.706   5.539
 7084SOL    HW222152   0.007   6.693   5.634
 7085SOL     OW22153   2.072   1.758   2.897
 7085SOL    HW122154   2.114   1.736   2.809
 7085SOL    HW222155   1.992   1.699   2.911
 7086SOL     OW22156   5.464   0.891   6.396
 7086SOL    HW122157   5.478   0.799   6.434
 7086SOL    HW222158   5.551   0.939   6.392
 7087SOL     OW22159   0.726   2.791   4.690
 7087SOL    HW122160   0.824   2.778   4.703
 7087SOL    HW222161   0.676   2.733   4.754
 7088SOL     OW22162   4.657   2.692   4.104
 7088SOL    HW122163   4.620   2.755   4.035
 7088SOL    HW222164   4.621   2.600   4.087
 7089SOL     OW22165   3.126   2.946   6.281
 7089SOL    HW122166   3.093   2.973   6.191
 7089SOL    HW222167   3.055   2.894   6.329
 7090SOL     OW22168   2.290   1.387   5.949
 7090SOL    HW122169   2.293   1.404   5.851
 7090SOL    HW222170   2.210   1.433   5.988
 7091SOL     OW22171   0.192   1.375   6.596
 7091SOL    HW122172   0.156   1.282   6.589
 7091SOL    HW222173   0.138   1.427   6.662
 7092SOL     OW22174   4.354   3.490   0.378
 7092SOL    HW122175   4.254   3.480   0.380
 7092SOL    HW222176   4.379   3.563   0.315
 7093SOL     OW22177   3.348   3.875   4.325
 7093SOL    HW122178   3.387   3.796   4.278
 7093SOL    HW222179   3.416   3.948   4.330
 7094SOL     OW22180   0.829   6.682   5.717
 7094SOL    HW122181   0.874   6.635   5.640
 7094SOL    HW222182   0.741   6.719   5.688
 7095SOL     OW22183   2.639   2.710   6.980
 7095SOL    HW122184   2.656   2.726   6.882
 7095SOL    HW222185   2.576   2.780   7.014
 7096SOL     OW22186   5.506   2.227   3.417
 7096SOL    HW122187   5.571   2.189   3.483
 7096SOL    HW222188   5.513   2.327   3.416
 7097SOL     OW22189   6.862   0.535   1.796
 7097SOL    HW122190   6.959   0.546   1.820
 7097SOL    HW222191   6.854   0.524   1.697
 7098SOL     OW22192   1.499   5.991   4.904
 7098SOL    HW122193   1.555   5.959   4.828
 7098SOL    HW222194   1.490   6.090   4.900
 7099SOL     OW22195   1.497   1.026   4.922
 7099SOL    HW122196   1.545   1.108   4.953
 7099SOL    HW222197   1.410   1.017   4.970
 7100SOL     OW22198   5.366   3.566   1.054
 7100SOL    HW122199   5.345   3.574   1.152
 7100SOL    HW222200   5.449   3.511   1.043
 7101SOL     OW22201   3.061   0.678   4.558
 7101SOL    HW122202   2.980   0.708   4.609
 7101SOL    HW222203   3.110   0.758   4.524
 7102SOL     OW22204   4.447   0.930   0.815
 7102SOL    HW122205   4.514   0.912   0.744
 7102SOL    HW222206   4.424   1.027   0.815
 7103SOL     OW22207   4.202   5.525   0.063
 7103SOL    HW122208   4.170   5.431   0.050
 7103SOL    HW222209   4.286   5.524   0.117
 7104SOL     OW22210   1.275   3.623   4.386
 7104SOL    HW122211   1.249   3.545   4.331
 7104SOL    HW222212   1.374   3.636   4.381
 7105SOL     OW22213   3.586   2.835   5.191
 7105SOL    HW122214   3.553   2.910   5.133
 7105SOL    HW222215   3.516   2.765   5.199
 7106SOL     OW22216   3.560   2.970   3.314
 7106SOL    HW122217   3.478   2.963   3.257
 7106SOL    HW222218   3.641   2.953   3.258
 7107SOL     OW22219   2.558   0.973   0.626
 7107SOL    HW122220   2.514   0.941   0.542
 7107SOL    HW222221   2.584   1.069   0.615
 7108SOL     OW22222   4.471   6.316   1.203
 7108SOL    HW122223   4.377   6.300   1.172
 7108SOL    HW222224   4.512   6.390   1.149
 7109SOL     OW22225   3.398   0.040   6.243
 7109SOL    HW122226   3.340   0.074   6.169
 7109SOL    HW222227   3.394   6.969   6.245
 7110SOL     OW22228   5.530   5.230   3.867
 7110SOL    HW122229   5.558   5.307   3.810
 7110SOL    HW222230   5.435   5.205   3.846
 7111SOL     OW22231   0.986   2.904   4.686
 7111SOL    HW122232   1.042   2.965   4.741
 7111SOL    HW222233   1.015   2.908   4.590
 7112SOL     OW22234   1.751   5.702   4.488
 7112SOL    HW122235   1.696   5.679   4.407
 7112SOL    HW222236   1.847   5.683   4.469
 7113SOL     OW22237   3.709   4.116   4.564
 7113SOL    HW122238   3.613   4.141   4.548
 7113SOL    HW222239   3.751   4.087   4.479
 7114SOL     OW22240   4.025   0.284   1.551
 7114SOL    HW122241   4.097   0.225   1.588
 7114SOL    HW222242   4.056   0.322   1.463
 7115SOL     OW22243   5.146   2.307   1.758
 7115SOL    HW122244   5.130   2.259   1.671
 7115SOL    HW222245   5.086   2.386   1.764
 7116SOL     OW22246   5.782   3.693   3.643
 7116SOL    HW122247   5.804   3.696   3.741
 7116SOL    HW222248   5.691   3.730   3.628
 7117SOL     OW22249   0.164   6.529   4.208
 7117SOL    HW122250   0.103   6.457   4.241
 7117SOL    HW222251   0.259   6.499   4.216
 7118SOL     OW22252   5.388   3.299   0.672
 7118SOL    HW122253   5.394   3.396   0.697
 7118SOL    HW222254   5.480   3.260   0.670
 7119SOL     OW22255   4.893   1.242   2.981
 7119SOL    HW122256   4.919   1.213   3.073
 7119SOL    HW222257   4.939   1.328   2.959
 7120SOL     OW22258   4.349   1.717   2.449
 7120SOL    HW122259   4.283   1.722   2.375
 7120SOL    HW222260   4.432   1.671   2.417
 7121SOL     OW22261   2.176   0.212   3.409
 7121SOL    HW122262   2.142   0.203   3.503
 7121SOL    HW222263   2.100   0.235   3.349
 7122SOL     OW22264   6.877   0.361   0.046
 7122SOL    HW122265   6.784   0.324   0.051
 7122SOL    HW222266   6.884   0.422   6.996
 7123SOL     OW22267   3.459   5.607   1.220
 7123SOL    HW122268   3.486   5.659   1.139
 7123SOL    HW222269   3.431   5.515   1.192
 7124SOL     OW22270   1.164   4.468   0.742
 7124SOL    HW122271   1.166   4.369   0.723
 7124SOL    HW222272   1.219   4.515   0.673
 7125SOL     OW22273   6.350   6.201   1.100
 7125SOL    HW122274   6.351   6.108   1.062
 7125SOL    HW222275   6.439   6.221   1.141
 7126SOL     OW22276   2.550   3.848   0.751
 7126SOL    HW122277   2.621   3.828   0.818
 7126SOL    HW222278   2.533   3.946   0.747
 7127SOL     OW22279   2.873   5.101   4.336
 7127SOL    HW122280   2.796   5.063   4.388
 7127SOL    HW222281   2.959   5.077   4.381
 7128SOL     OW22282   3.378   4.605   0.279
 7128SOL    HW122283   3.395   4.543   0.356
 7128SOL    HW222284   3.355   4.551   0.198
 7129SOL     OW22285   2.839   0.741   0.859
 7129SOL    HW122286   2.917   0.736   0.920
 7129SOL    HW222287   2.766   0.794   0.902
 7130SOL     OW22288   3.176   4.939   4.360
 7130SOL    HW122289   3.107   4.947   4.289
 7130SOL    HW222290   3.133   4.942   4.450
 7131SOL     OW22291   2.471   1.746   0.587
 7131SOL    HW122292   2.400   1.790   0.642
 7131SOL    HW222293   2.457   1.771   0.491
 7132SOL     OW22294   4.115   3.750   2.149
 7132SOL    HW122295   4.190   3.798   2.103
 7132SOL    HW222296   4.028   3.790   2.122
 7133SOL     OW22297   5.234   4.705   3.274
 7133SOL    HW122298   5.320   4.717   3.226
 7133SOL    HW222299   5.202   4.794   3.307
 7134SOL     OW22300   6.286   5.924   3.925
 7134SOL    HW122301   6.260   5.831   3.901
 7134SOL    HW222302   6.289   5.980   3.842
 7135SOL     OW22303   1.090   1.162   3.969
 7135SOL    HW122304   1.063   1.087   3.908
 7135SOL    HW222305   1.132   1.235   3.915
 7136SOL     OW22306   1.743   1.618   0.882
 7136SOL    HW122307   1.695   1.537   0.849
 7136SOL    HW222308   1.795   1.659   0.807
 7137SOL     OW22309   4.089   1.437   4.548
 7137SOL    HW122310   4.053   1.456   4.639
 7137SOL    HW222311   4.135   1.519   4.513
 7138SOL     OW22312   2.643   2.752   1.279
 7138SOL    HW122313   2.576   2.788   1.344
 7138SOL    HW222314   2.730   2.799   1.292
 7139SOL     OW22315   4.917   3.312   1.964
 7139SOL    HW122316   4.866   3.229   1.988
 7139SOL    HW222317   4.868   3.362   1.894
 7140SOL     OW22318   5.931   3.175   5.180
 7140SOL    HW122319   5.904   3.086   5.215
 7140SOL    HW222320   5.921   3.244   5.251
 7141SOL     OW22321   3.210   0.321   1.149
 7141SOL    HW122322   3.180   0.376   1.227
 7141SOL    HW222323   3.270   0.376   1.090
 7142SOL     OW22324   4.216   6.517   3.547
 7142SOL    HW122325   4.181   6.611   3.544
 7142SOL    HW222326   4.289   6.507   3.479
 7143SOL     OW22327   1.521   3.179   6.417
 7143SOL    HW122328   1.474   3.093   6.400
 7143SOL    HW222329   1.474   3.253   6.369
 7144SOL     OW22330   0.852   0.586   3.112
 7144SOL    HW122331   0.813   0.666   3.157
 7144SOL    HW222332   0.785   0.548   3.049
 7145SOL     OW22333   3.942   6.250   6.214
 7145SOL    HW122334   3.939   6.325   6.148
 7145SOL    HW222335   4.031   6.204   6.208
 7146SOL     OW22336   1.912   0.271   0.644
 7146SOL    HW122337   1.989   0.246   0.585
 7146SOL    HW222338   1.889   0.367   0.628
 7147SOL     OW22339   6.358   0.218   3.962
 7147SOL    HW122340   6.276   0.198   3.908
 7147SOL    HW222341   6.436   0.173   3.920
 7148SOL     OW22342   1.092   5.805   1.547
 7148SOL    HW122343   1.091   5.835   1.451
 7148SOL    HW222344   1.004   5.767   1.571
 7149SOL     OW22345   6.983   0.335   3.464
 7149SOL    HW122346   6.995   0.236   3.450
 7149SOL    HW222347   6.903   0.366   3.413
 7150SOL     OW22348   4.901   3.180   1.486
 7150SOL    HW122349   4.834   3.164   1.558
 7150SOL    HW222350   4.985   3.130   1.506
 7151SOL     OW22351   1.423   5.282   0.938
 7151SOL    HW122352   1.383   5.196   0.904
 7151SOL    HW222353   1.498   5.310   0.878
 7152SOL     OW22354   0.241   3.087   5.822
 7152SOL    HW122355   0.316   3.132   5.871
 7152SOL    HW222356   0.178   3.046   5.888
 7153SOL     OW22357   3.736   6.504   5.058
 7153SOL    HW122358   3.709   6.593   5.094
 7153SOL    HW222359   3.654   6.449   5.039
 7154SOL     OW22360   4.119   5.815   4.775
 7154SOL    HW122361   4.210   5.847   4.798
 7154SOL    HW222362   4.075   5.879   4.711
 7155SOL     OW22363   1.708   6.022   1.518
 7155SOL    HW122364   1.768   6.098   1.543
 7155SOL    HW222365   1.749   5.971   1.442
 7156SOL     OW22366   0.448   5.086   4.576
 7156SOL    HW122367   0.397   5.028   4.513
 7156SOL    HW222368   0.472   5.034   4.658
 7157SOL     OW22369   6.338   5.240   0.922
 7157SOL    HW122370   6.365   5.299   0.998
 7157SOL    HW222371   6.245   5.264   0.893
 7158SOL     OW22372   0.125   0.028   3.551
 7158SOL    HW122373   0.206   7.021   3.597
 7158SOL    HW222374   0.152   0.066   3.462
 7159SOL     OW22375   0.406   4.315   1.954
 7159SOL    HW122376   0.356   4.320   1.867
 7159SOL    HW222377   0.495   4.359   1.943
 7160SOL     OW22378   6.778   0.467   2.536
 7160SOL    HW122379   6.796   0.489   2.632
 7160SOL    HW222380   6.771   0.368   2.524
 7161SOL     OW22381   3.319   4.098   3.979
 7161SOL    HW122382   3.296   4.012   4.024
 7161SOL    HW222383   3.288   4.094   3.883
 7162SOL     OW22384   2.975   5.617   5.677
 7162SOL    HW122385   2.953   5.521   5.698
 7162SOL    HW222386   2.911   5.677   5.726
 7163SOL     OW22387   3.576   6.884   4.285
 7163SOL    HW122388   3.569   6.970   4.234
 7163SOL    HW222389   3.627   6.898   4.369
 7164SOL     OW22390   1.400   2.093   2.877
 7164SOL    HW122391   1.444   2.053   2.958
 7164SOL    HW222392   1.405   2.028   2.801
 7165SOL     OW22393   5.918   0.563   0.843
 7165SOL    HW122394   5.936   0.520   0.931
 7165SOL    HW222395   5.963   0.653   0.841
 7166SOL     OW22396   5.522   4.351   1.403
 7166SOL    HW122397   5.470   4.278   1.447
 7166SOL    HW222398   5.495   4.440   1.440
 7167SOL     OW22399   5.200   3.680   4.967
 7167SOL    HW122400   5.297   3.658   4.970
 7167SOL    HW222401   5.154   3.621   4.900
 7168SOL     OW22402   1.093   1.872   4.290
 7168SOL    HW122403   1.149   1.891   4.370
 7168SOL    HW222404   1.081   1.773   4.281
 7169SOL     OW22405   1.445   3.367   5.442
 7169SOL    HW122406   1.347   3.372   5.423
 7169SOL    HW222407   1.475   3.454   5.483
 7170SOL     OW22408   4.203   5.189   3.470
 7170SOL    HW122409   4.161   5.184   3.379
 7170SOL    HW222410   4.166   5.268   3.518
 7171SOL     OW22411   5.720   3.478   6.069
 7171SOL    HW122412   5.633   3.432   6.051
 7171SOL    HW222413   5.753   3.520   5.985
 7172SOL     OW22414   1.452   6.940   6.791
 7172SOL    HW122415   1.533   6.967   6.844
 7172SOL    HW222416   1.480   6.891   6.709
 7173SOL     OW22417   0.136   4.857   5.096
 7173SOL    HW122418   0.073   4.787   5.129
 7173SOL    HW222419   0.104   4.891   5.008
 7174SOL     OW22420   1.030   5.472   0.008
 7174SOL    HW122421   1.012   5.438   0.100
 7174SOL    HW222422   1.124   5.449   7.010
 7175SOL     OW22423   5.287   2.988   0.941
 7175SOL    HW122424   5.313   3.056   1.010
 7175SOL    HW222425   5.349   2.993   0.863
 7176SOL     OW22426   0.379   5.432   2.556
 7176SOL    HW122427   0.463   5.380   2.544
 7176SOL    HW222428   0.319   5.419   2.477
 7177SOL     OW22429   1.844   6.237   3.936
 7177SOL    HW122430   1.809   6.318   3.981
 7177SOL    HW222431   1.905   6.263   3.861
 7178SOL     OW22432   2.109   2.517   6.048
 7178SOL    HW122433   2.180   2.447   6.048
 7178SOL    HW222434   2.151   2.607   6.040
 7179SOL     OW22435   2.114   3.126   5.841
 7179SOL    HW122436   2.050   3.202   5.845
 7179SOL    HW222437   2.103   3.069   5.922
 7180SOL     OW22438   0.987   5.483   6.110
 7180SOL    HW122439   0.952   5.491   6.204
 7180SOL    HW222440   0.923   5.430   6.055
 7181SOL     OW22441   3.820   0.021   0.268
 7181SOL    HW122442   3.836   0.066   0.356
 7181SOL    HW222443   3.868   6.962   0.266
 7182SOL     OW22444   1.361   3.642   5.934
 7182SOL    HW122445   1.454   3.658   5.967
 7182SOL    HW222446   1.359   3.650   5.835
 7183SOL     OW22447   1.645   4.987   2.299
 7183SOL    HW122448   1.595   4.977   2.213
 7183SOL    HW222449   1.743   4.988   2.281
 7184SOL     OW22450   0.609   6.915   3.229
 7184SOL    HW122451   0.549   6.984   3.190
 7184SOL    HW222452   0.653   6.863   3.156
 7185SOL     OW22453   5.192   2.471   6.611
 7185SOL    HW122454   5.242   2.469   6.698
 7185SOL    HW222455   5.163   2.564   6.591
 7186SOL     OW22456   6.892   6.947   5.177
 7186SOL    HW122457   6.985   6.911   5.182
 7186SOL    HW222458   6.837   6.909   5.252
 7187SOL     OW22459   1.826   4.322   1.720
 7187SOL    HW122460   1.769   4.401   1.699
 7187SOL    HW222461   1.769   4.240   1.728
 7188SOL     OW22462   5.964   6.965   0.989
 7188SOL    HW122463   5.885   6.913   1.020
 7188SOL    HW222464   5.939   0.031   0.975
 7189SOL     OW22465   6.581   1.493   6.544
 7189SOL    HW122466   6.524   1.421   6.584
 7189SOL    HW222467   6.676   1.464   6.545
 7190SOL     OW22468   5.326   3.588   3.681
 7190SOL    HW122469   5.253   3.586   3.613
 7190SOL    HW222470   5.399   3.649   3.649
 7191SOL     OW22471   0.433   3.745   2.693
 7191SOL    HW122472   0.414   3.826   2.639
 7191SOL    HW222473   0.402   3.758   2.787
 7192SOL     OW22474   2.295   6.454   5.449
 7192SOL    HW122475   2.196   6.469   5.453
 7192SOL    HW222476   2.343   6.533   5.487
 7193SOL     OW22477   3.035   2.022   4.039
 7193SOL    HW122478   3.036   2.097   4.105
 7193SOL    HW222479   3.129   1.995   4.017
 7194SOL     OW22480   2.165   1.900   1.109
 7194SOL    HW122481   2.231   1.850   1.164
 7194SOL    HW222482   2.138   1.844   1.030
 7195SOL     OW22483   0.337   4.903   0.269
 7195SOL    HW122484   0.260   4.912   0.206
 7195SOL    HW222485   0.363   4.806   0.275
 7196SOL     OW22486   2.926   3.284   2.729
 7196SOL    HW122487   2.989   3.206   2.721
 7196SOL    HW222488   2.895   3.310   2.637
 7197SOL     OW22489   6.364   2.398   6.137
 7197SOL    HW122490   6.332   2.369   6.047
 7197SOL    HW222491   6.321   2.342   6.208
 7198SOL     OW22492   1.487   0.052   5.923
 7198SOL    HW122493   1.392   0.028   5.944
 7198SOL    HW222494   1.545   0.030   6.001
 7199SOL     OW22495   1.026   0.759   2.334
 7199SOL    HW122496   0.952   0.707   2.291
 7199SOL    HW222497   1.104   0.764   2.273
 7200SOL     OW22498   2.803   0.278   0.089
 7200SOL    HW122499   2.749   0.359   0.111
 7200SOL    HW222500   2.741   0.201   0.071
 7201SOL     OW22501   1.836   5.076   3.407
 7201SOL    HW122502   1.783   5.023   3.473
 7201SOL    HW222503   1.812   5.048   3.314
 7202SOL     OW22504   3.680   0.368   6.338
 7202SOL    HW122505   3.587   0.331   6.344
 7202SOL    HW222506   3.738   0.324   6.406
 7203SOL     OW22507   5.967   0.847   0.809
 7203SOL    HW122508   6.062   0.867   0.837
 7203SOL    HW222509   5.905   0.905   0.861
 7204SOL     OW22510   6.128   6.815   4.336
 7204SOL    HW122511   6.108   6.843   4.242
 7204SOL    HW222512   6.044   6.817   4.389
 7205SOL     OW22513   1.527   5.963   2.833
 7205SOL    HW122514   1.510   5.865   2.835
 7205SOL    HW222515   1.469   6.009   2.901
 7206SOL     OW22516   0.372   1.142   1.280
 7206SOL    HW122517   0.411   1.172   1.367
 7206SOL    HW222518   0.287   1.091   1.297
 7207SOL     OW22519   3.795   0.332   1.309
 7207SOL    HW122520   3.724   0.397   1.335
 7207SOL    HW222521   3.858   0.320   1.386
 7208SOL     OW22522   3.827   6.762   4.317
 7208SOL    HW122523   3.739   6.796   4.285
 7208SOL    HW222524   3.897   6.833   4.306
 7209SOL     OW22525   3.155   3.567   3.593
 7209SOL    HW122526   3.159   3.593   3.496
 7209SOL    HW222527   3.077   3.506   3.608
 7210SOL     OW22528   5.171   1.418   3.379
 7210SOL    HW122529   5.089   1.393   3.431
 7210SOL    HW222530   5.186   1.516   3.386
 7211SOL     OW22531   1.068   6.082   3.592
 7211SOL    HW122532   0.983   6.048   3.553
 7211SOL    HW222533   1.095   6.024   3.669
 7212SOL     OW22534   0.783   5.914   4.208
 7212SOL    HW122535   0.695   5.875   4.235
 7212SOL    HW222536   0.768   5.998   4.155
 7213SOL     OW22537   5.287   6.577   5.190
 7213SOL    HW122538   5.257   6.497   5.242
 7213SOL    HW222539   5.332   6.547   5.106
 7214SOL     OW22540   2.263   5.486   4.457
 7214SOL    HW122541   2.255   5.398   4.410
 7214SOL    HW222542   2.350   5.489   4.506
 7215SOL     OW22543   0.590   3.191   4.553
 7215SOL    HW122544   0.572   3.285   4.525
 7215SOL    HW222545   0.650   3.147   4.487
 7216SOL     OW22546   3.192   4.973   6.811
 7216SOL    HW122547   3.186   4.897   6.746
 7216SOL    HW222548   3.202   4.936   6.903
 7217SOL     OW22549   1.725   4.711   1.841
 7217SOL    HW122550   1.662   4.634   1.829
 7217SOL    HW222551   1.763   4.709   1.934
 7218SOL     OW22552   4.713   2.647   5.454
 7218SOL    HW122553   4.638   2.692   5.501
 7218SOL    HW222554   4.768   2.595   5.519
 7219SOL     OW22555   4.396   6.602   3.197
 7219SOL    HW122556   4.421   6.573   3.104
 7219SOL    HW222557   4.429   6.695   3.212
 7220SOL     OW22558   6.486   6.965   3.456
 7220SOL    HW122559   6.410   7.011   3.501
 7220SOL    HW222560   6.565   6.964   3.518
 7221SOL     OW22561   5.364   4.892   5.454
 7221SOL    HW122562   5.364   4.815   5.390
 7221SOL    HW222563   5.299   4.961   5.422
 7222SOL     OW22564   6.593   6.448   0.570
 7222SOL    HW122565   6.603   6.517   0.641
 7222SOL    HW222566   6.668   6.455   0.504
 7223SOL     OW22567   3.075   1.944   1.090
 7223SOL    HW122568   3.146   1.913   1.027
 7223SOL    HW222569   3.037   1.866   1.139
 7224SOL     OW22570   5.621   1.794   4.599
 7224SOL    HW122571   5.526   1.819   4.581
 7224SOL    HW222572   5.626   1.743   4.685
 7225SOL     OW22573   1.860   5.561   6.879
 7225SOL    HW122574   1.781   5.552   6.818
 7225SOL    HW222575   1.944   5.559   6.825
 7226SOL     OW22576   0.353   0.190   0.711
 7226SOL    HW122577   0.440   0.236   0.690
 7226SOL    HW222578   0.316   0.226   0.797
 7227SOL     OW22579   0.538   2.332   0.147
 7227SOL    HW122580   0.524   2.340   0.246
 7227SOL    HW222581   0.452   2.301   0.104
 7228SOL     OW22582   0.111   0.174   1.710
 7228SOL    HW122583   0.108   0.220   1.798
 7228SOL    HW222584   0.053   0.092   1.714
 7229SOL     OW22585   0.863   0.282   4.117
 7229SOL    HW122586   0.864   0.358   4.182
 7229SOL    HW222587   0.951   0.277   4.071
 7230SOL     OW22588   4.255   5.346   4.689
 7230SOL    HW122589   4.223   5.253   4.667
 7230SOL    HW222590   4.176   5.405   4.706
 7231SOL     OW22591   4.848   1.455   6.820
 7231SOL    HW122592   4.877   1.382   6.759
 7231SOL    HW222593   4.916   1.468   6.892
 7232SOL     OW22594   3.963   5.219   3.003
 7232SOL    HW122595   3.921   5.215   3.093
 7232SOL    HW222596   4.008   5.132   2.982
 7233SOL     OW22597   0.396   2.736   5.025
 7233SOL    HW122598   0.425   2.742   5.120
 7233SOL    HW222599   0.459   2.788   4.967
 7234SOL     OW22600   5.623   2.856   1.937
 7234SOL    HW122601   5.588   2.846   2.030
 7234SOL    HW222602   5.722   2.867   1.939
 7235SOL     OW22603   6.308   3.823   4.104
 7235SOL    HW122604   6.380   3.773   4.054
 7235SOL    HW222605   6.218   3.793   4.072
 7236SOL     OW22606   3.739   1.779   3.139
 7236SOL    HW122607   3.654   1.745   3.176
 7236SOL    HW222608   3.720   1.835   3.058
 7237SOL     OW22609   6.935   6.218   5.346
 7237SOL    HW122610   6.981   6.132   5.367
 7237SOL    HW222611   6.995   6.295   5.368
 7238SOL     OW22612   2.533   0.973   2.042
 7238SOL    HW122613   2.628   0.969   2.010
 7238SOL    HW222614   2.472   0.990   1.965
 7239SOL     OW22615   1.712   1.362   3.496
 7239SOL    HW122616   1.812   1.363   3.501
 7239SOL    HW222617   1.683   1.376   3.402
 7240SOL     OW22618   3.058   4.557   0.708
 7240SOL    HW122619   3.118   4.505   0.768
 7240SOL    HW222620   3.083   4.540   0.612
 7241SOL     OW22621   3.662   0.487   5.847
 7241SOL    HW122622   3.678   0.420   5.919
 7241SOL    HW222623   3.706   0.455   5.763
 7242SOL     OW22624   5.635   4.436   0.102
 7242SOL    HW122625   5.680   4.412   0.016
 7242SOL    HW222626   5.568   4.509   0.085
 7243SOL     OW22627   1.143   4.867   6.451
 7243SOL    HW122628   1.240   4.887   6.457
 7243SOL    HW222629   1.129   4.779   6.407
 7244SOL     OW22630   5.037   1.472   0.732
 7244SOL    HW122631   5.110   1.415   0.693
 7244SOL    HW222632   4.976   1.415   0.787
 7245SOL     OW22633   0.011   2.558   5.210
 7245SOL    HW122634   0.019   2.657   5.192
 7245SOL    HW222635   7.010   2.544   5.304
 7246SOL     OW22636   6.513   6.715   4.981
 7246SOL    HW122637   6.519   6.814   4.974
 7246SOL    HW222638   6.504   6.675   4.890
 7247SOL     OW22639   2.524   6.191   1.870
 7247SOL    HW122640   2.551   6.105   1.913
 7247SOL    HW222641   2.504   6.175   1.773
 7248SOL     OW22642   3.737   0.938   4.086
 7248SOL    HW122643   3.779   1.026   4.061
 7248SOL    HW222644   3.745   0.874   4.010
 7249SOL     OW22645   5.669   4.456   1.016
 7249SOL    HW122646   5.673   4.492   0.923
 7249SOL    HW222647   5.761   4.454   1.055
 7250SOL     OW22648   2.268   4.856   6.557
 7250SOL    HW122649   2.256   4.945   6.601
 7250SOL    HW222650   2.363   4.826   6.568
 7251SOL     OW22651   6.448   6.464   5.076
 7251SOL    HW122652   6.478   6.557   5.054
 7251SOL    HW222653   6.520   6.400   5.050
 7252SOL     OW22654   3.292   3.351   4.770
 7252SOL    HW122655   3.195   3.364   4.747
 7252SOL    HW222656   3.341   3.438   4.759
 7253SOL     OW22657   1.955   6.032   0.540
 7253SOL    HW122658   1.948   6.100   0.613
 7253SOL    HW222659   2.028   5.967   0.562
 7254SOL     OW22660   3.517   5.248   4.273
 7254SOL    HW122661   3.460   5.268   4.193
 7254SOL    HW222662   3.515   5.150   4.292
 7255SOL     OW22663   2.977   3.115   1.687
 7255SOL    HW122664   3.074   3.097   1.671
 7255SOL    HW222665   2.965   3.211   1.714
 7256SOL     OW22666   4.281   4.973   4.584
 7256SOL    HW122667   4.361   5.008   4.535
 7256SOL    HW222668   4.311   4.907   4.653
 7257SOL     OW22669   6.378   2.470   3.069
 7257SOL    HW122670   6.426   2.478   2.982
 7257SOL    HW222671   6.313   2.395   3.066
 7258SOL     OW22672   4.121   0.603   4.469
 7258SOL    HW122673   4.028   0.587   4.501
 7258SOL    HW222674   4.174   0.646   4.542
 7259SOL     OW22675   2.525   3.823   6.932
 7259SOL    HW122676   2.433   3.831   6.969
 7259SOL    HW222677   2.583   3.774   6.997
 7260SOL     OW22678   3.497   2.093   2.843
 7260SOL    HW122679   3.472   2.115   2.937
 7260SOL    HW222680   3.440   2.144   2.779
 7261SOL     OW22681   2.363   3.279   1.743
 7261SOL    HW122682   2.457   3.295   1.714
 7261SOL    HW222683   2.332   3.355   1.800
 7262SOL     OW22684   5.415   2.060   4.658
 7262SOL    HW122685   5.385   2.012   4.575
 7262SOL    HW222686   5.411   2.159   4.643
 7263SOL     OW22687   1.388   5.789   1.522
 7263SOL    HW122688   1.401   5.690   1.534
 7263SOL    HW222689   1.290   5.810   1.521
 7264SOL     OW22690   6.791   1.046   6.813
 7264SOL    HW122691   6.816   1.089   6.727
 7264SOL    HW222692   6.873   1.006   6.856
 7265SOL     OW22693   5.439   5.013   6.297
 7265SOL    HW122694   5.426   5.050   6.205
 7265SOL    HW222695   5.520   5.055   6.339
 7266SOL     OW22696   5.081   0.479   1.330
 7266SOL    HW122697   5.025   0.474   1.413
 7266SOL    HW222698   5.146   0.403   1.329
 7267SOL     OW22699   7.013   3.831   4.832
 7267SOL    HW122700   7.003   3.899   4.759
 7267SOL    HW222701   6.924   3.813   4.873
 7268SOL     OW22702   4.134   6.055   1.662
 7268SOL    HW122703   4.071   6.059   1.585
 7268SOL    HW222704   4.215   6.110   1.641
 7269SOL     OW22705   0.619   5.517   1.738
 7269SOL    HW122706   0.682   5.492   1.665
 7269SOL    HW222707   0.661   5.587   1.796
 7270SOL     OW22708   2.272   1.710   3.051
 7270SOL    HW122709   2.355   1.751   3.013
 7270SOL    HW222710   2.196   1.722   2.987
 7271SOL     OW22711   0.365   4.010   2.608
 7271SOL    HW122712   0.269   4.033   2.589
 7271SOL    HW222713   0.424   4.050   2.538
 7272SOL     OW22714   4.858   2.892   2.621
 7272SOL    HW122715   4.853   2.990   2.636
 7272SOL    HW222716   4.919   2.851   2.689
 7273SOL     OW22717   5.693   4.327   1.781
 7273SOL    HW122718   5.779   4.359   1.741
 7273SOL    HW222719   5.632   4.404   1.795
 7274SOL     OW22720   0.255   5.018   5.886
 7274SOL    HW122721   0.163   4.982   5.900
 7274SOL    HW222722   0.315   4.946   5.853
 7275SOL     OW22723   0.054   0.541   6.867
 7275SOL    HW122724   0.104   0.456   6.885
 7275SOL    HW222725   0.055   0.597   6.949
 7276SOL     OW22726   2.009   1.958   4.077
 7276SOL    HW122727   2.038   2.053   4.088
 7276SOL    HW222728   2.072   1.912   4.014
 7277SOL     OW22729   4.652   1.348   5.409
 7277SOL    HW122730   4.728   1.308   5.462
 7277SOL    HW222731   4.595   1.403   5.470
 7278SOL     OW22732   3.999   1.299   3.527
 7278SOL    HW122733   4.001   1.200   3.543
 7278SOL    HW222734   3.904   1.331   3.526
 7279SOL     OW22735   4.279   4.390   0.357
 7279SOL    HW122736   4.344   4.379   0.432
 7279SOL    HW222737   4.192   4.423   0.393
 7280SOL     OW22738   5.161   1.860   5.262
 7280SOL    HW122739   5.163   1.760   5.265
 7280SOL    HW222740   5.160   1.896   5.355
 7281SOL     OW22741   3.597   6.435   1.441
 7281SOL    HW122742   3.653   6.506   1.484
 7281SOL    HW222743   3.567   6.466   1.351
 7282SOL     OW22744   6.646   5.497   2.069
 7282SOL    HW122745   6.695   5.475   2.153
 7282SOL    HW222746   6.611   5.590   2.074
 7283SOL     OW22747   3.259   5.634   2.586
 7283SOL    HW122748   3.169   5.598   2.559
 7283SOL    HW222749   3.327   5.610   2.516
 7284SOL     OW22750   6.642   2.549   3.757
 7284SOL    HW122751   6.571   2.523   3.692
 7284SOL    HW222752   6.667   2.645   3.743
 7285SOL     OW22753   4.869   2.952   1.748
 7285SOL    HW122754   4.841   3.008   1.826
 7285SOL    HW222755   4.804   2.965   1.672
 7286SOL     OW22756   0.938   1.517   0.659
 7286SOL    HW122757   1.034   1.493   0.647
 7286SOL    HW222758   0.884   1.434   0.672
 7287SOL     OW22759   1.088   2.386   3.591
 7287SOL    HW122760   1.001   2.354   3.626
 7287SOL    HW222761   1.161   2.323   3.618
 7288SOL     OW22762   3.323   2.121   3.077
 7288SOL    HW122763   3.244   2.176   3.101
 7288SOL    HW222764   3.295   2.026   3.063
 7289SOL     OW22765   5.943   2.263   1.911
 7289SOL    HW122766   6.016   2.196   1.894
 7289SOL    HW222767   5.950   2.295   2.005
 7290SOL     OW22768   4.174   1.525   4.868
 7290SOL    HW122769   4.217   1.584   4.799
 7290SOL    HW222770   4.080   1.505   4.841
 7291SOL     OW22771   3.606   0.433   6.999
 7291SOL    HW122772   3.703   0.438   6.976
 7291SOL    HW222773   3.554   0.398   6.921
 7292SOL     OW22774   1.726   0.341   3.313
 7292SOL    HW122775   1.808   0.309   3.267
 7292SOL    HW222776   1.650   0.344   3.248
 7293SOL     OW22777   1.237   0.424   5.558
 7293SOL    HW122778   1.153   0.477   5.571
 7293SOL    HW222779   1.269   0.391   5.646
 7294SOL     OW22780   3.244   4.962   1.622
 7294SOL    HW122781   3.216   4.933   1.531
 7294SOL    HW222782   3.286   4.885   1.670
 7295SOL     OW22783   6.440   5.298   2.192
 7295SOL    HW122784   6.526   5.296   2.142
 7295SOL    HW222785   6.364   5.313   2.127
 7296SOL     OW22786   3.971   4.973   2.649
 7296SOL    HW122787   3.953   5.067   2.621
 7296SOL    HW222788   3.975   4.915   2.568
 7297SOL     OW22789   2.925   6.341   1.639
 7297SOL    HW122790   2.911   6.440   1.641
 7297SOL    HW222791   2.953   6.309   1.729
 7298SOL     OW22792   4.986   5.947   6.380
 7298SOL    HW122793   5.000   5.877   6.311
 7298SOL    HW222794   4.888   5.955   6.401
 7299SOL     OW22795   1.239   2.923   0.167
 7299SOL    HW122796   1.304   2.983   0.213
 7299SOL    HW222797   1.271   2.828   0.174
 7300SOL     OW22798   0.805   4.854   1.493
 7300SOL    HW122799   0.766   4.946   1.490
 7300SOL    HW222800   0.758   4.800   1.562
 7301SOL     OW22801   5.523   6.963   5.229
 7301SOL    HW122802   5.506   6.932   5.323
 7301SOL    HW222803   5.444   7.015   5.197
 7302SOL     OW22804   5.023   2.626   6.110
 7302SOL    HW122805   5.048   2.532   6.129
 7302SOL    HW222806   4.962   2.629   6.030
 7303SOL     OW22807   2.245   0.924   0.717
 7303SOL    HW122808   2.305   0.847   0.738
 7303SOL    HW222809   2.187   0.944   0.796
 7304SOL     OW22810   2.959   5.066   1.935
 7304SOL    HW122811   2.911   5.082   1.849
 7304SOL    HW222812   2.983   5.154   1.976
 7305SOL     OW22813   6.002   2.188   0.213
 7305SOL    HW122814   6.070   2.127   0.171
 7305SOL    HW222815   5.997   2.171   0.311
 7306SOL     OW22816   2.726   1.156   1.377
 7306SOL    HW122817   2.773   1.069   1.375
 7306SOL    HW222818   2.683   1.169   1.466
 7307SOL     OW22819   2.188   6.406   1.366
 7307SOL    HW122820   2.247   6.479   1.332
 7307SOL    HW222821   2.099   6.444   1.391
 7308SOL     OW22822   4.733   0.543   1.889
 7308SOL    HW122823   4.688   0.591   1.964
 7308SOL    HW222824   4.794   0.606   1.840
 7309SOL     OW22825   1.976   5.282   2.373
 7309SOL    HW122826   1.894   5.269   2.428
 7309SOL    HW222827   2.057   5.268   2.430
 7310SOL     OW22828   1.759   2.501   0.158
 7310SOL    HW122829   1.816   2.556   0.219
 7310SOL    HW222830   1.678   2.470   0.207
 7311SOL     OW22831   0.441   0.150   0.162
 7311SOL    HW122832   0.405   0.223   0.221
 7311SOL    HW222833   0.365   0.108   0.113
 7312SOL     OW22834   6.870   2.269   5.997
 7312SOL    HW122835   6.771   2.259   5.988
 7312SOL    HW222836   6.910   2.183   6.028
 7313SOL     OW22837   2.542   0.654   1.738
 7313SOL    HW122838   2.561   0.594   1.815
 7313SOL    HW222839   2.453   0.697   1.750
 7314SOL     OW22840   0.135   4.559   6.907
 7314SOL    HW122841   0.089   4.501   6.974
 7314SOL    HW222842   0.217   4.598   6.948
 7315SOL     OW22843   0.591   5.196   1.923
 7315SOL    HW122844   0.532   5.276   1.914
 7315SOL    HW222845   0.665   5.216   1.987
 7316SOL     OW22846   3.160   2.091   6.539
 7316SOL    HW122847   3.095   2.017   6.523
 7316SOL    HW222848   3.238   2.082   6.477
 7317SOL     OW22849   3.523   1.504   1.654
 7317SOL    HW122850   3.612   1.475   1.690
 7317SOL    HW222851   3.462   1.425   1.646
 7318SOL     OW22852   3.565   0.211   1.974
 7318SOL    HW122853   3.651   0.177   2.014
 7318SOL    HW222854   3.489   0.160   2.013
 7319SOL     OW22855   6.434   4.822   0.446
 7319SOL    HW122856   6.443   4.757   0.522
 7319SOL    HW222857   6.384   4.779   0.371
 7320SOL     OW22858   6.830   3.456   1.117
 7320SOL    HW122859   6.882   3.394   1.058
 7320SOL    HW222860   6.893   3.512   1.170
 7321SOL     OW22861   2.452   5.793   6.318
 7321SOL    HW122862   2.358   5.821   6.342
 7321SOL    HW222863   2.448   5.722   6.249
 7322SOL     OW22864   0.565   1.869   2.315
 7322SOL    HW122865   0.469   1.861   2.343
 7322SOL    HW222866   0.571   1.881   2.216
 7323SOL     OW22867   1.404   1.722   1.167
 7323SOL    HW122868   1.320   1.690   1.123
 7323SOL    HW222869   1.458   1.776   1.103
 7324SOL     OW22870   5.880   4.531   3.421
 7324SOL    HW122871   5.785   4.562   3.432
 7324SOL    HW222872   5.942   4.604   3.446
 7325SOL     OW22873   4.025   0.759   6.075
 7325SOL    HW122874   3.976   0.725   6.155
 7325SOL    HW222875   3.965   0.755   5.995
 7326SOL     OW22876   2.707   0.800   6.305
 7326SOL    HW122877   2.621   0.837   6.270
 7326SOL    HW222878   2.729   0.714   6.258
 7327SOL     OW22879   6.002   3.963   3.501
 7327SOL    HW122880   6.007   4.036   3.569
 7327SOL    HW222881   5.907   3.937   3.487
 7328SOL     OW22882   4.212   5.226   5.135
 7328SOL    HW122883   4.288   5.256   5.193
 7328SOL    HW222884   4.242   5.150   5.077
 7329SOL     OW22885   2.764   3.024   0.460
 7329SOL    HW122886   2.717   3.018   0.371
 7329SOL    HW222887   2.833   2.952   0.466
 7330SOL     OW22888   3.452   2.634   1.631
 7330SOL    HW122889   3.547   2.611   1.649
 7330SOL    HW222890   3.416   2.572   1.561
 7331SOL     OW22891   4.221   0.105   1.621
 7331SOL    HW122892   4.231   0.159   1.705
 7331SOL    HW222893   4.297   0.039   1.615
 7332SOL     OW22894   3.555   4.044   0.210
 7332SOL    HW122895   3.552   3.987   0.292
 7332SOL    HW222896   3.641   4.028   0.161
 7333SOL     OW22897   6.497   2.729   1.939
 7333SOL    HW122898   6.576   2.752   1.882
 7333SOL    HW222899   6.520   2.744   2.035
 7334SOL     OW22900   2.873   6.928   5.499
 7334SOL    HW122901   2.960   6.975   5.482
 7334SOL    HW222902   2.851   6.930   5.596
 7335SOL     OW22903   6.837   3.328   2.873
 7335SOL    HW122904   6.862   3.304   2.779
 7335SOL    HW222905   6.748   3.289   2.895
 7336SOL     OW22906   1.759   5.958   0.808
 7336SOL    HW122907   1.682   5.990   0.863
 7336SOL    HW222908   1.733   5.959   0.711
 7337SOL     OW22909   2.524   2.406   2.172
 7337SOL    HW122910   2.501   2.479   2.236
 7337SOL    HW222911   2.443   2.350   2.156
 7338SOL     OW22912   5.704   3.213   1.592
 7338SOL    HW122913   5.695   3.284   1.663
 7338SOL    HW222914   5.706   3.123   1.635
 7339SOL     OW22915   6.477   5.683   5.304
 7339SOL    HW122916   6.438   5.666   5.214
 7339SOL    HW222917   6.455   5.607   5.365
 7340SOL     OW22918   2.580   0.551   6.833
 7340SOL    HW122919   2.605   0.558   6.930
 7340SOL    HW222920   2.511   0.620   6.812
 7341SOL     OW22921   0.179   4.870   4.015
 7341SOL    HW122922   0.273   4.844   4.035
 7341SOL    HW222923   0.172   4.970   4.009
 7342SOL     OW22924   6.705   0.431   0.321
 7342SOL    HW122925   6.634   0.452   0.253
 7342SOL    HW222926   6.676   0.353   0.376
 7343SOL     OW22927   5.881   4.225   2.826
 7343SOL    HW122928   5.837   4.240   2.914
 7343SOL    HW222929   5.925   4.135   2.825
 7344SOL     OW22930   1.960   6.589   6.548
 7344SOL    HW122931   1.964   6.671   6.492
 7344SOL    HW222932   1.868   6.551   6.545
 7345SOL     OW22933   4.319   5.209   5.741
 7345SOL    HW122934   4.341   5.281   5.675
 7345SOL    HW222935   4.220   5.195   5.744
 7346SOL     OW22936   3.669   4.859   1.004
 7346SOL    HW122937   3.767   4.839   0.998
 7346SOL    HW222938   3.652   4.953   0.975
 7347SOL     OW22939   6.129   2.111   2.279
 7347SOL    HW122940   6.119   2.211   2.275
 7347SOL    HW222941   6.041   2.069   2.257
 7348SOL     OW22942   1.202   2.626   3.766
 7348SOL    HW122943   1.103   2.625   3.752
 7348SOL    HW222944   1.232   2.720   3.781
 7349SOL     OW22945   3.703   1.966   1.120
 7349SOL    HW122946   3.730   1.994   1.028
 7349SOL    HW222947   3.661   1.875   1.116
 7350SOL     OW22948   0.410   2.504   3.442
 7350SOL    HW122949   0.490   2.485   3.386
 7350SOL    HW222950   0.331   2.456   3.404
 7351SOL     OW22951   4.334   4.733   6.237
 7351SOL    HW122952   4.377   4.786   6.311
 7351SOL    HW222953   4.273   4.665   6.277
 7352SOL     OW22954   1.459   1.970   2.543
 7352SOL    HW122955   1.433   1.894   2.603
 7352SOL    HW222956   1.549   1.952   2.504
 7353SOL     OW22957   6.231   1.660   4.613
 7353SOL    HW122958   6.271   1.619   4.531
 7353SOL    HW222959   6.287   1.738   4.642
 7354SOL     OW22960   6.582   6.637   6.129
 7354SOL    HW122961   6.542   6.645   6.220
 7354SOL    HW222962   6.522   6.681   6.062
 7355SOL     OW22963   0.814   5.755   1.500
 7355SOL    HW122964   0.776   5.662   1.504
 7355SOL    HW222965   0.792   5.796   1.412
 7356SOL     OW22966   6.278   2.025   6.619
 7356SOL    HW122967   6.201   1.968   6.649
 7356SOL    HW222968   6.349   1.966   6.580
 7357SOL     OW22969   4.959   1.340   0.112
 7357SOL    HW122970   4.965   1.428   0.066
 7357SOL    HW222971   5.051   1.305   0.130
 7358SOL     OW22972   3.546   2.043   3.822
 7358SOL    HW122973   3.608   2.030   3.899
 7358SOL    HW222974   3.594   2.087   3.746
 7359SOL     OW22975   4.074   3.251   2.724
 7359SOL    HW122976   4.174   3.252   2.732
 7359SOL    HW222977   4.047   3.292   2.637
 7360SOL     OW22978   1.169   2.239   5.273
 7360SOL    HW122979   1.190   2.293   5.355
 7360SOL    HW222980   1.253   2.197   5.239
 7361SOL     OW22981   5.380   6.352   1.175
 7361SOL    HW122982   5.446   6.320   1.243
 7361SOL    HW222983   5.430   6.395   1.099
 7362SOL     OW22984   1.562   6.602   5.106
 7362SOL    HW122985   1.507   6.630   5.184
 7362SOL    HW222986   1.639   6.547   5.137
 7363SOL     OW22987   5.722   2.575   6.945
 7363SOL    HW122988   5.820   2.557   6.946
 7363SOL    HW222989   5.681   2.540   7.029
 7364SOL     OW22990   4.276   6.978   1.105
 7364SOL    HW122991   4.360   7.009   1.061
 7364SOL    HW222992   4.290   6.886   1.141
 7365SOL     OW22993   2.920   0.605   2.536
 7365SOL    HW122994   2.964   0.520   2.567
 7365SOL    HW222995   2.923   0.609   2.436
 7366SOL     OW22996   0.546   5.459   6.479
 7366SOL    HW122997   0.610   5.495   6.546
 7366SOL    HW222998   0.466   5.519   6.474
 7367SOL     OW22999   5.402   3.622   1.341
 7367SOL    HW123000   5.461   3.664   1.272
 7367SOL    HW223001   5.389   3.685   1.417
 7368SOL     OW23002   3.281   3.148   4.524
 7368SOL    HW123003   3.194   3.197   4.524
 7368SOL    HW223004   3.347   3.197   4.469
 7369SOL     OW23005   5.176   4.078   1.117
 7369SOL    HW123006   5.164   4.081   1.017
 7369SOL    HW223007   5.269   4.049   1.139
 7370SOL     OW23008   2.102   6.876   0.559
 7370SOL    HW123009   2.137   6.906   0.470
 7370SOL    HW223010   2.173   6.890   0.629
 7371SOL     OW23011   2.826   5.066   4.045
 7371SOL    HW123012   2.910   5.115   4.024
 7371SOL    HW223013   2.818   5.053   4.144
 7372SOL     OW23014   4.078   0.370   5.336
 7372SOL    HW123015   4.118   0.364   5.244
 7372SOL    HW223016   4.092   0.283   5.384
 7373SOL     OW23017   3.999   0.668   3.760
 7373SOL    HW123018   4.043   0.589   3.718
 7373SOL    HW223019   4.036   0.682   3.852
 7374SOL     OW23020   1.639   3.080   6.054
 7374SOL    HW123021   1.678   3.028   6.130
 7374SOL    HW223022   1.653   3.178   6.069
 7375SOL     OW23023   0.853   1.165   4.879
 7375SOL    HW123024   0.781   1.232   4.860
 7375SOL    HW223025   0.941   1.212   4.888
 7376SOL     OW23026   2.756   3.179   6.811
 7376SOL    HW123027   2.707   3.146   6.892
 7376SOL    HW223028   2.842   3.129   6.802
 7377SOL     OW23029   4.730   4.490   1.904
 7377SOL    HW123030   4.664   4.420   1.934
 7377SOL    HW223031   4.823   4.455   1.915
 7378SOL     OW23032   0.310   2.233   5.160
 7378SOL    HW123033   0.367   2.309   5.127
 7378SOL    HW223034   0.356   2.189   5.238
 7379SOL     OW23035   3.940   1.178   2.186
 7379SOL    HW123036   3.987   1.231   2.256
 7379SOL    HW223037   3.973   1.205   2.096
 7380SOL     OW23038   6.655   2.813   5.645
 7380SOL    HW123039   6.676   2.900   5.690
 7380SOL    HW223040   6.655   2.827   5.545
 7381SOL     OW23041   4.830   3.120   2.242
 7381SOL    HW123042   4.794   3.132   2.149
 7381SOL    HW223043   4.832   3.208   2.288
 7382SOL     OW23044   0.478   4.256   4.663
 7382SOL    HW123045   0.408   4.227   4.599
 7382SOL    HW223046   0.446   4.241   4.757
 7383SOL     OW23047   0.204   6.307   2.191
 7383SOL    HW123048   0.244   6.223   2.227
 7383SOL    HW223049   0.119   6.286   2.142
 7384SOL     OW23050   5.168   6.706   2.589
 7384SOL    HW123051   5.248   6.746   2.544
 7384SOL    HW223052   5.184   6.703   2.688
 7385SOL     OW23053   4.667   6.035   2.099
 7385SOL    HW123054   4.700   6.060   2.190
 7385SOL    HW223055   4.733   5.973   2.056
 7386SOL     OW23056   1.246   2.625   5.949
 7386SOL    HW123057   1.149   2.648   5.954
 7386SOL    HW223058   1.261   2.536   5.992
 7387SOL     OW23059   4.035   5.510   4.083
 7387SOL    HW123060   3.965   5.441   4.065
 7387SOL    HW223061   4.069   5.546   3.997
 7388SOL     OW23062   6.913   5.241   4.027
 7388SOL    HW123063   7.007   5.222   4.053
 7388SOL    HW223064   6.884   5.177   3.955
 7389SOL     OW23065   1.301   3.998   6.773
 7389SOL    HW123066   1.253   3.952   6.848
 7389SOL    HW223067   1.396   3.970   6.772
 7390SOL     OW23068   0.376   1.657   6.991
 7390SOL    HW123069   0.283   1.655   6.954
 7390SOL    HW223070   0.402   1.752   7.010
 7391SOL     OW23071   6.024   3.750   6.116
 7391SOL    HW123072   5.925   3.749   6.132
 7391SOL    HW223073   6.042   3.722   6.021
 7392SOL     OW23074   1.660   5.521   5.351
 7392SOL    HW123075   1.626   5.486   5.439
 7392SOL    HW223076   1.755   5.492   5.338
 7393SOL     OW23077   6.114   5.608   2.264
 7393SOL    HW123078   6.055   5.676   2.222
 7393SOL    HW223079   6.189   5.654   2.313
 7394SOL     OW23080   3.651   3.321   6.494
 7394SOL    HW123081   3.731   3.378   6.514
 7394SOL    HW223082   3.629   3.326   6.397
 7395SOL     OW23083   0.631   0.480   6.187
 7395SOL    HW123084   0.680   0.418   6.126
 7395SOL    HW223085   0.607   0.432   6.271
 7396SOL     OW23086   1.511   0.516   5.749
 7396SOL    HW123087   1.605   0.502   5.779
 7396SOL    HW223088   1.464   0.428   5.745
 7397SOL     OW23089   6.289   4.401   4.898
 7397SOL    HW123090   6.227   4.323   4.894
 7397SOL    HW223091   6.307   4.435   4.806
 7398SOL     OW23092   4.630   5.481   3.956
 7398SOL    HW123093   4.645   5.541   4.034
 7398SOL    HW223094   4.717   5.462   3.910
 7399SOL     OW23095   6.517   3.886   5.714
 7399SOL    HW123096   6.580   3.923   5.782
 7399SOL    HW223097   6.431   3.938   5.717
 7400SOL     OW23098   3.107   4.022   7.005
 7400SOL    HW123099   3.205   4.006   7.014
 7400SOL    HW223100   3.090   4.077   6.923
 7401SOL     OW23101   0.163   1.211   3.992
 7401SOL    HW123102   0.126   1.288   4.045
 7401SOL    HW223103   0.109   1.201   3.908
 7402SOL     OW23104   2.185   0.016   3.738
 7402SOL    HW123105   2.252   0.076   3.781
 7402SOL    HW223106   2.119   0.071   3.687
 7403SOL     OW23107   1.485   3.097   3.481
 7403SOL    HW123108   1.553   3.102   3.554
 7403SOL    HW223109   1.484   3.184   3.431
 7404SOL     OW23110   1.683   0.460   0.934
 7404SOL    HW123111   1.726   0.390   0.992
 7404SOL    HW223112   1.746   0.537   0.924
 7405SOL     OW23113   1.993   5.318   4.947
 7405SOL    HW123114   1.946   5.405   4.961
 7405SOL    HW223115   2.054   5.301   5.025
 7406SOL     OW23116   1.644   3.417   2.365
 7406SOL    HW123117   1.685   3.474   2.294
 7406SOL    HW223118   1.662   3.320   2.344
 7407SOL     OW23119   0.451   6.109   5.171
 7407SOL    HW123120   0.351   6.109   5.173
 7407SOL    HW223121   0.482   6.134   5.079
 7408SOL     OW23122   1.927   4.178   5.674
 7408SOL    HW123123   1.845   4.153   5.622
 7408SOL    HW223124   2.006   4.128   5.638
 7409SOL     OW23125   0.761   0.891   4.957
 7409SOL    HW123126   0.792   0.979   4.920
 7409SOL    HW223127   0.681   0.860   4.905
 7410SOL     OW23128   0.275   4.381   1.144
 7410SOL    HW123129   0.200   4.366   1.209
 7410SOL    HW223130   0.363   4.369   1.191
 7411SOL     OW23131   2.711   6.713   4.219
 7411SOL    HW123132   2.627   6.767   4.219
 7411SOL    HW223133   2.710   6.651   4.298
 7412SOL     OW23134   2.421   0.716   0.648
 7412SOL    HW123135   2.495   0.679   0.704
 7412SOL    HW223136   2.460   0.753   0.563
 7413SOL     OW23137   0.139   3.324   4.207
 7413SOL    HW123138   0.102   3.242   4.250
 7413SOL    HW223139   0.097   3.405   4.247
 7414SOL     OW23140   6.420   0.073   2.176
 7414SOL    HW123141   6.366   7.021   2.154
 7414SOL    HW223142   6.479   0.054   2.254
 7415SOL     OW23143   1.829   3.198   2.883
 7415SOL    HW123144   1.822   3.105   2.919
 7415SOL    HW223145   1.818   3.264   2.958
 7416SOL     OW23146   3.757   1.248   4.721
 7416SOL    HW123147   3.760   1.292   4.632
 7416SOL    HW223148   3.841   1.195   4.735
 7417SOL     OW23149   1.613   0.044   6.158
 7417SOL    HW123150   1.708   0.062   6.182
 7417SOL    HW223151   1.553   0.098   6.217
 7418SOL     OW23152   2.456   4.139   1.317
 7418SOL    HW123153   2.427   4.044   1.310
 7418SOL    HW223154   2.476   4.174   1.225
 7419SOL     OW23155   5.879   1.921   4.515
 7419SOL    HW123156   5.922   1.831   4.503
 7419SOL    HW223157   5.785   1.909   4.546
 7420SOL     OW23158   6.578   6.516   2.150
 7420SOL    HW123159   6.593   6.516   2.051
 7420SOL    HW223160   6.523   6.436   2.174
 7421SOL     OW23161   3.598   3.965   1.597
 7421SOL    HW123162   3.645   3.898   1.655
 7421SOL    HW223163   3.655   4.046   1.586
 7422SOL     OW23164   0.228   3.665   1.366
 7422SOL    HW123165   0.326   3.683   1.352
 7422SOL    HW223166   0.216   3.574   1.406
 7423SOL     OW23167   2.059   4.671   6.122
 7423SOL    HW123168   2.065   4.703   6.217
 7423SOL    HW223169   2.033   4.747   6.063
 7424SOL     OW23170   5.737   1.710   4.352
 7424SOL    HW123171   5.688   1.723   4.438
 7424SOL    HW223172   5.833   1.688   4.371
 7425SOL     OW23173   3.742   4.465   6.120
 7425SOL    HW123174   3.660   4.409   6.112
 7425SOL    HW223175   3.749   4.524   6.039
 7426SOL     OW23176   0.137   2.151   0.090
 7426SOL    HW123177   0.181   2.182   0.174
 7426SOL    HW223178   0.134   2.051   0.088
 7427SOL     OW23179   3.186   6.199   4.757
 7427SOL    HW123180   3.095   6.222   4.720
 7427SOL    HW223181   3.205   6.103   4.737
 7428SOL     OW23182   3.727   2.217   5.556
 7428SOL    HW123183   3.676   2.266   5.627
 7428SOL    HW223184   3.669   2.206   5.475
 7429SOL     OW23185   0.122   0.063   2.823
 7429SOL    HW123186   0.080   0.126   2.758
 7429SOL    HW223187   0.083   7.001   2.811
 7430SOL     OW23188   6.585   4.293   5.199
 7430SOL    HW123189   6.583   4.346   5.115
 7430SOL    HW223190   6.677   4.257   5.214
 7431SOL     OW23191   0.603   3.769   1.557
 7431SOL    HW123192   0.583   3.863   1.529
 7431SOL    HW223193   0.648   3.770   1.647
 7432SOL     OW23194   0.445   6.385   3.742
 7432SOL    HW123195   0.463   6.374   3.645
 7432SOL    HW223196   0.346   6.379   3.759
 7433SOL     OW23197   6.670   5.467   1.160
 7433SOL    HW123198   6.575   5.434   1.153
 7433SOL    HW223199   6.706   5.481   1.068
 7434SOL     OW23200   2.916   1.876   6.863
 7434SOL    HW123201   2.991   1.885   6.798
 7434SOL    HW223202   2.937   1.930   6.945
 7435SOL     OW23203   3.395   6.809   6.278
 7435SOL    HW123204   3.433   6.794   6.370
 7435SOL    HW223205   3.342   6.729   6.251
 7436SOL     OW23206   5.916   3.189   7.003
 7436SOL    HW123207   5.998   3.137   7.028
 7436SOL    HW223208   5.856   3.196   0.053
 7437SOL     OW23209   0.037   5.099   6.126
 7437SOL    HW123210   7.004   5.170   6.093
 7437SOL    HW223211   0.116   5.141   6.170
 7438SOL     OW23212   0.849   4.275   2.118
 7438SOL    HW123213   0.843   4.177   2.140
 7438SOL    HW223214   0.943   4.297   2.092
 7439SOL     OW23215   2.320   0.236   3.852
 7439SOL    HW123216   2.346   0.323   3.810
 7439SOL    HW223217   2.364   0.229   3.942
 7440SOL     OW23218   1.304   3.296   4.656
 7440SOL    HW123219   1.207   3.321   4.653
 7440SOL    HW223220   1.353   3.364   4.712
 7441SOL     OW23221   4.701   1.091   3.687
 7441SOL    HW123222   4.693   0.992   3.704
 7441SOL    HW223223   4.646   1.115   3.607
 7442SOL     OW23224   1.053   1.480   6.618
 7442SOL    HW123225   1.044   1.452   6.522
 7442SOL    HW223226   0.978   1.441   6.671
 7443SOL     OW23227   6.888   1.746   0.759
 7443SOL    HW123228   6.820   1.691   0.806
 7443SOL    HW223229   6.899   1.713   0.665
 7444SOL     OW23230   6.722   3.190   6.360
 7444SOL    HW123231   6.696   3.095   6.379
 7444SOL    HW223232   6.648   3.251   6.389
 7445SOL     OW23233   4.933   1.766   1.544
 7445SOL    HW123234   4.920   1.734   1.450
 7445SOL    HW223235   4.845   1.764   1.591
 7446SOL     OW23236   6.321   4.166   0.091
 7446SOL    HW123237   6.296   4.094   0.028
 7446SOL    HW223238   6.311   4.133   0.185
 7447SOL     OW23239   1.967   4.392   0.230
 7447SOL    HW123240   2.056   4.412   0.270
 7447SOL    HW223241   1.978   4.358   0.137
 7448SOL     OW23242   5.516   6.960   5.842
 7448SOL    HW123243   5.452   6.934   5.914
 7448SOL    HW223244   5.524   0.030   5.838
 7449SOL     OW23245   4.686   2.383   2.121
 7449SOL    HW123246   4.602   2.397   2.173
 7449SOL    HW223247   4.760   2.357   2.184
 7450SOL     OW23248   4.799   2.840   3.019
 7450SOL    HW123249   4.841   2.923   2.982
 7450SOL    HW223250   4.849   2.810   3.100
 7451SOL     OW23251   1.514   0.923   4.656
 7451SOL    HW123252   1.592   0.943   4.598
 7451SOL    HW223253   1.521   0.974   4.742
 7452SOL     OW23254   1.775   0.732   5.314
 7452SOL    HW123255   1.831   0.779   5.246
 7452SOL    HW223256   1.795   0.635   5.313
 7453SOL     OW23257   6.040   6.527   4.971
 7453SOL    HW123258   5.953   6.576   4.969
 7453SOL    HW223259   6.095   6.558   5.049
 7454SOL     OW23260   0.658   3.741   0.965
 7454SOL    HW123261   0.659   3.663   0.903
 7454SOL    HW223262   0.601   3.814   0.927
 7455SOL     OW23263   5.533   2.058   0.735
 7455SOL    HW123264   5.475   2.109   0.798
 7455SOL    HW223265   5.496   2.063   0.643
 7456SOL     OW23266   1.525   3.042   4.756
 7456SOL    HW123267   1.483   3.027   4.667
 7456SOL    HW223268   1.466   3.101   4.811
 7457SOL     OW23269   5.702   0.897   5.559
 7457SOL    HW123270   5.700   0.883   5.658
 7457SOL    HW223271   5.725   0.810   5.514
 7458SOL     OW23272   2.750   6.674   0.185
 7458SOL    HW123273   2.703   6.696   0.270
 7458SOL    HW223274   2.809   6.750   0.158
 7459SOL     OW23275   4.789   0.176   5.810
 7459SOL    HW123276   4.771   0.258   5.863
 7459SOL    HW223277   4.856   0.119   5.857
 7460SOL     OW23278   2.400   4.599   1.020
 7460SOL    HW123279   2.335   4.557   0.957
 7460SOL    HW223280   2.372   4.579   1.114
 7461SOL     OW23281   5.294   1.121   6.370
 7461SOL    HW123282   5.322   1.025   6.374
 7461SOL    HW223283   5.370   1.180   6.397
 7462SOL     OW23284   2.373   2.163   1.638
 7462SOL    HW123285   2.287   2.113   1.625
 7462SOL    HW223286   2.354   2.259   1.657
 7463SOL     OW23287   3.476   2.973   1.385
 7463SOL    HW123288   3.424   2.892   1.357
 7463SOL    HW223289   3.557   2.982   1.327
 7464SOL     OW23290   3.539   6.011   0.465
 7464SOL    HW123291   3.513   6.082   0.400
 7464SOL    HW223292   3.477   5.933   0.455
 7465SOL     OW23293   1.835   0.158   1.178
 7465SOL    HW123294   1.738   0.180   1.181
 7465SOL    HW223295   1.870   0.177   1.086
 7466SOL     OW23296   0.401   0.576   6.550
 7466SOL    HW123297   0.446   0.659   6.583
 7466SOL    HW223298   0.469   0.517   6.506
 7467SOL     OW23299   6.832   2.243   1.177
 7467SOL    HW123300   6.759   2.208   1.120
 7467SOL    HW223301   6.897   2.170   1.198
 7468SOL     OW23302   4.741   2.513   2.447
 7468SOL    HW123303   4.722   2.593   2.391
 7468SOL    HW223304   4.821   2.465   2.411
 7469SOL     OW23305   1.143   6.708   6.288
 7469SOL    HW123306   1.192   6.677   6.207
 7469SOL    HW223307   1.199   6.775   6.337
 7470SOL     OW23308   0.315   2.300   2.839
 7470SOL    HW123309   0.273   2.229   2.895
 7470SOL    HW223310   0.243   2.359   2.800
 7471SOL     OW23311   6.485   6.588   4.738
 7471SOL    HW123312   6.541   6.589   4.655
 7471SOL    HW223313   6.432   6.503   4.741
 7472SOL     OW23314   4.061   7.010   4.375
 7472SOL    HW123315   4.108   6.928   4.406
 7472SOL    HW223316   4.022   0.029   4.454
 7473SOL     OW23317   0.757   3.752   4.129
 7473SOL    HW123318   0.820   3.829   4.115
 7473SOL    HW223319   0.730   3.748   4.225
 7474SOL     OW23320   3.133   0.857   3.809
 7474SOL    HW123321   3.054   0.905   3.847
 7474SOL    HW223322   3.217   0.905   3.835
 7475SOL     OW23323   4.971   0.423   2.154
 7475SOL    HW123324   4.920   0.348   2.195
 7475SOL    HW223325   5.010   0.394   2.067
 7476SOL     OW23326   4.625   6.313   4.855
 7476SOL    HW123327   4.670   6.393   4.895
 7476SOL    HW223328   4.632   6.319   4.755
 7477SOL     OW23329   4.435   0.550   4.315
 7477SOL    HW123330   4.453   0.546   4.413
 7477SOL    HW223331   4.501   0.610   4.272
 7478SOL     OW23332   3.042   3.606   6.375
 7478SOL    HW123333   3.026   3.696   6.416
 7478SOL    HW223334   3.114   3.612   6.306
 7479SOL     OW23335   3.895   1.344   0.452
 7479SOL    HW123336   3.928   1.255   0.484
 7479SOL    HW223337   3.970   1.410   0.451
 7480SOL     OW23338   6.076   5.453   1.491
 7480SOL    HW123339   6.043   5.523   1.427
 7480SOL    HW223340   6.031   5.465   1.579
 7481SOL     OW23341   5.505   5.248   0.830
 7481SOL    HW123342   5.604   5.247   0.841
 7481SOL    HW223343   5.463   5.294   0.909
 7482SOL     OW23344   3.643   0.836   1.577
 7482SOL    HW123345   3.552   0.851   1.616
 7482SOL    HW223346   3.707   0.901   1.617
 7483SOL     OW23347   3.714   1.809   4.242
 7483SOL    HW123348   3.692   1.821   4.339
 7483SOL    HW223349   3.812   1.796   4.232
 7484SOL     OW23350   0.915   6.428   1.491
 7484SOL    HW123351   0.862   6.343   1.488
 7484SOL    HW223352   0.913   6.466   1.583
 7485SOL     OW23353   2.962   6.715   5.891
 7485SOL    HW123354   2.878   6.691   5.844
 7485SOL    HW223355   3.036   6.653   5.862
 7486SOL     OW23356   3.003   0.006   5.051
 7486SOL    HW123357   3.089   7.026   5.002
 7486SOL    HW223358   3.017   0.064   5.132
 7487SOL     OW23359   2.357   6.877   2.827
 7487SOL    HW123360   2.385   6.793   2.780
 7487SOL    HW223361   2.425   6.900   2.897
 7488SOL     OW23362   2.632   6.949   5.389
 7488SOL    HW123363   2.727   6.930   5.414
 7488SOL    HW223364   2.576   6.951   5.471
 7489SOL     OW23365   4.787   2.345   4.750
 7489SOL    HW123366   4.818   2.432   4.712
 7489SOL    HW223367   4.732   2.297   4.682
 7490SOL     OW23368   6.898   0.874   0.829
 7490SOL    HW123369   6.813   0.830   0.858
 7490SOL    HW223370   6.943   0.818   0.760
 7491SOL     OW23371   0.469   5.522   6.120
 7491SOL    HW123372   0.430   5.456   6.185
 7491SOL    HW223373   0.506   5.600   6.171
 7492SOL     OW23374   2.086   2.173   5.593
 7492SOL    HW123375   2.030   2.170   5.676
 7492SOL    HW223376   2.031   2.142   5.515
 7493SOL     OW23377   6.320   4.844   6.029
 7493SOL    HW123378   6.288   4.800   6.113
 7493SOL    HW223379   6.242   4.862   5.969
 7494SOL     OW23380   5.405   1.003   2.168
 7494SOL    HW123381   5.356   1.081   2.208
 7494SOL    HW223382   5.503   1.017   2.178
 7495SOL     OW23383   1.826   1.535   1.122
 7495SOL    HW123384   1.868   1.603   1.183
 7495SOL    HW223385   1.779   1.581   1.048
 7496SOL     OW23386   1.656   4.889   6.060
 7496SOL    HW123387   1.602   4.934   5.989
 7496SOL    HW223388   1.631   4.926   6.150
 7497SOL     OW23389   2.777   5.263   2.058
 7497SOL    HW123390   2.769   5.202   1.979
 7497SOL    HW223391   2.866   5.310   2.055
 7498SOL     OW23392   2.861   0.826   4.331
 7498SOL    HW123393   2.833   0.893   4.400
 7498SOL    HW223394   2.785   0.766   4.311
 7499SOL     OW23395   6.005   0.027   3.906
 7499SOL    HW123396   5.915   0.006   3.868
 7499SOL    HW223397   6.064   0.063   3.833
 7500SOL     OW23398   3.909   5.761   2.307
 7500SOL    HW123399   3.888   5.669   2.340
 7500SOL    HW223400   4.008   5.775   2.310
 7501SOL     OW23401   0.775   3.853   3.471
 7501SOL    HW123402   0.834   3.907   3.410
 7501SOL    HW223403   0.832   3.803   3.536
 7502SOL     OW23404   1.819   1.315   5.573
 7502SOL    HW123405   1.720   1.323   5.580
 7502SOL    HW223406   1.848   1.228   5.613
 7503SOL     OW23407   2.735   0.585   6.139
 7503SOL    HW123408   2.827   0.557   6.166
 7503SOL    HW223409   2.728   0.586   6.040
 7504SOL     OW23410   3.993   6.589   3.768
 7504SOL    HW123411   3.967   6.506   3.718
 7504SOL    HW223412   4.013   6.565   3.863
 7505SOL     OW23413   2.575   1.141   4.941
 7505SOL    HW123414   2.630   1.216   4.979
 7505SOL    HW223415   2.632   1.060   4.929
 7506SOL     OW23416   3.783   0.564   2.577
 7506SOL    HW123417   3.847   0.489   2.596
 7506SOL    HW223418   3.784   0.629   2.653
 7507SOL     OW23419   0.434   6.745   6.547
 7507SOL    HW123420   0.473   6.746   6.455
 7507SOL    HW223421   0.507   6.753   6.614
 7508SOL     OW23422   5.793   6.457   2.380
 7508SOL    HW123423   5.785   6.552   2.351
 7508SOL    HW223424   5.768   6.450   2.477
 7509SOL     OW23425   5.073   4.378   0.605
 7509SOL    HW123426   5.020   4.293   0.605
 7509SOL    HW223427   5.047   4.433   0.525
 7510SOL     OW23428   3.133   4.097   4.509
 7510SOL    HW123429   3.055   4.149   4.545
 7510SOL    HW223430   3.127   4.094   4.409
 7511SOL     OW23431   1.525   0.564   2.341
 7511SOL    HW123432   1.580   0.481   2.355
 7511SOL    HW223433   1.436   0.553   2.385
 7512SOL     OW23434   2.751   3.897   1.521
 7512SOL    HW123435   2.725   3.924   1.429
 7512SOL    HW223436   2.851   3.888   1.526
 7513SOL     OW23437   1.735   2.638   6.700
 7513SOL    HW123438   1.667   2.672   6.765
 7513SOL    HW223439   1.794   2.571   6.745
 7514SOL     OW23440   2.933   6.308   1.912
 7514SOL    HW123441   2.888   6.362   1.984
 7514SOL    HW223442   3.008   6.256   1.952
 7515SOL     OW23443   0.825   0.236   2.833
 7515SOL    HW123444   0.741   0.261   2.785
 7515SOL    HW223445   0.804   0.218   2.930
 7516SOL     OW23446   6.726   6.262   4.393
 7516SOL    HW123447   6.635   6.300   4.406
 7516SOL    HW223448   6.768   6.245   4.482
 7517SOL     OW23449   6.742   3.642   1.506
 7517SOL    HW123450   6.751   3.671   1.601
 7517SOL    HW223451   6.787   3.708   1.446
 7518SOL     OW23452   3.910   5.814   3.476
 7518SOL    HW123453   3.859   5.736   3.513
 7518SOL    HW223454   3.957   5.861   3.551
 7519SOL     OW23455   0.962   6.593   4.223
 7519SOL    HW123456   0.913   6.630   4.302
 7519SOL    HW223457   1.052   6.560   4.253
 7520SOL     OW23458   1.897   0.579   2.598
 7520SOL    HW123459   1.977   0.599   2.656
 7520SOL    HW223460   1.894   0.644   2.523
 7521SOL     OW23461   4.417   4.629   5.479
 7521SOL    HW123462   4.498   4.647   5.536
 7521SOL    HW223463   4.344   4.593   5.535
 7522SOL     OW23464   2.528   1.069   6.746
 7522SOL    HW123465   2.440   1.084   6.702
 7522SOL    HW223466   2.516   1.057   6.844
 7523SOL     OW23467   6.214   0.010   5.345
 7523SOL    HW123468   6.142   0.033   5.279
 7523SOL    HW223469   6.195   0.055   5.432
 7524SOL     OW23470   0.063   1.884   6.361
 7524SOL    HW123471   0.132   1.846   6.300
 7524SOL    HW223472   0.091   1.871   6.456
 7525SOL     OW23473   2.105   6.889   0.013
 7525SOL    HW123474   2.016   6.847   7.024
 7525SOL    HW223475   2.095   6.988   0.014
 7526SOL     OW23476   2.988   3.303   4.011
 7526SOL    HW123477   2.921   3.292   4.084
 7526SOL    HW223478   3.080   3.307   4.049
 7527SOL     OW23479   5.115   4.391   2.099
 7527SOL    HW123480   5.077   4.461   2.159
 7527SOL    HW223481   5.213   4.380   2.119
 7528SOL     OW23482   4.402   2.519   0.333
 7528SOL    HW123483   4.370   2.466   0.254
 7528SOL    HW223484   4.428   2.611   0.303
 7529SOL     OW23485   4.948   1.258   3.482
 7529SOL    HW123486   5.017   1.188   3.501
 7529SOL    HW223487   4.857   1.217   3.485
 7530SOL     OW23488   6.986   3.304   2.329
 7530SOL    HW123489   6.994   3.283   2.427
 7530SOL    HW223490   6.906   3.257   2.292
 7531SOL     OW23491   4.226   1.973   3.991
 7531SOL    HW123492   4.134   1.939   3.970
 7531SOL    HW223493   4.221   2.071   4.011
 7532SOL     OW23494   5.432   5.354   1.781
 7532SOL    HW123495   5.446   5.388   1.687
 7532SOL    HW223496   5.402   5.429   1.839
 7533SOL     OW23497   1.684   1.363   3.206
 7533SOL    HW123498   1.601   1.412   3.181
 7533SOL    HW223499   1.709   1.301   3.131
 7534SOL     OW23500   3.815   6.206   5.002
 7534SOL    HW123501   3.854   6.183   4.913
 7534SOL    HW223502   3.766   6.293   4.996
 7535SOL     OW23503   2.311   1.800   5.762
 7535SOL    HW123504   2.297   1.794   5.861
 7535SOL    HW223505   2.225   1.777   5.715
 7536SOL     OW23506   4.734   5.115   5.024
 7536SOL    HW123507   4.713   5.167   5.107
 7536SOL    HW223508   4.811   5.054   5.042
 7537SOL     OW23509   1.860   4.322   4.953
 7537SOL    HW123510   1.915   4.327   5.036
 7537SOL    HW223511   1.859   4.412   4.909
 7538SOL     OW23512   3.251   3.264   2.553
 7538SOL    HW123513   3.286   3.257   2.647
 7538SOL    HW223514   3.210   3.177   2.527
 7539SOL     OW23515   2.362   2.724   4.991
 7539SOL    HW123516   2.353   2.820   5.020
 7539SOL    HW223517   2.317   2.665   5.057
 7540SOL     OW23518   3.325   0.714   6.629
 7540SOL    HW123519   3.420   0.745   6.626
 7540SOL    HW223520   3.290   0.723   6.722
 7541SOL     OW23521   6.578   3.315   5.536
 7541SOL    HW123522   6.602   3.401   5.580
 7541SOL    HW223523   6.639   3.298   5.458
 7542SOL     OW23524   1.260   6.898   6.000
 7542SOL    HW123525   1.255   6.848   5.914
 7542SOL    HW223526   1.264   6.833   6.076
 7543SOL     OW23527   4.109   1.887   0.620
 7543SOL    HW123528   4.090   1.940   0.703
 7543SOL    HW223529   4.146   1.798   0.645
 7544SOL     OW23530   0.118   2.477   3.068
 7544SOL    HW123531   0.175   2.467   3.149
 7544SOL    HW223532   0.083   2.570   3.063
 7545SOL     OW23533   4.453   6.517   2.953
 7545SOL    HW123534   4.488   6.432   2.914
 7545SOL    HW223535   4.411   6.572   2.880
 7546SOL     OW23536   4.634   0.960   6.940
 7546SOL    HW123537   4.699   1.014   6.994
 7546SOL    HW223538   4.591   0.892   6.998
 7547SOL     OW23539   4.031   0.216   0.370
 7547SOL    HW123540   4.034   0.149   0.444
 7547SOL    HW223541   4.011   0.169   0.284
 7548SOL     OW23542   1.828   1.726   0.666
 7548SOL    HW123543   1.825   1.786   0.587
 7548SOL    HW223544   1.924   1.704   0.688
 7549SOL     OW23545   5.835   1.880   2.347
 7549SOL    HW123546   5.780   1.918   2.421
 7549SOL    HW223547   5.801   1.789   2.323
 7550SOL     OW23548   2.147   5.985   2.326
 7550SOL    HW123549   2.177   6.055   2.390
 7550SOL    HW223550   2.192   5.898   2.348
 7551SOL     OW23551   4.706   3.831   0.083
 7551SOL    HW123552   4.673   3.910   0.031
 7551SOL    HW223553   4.775   3.782   0.030
 7552SOL     OW23554   2.891   5.762   4.139
 7552SOL    HW123555   2.837   5.828   4.087
 7552SOL    HW223556   2.919   5.687   4.078
 7553SOL     OW23557   3.859   4.841   5.639
 7553SOL    HW123558   3.768   4.803   5.658
 7553SOL    HW223559   3.849   4.930   5.595
 7554SOL     OW23560   4.637   2.456   0.476
 7554SOL    HW123561   4.640   2.430   0.573
 7554SOL    HW223562   4.543   2.480   0.452
 7555SOL     OW23563   0.659   5.552   5.453
 7555SOL    HW123564   0.587   5.609   5.492
 7555SOL    HW223565   0.624   5.460   5.436
 7556SOL     OW23566   0.744   3.217   5.511
 7556SOL    HW123567   0.651   3.195   5.481
 7556SOL    HW223568   0.809   3.171   5.451
 7557SOL     OW23569   5.275   3.968   6.150
 7557SOL    HW123570   5.373   3.959   6.129
 7557SOL    HW223571   5.234   3.877   6.156
 7558SOL     OW23572   2.209   2.242   3.958
 7558SOL    HW123573   2.285   2.288   3.911
 7558SOL    HW223574   2.239   2.210   4.048
 7559SOL     OW23575   6.192   5.338   1.261
 7559SOL    HW123576   6.187   5.363   1.358
 7559SOL    HW223577   6.144   5.252   1.246
 7560SOL     OW23578   5.030   6.948   0.195
 7560SOL    HW123579   5.012   6.855   0.163
 7560SOL    HW223580   5.052   7.007   0.117
 7561SOL     OW23581   0.592   3.850   0.520
 7561SOL    HW123582   0.517   3.853   0.454
 7561SOL    HW223583   0.679   3.861   0.471
 7562SOL     OW23584   5.681   6.154   4.521
 7562SOL    HW123585   5.767   6.104   4.516
 7562SOL    HW223586   5.667   6.206   4.436
 7563SOL     OW23587   3.026   0.257   1.465
 7563SOL    HW123588   3.123   0.281   1.473
 7563SOL    HW223589   3.013   0.163   1.494
 7564SOL     OW23590   5.030   0.831   3.134
 7564SOL    HW123591   5.017   0.734   3.111
 7564SOL    HW223592   5.126   0.855   3.120
 7565SOL     OW23593   4.590   4.783   6.531
 7565SOL    HW123594   4.687   4.774   6.509
 7565SOL    HW223595   4.564   4.710   6.594
 7566SOL     OW23596   0.746   5.028   4.005
 7566SOL    HW123597   0.840   5.023   4.039
 7566SOL    HW223598   0.716   4.938   3.976
 7567SOL     OW23599   2.122   3.816   5.844
 7567SOL    HW123600   2.187   3.877   5.888
 7567SOL    HW223601   2.159   3.723   5.844
 7568SOL     OW23602   5.395   5.317   4.099
 7568SOL    HW123603   5.463   5.287   4.033
 7568SOL    HW223604   5.368   5.239   4.157
 7569SOL     OW23605   4.426   6.065   6.539
 7569SOL    HW123606   4.424   6.010   6.455
 7569SOL    HW223607   4.347   6.126   6.541
 7570SOL     OW23608   5.335   4.395   5.234
 7570SOL    HW123609   5.265   4.324   5.225
 7570SOL    HW223610   5.325   4.461   5.160
 7571SOL     OW23611   5.131   4.059   1.912
 7571SOL    HW123612   5.033   4.066   1.931
 7571SOL    HW223613   5.182   4.084   1.995
 7572SOL     OW23614   4.750   0.439   4.373
 7572SOL    HW123615   4.696   0.365   4.333
 7572SOL    HW223616   4.757   0.424   4.472
 7573SOL     OW23617   5.976   5.979   4.215
 7573SOL    HW123618   5.969   5.912   4.289
 7573SOL    HW223619   5.885   6.006   4.186
 7574SOL     OW23620   5.817   1.442   3.927
 7574SOL    HW123621   5.787   1.457   4.021
 7574SOL    HW223622   5.777   1.513   3.868
 7575SOL     OW23623   4.574   0.953   5.915
 7575SOL    HW123624   4.546   0.869   5.962
 7575SOL    HW223625   4.495   0.993   5.869
 7576SOL     OW23626   5.706   5.305   0.181
 7576SOL    HW123627   5.717   5.269   0.274
 7576SOL    HW223628   5.792   5.297   0.131
 7577SOL     OW23629   6.594   6.984   4.873
 7577SOL    HW123630   6.581   0.013   4.793
 7577SOL    HW223631   6.687   6.994   4.907
 7578SOL     OW23632   1.776   6.492   4.039
 7578SOL    HW123633   1.692   6.493   4.093
 7578SOL    HW223634   1.850   6.531   4.093
 7579SOL     OW23635   4.432   2.422   2.227
 7579SOL    HW123636   4.365   2.351   2.249
 7579SOL    HW223637   4.446   2.481   2.306
 7580SOL     OW23638   1.185   3.852   3.247
 7580SOL    HW123639   1.144   3.775   3.198
 7580SOL    HW223640   1.261   3.819   3.303
 7581SOL     OW23641   4.606   1.755   0.384
 7581SOL    HW123642   4.642   1.834   0.433
 7581SOL    HW223643   4.675   1.722   0.319
 7582SOL     OW23644   3.620   1.805   0.734
 7582SOL    HW123645   3.570   1.828   0.650
 7582SOL    HW223646   3.693   1.740   0.713
 7583SOL     OW23647   6.141   3.875   1.911
 7583SOL    HW123648   6.063   3.934   1.932
 7583SOL    HW223649   6.198   3.919   1.841
 7584SOL     OW23650   2.517   6.901   0.972
 7584SOL    HW123651   2.568   6.821   1.006
 7584SOL    HW223652   2.511   6.970   1.044
 7585SOL     OW23653   1.238   4.156   6.204
 7585SOL    HW123654   1.308   4.205   6.151
 7585SOL    HW223655   1.165   4.125   6.143
 7586SOL     OW23656   2.575   0.519   2.603
 7586SOL    HW123657   2.640   0.461   2.553
 7586SOL    HW223658   2.588   0.506   2.701
 7587SOL     OW23659   2.198   1.747   6.848
 7587SOL    HW123660   2.289   1.716   6.819
 7587SOL    HW223661   2.138   1.753   6.768
 7588SOL     OW23662   0.676   4.590   2.018
 7588SOL    HW123663   0.599   4.616   2.076
 7588SOL    HW223664   0.762   4.606   2.067
 7589SOL     OW23665   6.053   5.926   0.568
 7589SOL    HW123666   6.139   5.975   0.551
 7589SOL    HW223667   6.001   5.919   0.484
 7590SOL     OW23668   2.635   1.444   5.298
 7590SOL    HW123669   2.604   1.522   5.353
 7590SOL    HW223670   2.662   1.369   5.358
 7591SOL     OW23671   0.247   5.465   0.263
 7591SOL    HW123672   0.253   5.372   0.225
 7591SOL    HW223673   0.152   5.486   0.283
 7592SOL     OW23674   6.980   5.142   0.010
 7592SOL    HW123675   7.011   5.220   6.984
 7592SOL    HW223676   0.005   5.061   7.016
 7593SOL     OW23677   5.992   2.530   6.948
 7593SOL    HW123678   6.055   2.607   6.941
 7593SOL    HW223679   6.020   2.459   6.883
 7594SOL     OW23680   0.879   5.161   2.418
 7594SOL    HW123681   0.873   5.071   2.376
 7594SOL    HW223682   0.969   5.201   2.399
 7595SOL     OW23683   0.143   2.813   6.652
 7595SOL    HW123684   0.204   2.735   6.637
 7595SOL    HW223685   0.125   2.858   6.565
 7596SOL     OW23686   5.128   5.124   2.511
 7596SOL    HW123687   5.184   5.204   2.490
 7596SOL    HW223688   5.049   5.152   2.565
 7597SOL     OW23689   3.291   5.960   1.781
 7597SOL    HW123690   3.310   6.042   1.834
 7597SOL    HW223691   3.255   5.986   1.691
 7598SOL     OW23692   6.211   0.576   2.619
 7598SOL    HW123693   6.229   0.527   2.533
 7598SOL    HW223694   6.266   0.537   2.692
 7599SOL     OW23695   5.543   1.133   3.748
 7599SOL    HW123696   5.597   1.162   3.827
 7599SOL    HW223697   5.451   1.172   3.755
 7600SOL     OW23698   1.308   0.756   2.203
 7600SOL    HW123699   1.361   0.840   2.191
 7600SOL    HW223700   1.359   0.679   2.164
 7601SOL     OW23701   1.709   5.655   3.659
 7601SOL    HW123702   1.735   5.726   3.593
 7601SOL    HW223703   1.784   5.589   3.668
 7602SOL     OW23704   2.236   4.228   4.641
 7602SOL    HW123705   2.156   4.287   4.632
 7602SOL    HW223706   2.217   4.140   4.598
 7603SOL     OW23707   1.385   6.605   6.450
 7603SOL    HW123708   1.375   6.704   6.458
 7603SOL    HW223709   1.318   6.559   6.510
 7604SOL     OW23710   2.803   5.946   3.962
 7604SOL    HW123711   2.853   5.974   3.880
 7604SOL    HW223712   2.706   5.968   3.952
 7605SOL     OW23713   1.552   5.813   7.021
 7605SOL    HW123714   1.465   5.827   0.037
 7605SOL    HW223715   1.622   5.868   0.036
 7606SOL     OW23716   0.277   2.852   1.812
 7606SOL    HW123717   0.199   2.835   1.873
 7606SOL    HW223718   0.362   2.841   1.864
 7607SOL     OW23719   4.018   0.237   6.728
 7607SOL    HW123720   4.017   0.156   6.787
 7607SOL    HW223721   4.111   0.253   6.695
 7608SOL     OW23722   3.577   4.137   3.736
 7608SOL    HW123723   3.657   4.146   3.795
 7608SOL    HW223724   3.494   4.128   3.791
 7609SOL     OW23725   6.986   3.427   3.309
 7609SOL    HW123726   6.994   3.330   3.330
 7609SOL    HW223727   6.917   3.468   3.369
 7610SOL     OW23728   6.349   0.775   0.832
 7610SOL    HW123729   6.387   0.839   0.765
 7610SOL    HW223730   6.317   0.825   0.912
 7611SOL     OW23731   0.739   2.059   0.508
 7611SOL    HW123732   0.741   1.974   0.456
 7611SOL    HW223733   0.653   2.065   0.560
 7612SOL     OW23734   4.051   1.887   4.456
 7612SOL    HW123735   3.984   1.902   4.383
 7612SOL    HW223736   4.076   1.975   4.496
 7613SOL     OW23737   4.803   2.128   1.730
 7613SOL    HW123738   4.773   2.033   1.733
 7613SOL    HW223739   4.723   2.189   1.733
 7614SOL     OW23740   3.972   2.591   1.686
 7614SOL    HW123741   4.064   2.620   1.710
 7614SOL    HW223742   3.961   2.493   1.705
 7615SOL     OW23743   5.417   4.900   6.758
 7615SOL    HW123744   5.320   4.874   6.756
 7615SOL    HW223745   5.461   4.873   6.672
 7616SOL     OW23746   1.110   4.301   4.456
 7616SOL    HW123747   1.083   4.374   4.519
 7616SOL    HW223748   1.095   4.212   4.500
 7617SOL     OW23749   2.816   5.710   3.438
 7617SOL    HW123750   2.731   5.659   3.427
 7617SOL    HW223751   2.824   5.778   3.366
 7618SOL     OW23752   1.318   2.120   6.420
 7618SOL    HW123753   1.344   2.026   6.438
 7618SOL    HW223754   1.219   2.131   6.436
 7619SOL     OW23755   5.547   3.330   5.360
 7619SOL    HW123756   5.503   3.336   5.270
 7619SOL    HW223757   5.506   3.399   5.421
 7620SOL     OW23758   3.921   6.680   1.013
 7620SOL    HW123759   3.870   6.654   0.930
 7620SOL    HW223760   3.866   6.658   1.094
 7621SOL     OW23761   1.162   1.284   0.490
 7621SOL    HW123762   1.208   1.200   0.459
 7621SOL    HW223763   1.100   1.317   0.419
 7622SOL     OW23764   5.674   3.159   2.069
 7622SOL    HW123765   5.598   3.115   2.020
 7622SOL    HW223766   5.637   3.216   2.143
 7623SOL     OW23767   4.726   5.077   6.345
 7623SOL    HW123768   4.775   5.023   6.277
 7623SOL    HW223769   4.674   5.017   6.405
 7624SOL     OW23770   0.537   2.369   4.164
 7624SOL    HW123771   0.572   2.457   4.131
 7624SOL    HW223772   0.603   2.296   4.141
 7625SOL     OW23773   4.993   0.906   0.756
 7625SOL    HW123774   4.988   0.968   0.678
 7625SOL    HW223775   5.084   0.910   0.796
 7626SOL     OW23776   0.405   6.721   5.280
 7626SOL    HW123777   0.500   6.742   5.301
 7626SOL    HW223778   0.392   6.719   5.181
 7627SOL     OW23779   6.115   3.075   0.517
 7627SOL    HW123780   6.176   3.038   0.588
 7627SOL    HW223781   6.023   3.038   0.529
 7628SOL     OW23782   3.314   1.005   1.161
 7628SOL    HW123783   3.299   1.028   1.257
 7628SOL    HW223784   3.343   1.086   1.111
 7629SOL     OW23785   6.249   6.781   2.491
 7629SOL    HW123786   6.327   6.761   2.550
 7629SOL    HW223787   6.180   6.709   2.502
 7630SOL     OW23788   5.876   6.425   2.066
 7630SOL    HW123789   5.967   6.446   2.031
 7630SOL    HW223790   5.883   6.397   2.162
 7631SOL     OW23791   1.152   1.869   5.655
 7631SOL    HW123792   1.163   1.914   5.567
 7631SOL    HW223793   1.186   1.775   5.650
 7632SOL     OW23794   3.706   2.079   1.422
 7632SOL    HW123795   3.652   2.062   1.339
 7632SOL    HW223796   3.792   2.027   1.416
 7633SOL     OW23797   5.459   2.661   0.305
 7633SOL    HW123798   5.407   2.715   0.239
 7633SOL    HW223799   5.543   2.628   0.262
 7634SOL     OW23800   1.023   1.659   2.292
 7634SOL    HW123801   1.068   1.672   2.380
 7634SOL    HW223802   0.926   1.681   2.301
 7635SOL     OW23803   2.515   5.416   5.159
 7635SOL    HW123804   2.601   5.414   5.107
 7635SOL    HW223805   2.501   5.328   5.202
 7636SOL     OW23806   1.288   1.596   3.792
 7636SOL    HW123807   1.382   1.592   3.757
 7636SOL    HW223808   1.257   1.690   3.791
 7637SOL     OW23809   2.007   6.349   3.002
 7637SOL    HW123810   2.056   6.304   2.927
 7637SOL    HW223811   2.014   6.448   2.992
 7638SOL     OW23812   5.521   5.241   1.496
 7638SOL    HW123813   5.424   5.255   1.516
 7638SOL    HW223814   5.541   5.143   1.492
 7639SOL     OW23815   1.498   1.952   6.839
 7639SOL    HW123816   1.504   1.920   6.744
 7639SOL    HW223817   1.569   1.909   6.893
 7640SOL     OW23818   2.532   2.014   0.085
 7640SOL    HW123819   2.487   1.999   7.026
 7640SOL    HW223820   2.589   2.096   0.079
 7641SOL     OW23821   1.017   4.448   1.831
 7641SOL    HW123822   1.002   4.427   1.927
 7641SOL    HW223823   0.951   4.516   1.800
 7642SOL     OW23824   2.577   2.115   3.339
 7642SOL    HW123825   2.502   2.150   3.282
 7642SOL    HW223826   2.541   2.087   3.428
 7643SOL     OW23827   5.000   2.509   3.448
 7643SOL    HW123828   4.974   2.581   3.512
 7643SOL    HW223829   4.918   2.464   3.413
 7644SOL     OW23830   6.501   2.476   2.400
 7644SOL    HW123831   6.516   2.505   2.495
 7644SOL    HW223832   6.403   2.474   2.382
 7645SOL     OW23833   4.819   4.980   6.117
 7645SOL    HW123834   4.913   5.008   6.136
 7645SOL    HW223835   4.799   4.992   6.020
 7646SOL     OW23836   1.958   1.972   2.303
 7646SOL    HW123837   1.999   2.013   2.385
 7646SOL    HW223838   1.995   1.880   2.289
 7647SOL     OW23839   1.096   3.456   1.046
 7647SOL    HW123840   1.017   3.510   1.074
 7647SOL    HW223841   1.146   3.424   1.126
 7648SOL     OW23842   4.224   2.257   3.804
 7648SOL    HW123843   4.135   2.221   3.831
 7648SOL    HW223844   4.221   2.285   3.708
 7649SOL     OW23845   0.853   0.731   2.552
 7649SOL    HW123846   0.951   0.727   2.533
 7649SOL    HW223847   0.812   0.807   2.501
 7650SOL     OW23848   6.219   3.164   1.989
 7650SOL    HW123849   6.129   3.121   1.987
 7650SOL    HW223850   6.276   3.120   2.057
 7651SOL     OW23851   2.287   6.985   6.312
 7651SOL    HW123852   2.282   0.039   6.369
 7651SOL    HW223853   2.211   6.985   6.247
 7652SOL     OW23854   0.020   3.548   4.292
 7652SOL    HW123855   7.024   3.625   4.234
 7652SOL    HW223856   7.000   3.554   4.379
 7653SOL     OW23857   2.071   1.220   1.029
 7653SOL    HW123858   2.095   1.124   1.011
 7653SOL    HW223859   1.972   1.232   1.022
 7654SOL     OW23860   5.106   2.763   3.082
 7654SOL    HW123861   5.086   2.824   3.159
 7654SOL    HW223862   5.205   2.751   3.073
 7655SOL     OW23863   3.710   0.268   3.968
 7655SOL    HW123864   3.727   0.351   4.020
 7655SOL    HW223865   3.797   0.228   3.938
 7656SOL     OW23866   1.044   6.047   5.894
 7656SOL    HW123867   1.119   6.057   5.959
 7656SOL    HW223868   0.991   5.966   5.917
 7657SOL     OW23869   3.080   2.222   3.175
 7657SOL    HW123870   2.997   2.203   3.123
 7657SOL    HW223871   3.080   2.318   3.204
 7658SOL     OW23872   4.347   6.789   5.805
 7658SOL    HW123873   4.343   6.889   5.801
 7658SOL    HW223874   4.377   6.760   5.895
 7659SOL     OW23875   5.624   6.742   6.780
 7659SOL    HW123876   5.680   6.821   6.806
 7659SOL    HW223877   5.645   6.716   6.686
 7660SOL     OW23878   6.340   5.833   4.504
 7660SOL    HW123879   6.374   5.926   4.500
 7660SOL    HW223880   6.407   5.771   4.464
 7661SOL     OW23881   5.874   1.845   3.980
 7661SOL    HW123882   5.888   1.878   4.073
 7661SOL    HW223883   5.934   1.896   3.917
 7662SOL     OW23884   1.380   2.256   2.307
 7662SOL    HW123885   1.349   2.171   2.265
 7662SOL    HW223886   1.376   2.330   2.239
 7663SOL     OW23887   6.484   6.089   6.232
 7663SOL    HW123888   6.417   6.097   6.158
 7663SOL    HW223889   6.475   6.167   6.294
 7664SOL     OW23890   3.015   6.766   2.865
 7664SOL    HW123891   3.083   6.794   2.933
 7664SOL    HW223892   3.060   6.716   2.791
 7665SOL     OW23893   3.631   0.234   3.466
 7665SOL    HW123894   3.688   0.286   3.530
 7665SOL    HW223895   3.608   0.291   3.388
 7666SOL     OW23896   7.008   6.784   1.397
 7666SOL    HW123897   6.993   6.841   1.478
 7666SOL    HW223898   0.075   6.788   1.370
 7667SOL     OW23899   5.411   5.747   0.560
 7667SOL    HW123900   5.359   5.785   0.484
 7667SOL    HW223901   5.421   5.816   0.632
 7668SOL     OW23902   2.982   4.206   1.108
 7668SOL    HW123903   2.900   4.170   1.153
 7668SOL    HW223904   3.055   4.217   1.176
 7669SOL     OW23905   5.265   1.564   4.941
 7669SOL    HW123906   5.192   1.631   4.931
 7669SOL    HW223907   5.347   1.596   4.893
 7670SOL     OW23908   1.461   5.753   6.483
 7670SOL    HW123909   1.437   5.754   6.580
 7670SOL    HW223910   1.465   5.659   6.450
 7671SOL     OW23911   4.063   1.015   4.290
 7671SOL    HW123912   4.123   0.997   4.368
 7671SOL    HW223913   4.114   1.007   4.205
 7672SOL     OW23914   5.812   6.778   3.664
 7672SOL    HW123915   5.789   6.818   3.575
 7672SOL    HW223916   5.796   6.679   3.661
 7673SOL     OW23917   2.222   4.864   0.484
 7673SOL    HW123918   2.285   4.933   0.517
 7673SOL    HW223919   2.250   4.774   0.518
 7674SOL     OW23920   6.707   2.203   4.282
 7674SOL    HW123921   6.670   2.292   4.311
 7674SOL    HW223922   6.741   2.210   4.188
 7675SOL     OW23923   5.178   0.881   2.567
 7675SOL    HW123924   5.235   0.923   2.637
 7675SOL    HW223925   5.090   0.854   2.606
 7676SOL     OW23926   0.520   1.960   0.643
 7676SOL    HW123927   0.538   1.868   0.677
 7676SOL    HW223928   0.559   2.027   0.705
 7677SOL     OW23929   1.686   3.183   1.830
 7677SOL    HW123930   1.719   3.158   1.739
 7677SOL    HW223931   1.689   3.103   1.890
 7678SOL     OW23932   1.539   1.129   6.419
 7678SOL    HW123933   1.563   1.032   6.411
 7678SOL    HW223934   1.620   1.184   6.398
 7679SOL     OW23935   1.232   6.264   4.923
 7679SOL    HW123936   1.325   6.282   4.956
 7679SOL    HW223937   1.176   6.346   4.936
 7680SOL     OW23938   2.045   3.247   6.952
 7680SOL    HW123939   2.034   3.179   6.879
 7680SOL    HW223940   2.123   3.222   7.010
 7681SOL     OW23941   3.267   0.323   0.174
 7681SOL    HW123942   3.325   0.263   0.119
 7681SOL    HW223943   3.288   0.309   0.271
 7682SOL     OW23944   2.493   0.215   1.850
 7682SOL    HW123945   2.446   0.129   1.830
 7682SOL    HW223946   2.536   0.249   1.767
 7683SOL     OW23947   6.896   2.228   3.487
 7683SOL    HW123948   6.896   2.318   3.443
 7683SOL    HW223949   6.990   2.195   3.493
 7684SOL     OW23950   5.889   2.247   6.928
 7684SOL    HW123951   5.824   2.278   6.859
 7684SOL    HW223952   5.862   2.282   7.018
 7685SOL     OW23953   3.796   2.756   7.021
 7685SOL    HW123954   3.808   2.787   0.086
 7685SOL    HW223955   3.837   2.823   6.959
 7686SOL     OW23956   4.526   0.166   3.284
 7686SOL    HW123957   4.493   0.175   3.190
 7686SOL    HW223958   4.452   0.132   3.342
 7687SOL     OW23959   5.585   5.809   5.415
 7687SOL    HW123960   5.514   5.875   5.440
 7687SOL    HW223961   5.598   5.809   5.316
 7688SOL     OW23962   6.878   0.205   6.344
 7688SOL    HW123963   6.894   0.124   6.399
 7688SOL    HW223964   6.942   0.277   6.370
 7689SOL     OW23965   5.298   5.864   3.662
 7689SOL    HW123966   5.348   5.847   3.747
 7689SOL    HW223967   5.204   5.891   3.684
 7690SOL     OW23968   5.905   5.457   2.313
 7690SOL    HW123969   5.989   5.508   2.296
 7690SOL    HW223970   5.901   5.379   2.251
 7691SOL     OW23971   4.797   2.862   4.259
 7691SOL    HW123972   4.735   2.794   4.220
 7691SOL    HW223973   4.855   2.900   4.187
 7692SOL     OW23974   0.578   7.006   1.212
 7692SOL    HW123975   0.494   0.012   1.253
 7692SOL    HW223976   0.623   6.944   1.276
 7693SOL     OW23977   4.266   0.865   0.221
 7693SOL    HW123978   4.308   0.854   0.311
 7693SOL    HW223979   4.168   0.851   0.228
 7694SOL     OW23980   1.133   4.573   4.271
 7694SOL    HW123981   1.154   4.479   4.244
 7694SOL    HW223982   1.181   4.637   4.211
 7695SOL     OW23983   4.094   0.268   1.057
 7695SOL    HW123984   4.148   0.209   0.996
 7695SOL    HW223985   4.095   0.361   1.022
 7696SOL     OW23986   6.732   1.927   4.446
 7696SOL    HW123987   6.730   2.016   4.402
 7696SOL    HW223988   6.818   1.881   4.425
 7697SOL     OW23989   2.486   0.976   3.040
 7697SOL    HW123990   2.553   0.925   2.986
 7697SOL    HW223991   2.527   1.061   3.072
 7698SOL     OW23992   0.251   2.867   4.624
 7698SOL    HW123993   0.216   2.827   4.540
 7698SOL    HW223994   0.344   2.901   4.609
 7699SOL     OW23995   3.105   5.418   6.893
 7699SOL    HW123996   3.165   5.360   6.838
 7699SOL    HW223997   3.121   5.514   6.870
 7700SOL     OW23998   5.063   6.853   5.526
 7700SOL    HW123999   5.139   6.888   5.581
 7700SOL    HW224000   5.092   6.846   5.430
 7701SOL     OW24001   5.958   1.417   6.854
 7701SOL    HW124002   5.974   1.470   6.770
 7701SOL    HW224003   6.046   1.395   6.896
 7702SOL     OW24004   3.623   5.786   6.021
 7702SOL    HW124005   3.601   5.793   5.923
 7702SOL    HW224006   3.679   5.865   6.047
 7703SOL     OW24007   6.386   1.277   4.927
 7703SOL    HW124008   6.400   1.353   4.863
 7703SOL    HW224009   6.432   1.195   4.892
 7704SOL     OW24010   4.219   5.097   5.473
 7704SOL    HW124011   4.169   5.026   5.522
 7704SOL    HW224012   4.165   5.128   5.394
 7705SOL     OW24013   3.331   4.580   5.576
 7705SOL    HW124014   3.382   4.594   5.491
 7705SOL    HW224015   3.233   4.572   5.555
 7706SOL     OW24016   5.431   0.812   5.767
 7706SOL    HW124017   5.433   0.909   5.743
 7706SOL    HW224018   5.519   0.786   5.806
 7707SOL     OW24019   0.117   5.840   6.723
 7707SOL    HW124020   0.056   5.817   6.799
 7707SOL    HW224021   0.158   5.930   6.739
 7708SOL     OW24022   4.916   6.150   4.752
 7708SOL    HW124023   4.954   6.178   4.664
 7708SOL    HW224024   4.893   6.053   4.749
 7709SOL     OW24025   5.592   3.317   2.266
 7709SOL    HW124026   5.526   3.253   2.304
 7709SOL    HW224027   5.611   3.390   2.332
 7710SOL     OW24028   1.966   0.661   1.372
 7710SOL    HW124029   2.001   0.737   1.317
 7710SOL    HW224030   1.867   0.654   1.359
 7711SOL     OW24031   6.298   6.033   4.770
 7711SOL    HW124032   6.372   5.967   4.760
 7711SOL    HW224033   6.332   6.116   4.813
 7712SOL     OW24034   6.639   4.800   1.316
 7712SOL    HW124035   6.629   4.878   1.253
 7712SOL    HW224036   6.736   4.778   1.326
 7713SOL     OW24037   2.103   4.078   0.913
 7713SOL    HW124038   2.170   4.122   0.973
 7713SOL    HW224039   2.069   3.994   0.956
 7714SOL     OW24040   6.734   5.249   4.746
 7714SOL    HW124041   6.794   5.169   4.748
 7714SOL    HW224042   6.783   5.327   4.706
 7715SOL     OW24043   4.944   1.351   1.468
 7715SOL    HW124044   5.013   1.423   1.473
 7715SOL    HW224045   4.989   1.263   1.456
 7716SOL     OW24046   5.278   3.269   3.288
 7716SOL    HW124047   5.241   3.321   3.366
 7716SOL    HW224048   5.298   3.176   3.317
 7717SOL     OW24049   2.830   1.513   4.761
 7717SOL    HW124050   2.830   1.588   4.827
 7717SOL    HW224051   2.883   1.540   4.680
 7718SOL     OW24052   1.677   2.067   3.824
 7718SOL    HW124053   1.656   2.141   3.761
 7718SOL    HW224054   1.738   2.001   3.779
 7719SOL     OW24055   7.003   3.398   3.973
 7719SOL    HW124056   0.037   3.365   4.043
 7719SOL    HW224057   7.013   3.343   3.891
 7720SOL     OW24058   0.098   6.774   0.636
 7720SOL    HW124059   0.039   6.852   0.657
 7720SOL    HW224060   0.147   6.746   0.719
 7721SOL     OW24061   2.060   4.004   2.797
 7721SOL    HW124062   2.046   3.925   2.736
 7721SOL    HW224063   1.974   4.026   2.843
 7722SOL     OW24064   0.179   5.393   2.376
 7722SOL    HW124065   0.138   5.310   2.413
 7722SOL    HW224066   0.173   5.391   2.276
 7723SOL     OW24067   6.835   4.048   0.684
 7723SOL    HW124068   6.831   3.955   0.647
 7723SOL    HW224069   6.891   4.105   0.624
 7724SOL     OW24070   2.241   4.681   2.136
 7724SOL    HW124071   2.257   4.739   2.215
 7724SOL    HW224072   2.171   4.722   2.077
 7725SOL     OW24073   5.136   2.503   3.221
 7725SOL    HW124074   5.083   2.502   3.306
 7725SOL    HW224075   5.108   2.580   3.164
 7726SOL     OW24076   0.016   4.735   4.163
 7726SOL    HW124077   6.983   4.686   4.103
 7726SOL    HW224078   0.065   4.805   4.111
 7727SOL     OW24079   5.874   2.095   3.333
 7727SOL    HW124080   5.873   2.120   3.430
 7727SOL    HW224081   5.821   2.012   3.320
 7728SOL     OW24082   1.401   3.690   3.049
 7728SOL    HW124083   1.397   3.624   2.974
 7728SOL    HW224084   1.347   3.771   3.026
 7729SOL     OW24085   6.098   2.411   1.724
 7729SOL    HW124086   6.167   2.454   1.783
 7729SOL    HW224087   6.010   2.410   1.772
 7730SOL     OW24088   6.132   5.934   2.517
 7730SOL    HW124089   6.124   5.869   2.593
 7730SOL    HW224090   6.049   5.930   2.462
 7731SOL     OW24091   5.821   1.226   1.150
 7731SOL    HW124092   5.753   1.284   1.194
 7731SOL    HW224093   5.884   1.283   1.096
 7732SOL     OW24094   4.485   6.184   0.594
 7732SOL    HW124095   4.517   6.093   0.569
 7732SOL    HW224096   4.523   6.210   0.682
 7733SOL     OW24097   4.602   6.521   1.638
 7733SOL    HW124098   4.627   6.469   1.557
 7733SOL    HW224099   4.653   6.488   1.717
 7734SOL     OW24100   1.663   3.778   3.067
 7734SOL    HW124101   1.678   3.876   3.053
 7734SOL    HW224102   1.569   3.754   3.044
 7735SOL     OW24103   4.196   4.742   6.844
 7735SOL    HW124104   4.167   4.782   6.757
 7735SOL    HW224105   4.147   4.656   6.858
 7736SOL     OW24106   5.361   4.336   0.641
 7736SOL    HW124107   5.388   4.257   0.696
 7736SOL    HW224108   5.268   4.323   0.608
 7737SOL     OW24109   4.557   1.399   0.733
 7737SOL    HW124110   4.543   1.467   0.661
 7737SOL    HW224111   4.472   1.348   0.747
 7738SOL     OW24112   2.203   5.987   0.295
 7738SOL    HW124113   2.281   5.947   0.247
 7738SOL    HW224114   2.183   5.934   0.377
 7739SOL     OW24115   0.181   1.855   1.448
 7739SOL    HW124116   0.217   1.765   1.422
 7739SOL    HW224117   0.103   1.843   1.510
 7740SOL     OW24118   0.283   0.338   2.763
 7740SOL    HW124119   0.276   0.268   2.833
 7740SOL    HW224120   0.253   0.300   2.675
 7741SOL     OW24121   1.468   5.573   4.776
 7741SOL    HW124122   1.457   5.602   4.871
 7741SOL    HW224123   1.513   5.646   4.724
 7742SOL     OW24124   6.360   1.883   3.592
 7742SOL    HW124125   6.351   1.930   3.504
 7742SOL    HW224126   6.273   1.842   3.617
 7743SOL     OW24127   4.627   3.308   6.068
 7743SOL    HW124128   4.614   3.369   6.146
 7743SOL    HW224129   4.710   3.335   6.018
 7744SOL     OW24130   0.092   6.149   3.940
 7744SOL    HW124131   7.029   6.171   3.972
 7744SOL    HW224132   0.130   6.227   3.890
 7745SOL     OW24133   3.593   2.392   5.996
 7745SOL    HW124134   3.646   2.455   5.939
 7745SOL    HW224135   3.571   2.437   6.083
 7746SOL     OW24136   2.342   0.124   0.089
 7746SOL    HW124137   2.387   0.133   0.178
 7746SOL    HW224138   2.243   0.128   0.102
 7747SOL     OW24139   5.152   6.523   0.859
 7747SOL    HW124140   5.066   6.572   0.868
 7747SOL    HW224141   5.155   6.448   0.926
 7748SOL     OW24142   3.353   4.070   5.483
 7748SOL    HW124143   3.300   4.030   5.408
 7748SOL    HW224144   3.394   3.997   5.538
 7749SOL     OW24145   4.479   3.349   5.802
 7749SOL    HW124146   4.413   3.292   5.753
 7749SOL    HW224147   4.518   3.298   5.878
 7750SOL     OW24148   0.552   6.191   1.107
 7750SOL    HW124149   0.633   6.158   1.060
 7750SOL    HW224150   0.568   6.193   1.205
 7751SOL     OW24151   1.660   1.499   2.190
 7751SOL    HW124152   1.614   1.571   2.241
 7751SOL    HW224153   1.599   1.463   2.119
 7752SOL     OW24154   4.688   0.402   4.644
 7752SOL    HW124155   4.725   0.310   4.629
 7752SOL    HW224156   4.638   0.404   4.730
 7753SOL     OW24157   2.016   1.451   4.529
 7753SOL    HW124158   2.090   1.385   4.538
 7753SOL    HW224159   1.989   1.458   4.433
 7754SOL     OW24160   3.831   6.281   1.557
 7754SOL    HW124161   3.889   6.250   1.483
 7754SOL    HW224162   3.735   6.282   1.526
 7755SOL     OW24163   1.442   4.054   6.387
 7755SOL    HW124164   1.359   4.069   6.334
 7755SOL    HW224165   1.518   4.103   6.345
 7756SOL     OW24166   2.410   6.019   0.952
 7756SOL    HW124167   2.378   5.939   0.900
 7756SOL    HW224168   2.457   5.988   1.035
 7757SOL     OW24169   6.826   4.624   1.546
 7757SOL    HW124170   6.904   4.562   1.537
 7757SOL    HW224171   6.854   4.717   1.523
 7758SOL     OW24172   1.629   0.861   6.452
 7758SOL    HW124173   1.640   0.804   6.371
 7758SOL    HW224174   1.706   0.846   6.514
 7759SOL     OW24175   2.465   2.383   5.704
 7759SOL    HW124176   2.394   2.391   5.635
 7759SOL    HW224177   2.457   2.296   5.751
 7760SOL     OW24178   4.554   1.835   2.113
 7760SOL    HW124179   4.637   1.797   2.071
 7760SOL    HW224180   4.536   1.926   2.074
 7761SOL     OW24181   5.500   4.995   4.142
 7761SOL    HW124182   5.575   4.998   4.076
 7761SOL    HW224183   5.419   4.955   4.098
 7762SOL     OW24184   0.452   0.295   4.023
 7762SOL    HW124185   0.523   0.311   3.954
 7762SOL    HW224186   0.377   0.359   4.008
 7763SOL     OW24187   2.347   0.398   5.230
 7763SOL    HW124188   2.358   0.371   5.135
 7763SOL    HW224189   2.250   0.404   5.252
 7764SOL     OW24190   3.225   3.899   5.289
 7764SOL    HW124191   3.230   3.952   5.205
 7764SOL    HW224192   3.145   3.839   5.286
 7765SOL     OW24193   6.842   3.302   4.486
 7765SOL    HW124194   6.844   3.233   4.559
 7765SOL    HW224195   6.911   3.371   4.504
 7766SOL     OW24196   0.622   4.340   0.168
 7766SOL    HW124197   0.620   4.292   0.256
 7766SOL    HW224198   0.708   4.391   0.160
 7767SOL     OW24199   4.044   0.197   2.056
 7767SOL    HW124200   3.951   0.167   2.077
 7767SOL    HW224201   4.041   0.282   2.004
 7768SOL     OW24202   4.510   4.636   2.901
 7768SOL    HW124203   4.487   4.718   2.955
 7768SOL    HW224204   4.518   4.661   2.805
 7769SOL     OW24205   3.622   2.234   5.274
 7769SOL    HW124206   3.527   2.206   5.260
 7769SOL    HW224207   3.681   2.185   5.210
 7770SOL     OW24208   1.221   3.064   4.917
 7770SOL    HW124209   1.303   3.066   4.975
 7770SOL    HW224210   1.167   3.146   4.933
 7771SOL     OW24211   3.240   2.625   6.211
 7771SOL    HW124212   3.199   2.580   6.132
 7771SOL    HW224213   3.205   2.719   6.218
 7772SOL     OW24214   5.091   0.981   1.161
 7772SOL    HW124215   5.071   0.885   1.179
 7772SOL    HW224216   5.027   1.039   1.212
 7773SOL     OW24217   3.389   6.093   6.969
 7773SOL    HW124218   3.405   6.154   6.892
 7773SOL    HW224219   3.475   6.050   6.995
 7774SOL     OW24220   5.074   2.265   3.129
 7774SOL    HW124221   5.126   2.187   3.163
 7774SOL    HW224222   5.124   2.350   3.151
 7775SOL     OW24223   3.944   0.800   0.013
 7775SOL    HW124224   3.959   0.815   0.111
 7775SOL    HW224225   3.994   0.718   7.013
 7776SOL     OW24226   0.629   6.680   5.454
 7776SOL    HW124227   0.697   6.607   5.444
 7776SOL    HW224228   0.578   6.667   5.538
 7777SOL     OW24229   5.942   4.855   4.039
 7777SOL    HW124230   5.897   4.781   4.088
 7777SOL    HW224231   5.874   4.922   4.010
 7778SOL     OW24232   6.224   3.690   3.049
 7778SOL    HW124233   6.295   3.723   2.988
 7778SOL    HW224234   6.259   3.615   3.105
 7779SOL     OW24235   3.296   6.148   2.397
 7779SOL    HW124236   3.251   6.205   2.465
 7779SOL    HW224237   3.344   6.073   2.442
 7780SOL     OW24238   6.801   5.324   5.818
 7780SOL    HW124239   6.793   5.402   5.756
 7780SOL    HW224240   6.845   5.248   5.771
 7781SOL     OW24241   1.879   2.657   0.322
 7781SOL    HW124242   1.913   2.637   0.414
 7781SOL    HW224243   1.914   2.746   0.293
 7782SOL     OW24244   6.556   4.711   3.229
 7782SOL    HW124245   6.487   4.640   3.247
 7782SOL    HW224246   6.648   4.671   3.236
 7783SOL     OW24247   1.067   6.994   5.612
 7783SOL    HW124248   1.083   0.057   5.575
 7783SOL    HW224249   0.977   6.962   5.582
 7784SOL     OW24250   2.814   2.028   2.373
 7784SOL    HW124251   2.766   2.100   2.324
 7784SOL    HW224252   2.912   2.051   2.378
 7785SOL     OW24253   1.826   6.316   2.256
 7785SOL    HW124254   1.879   6.276   2.331
 7785SOL    HW224255   1.733   6.333   2.287
 7786SOL     OW24256   4.532   0.861   6.710
 7786SOL    HW124257   4.564   0.923   6.781
 7786SOL    HW224258   4.503   0.775   6.752
 7787SOL     OW24259   2.797   3.459   0.532
 7787SOL    HW124260   2.756   3.387   0.588
 7787SOL    HW224261   2.897   3.453   0.540
 7788SOL     OW24262   1.559   5.071   1.850
 7788SOL    HW124263   1.647   5.044   1.811
 7788SOL    HW224264   1.486   5.046   1.786
 7789SOL     OW24265   3.624   0.319   6.656
 7789SOL    HW124266   3.705   0.282   6.610
 7789SOL    HW224267   3.553   0.337   6.588
 7790SOL     OW24268   5.899   5.194   2.738
 7790SOL    HW124269   5.871   5.169   2.831
 7790SOL    HW224270   5.819   5.220   2.684
 7791SOL     OW24271   2.149   5.567   1.701
 7791SOL    HW124272   2.219   5.543   1.634
 7791SOL    HW224273   2.086   5.490   1.712
 7792SOL     OW24274   0.729   1.523   2.800
 7792SOL    HW124275   0.787   1.528   2.718
 7792SOL    HW224276   0.636   1.552   2.777
 7793SOL     OW24277   4.205   1.849   0.025
 7793SOL    HW124278   4.274   1.807   0.084
 7793SOL    HW224279   4.194   1.794   6.971
 7794SOL     OW24280   0.951   5.808   2.644
 7794SOL    HW124281   0.878   5.789   2.579
 7794SOL    HW224282   0.971   5.906   2.646
 7795SOL     OW24283   3.333   5.938   5.833
 7795SOL    HW124284   3.356   5.841   5.824
 7795SOL    HW224285   3.386   5.977   5.909
 7796SOL     OW24286   3.439   3.131   5.836
 7796SOL    HW124287   3.437   3.055   5.771
 7796SOL    HW224288   3.439   3.094   5.929
 7797SOL     OW24289   0.713   5.217   3.270
 7797SOL    HW124290   0.663   5.146   3.320
 7797SOL    HW224291   0.811   5.193   3.268
 7798SOL     OW24292   0.377   1.868   2.062
 7798SOL    HW124293   0.454   1.845   2.003
 7798SOL    HW224294   0.349   1.962   2.046
 7799SOL     OW24295   2.793   6.417   2.634
 7799SOL    HW124296   2.821   6.345   2.697
 7799SOL    HW224297   2.744   6.378   2.557
 7800SOL     OW24298   0.966   5.884   0.873
 7800SOL    HW124299   0.976   5.882   0.774
 7800SOL    HW224300   1.013   5.805   0.913
 7801SOL     OW24301   1.447   2.587   2.612
 7801SOL    HW124302   1.490   2.548   2.531
 7801SOL    HW224303   1.435   2.686   2.599
 7802SOL     OW24304   6.766   4.357   5.836
 7802SOL    HW124305   6.708   4.284   5.799
 7802SOL    HW224306   6.810   4.326   5.920
 7803SOL     OW24307   5.194   2.398   5.543
 7803SOL    HW124308   5.159   2.349   5.622
 7803SOL    HW224309   5.170   2.348   5.459
 7804SOL     OW24310   2.243   2.148   4.478
 7804SOL    HW124311   2.264   2.052   4.499
 7804SOL    HW224312   2.146   2.166   4.495
 7805SOL     OW24313   5.542   2.707   1.703
 7805SOL    HW124314   5.479   2.773   1.663
 7805SOL    HW224315   5.589   2.748   1.781
 7806SOL     OW24316   6.292   2.633   5.431
 7806SOL    HW124317   6.345   2.550   5.412
 7806SOL    HW224318   6.249   2.625   5.520
 7807SOL     OW24319   2.289   4.881   5.950
 7807SOL    HW124320   2.322   4.805   5.894
 7807SOL    HW224321   2.246   4.950   5.891
 7808SOL     OW24322   5.002   4.028   2.929
 7808SOL    HW124323   5.076   3.961   2.937
 7808SOL    HW224324   5.005   4.069   2.838
 7809SOL     OW24325   5.270   4.979   3.919
 7809SOL    HW124326   5.329   4.933   3.853
 7809SOL    HW224327   5.268   5.077   3.900
 7810SOL     OW24328   4.174   6.224   4.908
 7810SOL    HW124329   4.226   6.143   4.934
 7810SOL    HW224330   4.167   6.228   4.808
 7811SOL     OW24331   1.261   5.732   2.258
 7811SOL    HW124332   1.305   5.652   2.216
 7811SOL    HW224333   1.313   5.761   2.338
 7812SOL     OW24334   2.649   2.580   5.902
 7812SOL    HW124335   2.685   2.493   5.937
 7812SOL    HW224336   2.607   2.565   5.813
 7813SOL     OW24337   5.402   2.821   1.373
 7813SOL    HW124338   5.453   2.775   1.301
 7813SOL    HW224339   5.348   2.896   1.333
 7814SOL     OW24340   6.486   3.203   2.143
 7814SOL    HW124341   6.434   3.285   2.118
 7814SOL    HW224342   6.547   3.179   2.067
 7815SOL     OW24343   5.840   2.828   5.727
 7815SOL    HW124344   5.810   2.777   5.646
 7815SOL    HW224345   5.814   2.924   5.718
 7816SOL     OW24346   0.330   1.556   5.488
 7816SOL    HW124347   0.234   1.541   5.464
 7816SOL    HW224348   0.375   1.607   5.414
 7817SOL     OW24349   3.126   3.635   5.997
 7817SOL    HW124350   3.104   3.731   5.982
 7817SOL    HW224351   3.067   3.578   5.940
 7818SOL     OW24352   4.961   1.834   1.863
 7818SOL    HW124353   4.970   1.790   1.953
 7818SOL    HW224354   5.043   1.887   1.843
 7819SOL     OW24355   0.810   3.501   4.043
 7819SOL    HW124356   0.811   3.483   3.944
 7819SOL    HW224357   0.771   3.592   4.060
 7820SOL     OW24358   1.705   0.820   5.555
 7820SOL    HW124359   1.610   0.787   5.554
 7820SOL    HW224360   1.749   0.796   5.469
 7821SOL     OW24361   6.317   5.557   0.254
 7821SOL    HW124362   6.268   5.558   0.167
 7821SOL    HW224363   6.412   5.532   0.238
 7822SOL     OW24364   1.046   1.350   4.979
 7822SOL    HW124365   1.045   1.298   5.065
 7822SOL    HW224366   1.004   1.439   4.993
 7823SOL     OW24367   1.448   4.192   6.641
 7823SOL    HW124368   1.385   4.158   6.711
 7823SOL    HW224369   1.452   4.128   6.565
 7824SOL     OW24370   5.423   1.914   2.676
 7824SOL    HW124371   5.451   1.878   2.587
 7824SOL    HW224372   5.361   1.992   2.663
 7825SOL     OW24373   2.362   2.968   1.195
 7825SOL    HW124374   2.398   2.948   1.287
 7825SOL    HW224375   2.427   3.026   1.146
 7826SOL     OW24376   5.750   1.066   0.485
 7826SOL    HW124377   5.708   1.034   0.400
 7826SOL    HW224378   5.831   1.010   0.505
 7827SOL     OW24379   4.737   5.052   1.864
 7827SOL    HW124380   4.685   5.111   1.926
 7827SOL    HW224381   4.706   4.958   1.874
 7828SOL     OW24382   1.190   6.208   0.590
 7828SOL    HW124383   1.220   6.302   0.580
 7828SOL    HW224384   1.217   6.174   0.681
 7829SOL     OW24385   2.807   2.872   1.670
 7829SOL    HW124386   2.886   2.931   1.684
 7829SOL    HW224387   2.825   2.781   1.708
 7830SOL     OW24388   5.970   3.498   6.533
 7830SOL    HW124389   5.921   3.454   6.458
 7830SOL    HW224390   5.979   3.596   6.513
 7831SOL     OW24391   1.165   3.573   0.549
 7831SOL    HW124392   1.171   3.513   0.629
 7831SOL    HW224393   1.148   3.667   0.578
 7832SOL     OW24394   2.690   1.739   5.173
 7832SOL    HW124395   2.730   1.721   5.263
 7832SOL    HW224396   2.607   1.793   5.184
 7833SOL     OW24397   0.385   0.045   0.467
 7833SOL    HW124398   0.307   7.013   0.452
 7833SOL    HW224399   0.358   0.120   0.527
 7834SOL     OW24400   0.324   0.605   2.323
 7834SOL    HW124401   0.404   0.654   2.287
 7834SOL    HW224402   0.257   0.671   2.357
 7835SOL     OW24403   2.173   2.996   4.856
 7835SOL    HW124404   2.157   3.055   4.777
 7835SOL    HW224405   2.258   3.024   4.901
 7836SOL     OW24406   3.109   6.699   6.441
 7836SOL    HW124407   3.059   6.617   6.469
 7836SOL    HW224408   3.168   6.676   6.363
 7837SOL     OW24409   6.073   6.573   2.486
 7837SOL    HW124410   6.116   6.485   2.470
 7837SOL    HW224411   6.021   6.601   2.405
 7838SOL     OW24412   4.223   6.809   4.433
 7838SOL    HW124413   4.209   6.711   4.444
 7838SOL    HW224414   4.305   6.826   4.379
 7839SOL     OW24415   5.760   4.301   4.250
 7839SOL    HW124416   5.686   4.252   4.295
 7839SOL    HW224417   5.816   4.348   4.319
 7840SOL     OW24418   4.904   2.957   4.044
 7840SOL    HW124419   4.836   2.938   3.973
 7840SOL    HW224420   4.921   3.056   4.049
 7841SOL     OW24421   6.586   2.026   0.034
 7841SOL    HW124422   6.542   2.114   0.054
 7841SOL    HW224423   6.685   2.038   0.034
 7842SOL     OW24424   1.904   1.529   3.157
 7842SOL    HW124425   1.831   1.483   3.208
 7842SOL    HW224426   1.966   1.574   3.222
 7843SOL     OW24427   5.472   3.962   0.947
 7843SOL    HW124428   5.511   3.876   0.980
 7843SOL    HW224429   5.515   4.039   0.994
 7844SOL     OW24430   4.252   0.696   3.333
 7844SOL    HW124431   4.305   0.779   3.317
 7844SOL    HW224432   4.312   0.616   3.329
 7845SOL     OW24433   0.172   0.971   4.135
 7845SOL    HW124434   0.152   1.058   4.090
 7845SOL    HW224435   0.146   0.977   4.232
 7846SOL     OW24436   2.297   0.773   1.797
 7846SOL    HW124437   2.279   0.864   1.833
 7846SOL    HW224438   2.320   0.710   1.872
 7847SOL     OW24439   0.338   0.994   0.597
 7847SOL    HW124440   0.293   0.955   0.678
 7847SOL    HW224441   0.302   1.085   0.579
 7848SOL     OW24442   4.238   4.262   1.370
 7848SOL    HW124443   4.146   4.228   1.349
 7848SOL    HW224444   4.284   4.197   1.431
 7849SOL     OW24445   5.024   3.341   4.404
 7849SOL    HW124446   4.972   3.421   4.372
 7849SOL    HW224447   5.122   3.362   4.403
 7850SOL     OW24448   6.785   1.113   4.687
 7850SOL    HW124449   6.803   1.177   4.612
 7850SOL    HW224450   6.703   1.060   4.666
 7851SOL     OW24451   6.246   6.643   0.607
 7851SOL    HW124452   6.303   6.721   0.583
 7851SOL    HW224453   6.164   6.643   0.550
 7852SOL     OW24454   3.045   6.565   6.913
 7852SOL    HW124455   3.117   6.532   6.852
 7852SOL    HW224456   2.971   6.606   6.859
 7853SOL     OW24457   3.032   1.362   0.501
 7853SOL    HW124458   3.129   1.361   0.478
 7853SOL    HW224459   3.015   1.299   0.577
 7854SOL     OW24460   3.492   3.507   2.744
 7854SOL    HW124461   3.566   3.575   2.748
 7854SOL    HW224462   3.437   3.523   2.663
 7855SOL     OW24463   4.163   5.401   6.099
 7855SOL    HW124464   4.212   5.443   6.176
 7855SOL    HW224465   4.228   5.349   6.043
 7856SOL     OW24466   5.868   4.029   4.970
 7856SOL    HW124467   5.868   4.091   4.892
 7856SOL    HW224468   5.950   3.972   4.968
 7857SOL     OW24469   5.986   2.280   5.933
 7857SOL    HW124470   5.936   2.198   5.960
 7857SOL    HW224471   5.966   2.355   5.997
 7858SOL     OW24472   6.274   4.169   3.532
 7858SOL    HW124473   6.373   4.171   3.517
 7858SOL    HW224474   6.227   4.156   3.445
 7859SOL     OW24475   0.674   4.746   6.339
 7859SOL    HW124476   0.590   4.781   6.297
 7859SOL    HW224477   0.682   4.648   6.320
 7860SOL     OW24478   4.253   6.898   1.897
 7860SOL    HW124479   4.158   6.892   1.929
 7860SOL    HW224480   4.313   6.852   1.961
 7861SOL     OW24481   4.575   5.287   1.472
 7861SOL    HW124482   4.594   5.310   1.568
 7861SOL    HW224483   4.617   5.199   1.450
 7862SOL     OW24484   2.959   4.213   1.704
 7862SOL    HW124485   2.873   4.234   1.657
 7862SOL    HW224486   2.975   4.282   1.776
 7863SOL     OW24487   6.584   5.944   2.866
 7863SOL    HW124488   6.604   5.937   2.964
 7863SOL    HW224489   6.504   6.003   2.854
 7864SOL     OW24490   0.364   6.145   5.728
 7864SOL    HW124491   0.324   6.056   5.750
 7864SOL    HW224492   0.386   6.149   5.631
 7865SOL     OW24493   3.635   6.221   3.259
 7865SOL    HW124494   3.568   6.294   3.264
 7865SOL    HW224495   3.683   6.213   3.347
 7866SOL     OW24496   2.616   1.845   3.224
 7866SOL    HW124497   2.583   1.752   3.239
 7866SOL    HW224498   2.577   1.906   3.293
 7867SOL     OW24499   6.149   6.125   2.296
 7867SOL    HW124500   6.158   6.060   2.372
 7867SOL    HW224501   6.134   6.075   2.211
 7868SOL     OW24502   5.691   5.969   1.122
 7868SOL    HW124503   5.691   6.069   1.131
 7868SOL    HW224504   5.716   5.944   1.029
 7869SOL     OW24505   6.576   3.386   1.221
 7869SOL    HW124506   6.557   3.430   1.310
 7869SOL    HW224507   6.669   3.408   1.193
 7870SOL     OW24508   6.798   5.111   3.804
 7870SOL    HW124509   6.744   5.183   3.763
 7870SOL    HW224510   6.892   5.116   3.770
 7871SOL     OW24511   6.121   3.166   3.303
 7871SOL    HW124512   6.141   3.222   3.383
 7871SOL    HW224513   6.024   3.175   3.280
 7872SOL     OW24514   0.567   4.020   3.521
 7872SOL    HW124515   0.642   3.959   3.498
 7872SOL    HW224516   0.490   4.003   3.460
 7873SOL     OW24517   6.943   0.226   6.071
 7873SOL    HW124518   6.902   0.220   6.162
 7873SOL    HW224519   6.993   0.142   6.051
 7874SOL     OW24520   6.469   1.371   0.275
 7874SOL    HW124521   6.415   1.328   0.347
 7874SOL    HW224522   6.428   1.459   0.250
 7875SOL     OW24523   5.196   4.259   6.877
 7875SOL    HW124524   5.127   4.207   6.926
 7875SOL    HW224525   5.152   4.324   6.815
 7876SOL     OW24526   6.454   0.555   4.400
 7876SOL    HW124527   6.497   0.622   4.339
 7876SOL    HW224528   6.415   0.481   4.346
 7877SOL     OW24529   6.922   2.463   3.372
 7877SOL    HW124530   6.992   2.528   3.341
 7877SOL    HW224531   6.847   2.461   3.307
 7878SOL     OW24532   4.522   4.656   2.618
 7878SOL    HW124533   4.484   4.611   2.536
 7878SOL    HW224534   4.518   4.755   2.607
 7879SOL     OW24535   5.313   6.161   3.667
 7879SOL    HW124536   5.287   6.065   3.669
 7879SOL    HW224537   5.405   6.170   3.630
 7880SOL     OW24538   0.444   6.295   6.965
 7880SOL    HW124539   0.463   6.266   0.029
 7880SOL    HW224540   0.511   6.363   6.936
 7881SOL     OW24541   6.686   3.877   5.227
 7881SOL    HW124542   6.657   3.921   5.311
 7881SOL    HW224543   6.613   3.882   5.159
 7882SOL     OW24544   1.023   2.866   2.762
 7882SOL    HW124545   1.027   2.964   2.741
 7882SOL    HW224546   1.090   2.818   2.705
 7883SOL     OW24547   2.794   1.166   2.757
 7883SOL    HW124548   2.790   1.256   2.802
 7883SOL    HW224549   2.887   1.151   2.724
 7884SOL     OW24550   1.298   4.872   3.842
 7884SOL    HW124551   1.252   4.833   3.763
 7884SOL    HW224552   1.342   4.958   3.816
 7885SOL     OW24553   5.997   5.627   2.970
 7885SOL    HW124554   6.083   5.676   2.958
 7885SOL    HW224555   5.994   5.549   2.907
 7886SOL     OW24556   4.972   3.504   1.561
 7886SOL    HW124557   4.930   3.586   1.598
 7886SOL    HW224558   4.932   3.423   1.604
 7887SOL     OW24559   3.352   3.597   6.165
 7887SOL    HW124560   3.425   3.588   6.098
 7887SOL    HW224561   3.271   3.637   6.123
 7888SOL     OW24562   6.170   1.629   4.143
 7888SOL    HW124563   6.103   1.698   4.117
 7888SOL    HW224564   6.123   1.544   4.167
 7889SOL     OW24565   6.350   5.247   0.421
 7889SOL    HW124566   6.351   5.169   0.483
 7889SOL    HW224567   6.324   5.330   0.471
 7890SOL     OW24568   1.323   2.960   4.538
 7890SOL    HW124569   1.357   3.049   4.509
 7890SOL    HW224570   1.231   2.945   4.500
 7891SOL     OW24571   0.592   2.672   4.175
 7891SOL    HW124572   0.501   2.710   4.157
 7891SOL    HW224573   0.617   2.690   4.270
 7892SOL     OW24574   1.847   2.714   4.777
 7892SOL    HW124575   1.752   2.698   4.804
 7892SOL    HW224576   1.905   2.716   4.859
 7893SOL     OW24577   6.505   0.339   2.130
 7893SOL    HW124578   6.597   0.318   2.097
 7893SOL    HW224579   6.463   0.255   2.167
 7894SOL     OW24580   2.482   1.424   6.588
 7894SOL    HW124581   2.431   1.341   6.565
 7894SOL    HW224582   2.548   1.444   6.515
 7895SOL     OW24583   3.737   5.668   3.648
 7895SOL    HW124584   3.709   5.590   3.704
 7895SOL    HW224585   3.701   5.752   3.687
 7896SOL     OW24586   4.267   2.626   1.733
 7896SOL    HW124587   4.314   2.713   1.746
 7896SOL    HW224588   4.306   2.558   1.796
 7897SOL     OW24589   3.641   4.225   6.324
 7897SOL    HW124590   3.623   4.255   6.230
 7897SOL    HW224591   3.658   4.305   6.382
 7898SOL     OW24592   4.791   0.054   4.374
 7898SOL    HW124593   4.742   0.115   4.312
 7898SOL    HW224594   4.780   0.086   4.469
 7899SOL     OW24595   5.262   5.232   1.305
 7899SOL    HW124596   5.329   5.169   1.266
 7899SOL    HW224597   5.306   5.320   1.322
 7900SOL     OW24598   0.611   4.294   0.668
 7900SOL    HW124599   0.577   4.201   0.686
 7900SOL    HW224600   0.538   4.360   0.685
 7901SOL     OW24601   5.375   0.694   6.192
 7901SOL    HW124602   5.329   0.732   6.112
 7901SOL    HW224603   5.458   0.745   6.210
 7902SOL     OW24604   6.970   6.320   2.859
 7902SOL    HW124605   0.017   6.313   2.924
 7902SOL    HW224606   6.918   6.235   2.860
 7903SOL     OW24607   3.079   1.664   4.099
 7903SOL    HW124608   3.067   1.751   4.147
 7903SOL    HW224609   3.022   1.664   4.017
 7904SOL     OW24610   6.038   0.688   2.114
 7904SOL    HW124611   6.109   0.745   2.155
 7904SOL    HW224612   6.062   0.592   2.123
 7905SOL     OW24613   5.832   0.978   1.032
 7905SOL    HW124614   5.895   1.055   1.024
 7905SOL    HW224615   5.745   1.001   0.988
 7906SOL     OW24616   1.822   4.904   1.386
 7906SOL    HW124617   1.894   4.837   1.371
 7906SOL    HW224618   1.840   4.986   1.331
 7907SOL     OW24619   5.923   0.585   2.645
 7907SOL    HW124620   6.021   0.582   2.626
 7907SOL    HW224621   5.901   0.517   2.715
 7908SOL     OW24622   0.439   1.270   6.725
 7908SOL    HW124623   0.406   1.325   6.649
 7908SOL    HW224624   0.492   1.328   6.787
 7909SOL     OW24625   5.395   4.538   2.870
 7909SOL    HW124626   5.357   4.606   2.807
 7909SOL    HW224627   5.485   4.568   2.901
 7910SOL     OW24628   2.004   3.326   0.812
 7910SOL    HW124629   2.017   3.406   0.870
 7910SOL    HW224630   2.081   3.316   0.750
 7911SOL     OW24631   0.711   4.091   1.476
 7911SOL    HW124632   0.657   4.133   1.548
 7911SOL    HW224633   0.778   4.029   1.516
 7912SOL     OW24634   5.310   5.443   0.084
 7912SOL    HW124635   5.228   5.403   0.044
 7912SOL    HW224636   5.288   5.490   0.169
 7913SOL     OW24637   0.925   4.136   0.790
 7913SOL    HW124638   0.930   4.217   0.731
 7913SOL    HW224639   0.914   4.054   0.733
 7914SOL     OW24640   6.908   5.125   5.711
 7914SOL    HW124641   6.916   5.141   5.613
 7914SOL    HW224642   6.922   5.028   5.731
 7915SOL     OW24643   3.869   0.268   3.176
 7915SOL    HW124644   3.813   0.209   3.233
 7915SOL    HW224645   3.822   0.356   3.163
 7916SOL     OW24646   0.528   6.844   4.673
 7916SOL    HW124647   0.627   6.842   4.683
 7916SOL    HW224648   0.502   6.919   4.613
 7917SOL     OW24649   3.835   2.539   6.707
 7917SOL    HW124650   3.861   2.545   6.803
 7917SOL    HW224651   3.866   2.451   6.669
 7918SOL     OW24652   1.830   1.262   5.069
 7918SOL    HW124653   1.814   1.199   5.145
 7918SOL    HW224654   1.865   1.211   4.990
 7919SOL     OW24655   1.252   5.043   3.602
 7919SOL    HW124656   1.311   5.063   3.680
 7919SOL    HW224657   1.193   4.965   3.625
 7920SOL     OW24658   5.014   1.074   1.407
 7920SOL    HW124659   5.079   1.021   1.462
 7920SOL    HW224660   4.927   1.026   1.403
 7921SOL     OW24661   5.074   2.004   1.396
 7921SOL    HW124662   5.083   2.045   1.487
 7921SOL    HW224663   4.978   1.984   1.377
 7922SOL     OW24664   1.152   6.655   6.616
 7922SOL    HW124665   1.070   6.678   6.670
 7922SOL    HW224666   1.135   6.571   6.564
 7923SOL     OW24667   3.807   2.215   6.091
 7923SOL    HW124668   3.796   2.234   6.189
 7923SOL    HW224669   3.774   2.292   6.038
 7924SOL     OW24670   6.042   6.737   1.211
 7924SOL    HW124671   6.034   6.837   1.220
 7924SOL    HW224672   6.139   6.712   1.211
 7925SOL     OW24673   2.598   6.388   0.343
 7925SOL    HW124674   2.694   6.412   0.354
 7925SOL    HW224675   2.564   6.425   0.256
 7926SOL     OW24676   5.865   0.732   6.529
 7926SOL    HW124677   5.916   0.715   6.445
 7926SOL    HW224678   5.809   0.815   6.518
 7927SOL     OW24679   5.377   6.898   1.965
 7927SOL    HW124680   5.329   6.845   2.036
 7927SOL    HW224681   5.381   6.994   1.993
 7928SOL     OW24682   0.081   0.709   3.290
 7928SOL    HW124683   0.114   0.617   3.268
 7928SOL    HW224684   0.143   0.752   3.355
 7929SOL     OW24685   4.809   3.822   6.729
 7929SOL    HW124686   4.710   3.820   6.718
 7929SOL    HW224687   4.851   3.756   6.667
 7930SOL     OW24688   3.620   5.384   6.377
 7930SOL    HW124689   3.539   5.424   6.334
 7930SOL    HW224690   3.694   5.378   6.310
 7931SOL     OW24691   2.941   2.467   0.389
 7931SOL    HW124692   2.955   2.413   0.306
 7931SOL    HW224693   2.846   2.500   0.393
 7932SOL     OW24694   7.001   5.566   0.868
 7932SOL    HW124695   0.040   5.493   0.866
 7932SOL    HW224696   7.008   5.620   0.784
 7933SOL     OW24697   6.298   0.724   5.466
 7933SOL    HW124698   6.338   0.804   5.421
 7933SOL    HW224699   6.206   0.746   5.497
 7934SOL     OW24700   1.764   4.704   0.733
 7934SOL    HW124701   1.760   4.604   0.732
 7934SOL    HW224702   1.798   4.736   0.645
 7935SOL     OW24703   5.445   3.906   2.525
 7935SOL    HW124704   5.438   3.908   2.624
 7935SOL    HW224705   5.359   3.937   2.485
 7936SOL     OW24706   3.270   6.071   3.936
 7936SOL    HW124707   3.368   6.081   3.925
 7936SOL    HW224708   3.226   6.161   3.931
 7937SOL     OW24709   2.145   6.134   5.265
 7937SOL    HW124710   2.108   6.105   5.354
 7937SOL    HW224711   2.243   6.152   5.274
 7938SOL     OW24712   5.390   0.877   4.930
 7938SOL    HW124713   5.353   0.847   5.018
 7938SOL    HW224714   5.452   0.807   4.895
 7939SOL     OW24715   0.736   1.593   5.481
 7939SOL    HW124716   0.807   1.640   5.429
 7939SOL    HW224717   0.647   1.628   5.455
 7940SOL     OW24718   4.190   1.997   2.599
 7940SOL    HW124719   4.148   1.930   2.538
 7940SOL    HW224720   4.142   2.085   2.590
 7941SOL     OW24721   4.122   6.702   3.160
 7941SOL    HW124722   4.144   6.729   3.066
 7941SOL    HW224723   4.205   6.671   3.206
 7942SOL     OW24724   1.003   2.778   1.908
 7942SOL    HW124725   0.964   2.754   1.997
 7942SOL    HW224726   1.076   2.713   1.886
 7943SOL     OW24727   2.335   4.794   5.523
 7943SOL    HW124728   2.340   4.779   5.425
 7943SOL    HW224729   2.427   4.803   5.561
 7944SOL     OW24730   1.219   2.731   1.043
 7944SOL    HW124731   1.301   2.786   1.024
 7944SOL    HW224732   1.193   2.680   0.961
 7945SOL     OW24733   6.494   5.371   3.147
 7945SOL    HW124734   6.417   5.362   3.209
 7945SOL    HW224735   6.533   5.463   3.155
 7946SOL     OW24736   3.715   0.135   5.540
 7946SOL    HW124737   3.779   0.211   5.554
 7946SOL    HW224738   3.764   0.058   5.499
 7947SOL     OW24739   2.106   2.789   5.256
 7947SOL    HW124740   2.039   2.761   5.325
 7947SOL    HW224741   2.161   2.710   5.229
 7948SOL     OW24742   1.523   4.584   2.057
 7948SOL    HW124743   1.567   4.577   1.967
 7948SOL    HW224744   1.560   4.514   2.117
 7949SOL     OW24745   4.751   4.502   5.937
 7949SOL    HW124746   4.671   4.484   5.994
 7949SOL    HW224747   4.793   4.416   5.910
 7950SOL     OW24748   5.235   5.751   5.421
 7950SOL    HW124749   5.229   5.698   5.506
 7950SOL    HW224750   5.311   5.815   5.426
 7951SOL     OW24751   2.948   5.521   2.234
 7951SOL    HW124752   2.939   5.486   2.141
 7951SOL    HW224753   2.899   5.609   2.240
 7952SOL     OW24754   6.229   3.957   6.968
 7952SOL    HW124755   6.234   3.886   0.009
 7952SOL    HW224756   6.144   3.947   6.916
 7953SOL     OW24757   4.177   1.461   0.796
 7953SOL    HW124758   4.193   1.510   0.710
 7953SOL    HW224759   4.090   1.490   0.835
 7954SOL     OW24760   4.115   3.785   6.740
 7954SOL    HW124761   4.078   3.692   6.739
 7954SOL    HW224762   4.064   3.842   6.676
 7955SOL     OW24763   2.038   1.752   6.314
 7955SOL    HW124764   1.980   1.795   6.245
 7955SOL    HW224765   2.111   1.815   6.339
 7956SOL     OW24766   5.893   1.527   1.744
 7956SOL    HW124767   5.885   1.551   1.841
 7956SOL    HW224768   5.808   1.550   1.697
 7957SOL     OW24769   4.397   0.669   5.752
 7957SOL    HW124770   4.357   0.665   5.843
 7957SOL    HW224771   4.325   0.664   5.683
 7958SOL     OW24772   5.832   3.442   6.325
 7958SOL    HW124773   5.739   3.425   6.357
 7958SOL    HW224774   5.831   3.451   6.225
 7959SOL     OW24775   5.229   0.707   5.917
 7959SOL    HW124776   5.300   0.758   5.867
 7959SOL    HW224777   5.194   0.634   5.859
 7960SOL     OW24778   0.061   0.820   6.274
 7960SOL    HW124779   0.116   0.809   6.357
 7960SOL    HW224780   6.993   0.815   6.297
 7961SOL     OW24781   6.780   6.493   0.382
 7961SOL    HW124782   6.750   6.440   0.303
 7961SOL    HW224783   6.795   6.588   0.355
 7962SOL     OW24784   6.634   7.013   6.441
 7962SOL    HW124785   6.719   6.962   6.429
 7962SOL    HW224786   6.653   0.082   6.438
 7963SOL     OW24787   6.224   4.060   4.598
 7963SOL    HW124788   6.187   4.128   4.535
 7963SOL    HW224789   6.296   4.008   4.552
 7964SOL     OW24790   6.836   2.852   1.490
 7964SOL    HW124791   6.935   2.863   1.474
 7964SOL    HW224792   6.791   2.828   1.404
 7965SOL     OW24793   4.839   2.525   0.107
 7965SOL    HW124794   4.833   2.599   0.040
 7965SOL    HW224795   4.790   2.445   0.074
 7966SOL     OW24796   3.905   4.034   5.778
 7966SOL    HW124797   3.971   4.046   5.853
 7966SOL    HW224798   3.913   4.112   5.715
 7967SOL     OW24799   1.697   5.217   2.035
 7967SOL    HW124800   1.796   5.217   2.040
 7967SOL    HW224801   1.667   5.140   1.979
 7968SOL     OW24802   6.543   1.593   4.756
 7968SOL    HW124803   6.624   1.536   4.746
 7968SOL    HW224804   6.522   1.636   4.668
 7969SOL     OW24805   4.753   6.046   0.227
 7969SOL    HW124806   4.770   6.143   0.248
 7969SOL    HW224807   4.840   5.998   0.224
 7970SOL     OW24808   6.158   3.103   2.620
 7970SOL    HW124809   6.133   3.119   2.525
 7970SOL    HW224810   6.169   3.191   2.667
 7971SOL     OW24811   2.994   1.751   1.255
 7971SOL    HW124812   2.957   1.785   1.341
 7971SOL    HW224813   3.030   1.659   1.268
 7972SOL     OW24814   4.179   3.274   1.903
 7972SOL    HW124815   4.185   3.340   1.978
 7972SOL    HW224816   4.264   3.223   1.896
 7973SOL     OW24817   6.220   3.717   3.808
 7973SOL    HW124818   6.153   3.662   3.758
 7973SOL    HW224819   6.243   3.798   3.754
 7974SOL     OW24820   6.461   1.503   5.142
 7974SOL    HW124821   6.369   1.541   5.157
 7974SOL    HW224822   6.461   1.449   5.057
 7975SOL     OW24823   4.276   1.480   0.082
 7975SOL    HW124824   4.280   1.380   0.091
 7975SOL    HW224825   4.243   1.503   7.019
 7976SOL     OW24826   1.177   0.081   6.149
 7976SOL    HW124827   1.109   0.040   6.210
 7976SOL    HW224828   1.210   0.012   6.086
 7977SOL     OW24829   5.529   6.042   2.639
 7977SOL    HW124830   5.438   6.038   2.680
 7977SOL    HW224831   5.596   6.003   2.703
 7978SOL     OW24832   0.501   3.979   0.983
 7978SOL    HW124833   0.415   4.026   1.000
 7978SOL    HW224834   0.551   3.966   1.069
 7979SOL     OW24835   1.879   3.713   4.948
 7979SOL    HW124836   1.796   3.658   4.942
 7979SOL    HW224837   1.940   3.674   5.017
 7980SOL     OW24838   3.553   4.713   5.683
 7980SOL    HW124839   3.463   4.678   5.657
 7980SOL    HW224840   3.545   4.773   5.762
 7981SOL     OW24841   1.985   5.510   3.361
 7981SOL    HW124842   2.010   5.421   3.397
 7981SOL    HW224843   1.904   5.501   3.303
 7982SOL     OW24844   0.971   1.549   6.070
 7982SOL    HW124845   0.902   1.615   6.101
 7982SOL    HW224846   0.974   1.548   5.970
 7983SOL     OW24847   5.270   1.179   1.296
 7983SOL    HW124848   5.316   1.180   1.385
 7983SOL    HW224849   5.206   1.103   1.293
 7984SOL     OW24850   0.623   1.930   1.875
 7984SOL    HW124851   0.666   1.910   1.787
 7984SOL    HW224852   0.572   2.016   1.868
 7985SOL     OW24853   2.054   2.295   5.248
 7985SOL    HW124854   2.145   2.272   5.213
 7985SOL    HW224855   1.992   2.218   5.230
 7986SOL     OW24856   3.877   1.761   4.659
 7986SOL    HW124857   3.789   1.764   4.611
 7986SOL    HW224858   3.951   1.760   4.593
 7987SOL     OW24859   1.410   3.851   0.864
 7987SOL    HW124860   1.429   3.779   0.932
 7987SOL    HW224861   1.488   3.858   0.802
 7988SOL     OW24862   6.763   0.982   1.786
 7988SOL    HW124863   6.747   0.955   1.691
 7988SOL    HW224864   6.685   1.035   1.819
 7989SOL     OW24865   1.713   4.085   0.289
 7989SOL    HW124866   1.658   4.009   0.323
 7989SOL    HW224867   1.754   4.134   0.365
 7990SOL     OW24868   2.494   6.692   4.598
 7990SOL    HW124869   2.588   6.663   4.582
 7990SOL    HW224870   2.434   6.651   4.528
 7991SOL     OW24871   5.270   1.819   4.503
 7991SOL    HW124872   5.307   1.885   4.438
 7991SOL    HW224873   5.201   1.865   4.560
 7992SOL     OW24874   2.538   0.367   0.436
 7992SOL    HW124875   2.630   0.363   0.475
 7992SOL    HW224876   2.474   0.404   0.504
 7993SOL     OW24877   0.170   0.178   2.196
 7993SOL    HW124878   0.095   0.152   2.257
 7993SOL    HW224879   0.257   0.158   2.240
 7994SOL     OW24880   5.060   0.954   3.382
 7994SOL    HW124881   5.159   0.947   3.396
 7994SOL    HW224882   5.035   0.907   3.297
 7995SOL     OW24883   6.286   4.520   2.615
 7995SOL    HW124884   6.238   4.604   2.637
 7995SOL    HW224885   6.255   4.446   2.676
 7996SOL     OW24886   3.981   0.287   3.906
 7996SOL    HW124887   4.026   0.248   3.826
 7996SOL    HW224888   4.046   0.344   3.956
 7997SOL     OW24889   0.795   2.168   0.174
 7997SOL    HW124890   0.799   2.114   0.090
 7997SOL    HW224891   0.708   2.219   0.176
 7998SOL     OW24892   2.933   0.316   6.886
 7998SOL    HW124893   3.011   0.256   6.903
 7998SOL    HW224894   2.878   0.324   6.970
 7999SOL     OW24895   1.038   1.867   6.179
 7999SOL    HW124896   1.015   1.964   6.173
 7999SOL    HW224897   1.040   1.839   6.275
 8000SOL     OW24898   6.257   6.544   6.395
 8000SOL    HW124899   6.355   6.521   6.401
 8000SOL    HW224900   6.224   6.570   6.486
 8001SOL     OW24901   4.715   6.951   1.060
 8001SOL    HW124902   4.713   6.974   1.157
 8001SOL    HW224903   4.763   7.022   1.009
 8002SOL     OW24904   0.364   1.031   5.296
 8002SOL    HW124905   0.316   1.078   5.370
 8002SOL    HW224906   0.341   1.075   5.209
 8003SOL     OW24907   2.024   6.822   2.240
 8003SOL    HW124908   1.972   6.907   2.233
 8003SOL    HW224909   2.080   6.809   2.159
 8004SOL     OW24910   1.977   2.743   3.527
 8004SOL    HW124911   2.005   2.791   3.444
 8004SOL    HW224912   1.877   2.736   3.530
 8005SOL     OW24913   2.652   0.329   3.939
 8005SOL    HW124914   2.752   0.324   3.941
 8005SOL    HW224915   2.614   0.237   3.930
 8006SOL     OW24916   3.461   5.384   5.108
 8006SOL    HW124917   3.444   5.466   5.163
 8006SOL    HW224918   3.428   5.399   5.015
 8007SOL     OW24919   5.951   1.708   6.373
 8007SOL    HW124920   6.014   1.746   6.305
 8007SOL    HW224921   5.857   1.731   6.348
 8008SOL     OW24922   3.721   6.414   6.880
 8008SOL    HW124923   3.673   6.335   6.841
 8008SOL    HW224924   3.655   6.487   6.899
 8009SOL     OW24925   4.849   1.568   1.060
 8009SOL    HW124926   4.796   1.634   1.007
 8009SOL    HW224927   4.850   1.480   1.012
 8010SOL     OW24928   3.103   2.526   5.540
 8010SOL    HW124929   3.035   2.504   5.470
 8010SOL    HW224930   3.066   2.596   5.602
 8011SOL     OW24931   3.814   1.994   1.895
 8011SOL    HW124932   3.777   2.077   1.936
 8011SOL    HW224933   3.756   1.967   1.818
 8012SOL     OW24934   0.540   2.902   6.017
 8012SOL    HW124935   0.631   2.922   5.983
 8012SOL    HW224936   0.525   2.803   6.017
 8013SOL     OW24937   0.868   2.632   3.174
 8013SOL    HW124938   0.837   2.543   3.140
 8013SOL    HW224939   0.913   2.682   3.100
 8014SOL     OW24940   1.756   0.039   3.673
 8014SOL    HW124941   1.670   0.084   3.650
 8014SOL    HW224942   1.781   0.062   3.767
 8015SOL     OW24943   1.795   0.396   6.095
 8015SOL    HW124944   1.843   0.455   6.160
 8015SOL    HW224945   1.696   0.410   6.103
 8016SOL     OW24946   3.482   1.710   4.958
 8016SOL    HW124947   3.482   1.696   5.057
 8016SOL    HW224948   3.406   1.658   4.917
 8017SOL     OW24949   6.800   6.818   0.363
 8017SOL    HW124950   6.862   6.891   0.338
 8017SOL    HW224951   6.746   6.845   0.443
 8018SOL     OW24952   3.734   2.088   6.652
 8018SOL    HW124953   3.775   2.006   6.614
 8018SOL    HW224954   3.639   2.070   6.677
 8019SOL     OW24955   2.483   3.617   0.616
 8019SOL    HW124956   2.494   3.708   0.656
 8019SOL    HW224957   2.533   3.612   0.530
 8020SOL     OW24958   5.886   7.010   5.646
 8020SOL    HW124959   5.866   0.058   5.586
 8020SOL    HW224960   5.807   6.948   5.648
 8021SOL     OW24961   2.369   2.156   2.120
 8021SOL    HW124962   2.284   2.108   2.096
 8021SOL    HW224963   2.444   2.121   2.064
 8022SOL     OW24964   5.850   0.828   1.385
 8022SOL    HW124965   5.950   0.824   1.377
 8022SOL    HW224966   5.823   0.810   1.479
 8023SOL     OW24967   5.582   5.654   3.247
 8023SOL    HW124968   5.646   5.727   3.227
 8023SOL    HW224969   5.610   5.571   3.200
 8024SOL     OW24970   1.612   5.987   6.383
 8024SOL    HW124971   1.650   5.936   6.306
 8024SOL    HW224972   1.547   5.929   6.432
 8025SOL     OW24973   1.905   4.687   1.605
 8025SOL    HW124974   1.988   4.742   1.613
 8025SOL    HW224975   1.849   4.699   1.687
 8026SOL     OW24976   0.228   4.511   0.914
 8026SOL    HW124977   0.144   4.464   0.888
 8026SOL    HW224978   0.246   4.496   1.012
 8027SOL     OW24979   3.940   6.656   5.320
 8027SOL    HW124980   3.982   6.623   5.404
 8027SOL    HW224981   3.842   6.633   5.321
 8028SOL     OW24982   2.719   6.060   4.367
 8028SOL    HW124983   2.757   5.974   4.400
 8028SOL    HW224984   2.767   6.089   4.284
 8029SOL     OW24985   4.998   2.173   1.939
 8029SOL    HW124986   5.077   2.193   1.880
 8029SOL    HW224987   4.916   2.162   1.883
 8030SOL     OW24988   6.219   5.010   1.015
 8030SOL    HW124989   6.249   4.926   0.970
 8030SOL    HW224990   6.285   5.083   0.998
 8031SOL     OW24991   5.371   0.335   3.535
 8031SOL    HW124992   5.469   0.351   3.530
 8031SOL    HW224993   5.349   0.247   3.492
 8032SOL     OW24994   5.376   3.819   1.502
 8032SOL    HW124995   5.423   3.883   1.441
 8032SOL    HW224996   5.324   3.870   1.571
 8033SOL     OW24997   4.073   3.424   0.383
 8033SOL    HW124998   4.049   3.470   0.468
 8033SOL    HW224999   4.024   3.337   0.376
 8034SOL     OW25000   5.611   0.675   5.236
 8034SOL    HW125001   5.514   0.694   5.221
 8034SOL    HW225002   5.664   0.759   5.226
 8035SOL     OW25003   4.281   0.818   2.280
 8035SOL    HW125004   4.242   0.737   2.237
 8035SOL    HW225005   4.332   0.871   2.212
 8036SOL     OW25006   6.458   2.856   3.805
 8036SOL    HW125007   6.463   2.908   3.719
 8036SOL    HW225008   6.550   2.849   3.845
 8037SOL     OW25009   1.349   2.692   0.185
 8037SOL    HW125010   1.301   2.614   0.145
 8037SOL    HW225011   1.447   2.676   0.182
 8038SOL     OW25012   5.691   6.301   1.763
 8038SOL    HW125013   5.689   6.229   1.832
 8038SOL    HW225014   5.745   6.271   1.684
 8039SOL     OW25015   0.394   2.751   5.313
 8039SOL    HW125016   0.353   2.660   5.306
 8039SOL    HW225017   0.429   2.764   5.406
 8040SOL     OW25018   2.045   5.994   5.803
 8040SOL    HW125019   2.078   5.912   5.756
 8040SOL    HW225020   2.119   6.061   5.811
 8041SOL     OW25021   3.177   1.503   3.138
 8041SOL    HW125022   3.159   1.456   3.052
 8041SOL    HW225023   3.122   1.587   3.142
 8042SOL     OW25024   4.470   4.213   5.963
 8042SOL    HW125025   4.388   4.235   6.016
 8042SOL    HW225026   4.467   4.260   5.875
 8043SOL     OW25027   4.756   5.068   1.510
 8043SOL    HW125028   4.698   4.992   1.481
 8043SOL    HW225029   4.743   5.084   1.608
 8044SOL     OW25030   4.162   3.696   1.051
 8044SOL    HW125031   4.163   3.605   1.010
 8044SOL    HW225032   4.077   3.708   1.103
 8045SOL     OW25033   0.045   1.398   2.892
 8045SOL    HW125034   0.012   1.327   2.830
 8045SOL    HW225035   0.144   1.411   2.879
 8046SOL     OW25036   0.292   4.998   1.641
 8046SOL    HW125037   0.335   5.008   1.731
 8046SOL    HW225038   0.233   5.076   1.623
 8047SOL     OW25039   3.704   6.817   6.115
 8047SOL    HW125040   3.628   6.800   6.052
 8047SOL    HW225041   3.713   6.740   6.178
 8048SOL     OW25042   3.946   2.991   0.518
 8048SOL    HW125043   4.038   2.958   0.538
 8048SOL    HW225044   3.879   2.940   0.572
 8049SOL     OW25045   1.211   6.475   0.229
 8049SOL    HW125046   1.135   6.519   0.277
 8049SOL    HW225047   1.175   6.416   0.156
 8050SOL     OW25048   1.577   4.267   4.211
 8050SOL    HW125049   1.531   4.292   4.297
 8050SOL    HW225050   1.543   4.178   4.180
 8051SOL     OW25051   5.123   5.902   4.311
 8051SOL    HW125052   5.206   5.864   4.354
 8051SOL    HW225053   5.078   5.964   4.374
 8052SOL     OW25054   2.572   1.250   1.904
 8052SOL    HW125055   2.651   1.310   1.918
 8052SOL    HW225056   2.518   1.246   1.988
 8053SOL     OW25057   2.734   3.171   5.503
 8053SOL    HW125058   2.673   3.154   5.580
 8053SOL    HW225059   2.740   3.089   5.446
 8054SOL     OW25060   5.978   4.428   5.032
 8054SOL    HW125061   5.971   4.492   5.109
 8054SOL    HW225062   5.958   4.476   4.947
 8055SOL     OW25063   0.216   0.433   5.273
 8055SOL    HW125064   0.149   0.359   5.261
 8055SOL    HW225065   0.308   0.394   5.273
 8056SOL     OW25066   2.737   6.870   3.692
 8056SOL    HW125067   2.750   6.936   3.766
 8056SOL    HW225068   2.805   6.797   3.699
 8057SOL     OW25069   2.549   1.976   1.877
 8057SOL    HW125070   2.632   1.997   1.928
 8057SOL    HW225071   2.517   2.057   1.827
 8058SOL     OW25072   2.839   6.565   3.169
 8058SOL    HW125073   2.834   6.645   3.228
 8058SOL    HW225074   2.788   6.582   3.085
 8059SOL     OW25075   3.327   1.415   5.512
 8059SOL    HW125076   3.377   1.393   5.596
 8059SOL    HW225077   3.229   1.403   5.527
 8060SOL     OW25078   6.719   0.477   5.784
 8060SOL    HW125079   6.647   0.498   5.850
 8060SOL    HW225080   6.746   0.381   5.794
 8061SOL     OW25081   0.192   0.799   2.430
 8061SOL    HW125082   0.273   0.793   2.488
 8061SOL    HW225083   0.184   0.891   2.392
 8062SOL     OW25084   3.948   5.389   4.494
 8062SOL    HW125085   3.994   5.313   4.540
 8062SOL    HW225086   3.849   5.375   4.496
 8063SOL     OW25087   3.527   0.686   2.969
 8063SOL    HW125088   3.544   0.709   3.064
 8063SOL    HW225089   3.491   0.592   2.963
 8064SOL     OW25090   6.467   2.851   0.492
 8064SOL    HW125091   6.538   2.859   0.423
 8064SOL    HW225092   6.490   2.908   0.571
 8065SOL     OW25093   3.687   6.961   4.540
 8065SOL    HW125094   3.628   0.008   4.567
 8065SOL    HW225095   3.781   6.981   4.570
 8066SOL     OW25096   6.397   1.000   4.830
 8066SOL    HW125097   6.433   0.970   4.918
 8066SOL    HW225098   6.454   0.962   4.757
 8067SOL     OW25099   5.108   3.035   3.565
 8067SOL    HW125100   5.186   3.080   3.609
 8067SOL    HW225101   5.025   3.051   3.620
 8068SOL     OW25102   0.753   5.089   1.320
 8068SOL    HW125103   0.705   5.036   1.250
 8068SOL    HW225104   0.845   5.111   1.288
 8069SOL     OW25105   3.130   4.997   2.189
 8069SOL    HW125106   3.206   4.968   2.130
 8069SOL    HW225107   3.045   4.957   2.155
 8070SOL     OW25108   3.897   4.357   0.752
 8070SOL    HW125109   3.852   4.269   0.732
 8070SOL    HW225110   3.964   4.345   0.825
 8071SOL     OW25111   4.105   6.763   5.064
 8071SOL    HW125112   4.039   6.735   5.134
 8071SOL    HW225113   4.197   6.765   5.104
 8072SOL     OW25114   3.023   2.788   0.038
 8072SOL    HW125115   3.087   2.714   0.058
 8072SOL    HW225116   2.959   2.797   0.114
 8073SOL     OW25117   3.275   0.146   6.033
 8073SOL    HW125118   3.295   0.204   5.953
 8073SOL    HW225119   3.241   0.058   6.002
 8074SOL     OW25120   1.693   1.045   0.918
 8074SOL    HW125121   1.728   1.137   0.936
 8074SOL    HW225122   1.720   1.016   0.827
 8075SOL     OW25123   0.773   6.820   6.997
 8075SOL    HW125124   0.765   6.915   6.967
 8075SOL    HW225125   0.815   6.818   0.059
 8076SOL     OW25126   0.097   6.986   6.393
 8076SOL    HW125127   0.147   6.940   6.320
 8076SOL    HW225128   0.151   0.034   6.427
 8077SOL     OW25129   4.078   6.186   1.939
 8077SOL    HW125130   4.092   6.215   1.844
 8077SOL    HW225131   3.995   6.229   1.975
 8078SOL     OW25132   0.856   1.705   0.864
 8078SOL    HW125133   0.872   1.634   0.796
 8078SOL    HW225134   0.805   1.667   0.941
 8079SOL     OW25135   0.207   1.580   4.498
 8079SOL    HW125136   0.153   1.501   4.467
 8079SOL    HW225137   0.249   1.560   4.587
 8080SOL     OW25138   1.355   2.459   2.055
 8080SOL    HW125139   1.425   2.430   1.989
 8080SOL    HW225140   1.372   2.554   2.081
 8081SOL     OW25141   6.184   4.569   5.842
 8081SOL    HW125142   6.278   4.600   5.835
 8081SOL    HW225143   6.129   4.612   5.770
 8082SOL     OW25144   2.992   0.577   2.054
 8082SOL    HW125145   2.949   0.532   1.976
 8082SOL    HW225146   2.982   0.519   2.135
 8083SOL     OW25147   5.726   3.143   3.743
 8083SOL    HW125148   5.807   3.124   3.687
 8083SOL    HW225149   5.645   3.145   3.685
 8084SOL     OW25150   2.429   0.767   5.571
 8084SOL    HW125151   2.438   0.673   5.537
 8084SOL    HW225152   2.464   0.772   5.664
 8085SOL     OW25153   6.615   6.457   3.066
 8085SOL    HW125154   6.680   6.461   2.990
 8085SOL    HW225155   6.524   6.436   3.030
 8086SOL     OW25156   6.842   0.919   1.523
 8086SOL    HW125157   6.820   0.830   1.483
 8086SOL    HW225158   6.761   0.978   1.520
 8087SOL     OW25159   1.353   0.887   6.511
 8087SOL    HW125160   1.451   0.864   6.509
 8087SOL    HW225161   1.313   0.867   6.422
 8088SOL     OW25162   5.944   6.996   7.011
 8088SOL    HW125163   5.895   7.014   6.926
 8088SOL    HW225164   5.946   6.898   7.029
 8089SOL     OW25165   5.701   2.530   6.363
 8089SOL    HW125166   5.797   2.557   6.364
 8089SOL    HW225167   5.662   2.541   6.454
 8090SOL     OW25168   3.685   1.441   6.047
 8090SOL    HW125169   3.611   1.480   5.994
 8090SOL    HW225170   3.728   1.367   5.995
 8091SOL     OW25171   1.262   4.312   4.217
 8091SOL    HW125172   1.308   4.228   4.188
 8091SOL    HW225173   1.230   4.303   4.311
 8092SOL     OW25174   4.824   1.971   5.223
 8092SOL    HW125175   4.894   1.900   5.217
 8092SOL    HW225176   4.813   2.015   5.134
 8093SOL     OW25177   3.227   5.483   2.944
 8093SOL    HW125178   3.303   5.482   2.879
 8093SOL    HW225179   3.141   5.474   2.893
 8094SOL     OW25180   0.595   3.874   5.629
 8094SOL    HW125181   0.651   3.845   5.706
 8094SOL    HW225182   0.502   3.839   5.640
 8095SOL     OW25183   0.965   5.183   4.801
 8095SOL    HW125184   1.029   5.182   4.724
 8095SOL    HW225185   0.982   5.265   4.857
 8096SOL     OW25186   0.986   0.442   2.311
 8096SOL    HW125187   0.994   0.422   2.409
 8096SOL    HW225188   1.077   0.443   2.270
 8097SOL     OW25189   4.000   0.281   4.693
 8097SOL    HW125190   3.923   0.306   4.634
 8097SOL    HW225191   3.989   0.326   4.782
 8098SOL     OW25192   1.638   6.470   3.503
 8098SOL    HW125193   1.683   6.424   3.427
 8098SOL    HW225194   1.672   6.564   3.510
 8099SOL     OW25195   4.396   6.235   4.468
 8099SOL    HW125196   4.393   6.257   4.370
 8099SOL    HW225197   4.488   6.253   4.503
 8100SOL     OW25198   6.397   1.333   6.687
 8100SOL    HW125199   6.332   1.405   6.663
 8100SOL    HW225200   6.348   1.259   6.733
 8101SOL     OW25201   2.308   4.965   0.807
 8101SOL    HW125202   2.391   4.910   0.797
 8101SOL    HW225203   2.328   5.047   0.861
 8102SOL     OW25204   0.962   3.535   4.285
 8102SOL    HW125205   1.059   3.557   4.274
 8102SOL    HW225206   0.918   3.533   4.195
 8103SOL     OW25207   3.405   0.467   2.205
 8103SOL    HW125208   3.342   0.390   2.213
 8103SOL    HW225209   3.458   0.475   2.290
 8104SOL     OW25210   1.954   0.148   5.374
 8104SOL    HW125211   2.009   0.196   5.443
 8104SOL    HW225212   1.873   0.109   5.417
 8105SOL     OW25213   0.136   2.475   2.790
 8105SOL    HW125214   0.118   2.441   2.883
 8105SOL    HW225215   0.065   2.540   2.765
 8106SOL     OW25216   2.626   6.540   3.489
 8106SOL    HW125217   2.657   6.485   3.411
 8106SOL    HW225218   2.558   6.488   3.541
 8107SOL     OW25219   1.027   5.989   4.277
 8107SOL    HW125220   1.038   6.011   4.374
 8107SOL    HW225221   0.935   5.953   4.262
 8108SOL     OW25222   6.564   1.401   6.884
 8108SOL    HW125223   6.607   1.486   6.855
 8108SOL    HW225224   6.517   1.359   6.806
 8109SOL     OW25225   0.286   4.363   6.351
 8109SOL    HW125226   0.273   4.356   6.450
 8109SOL    HW225227   0.227   4.297   6.305
 8110SOL     OW25228   4.131   4.426   1.630
 8110SOL    HW125229   4.208   4.372   1.663
 8110SOL    HW225230   4.147   4.452   1.535
 8111SOL     OW25231   5.273   1.060   4.118
 8111SOL    HW125232   5.266   0.966   4.151
 8111SOL    HW225233   5.294   1.059   4.020
 8112SOL     OW25234   1.352   3.321   4.261
 8112SOL    HW125235   1.401   3.282   4.339
 8112SOL    HW225236   1.310   3.248   4.207
 8113SOL     OW25237   6.336   3.605   0.755
 8113SOL    HW125238   6.341   3.507   0.769
 8113SOL    HW225239   6.250   3.640   0.793
 8114SOL     OW25240   1.127   3.491   1.932
 8114SOL    HW125241   1.123   3.516   2.029
 8114SOL    HW225242   1.091   3.398   1.920
 8115SOL     OW25243   3.187   6.309   5.577
 8115SOL    HW125244   3.225   6.287   5.487
 8115SOL    HW225245   3.176   6.225   5.630
 8116SOL     OW25246   4.497   5.179   0.316
 8116SOL    HW125247   4.579   5.233   0.334
 8116SOL    HW225248   4.516   5.083   0.338
 8117SOL     OW25249   2.273   0.037   3.164
 8117SOL    HW125250   2.327   0.111   3.206
 8117SOL    HW225251   2.335   6.992   3.136
 8118SOL     OW25252   6.266   3.847   6.576
 8118SOL    HW125253   6.309   3.793   6.649
 8118SOL    HW225254   6.291   3.943   6.587
 8119SOL     OW25255   4.873   6.203   6.153
 8119SOL    HW125256   4.938   6.278   6.147
 8119SOL    HW225257   4.915   6.118   6.120
 8120SOL     OW25258   2.924   4.574   0.393
 8120SOL    HW125259   2.829   4.583   0.360
 8120SOL    HW225260   2.955   4.661   0.431
 8121SOL     OW25261   0.921   4.681   2.114
 8121SOL    HW125262   0.970   4.734   2.045
 8121SOL    HW225263   0.984   4.617   2.158
 8122SOL     OW25264   0.805   4.546   3.059
 8122SOL    HW125265   0.889   4.577   3.014
 8122SOL    HW225266   0.768   4.621   3.115
 8123SOL     OW25267   6.912   1.191   0.122
 8123SOL    HW125268   6.819   1.227   0.134
 8123SOL    HW225269   6.914   1.095   0.151
 8124SOL     OW25270   5.592   6.270   3.591
 8124SOL    HW125271   5.691   6.284   3.591
 8124SOL    HW225272   5.572   6.176   3.563
 8125SOL     OW25273   1.143   1.035   2.487
 8125SOL    HW125274   1.097   1.032   2.399
 8125SOL    HW225275   1.193   0.949   2.501
 8126SOL     OW25276   4.997   4.950   3.876
 8126SOL    HW125277   4.994   4.895   3.793
 8126SOL    HW225278   5.090   4.982   3.892
 8127SOL     OW25279   2.758   3.036   6.228
 8127SOL    HW125280   2.804   3.039   6.317
 8127SOL    HW225281   2.667   2.997   6.238
 8128SOL     OW25282   2.980   2.100   1.927
 8128SOL    HW125283   2.962   2.187   1.973
 8128SOL    HW225284   3.079   2.091   1.911
 8129SOL     OW25285   2.410   2.044   6.854
 8129SOL    HW125286   2.475   2.120   6.855
 8129SOL    HW225287   2.323   2.075   6.815
 8130SOL     OW25288   1.488   6.334   6.610
 8130SOL    HW125289   1.443   6.245   6.601
 8130SOL    HW225290   1.587   6.321   6.616
 8131SOL     OW25291   2.754   2.012   1.557
 8131SOL    HW125292   2.788   2.067   1.481
 8131SOL    HW225293   2.794   2.044   1.642
 8132SOL     OW25294   5.812   6.391   4.832
 8132SOL    HW125295   5.910   6.381   4.850
 8132SOL    HW225296   5.786   6.487   4.838
 8133SOL     OW25297   3.749   5.489   2.023
 8133SOL    HW125298   3.682   5.483   2.097
 8133SOL    HW225299   3.703   5.522   1.940
 8134SOL     OW25300   6.871   1.076   6.448
 8134SOL    HW125301   6.971   1.069   6.442
 8134SOL    HW225302   6.833   1.086   6.356
 8135SOL     OW25303   1.743   0.894   1.425
 8135SOL    HW125304   1.779   0.883   1.518
 8135SOL    HW225305   1.657   0.843   1.417
 8136SOL     OW25306   5.646   5.406   2.401
 8136SOL    HW125307   5.608   5.489   2.442
 8136SOL    HW225308   5.736   5.427   2.362
 8137SOL     OW25309   2.912   1.083   5.208
 8137SOL    HW125310   2.846   1.013   5.181
 8137SOL    HW225311   3.001   1.064   5.166
 8138SOL     OW25312   5.357   1.167   1.563
 8138SOL    HW125313   5.410   1.088   1.534
 8138SOL    HW225314   5.313   1.148   1.650
 8139SOL     OW25315   0.734   1.425   2.268
 8139SOL    HW125316   0.833   1.407   2.269
 8139SOL    HW225317   0.718   1.519   2.237
 8140SOL     OW25318   4.828   1.120   4.733
 8140SOL    HW125319   4.739   1.153   4.764
 8140SOL    HW225320   4.824   1.101   4.634
 8141SOL     OW25321   4.557   5.464   6.086
 8141SOL    HW125322   4.500   5.386   6.059
 8141SOL    HW225323   4.641   5.464   6.032
 8142SOL     OW25324   6.421   5.040   7.023
 8142SOL    HW125325   6.423   5.122   0.051
 8142SOL    HW225326   6.366   4.969   0.039
 8143SOL     OW25327   6.365   4.836   0.152
 8143SOL    HW125328   6.321   4.775   0.087
 8143SOL    HW225329   6.463   4.817   0.155
 8144SOL     OW25330   5.477   0.007   6.971
 8144SOL    HW125331   5.482   0.015   0.042
 8144SOL    HW225332   5.449   6.943   6.947
 8145SOL     OW25333   5.802   5.721   2.641
 8145SOL    HW125334   5.764   5.762   2.724
 8145SOL    HW225335   5.876   5.779   2.606
 8146SOL     OW25336   3.580   1.639   5.239
 8146SOL    HW125337   3.653   1.578   5.207
 8146SOL    HW225338   3.617   1.702   5.308
 8147SOL     OW25339   5.830   2.353   3.200
 8147SOL    HW125340   5.827   2.265   3.248
 8147SOL    HW225341   5.905   2.353   3.135
 8148SOL     OW25342   5.790   3.925   2.717
 8148SOL    HW125343   5.853   3.947   2.792
 8148SOL    HW225344   5.706   3.887   2.755
 8149SOL     OW25345   2.926   5.839   2.586
 8149SOL    HW125346   2.986   5.778   2.534
 8149SOL    HW225347   2.864   5.784   2.642
 8150SOL     OW25348   6.898   4.786   0.427
 8150SOL    HW125349   6.921   4.707   0.484
 8150SOL    HW225350   6.830   4.843   0.475
 8151SOL     OW25351   0.435   2.374   3.132
 8151SOL    HW125352   0.447   2.277   3.111
 8151SOL    HW225353   0.400   2.422   3.051
 8152SOL     OW25354   1.086   1.656   2.863
 8152SOL    HW125355   1.176   1.698   2.863
 8152SOL    HW225356   1.094   1.560   2.893
 8153SOL     OW25357   3.455   6.904   2.909
 8153SOL    HW125358   3.409   6.900   2.820
 8153SOL    HW225359   3.536   6.847   2.908
 8154SOL     OW25360   2.173   5.919   4.331
 8154SOL    HW125361   2.156   5.849   4.263
 8154SOL    HW225362   2.263   5.905   4.372
 8155SOL     OW25363   2.957   3.259   1.990
 8155SOL    HW125364   3.021   3.182   1.986
 8155SOL    HW225365   2.910   3.267   1.903
 8156SOL     OW25366   6.177   0.188   5.554
 8156SOL    HW125367   6.100   0.175   5.617
 8156SOL    HW225368   6.207   0.283   5.557
 8157SOL     OW25369   5.750   5.978   6.235
 8157SOL    HW125370   5.702   5.986   6.322
 8157SOL    HW225371   5.840   6.021   6.242
 8158SOL     OW25372   1.444   5.906   0.588
 8158SOL    HW125373   1.426   5.976   0.520
 8158SOL    HW225374   1.543   5.888   0.593
 8159SOL     OW25375   2.315   5.501   2.278
 8159SOL    HW125376   2.232   5.516   2.224
 8159SOL    HW225377   2.380   5.448   2.223
 8160SOL     OW25378   4.383   1.571   0.957
 8160SOL    HW125379   4.401   1.650   0.898
 8160SOL    HW225380   4.326   1.505   0.908
 8161SOL     OW25381   4.766   0.941   1.224
 8161SOL    HW125382   4.843   0.947   1.159
 8161SOL    HW225383   4.681   0.958   1.175
 8162SOL     OW25384   6.145   6.609   6.631
 8162SOL    HW125385   6.122   6.706   6.637
 8162SOL    HW225386   6.101   6.560   6.707
 8163SOL     OW25387   2.757   4.287   5.314
 8163SOL    HW125388   2.818   4.332   5.381
 8163SOL    HW225389   2.757   4.189   5.330
 8164SOL     OW25390   5.986   3.380   1.226
 8164SOL    HW125391   5.943   3.372   1.316
 8164SOL    HW225392   6.072   3.429   1.235
 8165SOL     OW25393   1.818   4.402   1.272
 8165SOL    HW125394   1.789   4.496   1.252
 8165SOL    HW225395   1.760   4.364   1.344
 8166SOL     OW25396   2.294   1.020   1.877
 8166SOL    HW125397   2.206   1.024   1.925
 8166SOL    HW225398   2.323   1.112   1.852
 8167SOL     OW25399   5.582   2.508   3.899
 8167SOL    HW125400   5.516   2.502   3.824
 8167SOL    HW225401   5.649   2.434   3.891
 8168SOL     OW25402   3.852   1.842   2.572
 8168SOL    HW125403   3.884   1.809   2.661
 8168SOL    HW225404   3.763   1.803   2.552
 8169SOL     OW25405   4.148   3.457   0.914
 8169SOL    HW125406   4.201   3.425   0.835
 8169SOL    HW225407   4.068   3.398   0.926
 8170SOL     OW25408   1.520   5.899   3.717
 8170SOL    HW125409   1.506   5.998   3.711
 8170SOL    HW225410   1.557   5.865   3.631
 8171SOL     OW25411   0.568   2.142   6.783
 8171SOL    HW125412   0.550   2.223   6.727
 8171SOL    HW225413   0.494   2.129   6.849
 8172SOL     OW25414   6.932   0.576   0.938
 8172SOL    HW125415   6.854   0.626   0.975
 8172SOL    HW225416   6.953   0.499   0.998
 8173SOL     OW25417   3.583   2.606   7.003
 8173SOL    HW125418   3.506   2.658   6.968
 8173SOL    HW225419   3.668   2.656   6.984
 8174SOL     OW25420   5.513   1.879   0.992
 8174SOL    HW125421   5.432   1.937   0.989
 8174SOL    HW225422   5.542   1.857   0.899
 8175SOL     OW25423   6.577   2.605   6.889
 8175SOL    HW125424   6.482   2.599   6.921
 8175SOL    HW225425   6.637   2.556   6.953
 8176SOL     OW25426   3.447   5.809   2.181
 8176SOL    HW125427   3.424   5.898   2.222
 8176SOL    HW225428   3.505   5.758   2.244
 8177SOL     OW25429   1.826   6.179   3.568
 8177SOL    HW125430   1.838   6.084   3.595
 8177SOL    HW225431   1.758   6.185   3.495
 8178SOL     OW25432   2.111   0.075   6.134
 8178SOL    HW125433   2.156   0.155   6.172
 8178SOL    HW225434   2.012   0.081   6.150
 8179SOL     OW25435   3.186   3.154   6.873
 8179SOL    HW125436   3.118   3.089   6.838
 8179SOL    HW225437   3.262   3.104   6.913
 8180SOL     OW25438   6.714   0.057   4.164
 8180SOL    HW125439   6.723   0.114   4.246
 8180SOL    HW225440   6.744   0.109   4.084
 8181SOL     OW25441   2.589   2.330   3.095
 8181SOL    HW125442   2.519   2.270   3.134
 8181SOL    HW225443   2.648   2.365   3.168
 8182SOL     OW25444   3.121   1.913   5.768
 8182SOL    HW125445   3.030   1.906   5.727
 8182SOL    HW225446   3.172   1.986   5.723
 8183SOL     OW25447   1.061   3.247   5.090
 8183SOL    HW125448   1.022   3.156   5.109
 8183SOL    HW225449   0.987   3.313   5.078
 8184SOL     OW25450   6.572   0.849   5.761
 8184SOL    HW125451   6.605   0.795   5.683
 8184SOL    HW225452   6.634   0.926   5.777
 8185SOL     OW25453   3.175   0.732   0.540
 8185SOL    HW125454   3.161   0.686   0.452
 8185SOL    HW225455   3.167   0.665   0.614
 8186SOL     OW25456   3.420   6.017   5.335
 8186SOL    HW125457   3.458   6.034   5.426
 8186SOL    HW225458   3.368   5.931   5.337
 8187SOL     OW25459   1.306   1.339   5.514
 8187SOL    HW125460   1.210   1.313   5.529
 8187SOL    HW225461   1.323   1.347   5.416
 8188SOL     OW25462   5.214   1.463   2.705
 8188SOL    HW125463   5.221   1.562   2.696
 8188SOL    HW225464   5.118   1.437   2.708
 8189SOL     OW25465   5.319   4.430   2.465
 8189SOL    HW125466   5.301   4.517   2.420
 8189SOL    HW225467   5.395   4.384   2.419
 8190SOL     OW25468   5.309   3.760   4.013
 8190SOL    HW125469   5.284   3.843   3.963
 8190SOL    HW225470   5.396   3.724   3.978
 8191SOL     OW25471   0.845   5.529   3.875
 8191SOL    HW125472   0.888   5.439   3.882
 8191SOL    HW225473   0.915   5.599   3.859
 8192SOL     OW25474   2.963   5.786   0.979
 8192SOL    HW125475   2.956   5.818   1.074
 8192SOL    HW225476   2.873   5.763   0.944
 8193SOL     OW25477   5.740   6.176   4.972
 8193SOL    HW125478   5.768   6.262   4.930
 8193SOL    HW225479   5.757   6.180   5.071
 8194SOL     OW25480   6.316   1.552   6.949
 8194SOL    HW125481   6.293   1.643   6.916
 8194SOL    HW225482   6.384   1.510   6.888
 8195SOL     OW25483   0.006   0.483   0.706
 8195SOL    HW125484   0.103   0.460   0.716
 8195SOL    HW225485   7.000   0.517   0.793
 8196SOL     OW25486   3.481   6.299   5.771
 8196SOL    HW125487   3.490   6.219   5.829
 8196SOL    HW225488   3.395   6.347   5.793
 8197SOL     OW25489   6.682   0.829   6.281
 8197SOL    HW125490   6.725   0.865   6.364
 8197SOL    HW225491   6.726   0.742   6.257
 8198SOL     OW25492   2.720   6.865   3.002
 8198SOL    HW125493   2.704   6.937   2.935
 8198SOL    HW225494   2.736   6.778   2.954
 8199SOL     OW25495   0.429   4.006   0.288
 8199SOL    HW125496   0.330   4.012   0.304
 8199SOL    HW225497   0.447   3.935   0.219
 8200SOL     OW25498   4.619   4.059   1.637
 8200SOL    HW125499   4.546   4.094   1.696
 8200SOL    HW225500   4.619   4.109   1.550
 8201SOL     OW25501   5.158   0.833   4.727
 8201SOL    HW125502   5.138   0.931   4.729
 8201SOL    HW225503   5.254   0.819   4.701
 8202SOL     OW25504   1.830   5.178   4.072
 8202SOL    HW125505   1.739   5.135   4.072
 8202SOL    HW225506   1.873   5.165   4.161
 8203SOL     OW25507   4.810   3.773   1.382
 8203SOL    HW125508   4.902   3.811   1.385
 8203SOL    HW225509   4.781   3.761   1.287
 8204SOL     OW25510   3.517   0.010   2.177
 8204SOL    HW125511   3.473   6.962   2.224
 8204SOL    HW225512   3.584   0.053   2.238
 8205SOL     OW25513   5.715   5.334   2.129
 8205SOL    HW125514   5.664   5.328   2.215
 8205SOL    HW225515   5.748   5.244   2.103
 8206SOL     OW25516   3.960   2.186   5.714
 8206SOL    HW125517   3.880   2.203   5.656
 8206SOL    HW225518   3.931   2.141   5.799
 8207SOL     OW25519   3.067   4.843   5.710
 8207SOL    HW125520   3.088   4.786   5.631
 8207SOL    HW225521   2.998   4.798   5.766
 8208SOL     OW25522   2.030   5.324   1.816
 8208SOL    HW125523   1.932   5.337   1.804
 8208SOL    HW225524   2.061   5.377   1.895
 8209SOL     OW25525   1.810   1.052   5.358
 8209SOL    HW125526   1.880   1.000   5.308
 8209SOL    HW225527   1.853   1.104   5.431
 8210SOL     OW25528   1.814   0.883   0.694
 8210SOL    HW125529   1.901   0.868   0.647
 8210SOL    HW225530   1.739   0.873   0.629
 8211SOL     OW25531   3.249   3.595   4.173
 8211SOL    HW125532   3.235   3.505   4.132
 8211SOL    HW225533   3.287   3.658   4.105
 8212SOL     OW25534   2.290   0.002   1.156
 8212SOL    HW125535   2.234   7.018   1.074
 8212SOL    HW225536   2.312   0.100   1.165
 8213SOL     OW25537   4.372   4.540   1.905
 8213SOL    HW125538   4.380   4.630   1.948
 8213SOL    HW225539   4.450   4.483   1.933
 8214SOL     OW25540   2.821   5.456   3.969
 8214SOL    HW125541   2.827   5.545   3.925
 8214SOL    HW225542   2.856   5.386   3.907
 8215SOL     OW25543   3.887   6.302   0.047
 8215SOL    HW125544   3.947   6.360   0.102
 8215SOL    HW225545   3.829   6.359   7.019
 8216SOL     OW25546   4.786   6.380   2.611
 8216SOL    HW125547   4.846   6.301   2.627
 8216SOL    HW225548   4.838   6.464   2.627
 8217SOL     OW25549   2.429   4.379   2.788
 8217SOL    HW125550   2.364   4.304   2.776
 8217SOL    HW225551   2.446   4.423   2.700
 8218SOL     OW25552   1.567   0.298   4.509
 8218SOL    HW125553   1.630   0.370   4.540
 8218SOL    HW225554   1.474   0.332   4.510
 8219SOL     OW25555   3.820   3.782   1.665
 8219SOL    HW125556   3.878   3.719   1.716
 8219SOL    HW225557   3.801   3.743   1.575
 8220SOL     OW25558   3.443   4.021   4.937
 8220SOL    HW125559   3.368   3.984   4.882
 8220SOL    HW225560   3.518   4.049   4.877
 8221SOL     OW25561   6.277   3.447   3.475
 8221SOL    HW125562   6.322   3.407   3.555
 8221SOL    HW225563   6.215   3.519   3.504
 8222SOL     OW25564   5.893   2.703   1.703
 8222SOL    HW125565   5.844   2.655   1.630
 8222SOL    HW225566   5.989   2.712   1.679
 8223SOL     OW25567   6.962   5.665   5.747
 8223SOL    HW125568   6.879   5.611   5.740
 8223SOL    HW225569   7.020   5.647   5.667
 8224SOL     OW25570   4.465   2.052   0.499
 8224SOL    HW125571   4.426   2.043   0.591
 8224SOL    HW225572   4.408   2.002   0.434
 8225SOL     OW25573   4.528   1.271   6.912
 8225SOL    HW125574   4.514   1.365   6.883
 8225SOL    HW225575   4.590   1.269   6.990
 8226SOL     OW25576   3.448   0.831   6.874
 8226SOL    HW125577   3.516   0.812   6.803
 8226SOL    HW225578   3.464   0.771   6.952
 8227SOL     OW25579   5.967   1.663   2.678
 8227SOL    HW125580   6.061   1.694   2.692
 8227SOL    HW225581   5.929   1.634   2.766
 8228SOL     OW25582   0.688   0.937   5.649
 8228SOL    HW125583   0.609   0.889   5.610
 8228SOL    HW225584   0.733   0.879   5.716
 8229SOL     OW25585   3.856   4.807   1.253
 8229SOL    HW125586   3.770   4.757   1.267
 8229SOL    HW225587   3.933   4.744   1.262
 8230SOL     OW25588   4.246   0.582   5.985
 8230SOL    HW125589   4.220   0.523   5.909
 8230SOL    HW225590   4.171   0.645   6.005
 8231SOL     OW25591   3.226   0.934   1.840
 8231SOL    HW125592   3.283   1.000   1.889
 8231SOL    HW225593   3.170   0.884   1.906
 8232SOL     OW25594   4.409   0.394   2.279
 8232SOL    HW125595   4.382   0.427   2.370
 8232SOL    HW225596   4.497   0.433   2.254
 8233SOL     OW25597   0.579   0.740   5.168
 8233SOL    HW125598   0.654   0.804   5.154
 8233SOL    HW225599   0.611   0.664   5.225
 8234SOL     OW25600   2.551   3.057   6.976
 8234SOL    HW125601   2.605   3.022   0.024
 8234SOL    HW225602   2.461   3.087   7.008
 8235SOL     OW25603   6.833   5.272   0.188
 8235SOL    HW125604   6.749   5.253   0.239
 8235SOL    HW225605   6.911   5.229   0.234
 8236SOL     OW25606   1.015   6.178   6.232
 8236SOL    HW125607   0.991   6.246   6.301
 8236SOL    HW225608   1.067   6.222   6.159
 8237SOL     OW25609   4.782   5.308   6.179
 8237SOL    HW125610   4.767   5.221   6.227
 8237SOL    HW225611   4.699   5.363   6.182
 8238SOL     OW25612   2.533   4.818   0.827
 8238SOL    HW125613   2.632   4.830   0.834
 8238SOL    HW225614   2.500   4.772   0.909
 8239SOL     OW25615   0.802   1.608   5.782
 8239SOL    HW125616   0.787   1.691   5.837
 8239SOL    HW225617   0.813   1.634   5.686
 8240SOL     OW25618   3.843   3.236   4.727
 8240SOL    HW125619   3.845   3.138   4.708
 8240SOL    HW225620   3.912   3.257   4.797
 8241SOL     OW25621   1.123   3.683   6.659
 8241SOL    HW125622   1.200   3.705   6.599
 8241SOL    HW225623   1.072   3.766   6.682
 8242SOL     OW25624   1.083   4.047   4.599
 8242SOL    HW125625   1.070   4.074   4.694
 8242SOL    HW225626   1.109   3.951   4.595
 8243SOL     OW25627   0.755   4.604   5.436
 8243SOL    HW125628   0.829   4.585   5.500
 8243SOL    HW225629   0.759   4.538   5.360
 8244SOL     OW25630   1.445   0.074   3.896
 8244SOL    HW125631   1.379   0.039   3.830
 8244SOL    HW225632   1.476   0.165   3.868
 8245SOL     OW25633   5.123   1.188   3.850
 8245SOL    HW125634   5.180   1.245   3.791
 8245SOL    HW225635   5.035   1.231   3.865
 8246SOL     OW25636   1.017   4.529   6.758
 8246SOL    HW125637   1.085   4.456   6.752
 8246SOL    HW225638   0.935   4.502   6.708
 8247SOL     OW25639   3.072   5.161   3.594
 8247SOL    HW125640   3.003   5.089   3.591
 8247SOL    HW225641   3.098   5.187   3.501
 8248SOL     OW25642   0.536   5.566   2.977
 8248SOL    HW125643   0.551   5.628   3.054
 8248SOL    HW225644   0.607   5.581   2.907
 8249SOL     OW25645   2.158   2.070   6.090
 8249SOL    HW125646   2.140   2.029   6.000
 8249SOL    HW225647   2.098   2.028   6.158
 8250SOL     OW25648   1.701   1.687   6.564
 8250SOL    HW125649   1.643   1.647   6.635
 8250SOL    HW225650   1.732   1.777   6.593
 8251SOL     OW25651   6.532   2.615   4.917
 8251SOL    HW125652   6.485   2.657   4.994
 8251SOL    HW225653   6.619   2.662   4.901
 8252SOL     OW25654   2.150   2.429   6.524
 8252SOL    HW125655   2.092   2.487   6.468
 8252SOL    HW225656   2.240   2.470   6.533
 8253SOL     OW25657   3.625   5.969   0.022
 8253SOL    HW125658   3.706   6.004   7.006
 8253SOL    HW225659   3.651   5.894   0.084
 8254SOL     OW25660   5.756   5.331   0.789
 8254SOL    HW125661   5.744   5.364   0.696
 8254SOL    HW225662   5.835   5.270   0.794
 8255SOL     OW25663   0.441   0.061   5.750
 8255SOL    HW125664   0.506   0.081   5.677
 8255SOL    HW225665   0.349   0.052   5.712
 8256SOL     OW25666   1.892   6.244   2.511
 8256SOL    HW125667   1.896   6.151   2.546
 8256SOL    HW225668   1.808   6.288   2.542
 8257SOL     OW25669   5.149   3.967   4.249
 8257SOL    HW125670   5.156   4.040   4.181
 8257SOL    HW225671   5.082   3.992   4.319
 8258SOL     OW25672   6.346   3.399   2.012
 8258SOL    HW125673   6.277   3.330   1.993
 8258SOL    HW225674   6.355   3.460   1.933
 8259SOL     OW25675   4.735   2.257   4.238
 8259SOL    HW125676   4.757   2.184   4.174
 8259SOL    HW225677   4.796   2.252   4.317
 8260SOL     OW25678   3.011   0.031   0.579
 8260SOL    HW125679   3.003   7.006   0.663
 8260SOL    HW225680   3.024   0.127   0.603
 8261SOL     OW25681   4.987   0.326   3.510
 8261SOL    HW125682   4.892   0.332   3.481
 8261SOL    HW225683   5.014   0.229   3.515
 8262SOL     OW25684   0.133   3.862   1.571
 8262SOL    HW125685   0.086   3.805   1.639
 8262SOL    HW225686   0.169   3.804   1.498
 8263SOL     OW25687   6.777   2.185   0.296
 8263SOL    HW125688   6.779   2.096   0.252
 8263SOL    HW225689   6.832   2.250   0.245
 8264SOL     OW25690   1.983   6.615   2.697
 8264SOL    HW125691   2.034   6.570   2.623
 8264SOL    HW225692   1.940   6.698   2.662
 8265SOL     OW25693   5.251   0.856   0.576
 8265SOL    HW125694   5.152   0.867   0.580
 8265SOL    HW225695   5.291   0.878   0.665
 8266SOL     OW25696   2.401   6.855   3.686
 8266SOL    HW125697   2.493   6.860   3.648
 8266SOL    HW225698   2.407   6.851   3.786
 8267SOL     OW25699   0.946   4.073   3.061
 8267SOL    HW125700   0.898   4.156   3.089
 8267SOL    HW225701   1.045   4.088   3.067
 8268SOL     OW25702   3.311   4.003   6.593
 8268SOL    HW125703   3.339   4.087   6.547
 8268SOL    HW225704   3.304   3.929   6.526
 8269SOL     OW25705   4.461   2.198   3.050
 8269SOL    HW125706   4.480   2.295   3.040
 8269SOL    HW225707   4.521   2.145   2.990
 8270SOL     OW25708   3.918   6.951   6.028
 8270SOL    HW125709   3.970   6.874   5.992
 8270SOL    HW225710   3.845   6.916   6.087
 8271SOL     OW25711   4.658   6.246   4.314
 8271SOL    HW125712   4.656   6.224   4.216
 8271SOL    HW225713   4.671   6.345   4.325
 8272SOL     OW25714   0.576   6.832   1.810
 8272SOL    HW125715   0.657   6.891   1.815
 8272SOL    HW225716   0.495   6.885   1.833
 8273SOL     OW25717   2.947   6.470   0.145
 8273SOL    HW125718   2.959   6.503   0.051
 8273SOL    HW225719   2.903   6.542   0.200
 8274SOL     OW25720   4.527   5.889   6.734
 8274SOL    HW125721   4.551   5.796   6.709
 8274SOL    HW225722   4.487   5.936   6.655
 8275SOL     OW25723   6.095   0.860   4.453
 8275SOL    HW125724   6.123   0.934   4.514
 8275SOL    HW225725   6.099   0.773   4.503
 8276SOL     OW25726   6.651   2.797   6.635
 8276SOL    HW125727   6.593   2.826   6.712
 8276SOL    HW225728   6.745   2.785   6.668
 8277SOL     OW25729   0.739   5.836   6.059
 8277SOL    HW125730   0.718   5.813   5.965
 8277SOL    HW225731   0.692   5.773   6.121
 8278SOL     OW25732   3.630   1.575   6.991
 8278SOL    HW125733   3.690   1.631   6.934
 8278SOL    HW225734   3.592   1.501   6.936
 8279SOL     OW25735   4.414   5.936   6.266
 8279SOL    HW125736   4.458   6.016   6.226
 8279SOL    HW225737   4.407   5.864   6.197
 8280SOL     OW25738   5.053   2.650   0.582
 8280SOL    HW125739   4.997   2.693   0.654
 8280SOL    HW225740   4.993   2.620   0.508
 8281SOL     OW25741   1.958   4.921   0.094
 8281SOL    HW125742   2.046   4.897   0.137
 8281SOL    HW225743   1.899   4.840   0.093
 8282SOL     OW25744   2.893   2.897   1.288
 8282SOL    HW125745   2.902   2.996   1.302
 8282SOL    HW225746   2.927   2.874   1.197
 8283SOL     OW25747   0.343   4.939   3.398
 8283SOL    HW125748   0.257   4.986   3.375
 8283SOL    HW225749   0.354   4.859   3.339
 8284SOL     OW25750   2.019   1.860   1.691
 8284SOL    HW125751   2.043   1.779   1.745
 8284SOL    HW225752   2.052   1.942   1.737
 8285SOL     OW25753   3.289   4.394   5.950
 8285SOL    HW125754   3.207   4.347   5.983
 8285SOL    HW225755   3.299   4.378   5.852
 8286SOL     OW25756   5.521   1.290   4.645
 8286SOL    HW125757   5.480   1.219   4.703
 8286SOL    HW225758   5.561   1.247   4.563
 8287SOL     OW25759   1.306   0.256   3.576
 8287SOL    HW125760   1.214   0.220   3.564
 8287SOL    HW225761   1.310   0.351   3.544
 8288SOL     OW25762   1.510   1.164   2.472
 8288SOL    HW125763   1.542   1.086   2.525
 8288SOL    HW225764   1.587   1.207   2.426
 8289SOL     OW25765   6.454   1.887   5.471
 8289SOL    HW125766   6.493   1.810   5.422
 8289SOL    HW225767   6.506   1.902   5.556
 8290SOL     OW25768   3.687   2.586   1.744
 8290SOL    HW125769   3.662   2.494   1.777
 8290SOL    HW225770   3.785   2.589   1.723
 8291SOL     OW25771   5.536   6.467   6.164
 8291SOL    HW125772   5.570   6.382   6.125
 8291SOL    HW225773   5.578   6.482   6.254
 8292SOL     OW25774   1.377   4.082   4.724
 8292SOL    HW125775   1.432   4.089   4.641
 8292SOL    HW225776   1.434   4.047   4.799
 8293SOL     OW25777   2.680   5.242   2.747
 8293SOL    HW125778   2.623   5.228   2.666
 8293SOL    HW225779   2.631   5.208   2.828
 8294SOL     OW25780   6.750   3.500   6.204
 8294SOL    HW125781   6.737   3.493   6.303
 8294SOL    HW225782   6.663   3.521   6.160
 8295SOL     OW25783   4.714   4.318   2.455
 8295SOL    HW125784   4.705   4.361   2.365
 8295SOL    HW225785   4.726   4.220   2.444
 8296SOL     OW25786   3.575   6.342   0.752
 8296SOL    HW125787   3.483   6.360   0.786
 8296SOL    HW225788   3.597   6.407   0.679
 8297SOL     OW25789   6.574   4.569   2.831
 8297SOL    HW125790   6.584   4.500   2.759
 8297SOL    HW225791   6.477   4.581   2.853
 8298SOL     OW25792   6.859   0.469   6.639
 8298SOL    HW125793   6.906   0.507   6.719
 8298SOL    HW225794   6.927   0.424   6.580
 8299SOL     OW25795   0.397   4.050   1.414
 8299SOL    HW125796   0.323   4.038   1.347
 8299SOL    HW225797   0.447   4.134   1.393
 8300SOL     OW25798   6.152   4.995   3.248
 8300SOL    HW125799   6.226   5.053   3.215
 8300SOL    HW225800   6.191   4.914   3.292
 8301SOL     OW25801   4.220   6.475   0.802
 8301SOL    HW125802   4.189   6.470   0.898
 8301SOL    HW225803   4.316   6.450   0.797
 8302SOL     OW25804   3.429   6.492   4.485
 8302SOL    HW125805   3.527   6.480   4.503
 8302SOL    HW225806   3.414   6.581   4.441
 8303SOL     OW25807   6.511   0.004   2.423
 8303SOL    HW125808   6.566   6.974   2.482
 8303SOL    HW225809   6.416   0.002   2.452
 8304SOL     OW25810   6.372   3.999   3.870
 8304SOL    HW125811   6.312   3.923   3.896
 8304SOL    HW225812   6.316   4.080   3.848
 8305SOL     OW25813   4.813   5.935   4.369
 8305SOL    HW125814   4.734   5.993   4.353
 8305SOL    HW225815   4.783   5.845   4.400
 8306SOL     OW25816   5.983   1.161   2.465
 8306SOL    HW125817   5.938   1.074   2.484
 8306SOL    HW225818   5.937   1.207   2.389
 8307SOL     OW25819   1.825   4.667   2.258
 8307SOL    HW125820   1.818   4.723   2.176
 8307SOL    HW225821   1.869   4.580   2.235
 8308SOL     OW25822   0.649   5.252   7.020
 8308SOL    HW125823   0.597   5.201   6.952
 8308SOL    HW225824   0.716   5.191   0.033
 8309SOL     OW25825   6.618   4.245   4.428
 8309SOL    HW125826   6.600   4.257   4.330
 8309SOL    HW225827   6.557   4.305   4.480
 8310SOL     OW25828   0.841   6.837   0.217
 8310SOL    HW125829   0.805   6.921   0.257
 8310SOL    HW225830   0.792   6.758   0.255
 8311SOL     OW25831   5.566   6.893   4.294
 8311SOL    HW125832   5.492   6.826   4.301
 8311SOL    HW225833   5.549   6.969   4.357
 8312SOL     OW25834   5.002   0.865   6.981
 8312SOL    HW125835   4.982   0.777   7.025
 8312SOL    HW225836   5.101   0.873   6.967
 8313SOL     OW25837   4.470   1.242   4.570
 8313SOL    HW125838   4.453   1.341   4.562
 8313SOL    HW225839   4.559   1.221   4.530
 8314SOL     OW25840   4.718   6.127   5.730
 8314SOL    HW125841   4.779   6.205   5.738
 8314SOL    HW225842   4.711   6.079   5.817
 8315SOL     OW25843   3.643   2.933   4.433
 8315SOL    HW125844   3.667   2.953   4.528
 8315SOL    HW225845   3.682   3.003   4.373
 8316SOL     OW25846   1.019   2.805   6.933
 8316SOL    HW125847   1.013   2.755   7.019
 8316SOL    HW225848   1.074   2.752   6.868
 8317SOL     OW25849   1.734   2.031   4.082
 8317SOL    HW125850   1.833   2.015   4.083
 8317SOL    HW225851   1.704   2.050   3.988
 8318SOL     OW25852   3.524   6.987   6.523
 8318SOL    HW125853   3.520   0.028   6.594
 8318SOL    HW225854   3.487   7.024   6.438
 8319SOL     OW25855   2.302   0.434   6.263
 8319SOL    HW125856   2.299   0.530   6.292
 8319SOL    HW225857   2.382   0.419   6.205
 8320SOL     OW25858   3.362   3.607   4.656
 8320SOL    HW125859   3.317   3.571   4.575
 8320SOL    HW225860   3.460   3.614   4.639
 8321SOL     OW25861   6.948   7.010   0.237
 8321SOL    HW125862   6.972   0.078   0.240
 8321SOL    HW225863   0.001   6.957   0.214
 8322SOL     OW25864   6.910   0.914   0.177
 8322SOL    HW125865   6.814   0.884   0.174
 8322SOL    HW225866   6.937   0.929   0.271
 8323SOL     OW25867   4.885   4.467   0.899
 8323SOL    HW125868   4.808   4.443   0.958
 8323SOL    HW225869   4.862   4.446   0.804
 8324SOL     OW25870   6.068   6.329   6.468
 8324SOL    HW125871   6.045   6.338   6.565
 8324SOL    HW225872   6.154   6.378   6.450
 8325SOL     OW25873   1.208   5.793   5.474
 8325SOL    HW125874   1.184   5.754   5.563
 8325SOL    HW225875   1.265   5.874   5.487
 8326SOL     OW25876   1.603   3.573   1.676
 8326SOL    HW125877   1.642   3.551   1.765
 8326SOL    HW225878   1.662   3.535   1.604
 8327SOL     OW25879   1.085   0.400   4.744
 8327SOL    HW125880   1.066   0.373   4.649
 8327SOL    HW225881   0.999   0.405   4.795
 8328SOL     OW25882   1.416   6.897   6.312
 8328SOL    HW125883   1.502   6.936   6.345
 8328SOL    HW225884   1.340   6.933   6.364
 8329SOL     OW25885   1.140   2.864   5.728
 8329SOL    HW125886   1.222   2.884   5.782
 8329SOL    HW225887   1.148   2.909   5.638
 8330SOL     OW25888   3.583   0.833   6.620
 8330SOL    HW125889   3.655   0.902   6.623
 8330SOL    HW225890   3.602   0.769   6.545
 8331SOL     OW25891   1.903   2.076   0.114
 8331SOL    HW125892   1.811   2.077   0.076
 8331SOL    HW225893   1.938   2.169   0.120
 8332SOL     OW25894   5.641   4.750   2.081
 8332SOL    HW125895   5.716   4.724   2.020
 8332SOL    HW225896   5.659   4.841   2.118
 8333SOL     OW25897   3.107   4.910   1.389
 8333SOL    HW125898   3.157   4.846   1.331
 8333SOL    HW225899   3.015   4.874   1.406
 8334SOL     OW25900   3.381   2.044   6.373
 8334SOL    HW125901   3.383   2.041   6.273
 8334SOL    HW225902   3.436   1.969   6.410
 8335SOL     OW25903   5.140   3.166   6.190
 8335SOL    HW125904   5.089   3.250   6.170
 8335SOL    HW225905   5.198   3.143   6.111
 8336SOL     OW25906   1.051   3.538   2.844
 8336SOL    HW125907   0.967   3.489   2.822
 8336SOL    HW225908   1.034   3.637   2.843
 8337SOL     OW25909   0.348   0.813   4.318
 8337SOL    HW125910   0.346   0.842   4.222
 8337SOL    HW225911   0.271   0.854   4.367
 8338SOL     OW25912   3.739   5.186   2.567
 8338SOL    HW125913   3.768   5.205   2.473
 8338SOL    HW225914   3.702   5.093   2.572
 8339SOL     OW25915   6.738   0.685   0.504
 8339SOL    HW125916   6.722   0.641   0.417
 8339SOL    HW225917   6.749   0.616   0.576
 8340SOL     OW25918   5.476   2.303   0.491
 8340SOL    HW125919   5.492   2.357   0.408
 8340SOL    HW225920   5.534   2.338   0.565
 8341SOL     OW25921   3.675   0.940   0.053
 8341SOL    HW125922   3.646   0.886   0.132
 8341SOL    HW225923   3.762   0.906   0.019
 8342SOL     OW25924   4.370   6.716   6.976
 8342SOL    HW125925   4.451   6.678   7.022
 8342SOL    HW225926   4.302   6.644   6.965
 8343SOL     OW25927   6.794   3.854   3.859
 8343SOL    HW125928   6.742   3.930   3.819
 8343SOL    HW225929   6.869   3.829   3.799
 8344SOL     OW25930   1.002   5.477   4.882
 8344SOL    HW125931   1.078   5.502   4.942
 8344SOL    HW225932   1.002   5.537   4.802
 8345SOL     OW25933   4.579   0.760   2.361
 8345SOL    HW125934   4.598   0.858   2.361
 8345SOL    HW225935   4.485   0.743   2.331
 8346SOL     OW25936   4.626   3.052   5.549
 8346SOL    HW125937   4.604   2.955   5.553
 8346SOL    HW225938   4.604   3.096   5.636
 8347SOL     OW25939   2.440   0.422   5.977
 8347SOL    HW125940   2.513   0.472   5.930
 8347SOL    HW225941   2.478   0.339   6.018
 8348SOL     OW25942   3.893   6.510   1.895
 8348SOL    HW125943   3.941   6.452   1.829
 8348SOL    HW225944   3.917   6.606   1.878
 8349SOL     OW25945   1.300   6.514   1.962
 8349SOL    HW125946   1.378   6.458   1.934
 8349SOL    HW225947   1.215   6.467   1.938
 8350SOL     OW25948   2.706   0.116   6.523
 8350SOL    HW125949   2.625   0.078   6.567
 8350SOL    HW225950   2.679   0.190   6.461
 8351SOL     OW25951   0.332   4.586   4.036
 8351SOL    HW125952   0.251   4.619   4.086
 8351SOL    HW225953   0.412   4.595   4.095
 8352SOL     OW25954   2.782   5.530   1.509
 8352SOL    HW125955   2.709   5.585   1.550
 8352SOL    HW225956   2.749   5.437   1.494
 8353SOL     OW25957   1.055   3.829   2.503
 8353SOL    HW125958   1.059   3.898   2.431
 8353SOL    HW225959   1.136   3.770   2.497
 8354SOL     OW25960   3.318   6.988   3.835
 8354SOL    HW125961   3.272   6.914   3.785
 8354SOL    HW225962   3.260   7.017   3.912
 8355SOL     OW25963   2.052   6.293   5.632
 8355SOL    HW125964   2.029   6.335   5.720
 8355SOL    HW225965   2.031   6.357   5.558
 8356SOL     OW25966   1.516   5.762   1.297
 8356SOL    HW125967   1.610   5.739   1.322
 8356SOL    HW225968   1.463   5.781   1.380
 8357SOL     OW25969   3.982   5.759   5.779
 8357SOL    HW125970   3.955   5.674   5.825
 8357SOL    HW225971   4.048   5.738   5.707
 8358SOL     OW25972   1.248   2.700   5.255
 8358SOL    HW125973   1.346   2.716   5.269
 8358SOL    HW225974   1.219   2.745   5.171
 8359SOL     OW25975   3.315   1.693   5.216
 8359SOL    HW125976   3.397   1.648   5.252
 8359SOL    HW225977   3.303   1.781   5.261
 8360SOL     OW25978   5.353   6.531   0.435
 8360SOL    HW125979   5.419   6.586   0.385
 8360SOL    HW225980   5.308   6.467   0.373
 8361SOL     OW25981   2.883   6.905   0.137
 8361SOL    HW125982   2.972   6.925   0.178
 8361SOL    HW225983   2.875   6.954   0.050
 8362SOL     OW25984   6.572   3.412   0.707
 8362SOL    HW125985   6.625   3.340   0.752
 8362SOL    HW225986   6.485   3.375   0.676
 8363SOL     OW25987   3.155   2.115   6.991
 8363SOL    HW125988   3.250   2.087   7.007
 8363SOL    HW225989   3.097   2.074   0.032
 8364SOL     OW25990   0.813   2.832   3.958
 8364SOL    HW125991   0.715   2.828   3.939
 8364SOL    HW225992   0.857   2.748   3.927
 8365SOL     OW25993   2.259   2.383   2.739
 8365SOL    HW125994   2.242   2.365   2.836
 8365SOL    HW225995   2.209   2.316   2.684
 8366SOL     OW25996   5.056   5.820   0.756
 8366SOL    HW125997   5.000   5.887   0.805
 8366SOL    HW225998   5.045   5.834   0.657
 8367SOL     OW25999   4.489   5.273   4.757
 8367SOL    HW126000   4.526   5.361   4.729
 8367SOL    HW226001   4.391   5.270   4.739
 8368SOL     OW26002   1.304   5.912   0.072
 8368SOL    HW126003   1.267   5.879   0.158
 8368SOL    HW226004   1.311   6.012   0.074
 8369SOL     OW26005   1.647   1.623   0.400
 8369SOL    HW126006   1.555   1.611   0.363
 8369SOL    HW226007   1.668   1.548   0.463
 8370SOL     OW26008   3.004   2.146   0.360
 8370SOL    HW126009   3.101   2.171   0.364
 8370SOL    HW226010   2.962   2.187   0.279
 8371SOL     OW26011   1.542   4.016   5.971
 8371SOL    HW126012   1.618   3.989   6.031
 8371SOL    HW226013   1.574   4.022   5.877
 8372SOL     OW26014   1.965   6.237   2.046
 8372SOL    HW126015   1.929   6.282   2.127
 8372SOL    HW226016   1.975   6.139   2.064
 8373SOL     OW26017   0.138   0.955   4.419
 8373SOL    HW126018   0.046   0.920   4.441
 8373SOL    HW226019   0.180   0.991   4.502
 8374SOL     OW26020   1.246   0.999   4.763
 8374SOL    HW126021   1.344   0.983   4.759
 8374SOL    HW226022   1.198   0.927   4.713
 8375SOL     OW26023   4.154   1.279   5.552
 8375SOL    HW126024   4.146   1.232   5.464
 8375SOL    HW226025   4.138   1.377   5.538
 8376SOL     OW26026   1.943   0.759   3.294
 8376SOL    HW126027   2.017   0.731   3.233
 8376SOL    HW226028   1.874   0.809   3.242
 8377SOL     OW26029   5.433   5.555   6.697
 8377SOL    HW126030   5.441   5.476   6.636
 8377SOL    HW226031   5.522   5.576   6.737
 8378SOL     OW26032   5.703   5.814   3.689
 8378SOL    HW126033   5.646   5.750   3.638
 8378SOL    HW226034   5.737   5.770   3.772
 8379SOL     OW26035   5.432   1.631   2.250
 8379SOL    HW126036   5.396   1.547   2.211
 8379SOL    HW226037   5.448   1.698   2.177
 8380SOL     OW26038   6.586   5.505   0.224
 8380SOL    HW126039   6.617   5.510   0.319
 8380SOL    HW226040   6.662   5.522   0.162
 8381SOL     OW26041   0.107   1.912   2.796
 8381SOL    HW126042   0.158   1.830   2.822
 8381SOL    HW226043   0.074   1.902   2.702
 8382SOL     OW26044   2.746   0.011   6.959
 8382SOL    HW126045   2.672   6.976   6.942
 8382SOL    HW226046   2.789   0.036   6.872
 8383SOL     OW26047   2.931   6.737   4.545
 8383SOL    HW126048   2.895   6.707   4.633
 8383SOL    HW226049   2.983   6.663   4.503
 8384SOL     OW26050   0.230   2.051   0.936
 8384SOL    HW126051   0.156   1.989   0.911
 8384SOL    HW226052   0.314   1.999   0.949
 8385SOL     OW26053   4.681   3.431   0.698
 8385SOL    HW126054   4.729   3.361   0.645
 8385SOL    HW226055   4.691   3.412   0.796
 8386SOL     OW26056   2.152   5.830   1.588
 8386SOL    HW126057   2.147   5.731   1.603
 8386SOL    HW226058   2.172   5.876   1.675
 8387SOL     OW26059   2.470   1.573   1.176
 8387SOL    HW126060   2.375   1.542   1.178
 8387SOL    HW226061   2.472   1.672   1.187
 8388SOL     OW26062   3.240   6.451   0.170
 8388SOL    HW126063   3.271   6.388   0.241
 8388SOL    HW226064   3.143   6.437   0.152
 8389SOL     OW26065   1.230   2.799   5.005
 8389SOL    HW126066   1.134   2.774   5.005
 8389SOL    HW226067   1.240   2.894   4.975
 8390SOL     OW26068   2.044   0.761   5.968
 8390SOL    HW126069   2.033   0.714   6.055
 8390SOL    HW226070   1.979   0.723   5.902
 8391SOL     OW26071   5.405   5.508   2.011
 8391SOL    HW126072   5.385   5.463   2.098
 8391SOL    HW226073   5.466   5.586   2.028
 8392SOL     OW26074   5.695   5.832   5.120
 8392SOL    HW126075   5.750   5.835   5.037
 8392SOL    HW226076   5.747   5.786   5.193
 8393SOL     OW26077   6.654   6.198   3.230
 8393SOL    HW126078   6.694   6.273   3.176
 8393SOL    HW226079   6.694   6.197   3.321
 8394SOL     OW26080   0.702   1.931   2.969
 8394SOL    HW126081   0.771   1.872   3.012
 8394SOL    HW226082   0.745   1.981   2.893
 8395SOL     OW26083   0.297   6.340   4.654
 8395SOL    HW126084   0.228   6.289   4.602
 8395SOL    HW226085   0.370   6.369   4.593
 8396SOL     OW26086   4.736   4.172   2.886
 8396SOL    HW126087   4.668   4.181   2.813
 8396SOL    HW226088   4.827   4.192   2.850
 8397SOL     OW26089   2.092   6.488   2.466
 8397SOL    HW126090   2.062   6.409   2.519
 8397SOL    HW226091   2.183   6.470   2.428
 8398SOL     OW26092   4.040   1.549   6.957
 8398SOL    HW126093   3.979   1.480   6.918
 8398SOL    HW226094   3.985   1.621   7.000
 8399SOL     OW26095   5.990   5.992   0.015
 8399SOL    HW126096   5.975   5.923   6.973
 8399SOL    HW226097   5.954   6.080   7.014
 8400SOL     OW26098   0.062   0.441   2.873
 8400SOL    HW126099   0.025   0.510   2.810
 8400SOL    HW226100   0.142   0.398   2.833
 8401SOL     OW26101   3.577   3.949   6.321
 8401SOL    HW126102   3.649   3.901   6.270
 8401SOL    HW226103   3.598   4.047   6.323
 8402SOL     OW26104   3.871   1.677   6.520
 8402SOL    HW126105   3.814   1.676   6.438
 8402SOL    HW226106   3.899   1.583   6.542
 8403SOL     OW26107   1.240   1.389   3.939
 8403SOL    HW126108   1.189   1.428   4.016
 8403SOL    HW226109   1.249   1.457   3.867
 8404SOL     OW26110   4.622   6.451   5.537
 8404SOL    HW126111   4.601   6.549   5.542
 8404SOL    HW226112   4.712   6.435   5.577
 8405SOL     OW26113   0.586   2.463   6.586
 8405SOL    HW126114   0.582   2.520   6.668
 8405SOL    HW226115   0.656   2.500   6.525
 8406SOL     OW26116   4.493   1.803   0.739
 8406SOL    HW126117   4.454   1.894   0.752
 8406SOL    HW226118   4.592   1.807   0.748
 8407SOL     OW26119   5.707   4.223   3.853
 8407SOL    HW126120   5.626   4.262   3.897
 8407SOL    HW226121   5.697   4.124   3.846
 8408SOL     OW26122   5.339   0.702   3.772
 8408SOL    HW126123   5.358   0.627   3.836
 8408SOL    HW226124   5.307   0.782   3.824
 8409SOL     OW26125   1.052   1.926   4.019
 8409SOL    HW126126   0.974   1.869   3.992
 8409SOL    HW226127   1.058   1.930   4.118
 8410SOL     OW26128   5.317   6.887   1.694
 8410SOL    HW126129   5.338   6.794   1.665
 8410SOL    HW226130   5.335   6.896   1.792
 8411SOL     OW26131   1.556   5.090   4.104
 8411SOL    HW126132   1.515   5.001   4.083
 8411SOL    HW226133   1.513   5.161   4.048
 8412SOL     OW26134   4.609   2.642   1.541
 8412SOL    HW126135   4.522   2.596   1.519
 8412SOL    HW226136   4.631   2.626   1.638
 8413SOL     OW26137   4.055   5.012   0.534
 8413SOL    HW126138   4.063   5.031   0.632
 8413SOL    HW226139   4.102   5.085   0.483
 8414SOL     OW26140   3.738   6.632   2.550
 8414SOL    HW126141   3.706   6.719   2.588
 8414SOL    HW226142   3.747   6.640   2.450
 8415SOL     OW26143   0.295   4.588   3.777
 8415SOL    HW126144   0.300   4.490   3.757
 8415SOL    HW226145   0.299   4.602   3.876
 8416SOL     OW26146   5.304   4.114   2.128
 8416SOL    HW126147   5.367   4.039   2.148
 8416SOL    HW226148   5.353   4.201   2.134
 8417SOL     OW26149   2.744   6.491   5.805
 8417SOL    HW126150   2.726   6.402   5.764
 8417SOL    HW226151   2.706   6.493   5.898
 8418SOL     OW26152   6.048   5.957   2.876
 8418SOL    HW126153   6.071   5.878   2.819
 8418SOL    HW226154   5.971   6.006   2.834
 8419SOL     OW26155   5.050   0.092   2.133
 8419SOL    HW126156   5.073   0.165   2.069
 8419SOL    HW226157   4.957   0.106   2.168
 8420SOL     OW26158   4.358   0.562   7.013
 8420SOL    HW126159   4.267   0.580   0.021
 8420SOL    HW226160   4.409   0.503   0.045
 8421SOL     OW26161   1.928   0.563   2.087
 8421SOL    HW126162   1.966   0.476   2.117
 8421SOL    HW226163   2.002   0.623   2.056
 8422SOL     OW26164   5.604   6.153   6.881
 8422SOL    HW126165   5.671   6.156   6.956
 8422SOL    HW226166   5.583   6.246   6.851
 8423SOL     OW26167   3.993   4.945   6.940
 8423SOL    HW126168   3.966   4.863   6.990
 8423SOL    HW226169   3.920   4.972   6.877
 8424SOL     OW26170   3.726   2.129   2.560
 8424SOL    HW126171   3.769   2.039   2.568
 8424SOL    HW226172   3.632   2.124   2.593
 8425SOL     OW26173   6.945   5.251   1.451
 8425SOL    HW126174   6.921   5.311   1.375
 8425SOL    HW226175   6.931   5.299   1.537
 8426SOL     OW26176   3.412   3.192   3.634
 8426SOL    HW126177   3.327   3.165   3.587
 8426SOL    HW226178   3.389   3.236   3.721
 8427SOL     OW26179   1.708   4.219   6.578
 8427SOL    HW126180   1.747   4.291   6.636
 8427SOL    HW226181   1.615   4.198   6.609
 8428SOL     OW26182   0.012   4.263   2.071
 8428SOL    HW126183   0.008   4.352   2.117
 8428SOL    HW226184   0.028   4.191   2.139
 8429SOL     OW26185   2.652   4.797   4.100
 8429SOL    HW126186   2.614   4.704   4.097
 8429SOL    HW226187   2.597   4.857   4.043
 8430SOL     OW26188   4.763   4.920   2.747
 8430SOL    HW126189   4.840   4.856   2.751
 8430SOL    HW226190   4.721   4.927   2.837
 8431SOL     OW26191   3.400   5.178   1.237
 8431SOL    HW126192   3.336   5.101   1.237
 8431SOL    HW226193   3.462   5.170   1.315
 8432SOL     OW26194   4.400   5.420   6.296
 8432SOL    HW126195   4.454   5.450   6.218
 8432SOL    HW226196   4.458   5.415   6.378
 8433SOL     OW26197   1.168   2.501   6.545
 8433SOL    HW126198   1.139   2.516   6.639
 8433SOL    HW226199   1.095   2.458   6.493
 8434SOL     OW26200   4.029   6.575   5.553
 8434SOL    HW126201   4.119   6.558   5.593
 8434SOL    HW226202   3.977   6.636   5.612
 8435SOL     OW26203   4.465   2.161   1.316
 8435SOL    HW126204   4.451   2.062   1.320
 8435SOL    HW226205   4.421   2.204   1.394
 8436SOL     OW26206   3.962   4.940   2.366
 8436SOL    HW126207   3.903   4.994   2.307
 8436SOL    HW226208   4.028   4.890   2.310
 8437SOL     OW26209   0.488   1.190   1.536
 8437SOL    HW126210   0.426   1.128   1.585
 8437SOL    HW226211   0.582   1.176   1.569
 8438SOL     OW26212   2.959   4.823   2.444
 8438SOL    HW126213   2.963   4.919   2.418
 8438SOL    HW226214   2.925   4.769   2.367
 8439SOL     OW26215   6.359   5.782   2.112
 8439SOL    HW126216   6.323   5.759   2.202
 8439SOL    HW226217   6.294   5.754   2.041
 8440SOL     OW26218   0.321   1.154   2.129
 8440SOL    HW126219   0.306   1.209   2.047
 8440SOL    HW226220   0.417   1.160   2.157
 8441SOL     OW26221   5.631   5.990   6.498
 8441SOL    HW126222   5.587   6.074   6.528
 8441SOL    HW226223   5.563   5.917   6.493
 8442SOL     OW26224   2.829   3.993   6.708
 8442SOL    HW126225   2.816   3.954   6.799
 8442SOL    HW226226   2.903   4.061   6.712
 8443SOL     OW26227   0.847   0.261   3.398
 8443SOL    HW126228   0.864   0.359   3.399
 8443SOL    HW226229   0.749   0.244   3.411
 8444SOL     OW26230   3.531   6.191   3.954
 8444SOL    HW126231   3.592   6.112   3.962
 8444SOL    HW226232   3.538   6.246   4.038
 8445SOL     OW26233   3.312   5.150   2.684
 8445SOL    HW126234   3.236   5.196   2.637
 8445SOL    HW226235   3.361   5.216   2.740
 8446SOL     OW26236   5.291   6.238   3.339
 8446SOL    HW126237   5.242   6.283   3.264
 8446SOL    HW226238   5.227   6.182   3.392
 8447SOL     OW26239   5.390   2.418   1.641
 8447SOL    HW126240   5.386   2.512   1.676
 8447SOL    HW226241   5.309   2.368   1.670
 8448SOL     OW26242   0.369   3.797   6.164
 8448SOL    HW126243   0.417   3.774   6.248
 8448SOL    HW226244   0.367   3.718   6.103
 8449SOL     OW26245   0.494   3.465   4.922
 8449SOL    HW126246   0.472   3.426   4.833
 8449SOL    HW226247   0.523   3.392   4.984
 8450SOL     OW26248   2.025   6.625   2.968
 8450SOL    HW126249   2.023   6.611   2.869
 8450SOL    HW226250   1.958   6.694   2.994
 8451SOL     OW26251   3.820   2.711   0.793
 8451SOL    HW126252   3.742   2.764   0.827
 8451SOL    HW226253   3.788   2.621   0.763
 8452SOL     OW26254   6.976   6.969   1.588
 8452SOL    HW126255   6.945   0.022   1.540
 8452SOL    HW226256   6.918   6.953   1.668
 8453SOL     OW26257   6.641   4.911   6.505
 8453SOL    HW126258   6.712   4.859   6.457
 8453SOL    HW226259   6.587   4.962   6.439
 8454SOL     OW26260   1.669   0.026   2.449
 8454SOL    HW126261   1.742   0.006   2.516
 8454SOL    HW226262   1.709   0.033   2.358
 8455SOL     OW26263   4.715   1.619   1.459
 8455SOL    HW126264   4.729   1.530   1.503
 8455SOL    HW226265   4.749   1.616   1.365
 8456SOL     OW26266   5.926   5.448   4.010
 8456SOL    HW126267   5.882   5.391   4.079
 8456SOL    HW226268   5.952   5.392   3.931
 8457SOL     OW26269   6.499   0.002   5.302
 8457SOL    HW126270   6.524   6.948   5.251
 8457SOL    HW226271   6.401   0.018   5.292
 8458SOL     OW26272   1.841   1.323   0.226
 8458SOL    HW126273   1.763   1.341   0.167
 8458SOL    HW226274   1.812   1.268   0.304
 8459SOL     OW26275   3.875   6.398   2.195
 8459SOL    HW126276   3.808   6.415   2.123
 8459SOL    HW226277   3.828   6.365   2.277
 8460SOL     OW26278   4.464   2.740   6.702
 8460SOL    HW126279   4.375   2.782   6.686
 8460SOL    HW226280   4.482   2.736   6.801
 8461SOL     OW26281   0.262   3.602   1.904
 8461SOL    HW126282   0.262   3.588   2.003
 8461SOL    HW226283   0.356   3.609   1.872
 8462SOL     OW26284   3.722   3.478   0.436
 8462SOL    HW126285   3.788   3.546   0.406
 8462SOL    HW226286   3.769   3.391   0.453
 8463SOL     OW26287   6.523   2.271   0.223
 8463SOL    HW126288   6.622   2.263   0.219
 8463SOL    HW226289   6.492   2.260   0.318
 8464SOL     OW26290   0.084   3.205   6.104
 8464SOL    HW126291   0.092   3.108   6.081
 8464SOL    HW226292   0.152   3.229   6.174
 8465SOL     OW26293   2.990   2.693   0.693
 8465SOL    HW126294   3.036   2.635   0.760
 8465SOL    HW226295   2.908   2.732   0.734
 8466SOL     OW26296   5.831   0.686   5.408
 8466SOL    HW126297   5.778   0.690   5.324
 8466SOL    HW226298   5.865   0.593   5.422
 8467SOL     OW26299   3.745   0.860   0.485
 8467SOL    HW126300   3.699   0.946   0.465
 8467SOL    HW226301   3.739   0.840   0.583
 8468SOL     OW26302   6.238   3.555   6.240
 8468SOL    HW126303   6.178   3.629   6.211
 8468SOL    HW226304   6.229   3.541   6.338
 8469SOL     OW26305   3.781   2.914   6.258
 8469SOL    HW126306   3.806   2.835   6.314
 8469SOL    HW226307   3.714   2.886   6.189
 8470SOL     OW26308   1.027   5.163   0.719
 8470SOL    HW126309   1.108   5.110   0.745
 8470SOL    HW226310   0.945   5.112   0.744
 8471SOL     OW26311   3.570   0.607   4.951
 8471SOL    HW126312   3.570   0.539   4.877
 8471SOL    HW226313   3.605   0.565   5.035
 8472SOL     OW26314   6.223   1.804   5.801
 8472SOL    HW126315   6.144   1.824   5.743
 8472SOL    HW226316   6.285   1.741   5.754
 8473SOL     OW26317   4.454   4.642   6.807
 8473SOL    HW126318   4.364   4.661   6.845
 8473SOL    HW226319   4.453   4.552   6.763
 8474SOL     OW26320   3.014   3.923   2.991
 8474SOL    HW126321   2.983   3.986   3.062
 8474SOL    HW226322   3.020   3.831   3.028
 8475SOL     OW26323   0.515   3.470   1.633
 8475SOL    HW126324   0.513   3.513   1.723
 8475SOL    HW226325   0.430   3.490   1.585
 8476SOL     OW26326   6.361   0.339   1.144
 8476SOL    HW126327   6.311   0.419   1.178
 8476SOL    HW226328   6.452   0.367   1.113
 8477SOL     OW26329   5.708   5.674   1.772
 8477SOL    HW126330   5.635   5.739   1.794
 8477SOL    HW226331   5.668   5.592   1.732
 8478SOL     OW26332   0.947   0.952   5.546
 8478SOL    HW126333   0.849   0.959   5.563
 8478SOL    HW226334   0.963   0.889   5.469
 8479SOL     OW26335   1.828   2.353   1.109
 8479SOL    HW126336   1.912   2.372   1.160
 8479SOL    HW226337   1.851   2.299   1.027
 8480SOL     OW26338   4.859   2.796   6.974
 8480SOL    HW126339   4.789   2.799   6.903
 8480SOL    HW226340   4.838   2.864   0.016
 8481SOL     OW26341   3.829   2.139   4.457
 8481SOL    HW126342   3.907   2.164   4.515
 8481SOL    HW226343   3.744   2.157   4.507
 8482SOL     OW26344   4.109   1.237   0.149
 8482SOL    HW126345   4.029   1.281   0.109
 8482SOL    HW226346   4.135   1.158   0.094
 8483SOL     OW26347   3.453   5.983   3.422
 8483SOL    HW126348   3.424   5.926   3.346
 8483SOL    HW226349   3.386   6.055   3.438
 8484SOL     OW26350   6.230   6.104   5.322
 8484SOL    HW126351   6.142   6.109   5.275
 8484SOL    HW226352   6.215   6.077   5.417
 8485SOL     OW26353   3.891   2.404   0.193
 8485SOL    HW126354   3.914   2.346   0.272
 8485SOL    HW226355   3.804   2.451   0.211
 8486SOL     OW26356   2.011   1.244   2.247
 8486SOL    HW126357   2.017   1.260   2.346
 8486SOL    HW226358   2.103   1.242   2.208
 8487SOL     OW26359   5.326   1.284   6.131
 8487SOL    HW126360   5.367   1.244   6.213
 8487SOL    HW226361   5.298   1.211   6.069
 8488SOL     OW26362   5.915   5.294   3.067
 8488SOL    HW126363   5.868   5.210   3.042
 8488SOL    HW226364   5.941   5.290   3.164
 8489SOL     OW26365   6.033   0.649   1.566
 8489SOL    HW126366   5.937   0.652   1.594
 8489SOL    HW226367   6.086   0.597   1.633
 8490SOL     OW26368   3.326   6.939   5.882
 8490SOL    HW126369   3.278   6.904   5.802
 8490SOL    HW226370   3.391   6.870   5.915
 8491SOL     OW26371   2.418   6.050   2.776
 8491SOL    HW126372   2.423   5.959   2.737
 8491SOL    HW226373   2.326   6.066   2.813
 8492SOL     OW26374   6.227   4.533   3.688
 8492SOL    HW126375   6.315   4.579   3.695
 8492SOL    HW226376   6.195   4.509   3.780
 8493SOL     OW26377   2.473   1.117   0.244
 8493SOL    HW126378   2.560   1.127   0.292
 8493SOL    HW226379   2.412   1.193   0.270
 8494SOL     OW26380   5.215   4.780   1.909
 8494SOL    HW126381   5.260   4.834   1.838
 8494SOL    HW226382   5.131   4.826   1.937
 8495SOL     OW26383   6.848   5.859   0.752
 8495SOL    HW126384   6.885   5.771   0.721
 8495SOL    HW226385   6.914   5.904   0.811
 8496SOL     OW26386   5.048   1.186   2.194
 8496SOL    HW126387   5.036   1.285   2.192
 8496SOL    HW226388   5.108   1.161   2.270
 8497SOL     OW26389   0.507   0.134   3.688
 8497SOL    HW126390   0.603   0.105   3.691
 8497SOL    HW226391   0.448   0.056   3.710
 8498SOL     OW26392   5.422   0.222   3.972
 8498SOL    HW126393   5.379   0.226   3.881
 8498SOL    HW226394   5.404   0.133   4.014
 8499SOL     OW26395   0.930   5.541   0.597
 8499SOL    HW126396   1.023   5.545   0.560
 8499SOL    HW226397   0.888   5.454   0.570
 8500SOL     OW26398   1.848   7.013   5.966
 8500SOL    HW126399   1.813   6.958   5.890
 8500SOL    HW226400   1.877   0.073   5.931
 8501SOL     OW26401   0.229   2.276   0.323
 8501SOL    HW126402   0.306   2.327   0.364
 8501SOL    HW226403   0.145   2.297   0.373
 8502SOL     OW26404   0.483   2.649   0.381
 8502SOL    HW126405   0.579   2.624   0.374
 8502SOL    HW226406   0.471   2.719   0.452
 8503SOL     OW26407   6.703   5.553   4.882
 8503SOL    HW126408   6.692   5.593   4.973
 8503SOL    HW226409   6.786   5.589   4.839
 8504SOL     OW26410   1.645   5.365   2.274
 8504SOL    HW126411   1.647   5.312   2.189
 8504SOL    HW226412   1.682   5.310   2.349
 8505SOL     OW26413   5.079   3.654   2.456
 8505SOL    HW126414   5.000   3.618   2.505
 8505SOL    HW226415   5.129   3.716   2.515
 8506SOL     OW26416   1.734   1.287   6.796
 8506SOL    HW126417   1.809   1.348   6.822
 8506SOL    HW226418   1.757   1.243   6.709
 8507SOL     OW26419   4.436   7.017   4.970
 8507SOL    HW126420   4.482   0.074   4.948
 8507SOL    HW226421   4.503   6.943   4.971
 8508SOL     OW26422   4.007   1.816   6.103
 8508SOL    HW126423   3.991   1.904   6.060
 8508SOL    HW226424   3.946   1.748   6.063
 8509SOL     OW26425   5.350   0.069   3.448
 8509SOL    HW126426   5.412   0.081   3.371
 8509SOL    HW226427   5.399   0.025   3.524
 8510SOL     OW26428   5.255   2.813   3.622
 8510SOL    HW126429   5.273   2.861   3.708
 8510SOL    HW226430   5.247   2.880   3.548
 8511SOL     OW26431   5.932   3.411   2.640
 8511SOL    HW126432   5.934   3.418   2.540
 8511SOL    HW226433   5.884   3.489   2.678
 8512SOL     OW26434   1.958   0.220   3.208
 8512SOL    HW126435   1.985   0.228   3.112
 8512SOL    HW226436   1.921   0.129   3.226
 8513SOL     OW26437   6.431   6.394   0.106
 8513SOL    HW126438   6.429   6.493   0.116
 8513SOL    HW226439   6.390   6.352   0.187
 8514SOL     OW26440   3.048   6.148   3.225
 8514SOL    HW126441   3.035   6.236   3.180
 8514SOL    HW226442   3.033   6.074   3.160
 8515SOL     OW26443   5.530   2.716   1.154
 8515SOL    HW126444   5.474   2.650   1.103
 8515SOL    HW226445   5.625   2.684   1.155
 8516SOL     OW26446   6.523   1.957   2.541
 8516SOL    HW126447   6.483   2.034   2.591
 8516SOL    HW226448   6.483   1.872   2.573
 8517SOL     OW26449   0.992   2.358   0.204
 8517SOL    HW126450   0.908   2.305   0.194
 8517SOL    HW226451   1.031   2.343   0.295
 8518SOL     OW26452   4.247   5.223   0.497
 8518SOL    HW126453   4.289   5.155   0.556
 8518SOL    HW226454   4.318   5.280   0.455
 8519SOL     OW26455   1.988   5.966   2.106
 8519SOL    HW126456   2.034   5.984   2.193
 8519SOL    HW226457   1.970   5.868   2.097
 8520SOL     OW26458   3.943   1.081   0.490
 8520SOL    HW126459   3.890   1.038   0.563
 8520SOL    HW226460   3.895   1.069   0.403
 8521SOL     OW26461   0.503   6.143   6.146
 8521SOL    HW126462   0.446   6.181   6.218
 8521SOL    HW226463   0.590   6.113   6.185
 8522SOL     OW26464   1.319   6.519   3.044
 8522SOL    HW126465   1.381   6.575   2.988
 8522SOL    HW226466   1.237   6.497   2.991
 8523SOL     OW26467   2.318   0.095   5.886
 8523SOL    HW126468   2.369   0.108   5.971
 8523SOL    HW226469   2.260   0.014   5.894
 8524SOL     OW26470   1.457   3.131   5.047
 8524SOL    HW126471   1.440   3.217   5.096
 8524SOL    HW226472   1.549   3.099   5.067
 8525SOL     OW26473   5.811   3.420   3.242
 8525SOL    HW126474   5.860   3.429   3.329
 8525SOL    HW226475   5.727   3.368   3.256
 8526SOL     OW26476   2.442   2.853   1.806
 8526SOL    HW126477   2.391   2.842   1.891
 8526SOL    HW226478   2.464   2.763   1.768
 8527SOL     OW26479   4.634   0.639   3.991
 8527SOL    HW126480   4.602   0.692   4.070
 8527SOL    HW226481   4.691   0.563   4.023
 8528SOL     OW26482   4.936   3.034   6.441
 8528SOL    HW126483   4.936   2.950   6.387
 8528SOL    HW226484   5.030   3.064   6.457
 8529SOL     OW26485   1.528   5.431   0.220
 8529SOL    HW126486   1.566   5.339   0.216
 8529SOL    HW226487   1.560   5.484   0.141
 8530SOL     OW26488   1.321   4.668   5.361
 8530SOL    HW126489   1.418   4.645   5.361
 8530SOL    HW226490   1.307   4.754   5.312
 8531SOL     OW26491   5.416   4.025   3.089
 8531SOL    HW126492   5.350   3.958   3.056
 8531SOL    HW226493   5.399   4.113   3.043
 8532SOL     OW26494   3.776   4.942   5.145
 8532SOL    HW126495   3.764   5.007   5.070
 8532SOL    HW226496   3.856   4.969   5.200
 8533SOL     OW26497   2.679   1.152   4.201
 8533SOL    HW126498   2.740   1.215   4.249
 8533SOL    HW226499   2.686   1.168   4.103
 8534SOL     OW26500   0.997   3.846   2.896
 8534SOL    HW126501   1.040   3.906   2.829
 8534SOL    HW226502   0.999   3.889   2.987
 8535SOL     OW26503   0.714   2.310   4.773
 8535SOL    HW126504   0.771   2.383   4.736
 8535SOL    HW226505   0.697   2.241   4.702
 8536SOL     OW26506   6.967   1.977   5.139
 8536SOL    HW126507   6.981   2.019   5.229
 8536SOL    HW226508   0.004   2.015   5.074
 8537SOL     OW26509   5.491   0.797   0.917
 8537SOL    HW126510   5.546   0.720   0.886
 8537SOL    HW226511   5.545   0.881   0.913
 8538SOL     OW26512   6.985   0.822   4.775
 8538SOL    HW126513   0.056   0.814   4.781
 8538SOL    HW226514   6.961   0.855   4.684
 8539SOL     OW26515   0.140   2.316   1.709
 8539SOL    HW126516   0.082   2.269   1.776
 8539SOL    HW226517   0.174   2.250   1.642
 8540SOL     OW26518   2.918   1.041   0.414
 8540SOL    HW126519   2.884   0.974   0.480
 8540SOL    HW226520   3.005   1.079   0.447
 8541SOL     OW26521   3.051   1.384   4.931
 8541SOL    HW126522   3.059   1.432   5.018
 8541SOL    HW226523   2.976   1.424   4.878
 8542SOL     OW26524   2.487   4.419   6.859
 8542SOL    HW126525   2.491   4.379   6.768
 8542SOL    HW226526   2.483   4.519   6.852
 8543SOL     OW26527   2.349   2.122   5.441
 8543SOL    HW126528   2.311   2.202   5.489
 8543SOL    HW226529   2.392   2.152   5.356
 8544SOL     OW26530   4.858   3.885   5.090
 8544SOL    HW126531   4.830   3.875   5.185
 8544SOL    HW226532   4.796   3.834   5.031
 8545SOL     OW26533   3.478   6.953   4.821
 8545SOL    HW126534   3.492   6.860   4.787
 8545SOL    HW226535   3.564   6.991   4.853
 8546SOL     OW26536   5.788   0.549   1.652
 8546SOL    HW126537   5.697   0.566   1.690
 8546SOL    HW226538   5.811   0.452   1.665
 8547SOL     OW26539   6.577   6.808   5.681
 8547SOL    HW126540   6.636   6.881   5.648
 8547SOL    HW226541   6.633   6.729   5.707
 8548SOL     OW26542   0.584   2.853   6.400
 8548SOL    HW126543   0.663   2.903   6.363
 8548SOL    HW226544   0.574   2.874   6.497
 8549SOL     OW26545   2.086   1.011   3.681
 8549SOL    HW126546   2.181   0.983   3.667
 8549SOL    HW226547   2.035   1.002   3.595
 8550SOL     OW26548   0.838   4.256   0.393
 8550SOL    HW126549   0.877   4.260   0.484
 8550SOL    HW226550   0.868   4.336   0.340
 8551SOL     OW26551   1.999   2.165   6.484
 8551SOL    HW126552   2.068   2.232   6.510
 8551SOL    HW226553   1.910   2.192   6.521
 8552SOL     OW26554   2.677   1.332   2.558
 8552SOL    HW126555   2.686   1.427   2.588
 8552SOL    HW226556   2.718   1.272   2.626
 8553SOL     OW26557   4.646   3.093   0.800
 8553SOL    HW126558   4.677   3.173   0.851
 8553SOL    HW226559   4.720   3.026   0.794
 8554SOL     OW26560   0.883   6.915   0.938
 8554SOL    HW126561   0.898   6.828   0.891
 8554SOL    HW226562   0.892   6.902   1.037
 8555SOL     OW26563   4.340   1.659   3.670
 8555SOL    HW126564   4.248   1.620   3.665
 8555SOL    HW226565   4.367   1.671   3.766
 8556SOL     OW26566   2.040   6.245   6.763
 8556SOL    HW126567   2.066   6.335   6.730
 8556SOL    HW226568   2.037   6.246   6.863
 8557SOL     OW26569   6.684   0.752   0.152
 8557SOL    HW126570   6.669   0.817   0.077
 8557SOL    HW226571   6.666   0.659   0.120
 8558SOL     OW26572   2.675   4.654   2.941
 8558SOL    HW126573   2.636   4.637   2.851
 8558SOL    HW226574   2.767   4.692   2.932
 8559SOL     OW26575   1.118   5.434   2.330
 8559SOL    HW126576   1.135   5.336   2.340
 8559SOL    HW226577   1.202   5.479   2.298
 8560SOL     OW26578   2.318   5.035   1.382
 8560SOL    HW126579   2.275   5.118   1.417
 8560SOL    HW226580   2.418   5.047   1.382
 8561SOL     OW26581   3.360   0.378   2.782
 8561SOL    HW126582   3.333   0.283   2.766
 8561SOL    HW226583   3.455   0.379   2.816
 8562SOL     OW26584   3.870   1.343   6.873
 8562SOL    HW126585   3.824   1.257   6.852
 8562SOL    HW226586   3.808   1.403   6.923
 8563SOL     OW26587   1.530   5.699   2.761
 8563SOL    HW126588   1.467   5.711   2.685
 8563SOL    HW226589   1.621   5.676   2.726
 8564SOL     OW26590   3.772   6.759   6.657
 8564SOL    HW126591   3.860   6.727   6.622
 8564SOL    HW226592   3.777   6.770   6.756
 8565SOL     OW26593   3.535   5.526   0.724
 8565SOL    HW126594   3.553   5.430   0.746
 8565SOL    HW226595   3.615   5.566   0.680
 8566SOL     OW26596   2.878   1.137   3.128
 8566SOL    HW126597   2.912   1.170   3.216
 8566SOL    HW226598   2.879   1.037   3.127
 8567SOL     OW26599   1.921   1.719   1.302
 8567SOL    HW126600   1.847   1.727   1.369
 8567SOL    HW226601   2.007   1.750   1.343
 8568SOL     OW26602   6.850   1.516   0.534
 8568SOL    HW126603   6.820   1.426   0.504
 8568SOL    HW226604   6.806   1.586   0.477
 8569SOL     OW26605   5.235   2.318   6.309
 8569SOL    HW126606   5.152   2.338   6.257
 8569SOL    HW226607   5.267   2.401   6.354
 8570SOL     OW26608   0.945   2.190   5.120
 8570SOL    HW126609   1.034   2.179   5.164
 8570SOL    HW226610   0.883   2.119   5.153
 8571SOL     OW26611   1.434   1.110   4.246
 8571SOL    HW126612   1.359   1.170   4.221
 8571SOL    HW226613   1.468   1.064   4.164
 8572SOL     OW26614   3.422   3.885   5.985
 8572SOL    HW126615   3.476   3.809   6.021
 8572SOL    HW226616   3.339   3.850   5.941
 8573SOL     OW26617   3.369   6.126   0.971
 8573SOL    HW126618   3.333   6.217   0.991
 8573SOL    HW226619   3.304   6.057   1.001
 8574SOL     OW26620   7.005   6.226   6.030
 8574SOL    HW126621   6.912   6.232   6.067
 8574SOL    HW226622   7.022   6.134   5.996
 8575SOL     OW26623   3.415   6.618   2.883
 8575SOL    HW126624   3.458   6.541   2.837
 8575SOL    HW226625   3.404   6.694   2.818
 8576SOL     OW26626   0.803   4.144   4.547
 8576SOL    HW126627   0.726   4.089   4.514
 8576SOL    HW226628   0.888   4.094   4.533
 8577SOL     OW26629   1.760   1.255   6.341
 8577SOL    HW126630   1.728   1.349   6.333
 8577SOL    HW226631   1.846   1.244   6.291
 8578SOL     OW26632   6.317   6.368   5.320
 8578SOL    HW126633   6.312   6.278   5.364
 8578SOL    HW226634   6.358   6.358   5.229
 8579SOL     OW26635   2.714   6.160   2.274
 8579SOL    HW126636   2.726   6.101   2.194
 8579SOL    HW226637   2.803   6.179   2.315
 8580SOL     OW26638   1.428   6.097   1.401
 8580SOL    HW126639   1.367   6.144   1.337
 8580SOL    HW226640   1.506   6.060   1.352
 8581SOL     OW26641   3.551   5.133   1.451
 8581SOL    HW126642   3.650   5.150   1.446
 8581SOL    HW226643   3.523   5.125   1.546
 8582SOL     OW26644   4.117   4.859   5.610
 8582SOL    HW126645   4.145   4.763   5.614
 8582SOL    HW226646   4.021   4.866   5.635
 8583SOL     OW26647   4.144   0.510   2.853
 8583SOL    HW126648   4.095   0.594   2.832
 8583SOL    HW226649   4.086   0.431   2.833
 8584SOL     OW26650   6.133   1.345   4.489
 8584SOL    HW126651   6.040   1.333   4.453
 8584SOL    HW226652   6.182   1.411   4.433
 8585SOL     OW26653   5.811   2.314   1.592
 8585SOL    HW126654   5.779   2.402   1.559
 8585SOL    HW226655   5.852   2.262   1.516
 8586SOL     OW26656   5.689   6.230   1.139
 8586SOL    HW126657   5.634   6.313   1.125
 8586SOL    HW226658   5.773   6.237   1.086
 8587SOL     OW26659   1.071   1.429   5.776
 8587SOL    HW126660   1.104   1.335   5.764
 8587SOL    HW226661   0.981   1.438   5.732
 8588SOL     OW26662   3.158   1.451   6.344
 8588SOL    HW126663   3.241   1.398   6.363
 8588SOL    HW226664   3.175   1.512   6.266
 8589SOL     OW26665   0.083   3.468   5.655
 8589SOL    HW126666   0.151   3.397   5.636
 8589SOL    HW226667   7.028   3.425   5.687
 8590SOL     OW26668   6.845   1.548   2.506
 8590SOL    HW126669   6.904   1.590   2.576
 8590SOL    HW226670   6.749   1.565   2.529
 8591SOL     OW26671   6.619   4.993   0.244
 8591SOL    HW126672   6.637   5.075   0.299
 8591SOL    HW226673   6.523   4.967   0.253
 8592SOL     OW26674   0.443   2.715   6.996
 8592SOL    HW126675   0.399   2.652   0.031
 8592SOL    HW226676   0.374   2.774   6.955
 8593SOL     OW26677   3.111   0.710   6.453
 8593SOL    HW126678   3.137   0.674   6.363
 8593SOL    HW226679   3.186   0.694   6.517
 8594SOL     OW26680   5.869   2.924   6.309
 8594SOL    HW126681   5.925   3.007   6.311
 8594SOL    HW226682   5.782   2.944   6.264
 8595SOL     OW26683   5.297   0.022   2.739
 8595SOL    HW126684   5.274   0.119   2.735
 8595SOL    HW226685   5.214   6.997   2.747
 8596SOL     OW26686   1.237   3.289   3.774
 8596SOL    HW126687   1.229   3.333   3.685
 8596SOL    HW226688   1.273   3.197   3.763
 8597SOL     OW26689   6.482   3.151   1.111
 8597SOL    HW126690   6.384   3.170   1.104
 8597SOL    HW226691   6.525   3.220   1.170
 8598SOL     OW26692   5.757   1.090   4.829
 8598SOL    HW126693   5.734   1.008   4.777
 8598SOL    HW226694   5.855   1.107   4.824
 8599SOL     OW26695   1.508   3.370   3.425
 8599SOL    HW126696   1.521   3.378   3.326
 8599SOL    HW226697   1.593   3.393   3.472
 8600SOL     OW26698   4.629   3.660   0.922
 8600SOL    HW126699   4.595   3.695   0.836
 8600SOL    HW226700   4.555   3.616   0.972
 8601SOL     OW26701   0.730   0.988   3.851
 8601SOL    HW126702   0.631   0.991   3.833
 8601SOL    HW226703   0.760   1.077   3.886
 8602SOL     OW26704   2.815   0.029   3.889
 8602SOL    HW126705   2.746   7.022   3.951
 8602SOL    HW226706   2.883   0.081   3.941
 8603SOL     OW26707   6.579   0.911   0.433
 8603SOL    HW126708   6.606   0.993   0.484
 8603SOL    HW226709   6.646   0.839   0.448
 8604SOL     OW26710   0.720   3.930   6.265
 8604SOL    HW126711   0.669   3.867   6.323
 8604SOL    HW226712   0.706   3.906   6.169
 8605SOL     OW26713   0.563   4.669   4.660
 8605SOL    HW126714   0.658   4.638   4.653
 8605SOL    HW226715   0.513   4.610   4.723
 8606SOL     OW26716   2.595   1.917   6.544
 8606SOL    HW126717   2.610   1.882   6.637
 8606SOL    HW226718   2.546   2.004   6.549
 8607SOL     OW26719   2.249   4.752   1.463
 8607SOL    HW126720   2.269   4.850   1.462
 8607SOL    HW226721   2.268   4.714   1.554
 8608SOL     OW26722   2.430   4.443   2.539
 8608SOL    HW126723   2.498   4.483   2.477
 8608SOL    HW226724   2.366   4.387   2.487
 8609SOL     OW26725   4.841   1.272   3.883
 8609SOL    HW126726   4.797   1.231   3.802
 8609SOL    HW226727   4.817   1.218   3.964
 8610SOL     OW26728   6.813   6.733   2.988
 8610SOL    HW126729   6.893   6.754   3.045
 8610SOL    HW226730   6.730   6.737   3.044
 8611SOL     OW26731   3.380   1.090   3.642
 8611SOL    HW126732   3.433   1.169   3.674
 8611SOL    HW226733   3.332   1.049   3.719
 8612SOL     OW26734   3.394   2.906   2.697
 8612SOL    HW126735   3.480   2.893   2.746
 8612SOL    HW226736   3.356   2.817   2.672
 8613SOL     OW26737   3.106   2.750   1.454
 8613SOL    HW126738   3.048   2.801   1.390
 8613SOL    HW226739   3.052   2.680   1.500
 8614SOL     OW26740   1.613   2.141   1.994
 8614SOL    HW126741   1.514   2.142   2.009
 8614SOL    HW226742   1.660   2.135   2.082
 8615SOL     OW26743   4.993   2.307   3.835
 8615SOL    HW126744   5.033   2.232   3.889
 8615SOL    HW226745   5.017   2.394   3.877
 8616SOL     OW26746   4.259   5.026   2.596
 8616SOL    HW126747   4.165   5.060   2.595
 8616SOL    HW226748   4.272   4.964   2.518
 8617SOL     OW26749   5.365   7.001   3.923
 8617SOL    HW126750   5.426   6.923   3.941
 8617SOL    HW226751   5.323   6.990   3.833
 8618SOL     OW26752   6.508   3.498   1.467
 8618SOL    HW126753   6.598   3.542   1.461
 8618SOL    HW226754   6.465   3.524   1.554
 8619SOL     OW26755   5.243   5.124   2.194
 8619SOL    HW126756   5.181   5.201   2.202
 8619SOL    HW226757   5.192   5.039   2.204
 8620SOL     OW26758   2.436   0.835   4.838
 8620SOL    HW126759   2.463   0.769   4.908
 8620SOL    HW226760   2.337   0.842   4.834
 8621SOL     OW26761   4.803   2.778   2.024
 8621SOL    HW126762   4.763   2.717   1.955
 8621SOL    HW226763   4.777   2.872   2.004
 8622SOL     OW26764   6.478   5.355   2.589
 8622SOL    HW126765   6.422   5.390   2.663
 8622SOL    HW226766   6.542   5.287   2.625
 8623SOL     OW26767   6.963   3.516   4.901
 8623SOL    HW126768   6.945   3.614   4.901
 8623SOL    HW226769   0.028   3.500   4.933
 8624SOL     OW26770   3.215   3.824   5.644
 8624SOL    HW126771   3.241   3.792   5.554
 8624SOL    HW226772   3.116   3.831   5.651
 8625SOL     OW26773   3.355   1.899   5.384
 8625SOL    HW126774   3.412   1.856   5.453
 8625SOL    HW226775   3.411   1.955   5.324
 8626SOL     OW26776   4.636   2.956   0.501
 8626SOL    HW126777   4.555   2.898   0.511
 8626SOL    HW226778   4.621   3.043   0.549
 8627SOL     OW26779   1.527   1.478   2.570
 8627SOL    HW126780   1.517   1.576   2.556
 8627SOL    HW226781   1.446   1.431   2.535
 8628SOL     OW26782   0.245   6.692   0.036
 8628SOL    HW126783   0.320   6.644   0.081
 8628SOL    HW226784   0.203   6.631   6.997
 8629SOL     OW26785   0.850   0.102   4.475
 8629SOL    HW126786   0.904   0.037   4.422
 8629SOL    HW226787   0.769   0.129   4.422
 8630SOL     OW26788   5.096   3.353   3.494
 8630SOL    HW126789   5.068   3.448   3.501
 8630SOL    HW226790   5.020   3.298   3.459
 8631SOL     OW26791   2.563   5.561   0.195
 8631SOL    HW126792   2.621   5.483   0.220
 8631SOL    HW226793   2.574   5.634   0.262
 8632SOL     OW26794   4.104   4.586   5.300
 8632SOL    HW126795   4.035   4.525   5.340
 8632SOL    HW226796   4.147   4.540   5.222
 8633SOL     OW26797   5.318   4.074   5.799
 8633SOL    HW126798   5.359   4.102   5.712
 8633SOL    HW226799   5.281   4.155   5.845
 8634SOL     OW26800   5.428   4.967   0.468
 8634SOL    HW126801   5.388   4.958   0.377
 8634SOL    HW226802   5.400   5.054   0.509
 8635SOL     OW26803   6.044   3.218   6.643
 8635SOL    HW126804   6.021   3.315   6.653
 8635SOL    HW226805   6.056   3.197   6.545
 8636SOL     OW26806   4.318   5.809   0.720
 8636SOL    HW126807   4.303   5.877   0.649
 8636SOL    HW226808   4.387   5.842   0.784
 8637SOL     OW26809   1.541   1.619   6.778
 8637SOL    HW126810   1.532   1.662   6.867
 8637SOL    HW226811   1.450   1.608   6.737
 8638SOL     OW26812   3.840   2.942   5.293
 8638SOL    HW126813   3.754   2.905   5.258
 8638SOL    HW226814   3.842   3.041   5.279
 8639SOL     OW26815   5.321   3.263   0.126
 8639SOL    HW126816   5.312   3.173   0.167
 8639SOL    HW226817   5.235   3.288   0.081
 8640SOL     OW26818   3.594   3.049   1.087
 8640SOL    HW126819   3.674   2.998   1.121
 8640SOL    HW226820   3.626   3.130   1.036
 8641SOL     OW26821   4.134   5.419   2.913
 8641SOL    HW126822   4.059   5.371   2.959
 8641SOL    HW226823   4.210   5.356   2.901
 8642SOL     OW26824   1.332   6.599   3.731
 8642SOL    HW126825   1.411   6.541   3.749
 8642SOL    HW226826   1.262   6.547   3.682
 8643SOL     OW26827   2.793   0.011   0.366
 8643SOL    HW126828   2.827   6.966   0.309
 8643SOL    HW226829   2.856   0.025   0.443
 8644SOL     OW26830   6.266   2.277   6.688
 8644SOL    HW126831   6.250   2.186   6.649
 8644SOL    HW226832   6.222   2.283   6.778
 8645SOL     OW26833   5.793   4.224   1.480
 8645SOL    HW126834   5.777   4.134   1.439
 8645SOL    HW226835   5.724   4.241   1.551
 8646SOL     OW26836   7.014   2.415   5.815
 8646SOL    HW126837   6.959   2.486   5.770
 8646SOL    HW226838   6.958   2.369   5.884
 8647SOL     OW26839   2.717   5.497   1.204
 8647SOL    HW126840   2.791   5.430   1.197
 8647SOL    HW226841   2.705   5.542   1.115
 8648SOL     OW26842   5.785   6.570   1.226
 8648SOL    HW126843   5.853   6.625   1.179
 8648SOL    HW226844   5.694   6.610   1.211
 8649SOL     OW26845   4.193   6.499   6.976
 8649SOL    HW126846   4.179   6.507   0.046
 8649SOL    HW226847   4.105   6.502   6.929
 8650SOL     OW26848   1.930   0.320   4.506
 8650SOL    HW126849   2.026   0.340   4.521
 8650SOL    HW226850   1.908   0.329   4.408
 8651SOL     OW26851   2.825   1.292   0.949
 8651SOL    HW126852   2.735   1.331   0.930
 8651SOL    HW226853   2.826   1.196   0.920
 8652SOL     OW26854   0.872   4.903   4.349
 8652SOL    HW126855   0.854   4.965   4.426
 8652SOL    HW226856   0.884   4.958   4.265
 8653SOL     OW26857   0.153   1.583   6.243
 8653SOL    HW126858   0.127   1.558   6.149
 8653SOL    HW226859   0.136   1.506   6.304
 8654SOL     OW26860   1.066   4.765   1.845
 8654SOL    HW126861   1.125   4.709   1.786
 8654SOL    HW226862   1.095   4.860   1.841
 8655SOL     OW26863   6.891   1.578   5.495
 8655SOL    HW126864   6.878   1.671   5.461
 8655SOL    HW226865   6.835   1.564   5.576
 8656SOL     OW26866   6.041   6.895   1.785
 8656SOL    HW126867   6.036   6.858   1.692
 8656SOL    HW226868   5.950   6.893   1.826
 8657SOL     OW26869   5.756   0.043   1.282
 8657SOL    HW126870   5.724   6.987   1.323
 8657SOL    HW226871   5.701   0.120   1.314
 8658SOL     OW26872   6.070   5.182   1.520
 8658SOL    HW126873   6.055   5.280   1.518
 8658SOL    HW226874   6.153   5.161   1.571
 8659SOL     OW26875   4.759   2.391   2.786
 8659SOL    HW126876   4.681   2.330   2.771
 8659SOL    HW226877   4.734   2.484   2.758
 8660SOL     OW26878   0.639   2.630   1.602
 8660SOL    HW126879   0.605   2.721   1.581
 8660SOL    HW226880   0.697   2.597   1.528
 8661SOL     OW26881   6.559   3.125   3.220
 8661SOL    HW126882   6.587   3.043   3.270
 8661SOL    HW226883   6.472   3.108   3.174
 8662SOL     OW26884   3.618   5.672   2.347
 8662SOL    HW126885   3.619   5.577   2.317
 8662SOL    HW226886   3.612   5.676   2.447
 8663SOL     OW26887   3.256   5.239   3.321
 8663SOL    HW126888   3.258   5.153   3.372
 8663SOL    HW226889   3.284   5.222   3.226
 8664SOL     OW26890   1.935   5.806   2.831
 8664SOL    HW126891   1.945   5.865   2.912
 8664SOL    HW226892   1.968   5.714   2.853
 8665SOL     OW26893   5.834   4.919   5.604
 8665SOL    HW126894   5.857   4.841   5.546
 8665SOL    HW226895   5.800   4.886   5.692
 8666SOL     OW26896   5.083   0.475   3.970
 8666SOL    HW126897   5.163   0.476   4.029
 8666SOL    HW226898   5.075   0.563   3.922
 8667SOL     OW26899   4.853   1.455   4.481
 8667SOL    HW126900   4.926   1.415   4.536
 8667SOL    HW226901   4.892   1.516   4.413
 8668SOL     OW26902   5.477   2.958   4.280
 8668SOL    HW126903   5.521   3.014   4.351
 8668SOL    HW226904   5.379   2.973   4.281
 8669SOL     OW26905   6.571   6.363   6.164
 8669SOL    HW126906   6.564   6.306   6.082
 8669SOL    HW226907   6.600   6.455   6.137
 8670SOL     OW26908   5.716   4.812   5.844
 8670SOL    HW126909   5.632   4.804   5.791
 8670SOL    HW226910   5.695   4.839   5.938
 8671SOL     OW26911   0.321   2.343   2.395
 8671SOL    HW126912   0.316   2.421   2.458
 8671SOL    HW226913   0.320   2.258   2.447
 8672SOL     OW26914   0.176   0.455   3.373
 8672SOL    HW126915   0.092   0.429   3.421
 8672SOL    HW226916   0.216   0.374   3.329
 8673SOL     OW26917   0.394   1.364   0.261
 8673SOL    HW126918   0.453   1.417   0.201
 8673SOL    HW226919   0.310   1.416   0.280
 8674SOL     OW26920   0.569   4.489   3.322
 8674SOL    HW126921   0.514   4.447   3.394
 8674SOL    HW226922   0.654   4.524   3.361
 8675SOL     OW26923   3.455   1.487   5.898
 8675SOL    HW126924   3.465   1.409   5.835
 8675SOL    HW226925   3.407   1.561   5.852
 8676SOL     OW26926   5.634   1.265   1.551
 8676SOL    HW126927   5.678   1.225   1.470
 8676SOL    HW226928   5.536   1.248   1.547
 8677SOL     OW26929   1.733   6.323   5.847
 8677SOL    HW126930   1.710   6.247   5.907
 8677SOL    HW226931   1.650   6.360   5.806
 8678SOL     OW26932   1.291   6.922   0.391
 8678SOL    HW126933   1.234   6.974   0.328
 8678SOL    HW226934   1.347   6.857   0.340
 8679SOL     OW26935   2.163   1.210   3.867
 8679SOL    HW126936   2.121   1.150   3.798
 8679SOL    HW226937   2.171   1.302   3.831
 8680SOL     OW26938   6.409   2.689   5.724
 8680SOL    HW126939   6.488   2.729   5.678
 8680SOL    HW226940   6.347   2.762   5.754
 8681SOL     OW26941   5.238   6.179   0.994
 8681SOL    HW126942   5.311   6.210   1.055
 8681SOL    HW226943   5.159   6.150   1.048
 8682SOL     OW26944   6.996   0.389   1.134
 8682SOL    HW126945   7.004   0.470   1.191
 8682SOL    HW226946   0.012   0.312   1.180
 8683SOL     OW26947   1.522   3.393   5.169
 8683SOL    HW126948   1.505   3.383   5.267
 8683SOL    HW226949   1.618   3.375   5.149
 8684SOL     OW26950   0.601   3.863   4.929
 8684SOL    HW126951   0.651   3.781   4.902
 8684SOL    HW226952   0.566   3.851   5.022
 8685SOL     OW26953   5.484   2.332   5.747
 8685SOL    HW126954   5.495   2.428   5.773
 8685SOL    HW226955   5.537   2.274   5.809
 8686SOL     OW26956   6.387   6.525   2.818
 8686SOL    HW126957   6.449   6.447   2.824
 8686SOL    HW226958   6.420   6.590   2.749
 8687SOL     OW26959   6.311   3.485   3.224
 8687SOL    HW126960   6.282   3.457   3.315
 8687SOL    HW226961   6.400   3.444   3.203
 8688SOL     OW26962   1.670   3.661   6.265
 8688SOL    HW126963   1.706   3.753   6.283
 8688SOL    HW226964   1.572   3.660   6.287
 8689SOL     OW26965   4.492   3.249   0.435
 8689SOL    HW126966   4.591   3.250   0.452
 8689SOL    HW226967   4.462   3.341   0.410
 8690SOL     OW26968   0.988   2.140   2.807
 8690SOL    HW126969   0.998   2.210   2.736
 8690SOL    HW226970   0.956   2.183   2.891
 8691SOL     OW26971   3.152   1.822   4.996
 8691SOL    HW126972   3.205   1.768   5.061
 8691SOL    HW226973   3.085   1.763   4.950
 8692SOL     OW26974   4.045   1.821   5.693
 8692SOL    HW126975   4.133   1.845   5.652
 8692SOL    HW226976   4.036   1.867   5.782
 8693SOL     OW26977   6.530   1.042   6.686
 8693SOL    HW126978   6.482   0.959   6.711
 8693SOL    HW226979   6.626   1.035   6.715
 8694SOL     OW26980   6.451   3.265   4.446
 8694SOL    HW126981   6.460   3.327   4.368
 8694SOL    HW226982   6.445   3.317   4.531
 8695SOL     OW26983   4.186   3.485   6.456
 8695SOL    HW126984   4.182   3.565   6.395
 8695SOL    HW226985   4.147   3.406   6.410
 8696SOL     OW26986   2.873   5.945   5.552
 8696SOL    HW126987   2.845   5.867   5.497
 8696SOL    HW226988   2.840   6.030   5.510
 8697SOL     OW26989   1.774   4.409   6.167
 8697SOL    HW126990   1.723   4.486   6.128
 8697SOL    HW226991   1.864   4.404   6.125
 8698SOL     OW26992   4.718   5.954   6.440
 8698SOL    HW126993   4.694   6.047   6.413
 8698SOL    HW226994   4.692   5.890   6.367
 8699SOL     OW26995   2.536   2.765   6.392
 8699SOL    HW126996   2.453   2.727   6.352
 8699SOL    HW226997   2.516   2.854   6.433
 8700SOL     OW26998   0.962   0.524   5.178
 8700SOL    HW126999   0.935   0.579   5.099
 8700SOL    HW227000   1.019   0.447   5.147
 8701SOL     OW27001   1.213   1.719   0.026
 8701SOL    HW127002   1.249   1.784   0.094
 8701SOL    HW227003   1.175   1.769   6.978
 8702SOL     OW27004   5.227   4.821   1.481
 8702SOL    HW127005   5.160   4.756   1.519
 8702SOL    HW227006   5.195   4.854   1.393
 8703SOL     OW27007   3.049   4.434   0.188
 8703SOL    HW127008   3.008   4.470   0.271
 8703SOL    HW227009   2.987   4.368   0.145
 8704SOL     OW27010   0.284   2.337   4.255
 8704SOL    HW127011   0.377   2.334   4.219
 8704SOL    HW227012   0.282   2.386   4.342
 8705SOL     OW27013   4.513   2.731   6.961
 8705SOL    HW127014   4.517   2.739   0.032
 8705SOL    HW227015   4.554   2.644   6.933
 8706SOL     OW27016   5.579   2.960   6.979
 8706SOL    HW127017   5.535   2.954   6.889
 8706SOL    HW227018   5.677   2.944   6.969
 8707SOL     OW27019   1.331   1.923   4.456
 8707SOL    HW127020   1.359   1.934   4.552
 8707SOL    HW227021   1.388   1.853   4.413
 8708SOL     OW27022   5.049   1.959   3.643
 8708SOL    HW127023   5.127   2.021   3.636
 8708SOL    HW227024   4.965   2.008   3.621
 8709SOL     OW27025   6.628   0.306   6.564
 8709SOL    HW127026   6.542   0.341   6.599
 8709SOL    HW227027   6.704   0.359   6.603
 8710SOL     OW27028   2.088   1.626   3.354
 8710SOL    HW127029   2.103   1.722   3.328
 8710SOL    HW227030   2.175   1.586   3.382
 8711SOL     OW27031   1.005   1.422   2.176
 8711SOL    HW127032   1.033   1.508   2.218
 8711SOL    HW227033   1.054   1.410   2.090
 8712SOL     OW27034   2.242   2.558   5.153
 8712SOL    HW127035   2.192   2.525   5.073
 8712SOL    HW227036   2.237   2.489   5.226
 8713SOL     OW27037   1.121   4.319   2.092
 8713SOL    HW127038   1.156   4.412   2.096
 8713SOL    HW227039   1.187   4.260   2.045
 8714SOL     OW27040   0.208   6.374   0.053
 8714SOL    HW127041   0.157   6.290   0.033
 8714SOL    HW227042   0.301   6.365   0.017
 8715SOL     OW27043   2.857   1.716   0.104
 8715SOL    HW127044   2.764   1.752   0.106
 8715SOL    HW227045   2.862   1.640   0.039
 8716SOL     OW27046   0.371   6.559   1.508
 8716SOL    HW127047   0.298   6.562   1.577
 8716SOL    HW227048   0.455   6.595   1.548
 8717SOL     OW27049   2.296   4.092   6.813
 8717SOL    HW127050   2.388   4.130   6.801
 8717SOL    HW227051   2.280   4.073   6.909
 8718SOL     OW27052   1.518   3.393   6.593
 8718SOL    HW127053   1.518   3.299   6.558
 8718SOL    HW227054   1.429   3.413   6.633
 8719SOL     OW27055   3.856   1.322   6.258
 8719SOL    HW127056   3.839   1.399   6.198
 8719SOL    HW227057   3.769   1.280   6.284
 8720SOL     OW27058   6.051   4.828   5.004
 8720SOL    HW127059   6.073   4.899   4.937
 8720SOL    HW227060   6.085   4.855   5.094
 8721SOL     OW27061   0.357   6.437   6.734
 8721SOL    HW127062   0.402   6.362   6.782
 8721SOL    HW227063   0.301   6.400   6.660
 8722SOL     OW27064   3.399   0.456   1.009
 8722SOL    HW127065   3.351   0.414   0.932
 8722SOL    HW227066   3.470   0.518   0.974
 8723SOL     OW27067   5.392   0.202   2.164
 8723SOL    HW127068   5.326   0.272   2.192
 8723SOL    HW227069   5.438   0.231   2.081
 8724SOL     OW27070   4.318   0.277   4.198
 8724SOL    HW127071   4.233   0.247   4.155
 8724SOL    HW227072   4.309   0.372   4.227
 8725SOL     OW27073   0.495   6.500   4.467
 8725SOL    HW127074   0.579   6.476   4.515
 8725SOL    HW227075   0.434   6.548   4.529
 8726SOL     OW27076   6.914   1.216   0.530
 8726SOL    HW127077   6.957   1.176   0.611
 8726SOL    HW227078   6.977   1.208   0.452
 8727SOL     OW27079   5.845   6.203   6.699
 8727SOL    HW127080   5.799   6.149   6.769
 8727SOL    HW227081   5.864   6.146   6.619
 8728SOL     OW27082   5.769   0.913   3.141
 8728SOL    HW127083   5.733   0.959   3.061
 8728SOL    HW227084   5.695   0.871   3.192
 8729SOL     OW27085   4.046   5.177   5.753
 8729SOL    HW127086   4.054   5.147   5.658
 8729SOL    HW227087   3.950   5.170   5.781
 8730SOL     OW27088   5.591   4.309   3.309
 8730SOL    HW127089   5.675   4.293   3.362
 8730SOL    HW227090   5.515   4.262   3.352
 8731SOL     OW27091   0.262   1.931   3.188
 8731SOL    HW127092   0.256   1.928   3.288
 8731SOL    HW227093   0.325   1.860   3.157
 8732SOL     OW27094   5.230   5.080   0.848
 8732SOL    HW127095   5.310   5.041   0.894
 8732SOL    HW227096   5.193   5.154   0.905
 8733SOL     OW27097   0.949   5.396   0.863
 8733SOL    HW127098   0.973   5.464   0.794
 8733SOL    HW227099   0.975   5.305   0.830
 8734SOL     OW27100   6.659   3.725   2.206
 8734SOL    HW127101   6.664   3.722   2.106
 8734SOL    HW227102   6.713   3.650   2.244
 8735SOL     OW27103   2.129   4.022   5.550
 8735SOL    HW127104   2.227   4.038   5.559
 8735SOL    HW227105   2.112   3.924   5.542
 8736SOL     OW27106   0.425   5.419   1.908
 8736SOL    HW127107   0.487   5.483   1.862
 8736SOL    HW227108   0.433   5.430   2.007
 8737SOL     OW27109   1.804   5.457   6.456
 8737SOL    HW127110   1.780   5.366   6.420
 8737SOL    HW227111   1.768   5.466   6.549
 8738SOL     OW27112   1.168   3.540   4.098
 8738SOL    HW127113   1.211   3.566   4.012
 8738SOL    HW227114   1.144   3.443   4.096
 8739SOL     OW27115   5.148   3.779   5.278
 8739SOL    HW127116   5.130   3.814   5.370
 8739SOL    HW227117   5.247   3.766   5.267
 8740SOL     OW27118   3.949   1.953   3.225
 8740SOL    HW127119   3.891   1.880   3.190
 8740SOL    HW227120   3.971   2.017   3.152
 8741SOL     OW27121   1.675   0.318   2.453
 8741SOL    HW127122   1.670   0.221   2.427
 8741SOL    HW227123   1.744   0.330   2.524
 8742SOL     OW27124   3.718   0.766   2.762
 8742SOL    HW127125   3.661   0.813   2.694
 8742SOL    HW227126   3.662   0.739   2.840
 8743SOL     OW27127   1.552   1.118   1.625
 8743SOL    HW127128   1.463   1.155   1.651
 8743SOL    HW227129   1.541   1.025   1.590
 8744SOL     OW27130   4.105   3.147   6.890
 8744SOL    HW127131   4.087   3.121   6.795
 8744SOL    HW227132   4.183   3.095   6.924
 8745SOL     OW27133   6.682   1.882   6.599
 8745SOL    HW127134   6.655   1.861   6.505
 8745SOL    HW227135   6.745   1.959   6.599
 8746SOL     OW27136   5.111   5.374   4.104
 8746SOL    HW127137   5.183   5.405   4.041
 8746SOL    HW227138   5.130   5.279   4.131
 8747SOL     OW27139   6.267   1.274   2.249
 8747SOL    HW127140   6.264   1.176   2.266
 8747SOL    HW227141   6.190   1.300   2.190
 8748SOL     OW27142   0.782   1.582   4.346
 8748SOL    HW127143   0.758   1.636   4.426
 8748SOL    HW227144   0.763   1.485   4.363
 8749SOL     OW27145   2.559   1.203   5.640
 8749SOL    HW127146   2.500   1.248   5.572
 8749SOL    HW227147   2.503   1.166   5.713
 8750SOL     OW27148   4.711   2.874   6.021
 8750SOL    HW127149   4.650   2.831   6.087
 8750SOL    HW227150   4.661   2.945   5.971
 8751SOL     OW27151   0.179   6.960   1.201
 8751SOL    HW127152   0.235   6.881   1.228
 8751SOL    HW227153   0.133   6.940   1.115
 8752SOL     OW27154   4.778   2.892   0.276
 8752SOL    HW127155   4.814   2.799   0.272
 8752SOL    HW227156   4.757   2.916   0.371
 8753SOL     OW27157   1.522   3.242   0.430
 8753SOL    HW127158   1.447   3.308   0.430
 8753SOL    HW227159   1.601   3.281   0.383
 8754SOL     OW27160   2.584   4.675   6.350
 8754SOL    HW127161   2.506   4.661   6.289
 8754SOL    HW227162   2.573   4.761   6.400
 8755SOL     OW27163   0.742   1.741   1.512
 8755SOL    HW127164   0.718   1.648   1.485
 8755SOL    HW227165   0.677   1.806   1.472
 8756SOL     OW27166   2.238   2.992   3.868
 8756SOL    HW127167   2.162   3.007   3.930
 8756SOL    HW227168   2.300   2.924   3.907
 8757SOL     OW27169   5.232   6.283   5.109
 8757SOL    HW127170   5.230   6.196   5.159
 8757SOL    HW227171   5.164   6.281   5.036
 8758SOL     OW27172   3.475   6.914   3.424
 8758SOL    HW127173   3.482   6.969   3.508
 8758SOL    HW227174   3.566   6.894   3.389
 8759SOL     OW27175   6.482   0.793   6.824
 8759SOL    HW127176   6.554   0.755   6.766
 8759SOL    HW227177   6.429   0.719   6.866
 8760SOL     OW27178   1.829   1.637   3.703
 8760SOL    HW127179   1.832   1.594   3.793
 8760SOL    HW227180   1.870   1.576   3.636
 8761SOL     OW27181   5.314   1.550   1.902
 8761SOL    HW127182   5.309   1.474   1.967
 8761SOL    HW227183   5.225   1.559   1.855
 8762SOL     OW27184   1.740   5.556   4.174
 8762SOL    HW127185   1.666   5.569   4.107
 8762SOL    HW227186   1.802   5.634   4.170
 8763SOL     OW27187   6.781   0.774   5.382
 8763SOL    HW127188   6.859   0.715   5.361
 8763SOL    HW227189   6.741   0.746   5.470
 8764SOL     OW27190   4.044   5.453   5.832
 8764SOL    HW127191   4.081   5.446   5.924
 8764SOL    HW227192   4.069   5.373   5.778
 8765SOL     OW27193   5.196   0.452   5.129
 8765SOL    HW127194   5.214   0.366   5.081
 8765SOL    HW227195   5.102   0.480   5.111
 8766SOL     OW27196   4.903   3.999   5.986
 8766SOL    HW127197   4.947   3.978   5.899
 8766SOL    HW227198   4.967   4.045   6.047
 8767SOL     OW27199   3.480   0.443   3.713
 8767SOL    HW127200   3.559   0.437   3.775
 8767SOL    HW227201   3.398   0.462   3.766
 8768SOL     OW27202   6.963   2.342   0.104
 8768SOL    HW127203   6.989   2.430   0.143
 8768SOL    HW227204   0.015   2.284   0.097
 8769SOL     OW27205   5.982   1.179   2.002
 8769SOL    HW127206   6.048   1.247   1.970
 8769SOL    HW227207   5.932   1.142   1.924
 8770SOL     OW27208   5.498   3.722   1.936
 8770SOL    HW127209   5.420   3.701   1.996
 8770SOL    HW227210   5.479   3.689   1.844
 8771SOL     OW27211   0.694   3.801   6.576
 8771SOL    HW127212   0.763   3.729   6.565
 8771SOL    HW227213   0.728   3.871   6.638
 8772SOL     OW27214   5.556   0.670   4.800
 8772SOL    HW127215   5.641   0.622   4.779
 8772SOL    HW227216   5.498   0.672   4.719
 8773SOL     OW27217   6.769   2.219   3.950
 8773SOL    HW127218   6.829   2.278   3.896
 8773SOL    HW227219   6.774   2.126   3.915
 8774SOL     OW27220   1.522   6.579   6.750
 8774SOL    HW127221   1.503   6.510   6.681
 8774SOL    HW227222   1.571   6.656   6.708
 8775SOL     OW27223   5.161   2.231   4.254
 8775SOL    HW127224   5.124   2.164   4.318
 8775SOL    HW227225   5.232   2.188   4.198
 8776SOL     OW27226   4.862   2.940   0.927
 8776SOL    HW127227   4.870   2.955   1.025
 8776SOL    HW227228   4.917   3.007   0.878
 8777SOL     OW27229   1.325   3.408   2.899
 8777SOL    HW127230   1.376   3.393   2.814
 8777SOL    HW227231   1.233   3.442   2.877
 8778SOL     OW27232   4.138   4.290   5.791
 8778SOL    HW127233   4.195   4.232   5.733
 8778SOL    HW227234   4.045   4.292   5.755
 8779SOL     OW27235   2.929   5.112   2.678
 8779SOL    HW127236   2.975   5.023   2.679
 8779SOL    HW227237   2.865   5.118   2.754
 8780SOL     OW27238   0.238   6.003   2.222
 8780SOL    HW127239   0.298   5.943   2.170
 8780SOL    HW227240   0.282   6.027   2.309
 8781SOL     OW27241   4.059   6.979   2.548
 8781SOL    HW127242   4.044   6.890   2.590
 8781SOL    HW227243   4.152   7.010   2.568
 8782SOL     OW27244   5.152   0.886   1.582
 8782SOL    HW127245   5.134   0.788   1.590
 8782SOL    HW227246   5.191   0.921   1.668
 8783SOL     OW27247   5.295   3.426   4.402
 8783SOL    HW127248   5.392   3.412   4.381
 8783SOL    HW227249   5.286   3.505   4.462
 8784SOL     OW27250   6.408   6.647   0.932
 8784SOL    HW127251   6.352   6.687   0.859
 8784SOL    HW227252   6.421   6.549   0.914
 8785SOL     OW27253   6.990   5.896   6.498
 8785SOL    HW127254   6.992   5.824   6.429
 8785SOL    HW227255   0.014   5.868   6.577
 8786SOL     OW27256   4.127   2.173   2.145
 8786SOL    HW127257   4.143   2.126   2.058
 8786SOL    HW227258   4.030   2.198   2.152
 8787SOL     OW27259   3.792   0.268   1.711
 8787SOL    HW127260   3.838   0.274   1.623
 8787SOL    HW227261   3.695   0.291   1.700
 8788SOL     OW27262   0.271   0.371   4.876
 8788SOL    HW127263   0.172   0.368   4.885
 8788SOL    HW227264   0.304   0.462   4.900
 8789SOL     OW27265   0.015   4.166   5.429
 8789SOL    HW127266   6.974   4.237   5.428
 8789SOL    HW227267   7.001   4.077   5.446
 8790SOL     OW27268   6.006   2.624   0.211
 8790SOL    HW127269   6.008   2.544   0.151
 8790SOL    HW227270   6.037   2.597   0.302
 8791SOL     OW27271   4.612   6.211   5.257
 8791SOL    HW127272   4.591   6.215   5.355
 8791SOL    HW227273   4.683   6.142   5.242
 8792SOL     OW27274   4.181   4.787   1.383
 8792SOL    HW127275   4.127   4.707   1.407
 8792SOL    HW227276   4.233   4.768   1.299
 8793SOL     OW27277   1.298   5.488   3.934
 8793SOL    HW127278   1.232   5.522   4.000
 8793SOL    HW227279   1.371   5.555   3.922
 8794SOL     OW27280   6.771   0.987   2.639
 8794SOL    HW127281   6.739   0.893   2.625
 8794SOL    HW227282   6.770   1.036   2.552
 8795SOL     OW27283   1.353   5.281   5.079
 8795SOL    HW127284   1.416   5.358   5.071
 8795SOL    HW227285   1.403   5.200   5.110
 8796SOL     OW27286   6.563   3.392   3.569
 8796SOL    HW127287   6.570   3.408   3.471
 8796SOL    HW227288   6.602   3.470   3.619
 8797SOL     OW27289   6.714   7.002   3.208
 8797SOL    HW127290   6.740   6.927   3.269
 8797SOL    HW227291   6.614   7.006   3.203
 8798SOL     OW27292   4.482   6.602   4.924
 8798SOL    HW127293   4.401   6.546   4.938
 8798SOL    HW227294   4.489   6.626   4.827
 8799SOL     OW27295   2.187   5.152   2.100
 8799SOL    HW127296   2.092   5.180   2.087
 8799SOL    HW227297   2.248   5.226   2.072
 8800SOL     OW27298   6.903   5.919   5.661
 8800SOL    HW127299   6.816   5.965   5.679
 8800SOL    HW227300   6.896   5.822   5.686
 8801SOL     OW27301   6.329   2.184   4.914
 8801SOL    HW127302   6.325   2.133   5.000
 8801SOL    HW227303   6.406   2.150   4.860
 8802SOL     OW27304   1.409   5.874   6.042
 8802SOL    HW127305   1.323   5.922   6.062
 8802SOL    HW227306   1.486   5.927   6.079
 8803SOL     OW27307   6.228   0.658   0.131
 8803SOL    HW127308   6.202   0.621   0.042
 8803SOL    HW227309   6.302   0.725   0.119
 8804SOL     OW27310   1.979   5.887   1.023
 8804SOL    HW127311   1.898   5.887   0.963
 8804SOL    HW227312   2.024   5.976   1.018
 8805SOL     OW27313   4.964   5.792   3.032
 8805SOL    HW127314   4.887   5.798   3.096
 8805SOL    HW227315   5.046   5.830   3.076
 8806SOL     OW27316   2.749   6.109   0.272
 8806SOL    HW127317   2.752   6.066   0.362
 8806SOL    HW227318   2.829   6.167   0.260
 8807SOL     OW27319   4.904   2.688   0.795
 8807SOL    HW127320   4.883   2.598   0.834
 8807SOL    HW227321   4.868   2.759   0.855
 8808SOL     OW27322   2.000   2.641   0.564
 8808SOL    HW127323   1.995   2.706   0.640
 8808SOL    HW227324   1.976   2.550   0.597
 8809SOL     OW27325   2.002   4.002   3.586
 8809SOL    HW127326   1.965   3.960   3.669
 8809SOL    HW227327   1.953   4.088   3.568
 8810SOL     OW27328   6.859   1.391   5.955
 8810SOL    HW127329   6.952   1.428   5.953
 8810SOL    HW227330   6.863   1.291   5.951
 8811SOL     OW27331   4.301   0.071   2.653
 8811SOL    HW127332   4.351   0.154   2.629
 8811SOL    HW227333   4.356   7.020   2.628
 8812SOL     OW27334   3.643   1.150   6.286
 8812SOL    HW127335   3.613   1.056   6.271
 8812SOL    HW227336   3.597   1.186   6.368
 8813SOL     OW27337   2.178   4.448   2.978
 8813SOL    HW127338   2.138   4.378   3.039
 8813SOL    HW227339   2.271   4.421   2.954
 8814SOL     OW27340   5.989   0.037   0.435
 8814SOL    HW127341   5.928   0.036   0.356
 8814SOL    HW227342   6.034   0.126   0.441
 8815SOL     OW27343   5.231   0.916   0.902
 8815SOL    HW127344   5.197   0.934   0.994
 8815SOL    HW227345   5.315   0.861   0.908
 8816SOL     OW27346   0.355   6.394   5.989
 8816SOL    HW127347   0.404   6.310   6.012
 8816SOL    HW227348   0.291   6.377   5.914
 8817SOL     OW27349   0.899   3.379   4.849
 8817SOL    HW127350   0.906   3.373   4.750
 8817SOL    HW227351   0.902   3.288   4.889
 8818SOL     OW27352   2.079   6.710   3.874
 8818SOL    HW127353   2.039   6.764   3.948
 8818SOL    HW227354   2.121   6.627   3.912
 8819SOL     OW27355   5.669   4.242   5.953
 8819SOL    HW127356   5.593   4.304   5.933
 8819SOL    HW227357   5.700   4.199   5.869
 8820SOL     OW27358   3.565   1.107   4.852
 8820SOL    HW127359   3.552   1.117   4.950
 8820SOL    HW227360   3.601   1.192   4.814
 8821SOL     OW27361   1.655   4.924   1.105
 8821SOL    HW127362   1.735   4.890   1.055
 8821SOL    HW227363   1.659   5.023   1.111
 8822SOL     OW27364   6.819   6.864   4.069
 8822SOL    HW127365   6.805   6.939   4.133
 8822SOL    HW227366   6.762   6.878   3.988
 8823SOL     OW27367   2.611   1.584   3.235
 8823SOL    HW127368   2.594   1.539   3.147
 8823SOL    HW227369   2.688   1.539   3.281
 8824SOL     OW27370   1.630   0.147   0.758
 8824SOL    HW127371   1.700   0.194   0.705
 8824SOL    HW227372   1.562   0.107   0.697
 8825SOL     OW27373   0.238   0.336   0.936
 8825SOL    HW127374   0.297   0.407   0.975
 8825SOL    HW227375   0.177   0.302   1.007
 8826SOL     OW27376   0.905   3.670   0.675
 8826SOL    HW127377   0.900   3.572   0.659
 8826SOL    HW227378   0.948   3.687   0.764
 8827SOL     OW27379   4.246   0.433   2.532
 8827SOL    HW127380   4.179   0.361   2.512
 8827SOL    HW227381   4.200   0.521   2.540
 8828SOL     OW27382   4.482   3.643   5.809
 8828SOL    HW127383   4.522   3.659   5.718
 8828SOL    HW227384   4.463   3.546   5.821
 8829SOL     OW27385   0.242   1.439   2.467
 8829SOL    HW127386   0.178   1.363   2.457
 8829SOL    HW227387   0.192   1.525   2.466
 8830SOL     OW27388   2.796   1.693   2.949
 8830SOL    HW127389   2.748   1.781   2.944
 8830SOL    HW227390   2.731   1.621   2.973
 8831SOL     OW27391   0.333   2.158   2.586
 8831SOL    HW127392   0.423   2.120   2.564
 8831SOL    HW227393   0.338   2.207   2.673
 8832SOL     OW27394   6.532   0.086   3.809
 8832SOL    HW127395   6.570   7.026   3.831
 8832SOL    HW227396   6.572   0.120   3.724
 8833SOL     OW27397   3.875   2.167   1.128
 8833SOL    HW127398   3.948   2.133   1.187
 8833SOL    HW227399   3.788   2.126   1.156
 8834SOL     OW27400   5.783   3.914   5.616
 8834SOL    HW127401   5.710   3.848   5.629
 8834SOL    HW227402   5.859   3.871   5.567
 8835SOL     OW27403   5.905   0.628   5.999
 8835SOL    HW127404   5.908   0.528   5.994
 8835SOL    HW227405   5.991   0.666   5.964
 8836SOL     OW27406   5.460   2.621   6.792
 8836SOL    HW127407   5.544   2.631   6.845
 8836SOL    HW227408   5.407   2.544   6.828
 8837SOL     OW27409   7.000   6.784   1.878
 8837SOL    HW127410   6.967   6.877   1.891
 8837SOL    HW227411   6.929   6.719   1.905
 8838SOL     OW27412   0.639   4.131   2.972
 8838SOL    HW127413   0.704   4.203   2.950
 8838SOL    HW227414   0.660   4.050   2.918
 8839SOL     OW27415   5.569   5.603   2.585
 8839SOL    HW127416   5.665   5.621   2.605
 8839SOL    HW227417   5.531   5.679   2.531
 8840SOL     OW27418   0.446   0.855   1.748
 8840SOL    HW127419   0.412   0.761   1.741
 8840SOL    HW227420   0.390   0.915   1.691
 8841SOL     OW27421   3.923   0.915   1.697
 8841SOL    HW127422   3.973   0.831   1.719
 8841SOL    HW227423   3.987   0.987   1.672
 8842SOL     OW27424   3.721   3.765   4.059
 8842SOL    HW127425   3.760   3.854   4.082
 8842SOL    HW227426   3.768   3.694   4.112
 8843SOL     OW27427   2.051   3.752   5.575
 8843SOL    HW127428   2.035   3.654   5.589
 8843SOL    HW227429   2.065   3.796   5.663
 8844SOL     OW27430   6.024   2.001   5.055
 8844SOL    HW127431   6.082   1.927   5.091
 8844SOL    HW227432   5.941   1.961   5.016
 8845SOL     OW27433   2.032   5.436   1.307
 8845SOL    HW127434   2.037   5.531   1.277
 8845SOL    HW227435   2.094   5.380   1.251
 8846SOL     OW27436   5.167   4.175   3.972
 8846SOL    HW127437   5.166   4.253   3.908
 8846SOL    HW227438   5.193   4.093   3.922
 8847SOL     OW27439   2.001   2.181   2.915
 8847SOL    HW127440   2.066   2.128   2.861
 8847SOL    HW227441   1.917   2.195   2.862
 8848SOL     OW27442   2.900   1.808   1.496
 8848SOL    HW127443   2.877   1.726   1.549
 8848SOL    HW227444   2.848   1.886   1.532
 8849SOL     OW27445   3.333   5.695   4.431
 8849SOL    HW127446   3.276   5.723   4.354
 8849SOL    HW227447   3.275   5.678   4.511
 8850SOL     OW27448   2.674   1.846   0.801
 8850SOL    HW127449   2.769   1.820   0.783
 8850SOL    HW227450   2.614   1.800   0.735
 8851SOL     OW27451   1.480   4.195   3.121
 8851SOL    HW127452   1.538   4.275   3.111
 8851SOL    HW227453   1.386   4.223   3.140
 8852SOL     OW27454   5.322   2.675   6.091
 8852SOL    HW127455   5.228   2.655   6.119
 8852SOL    HW227456   5.321   2.738   6.013
 8853SOL     OW27457   4.125   1.767   5.163
 8853SOL    HW127458   4.170   1.678   5.155
 8853SOL    HW227459   4.027   1.754   5.173
 8854SOL     OW27460   1.353   1.002   6.120
 8854SOL    HW127461   1.306   1.028   6.036
 8854SOL    HW227462   1.319   1.058   6.196
 8855SOL     OW27463   6.236   5.816   6.686
 8855SOL    HW127464   6.227   5.884   6.613
 8855SOL    HW227465   6.333   5.805   6.708
 8856SOL     OW27466   6.397   0.715   4.634
 8856SOL    HW127467   6.308   0.681   4.666
 8856SOL    HW227468   6.424   0.665   4.551
 8857SOL     OW27469   6.643   1.716   3.385
 8857SOL    HW127470   6.562   1.660   3.366
 8857SOL    HW227471   6.725   1.667   3.355
 8858SOL     OW27472   0.839   4.098   5.796
 8858SOL    HW127473   0.776   4.147   5.735
 8858SOL    HW227474   0.933   4.122   5.772
 8859SOL     OW27475   0.990   6.670   5.334
 8859SOL    HW127476   0.931   6.728   5.391
 8859SOL    HW227477   1.047   6.727   5.275
 8860SOL     OW27478   1.383   2.873   2.608
 8860SOL    HW127479   1.471   2.916   2.589
 8860SOL    HW227480   1.349   2.905   2.697
 8861SOL     OW27481   3.309   2.720   6.918
 8861SOL    HW127482   3.272   2.812   6.907
 8861SOL    HW227483   3.245   2.664   6.972
 8862SOL     OW27484   6.113   1.637   4.890
 8862SOL    HW127485   6.100   1.545   4.853
 8862SOL    HW227486   6.157   1.695   4.822
 8863SOL     OW27487   1.761   5.535   4.811
 8863SOL    HW127488   1.845   5.528   4.756
 8863SOL    HW227489   1.738   5.632   4.822
 8864SOL     OW27490   2.129   3.563   6.575
 8864SOL    HW127491   2.116   3.547   6.477
 8864SOL    HW227492   2.159   3.657   6.589
 8865SOL     OW27493   2.458   1.583   5.082
 8865SOL    HW127494   2.407   1.587   5.167
 8865SOL    HW227495   2.550   1.620   5.096
 8866SOL     OW27496   4.238   6.226   3.350
 8866SOL    HW127497   4.236   6.163   3.427
 8866SOL    HW227498   4.145   6.248   3.322
 8867SOL     OW27499   6.037   2.563   2.685
 8867SOL    HW127500   5.979   2.502   2.631
 8867SOL    HW227501   6.109   2.509   2.731
 8868SOL     OW27502   4.834   3.733   0.335
 8868SOL    HW127503   4.798   3.802   0.272
 8868SOL    HW227504   4.916   3.769   0.380
 8869SOL     OW27505   4.777   4.030   3.584
 8869SOL    HW127506   4.695   4.079   3.553
 8869SOL    HW227507   4.789   4.044   3.682
 8870SOL     OW27508   3.627   1.189   1.055
 8870SOL    HW127509   3.538   1.217   1.018
 8870SOL    HW227510   3.698   1.207   0.987
 8871SOL     OW27511   1.550   1.503   3.679
 8871SOL    HW127512   1.574   1.456   3.595
 8871SOL    HW227513   1.632   1.512   3.737
 8872SOL     OW27514   1.932   4.790   3.785
 8872SOL    HW127515   1.874   4.789   3.867
 8872SOL    HW227516   1.973   4.699   3.773
 8873SOL     OW27517   0.367   6.074   3.102
 8873SOL    HW127518   0.381   6.072   3.003
 8873SOL    HW227519   0.337   5.983   3.133
 8874SOL     OW27520   1.956   6.816   1.221
 8874SOL    HW127521   1.896   6.850   1.148
 8874SOL    HW227522   1.931   6.860   1.307
 8875SOL     OW27523   1.316   2.665   4.540
 8875SOL    HW127524   1.311   2.765   4.541
 8875SOL    HW227525   1.411   2.635   4.543
 8876SOL     OW27526   6.999   1.171   4.508
 8876SOL    HW127527   6.945   1.091   4.534
 8876SOL    HW227528   0.066   1.153   4.527
 8877SOL     OW27529   3.083   0.664   4.213
 8877SOL    HW127530   3.036   0.644   4.127
 8877SOL    HW227531   3.026   0.724   4.269
 8878SOL     OW27532   0.223   4.699   0.663
 8878SOL    HW127533   0.254   4.643   0.740
 8878SOL    HW227534   0.157   4.648   0.609
 8879SOL     OW27535   4.971   5.833   0.476
 8879SOL    HW127536   4.877   5.800   0.474
 8879SOL    HW227537   5.000   5.856   0.383
 8880SOL     OW27538   6.898   5.459   4.663
 8880SOL    HW127539   6.964   5.514   4.714
 8880SOL    HW227540   6.900   5.487   4.567
 8881SOL     OW27541   6.400   1.086   2.649
 8881SOL    HW127542   6.404   1.150   2.725
 8881SOL    HW227543   6.425   0.994   2.680
 8882SOL     OW27544   5.259   0.887   6.918
 8882SOL    HW127545   5.287   0.877   6.822
 8882SOL    HW227546   5.261   0.984   6.943
 8883SOL     OW27547   0.361   1.138   6.206
 8883SOL    HW127548   0.307   1.058   6.182
 8883SOL    HW227549   0.410   1.171   6.125
 8884SOL     OW27550   5.676   6.514   6.415
 8884SOL    HW127551   5.629   6.602   6.412
 8884SOL    HW227552   5.737   6.511   6.495
 8885SOL     OW27553   6.287   3.770   1.627
 8885SOL    HW127554   6.280   3.861   1.668
 8885SOL    HW227555   6.199   3.745   1.586
 8886SOL     OW27556   2.670   6.582   5.550
 8886SOL    HW127557   2.689   6.534   5.636
 8886SOL    HW227558   2.661   6.680   5.568
 8887SOL     OW27559   2.848   1.054   0.812
 8887SOL    HW127560   2.907   0.996   0.756
 8887SOL    HW227561   2.753   1.040   0.786
 8888SOL     OW27562   0.873   2.118   1.320
 8888SOL    HW127563   0.931   2.198   1.303
 8888SOL    HW227564   0.877   2.056   1.242
 8889SOL     OW27565   5.244   6.933   4.781
 8889SOL    HW127566   5.199   6.857   4.826
 8889SOL    HW227567   5.333   6.950   4.824
 8890SOL     OW27568   6.452   5.662   4.190
 8890SOL    HW127569   6.516   5.668   4.267
 8890SOL    HW227570   6.371   5.610   4.217
 8891SOL     OW27571   5.816   3.107   6.741
 8891SOL    HW127572   5.835   3.105   6.839
 8891SOL    HW227573   5.886   3.163   6.696
 8892SOL     OW27574   2.480   6.927   3.119
 8892SOL    HW127575   2.569   6.909   3.077
 8892SOL    HW227576   2.465   6.862   3.194
 8893SOL     OW27577   0.298   1.244   1.874
 8893SOL    HW127578   0.382   1.298   1.877
 8893SOL    HW227579   0.308   1.171   1.806
 8894SOL     OW27580   4.182   2.989   6.141
 8894SOL    HW127581   4.231   2.927   6.080
 8894SOL    HW227582   4.088   2.956   6.154
 8895SOL     OW27583   0.446   0.153   1.513
 8895SOL    HW127584   0.514   0.201   1.568
 8895SOL    HW227585   0.402   0.083   1.569
 8896SOL     OW27586   1.654   3.588   5.476
 8896SOL    HW127587   1.722   3.655   5.507
 8896SOL    HW227588   1.607   3.623   5.395
 8897SOL     OW27589   1.712   1.305   2.380
 8897SOL    HW127590   1.686   1.385   2.327
 8897SOL    HW227591   1.764   1.242   2.322
 8898SOL     OW27592   6.457   3.418   4.662
 8898SOL    HW127593   6.363   3.397   4.687
 8898SOL    HW227594   6.500   3.471   4.736
 8899SOL     OW27595   2.060   4.191   6.717
 8899SOL    HW127596   2.155   4.161   6.722
 8899SOL    HW227597   2.005   4.142   6.784
 8900SOL     OW27598   5.127   2.945   3.277
 8900SOL    HW127599   5.142   2.985   3.367
 8900SOL    HW227600   5.211   2.955   3.222
 8901SOL     OW27601   1.746   0.772   2.932
 8901SOL    HW127602   1.763   0.674   2.940
 8901SOL    HW227603   1.760   0.817   3.020
 8902SOL     OW27604   2.675   5.445   6.761
 8902SOL    HW127605   2.647   5.511   6.691
 8902SOL    HW227606   2.660   5.484   6.852
 8903SOL     OW27607   2.520   1.386   3.845
 8903SOL    HW127608   2.468   1.471   3.834
 8903SOL    HW227609   2.480   1.333   3.920
 8904SOL     OW27610   6.742   5.527   3.509
 8904SOL    HW127611   6.824   5.551   3.458
 8904SOL    HW227612   6.728   5.592   3.583
 8905SOL     OW27613   2.222   3.390   5.223
 8905SOL    HW127614   2.312   3.395   5.266
 8905SOL    HW227615   2.210   3.299   5.181
 8906SOL     OW27616   6.711   6.348   6.400
 8906SOL    HW127617   6.784   6.281   6.415
 8906SOL    HW227618   6.696   6.360   6.302
 8907SOL     OW27619   3.292   2.574   5.344
 8907SOL    HW127620   3.275   2.510   5.269
 8907SOL    HW227621   3.247   2.542   5.427
 8908SOL     OW27622   1.645   2.068   0.622
 8908SOL    HW127623   1.717   2.070   0.691
 8908SOL    HW227624   1.667   1.998   0.553
 8909SOL     OW27625   3.076   0.133   5.668
 8909SOL    HW127626   3.111   0.063   5.606
 8909SOL    HW227627   3.152   0.188   5.702
 8910SOL     OW27628   2.919   3.542   5.845
 8910SOL    HW127629   2.865   3.536   5.929
 8910SOL    HW227630   2.967   3.455   5.830
 8911SOL     OW27631   3.022   2.198   4.252
 8911SOL    HW127632   3.118   2.170   4.259
 8911SOL    HW227633   2.987   2.219   4.343
 8912SOL     OW27634   4.439   1.752   6.241
 8912SOL    HW127635   4.362   1.708   6.194
 8912SOL    HW227636   4.451   1.844   6.203
 8913SOL     OW27637   5.300   4.176   1.472
 8913SOL    HW127638   5.275   4.154   1.566
 8913SOL    HW227639   5.256   4.262   1.445
 8914SOL     OW27640   4.421   1.216   5.058
 8914SOL    HW127641   4.453   1.285   5.123
 8914SOL    HW227642   4.324   1.198   5.074
 8915SOL     OW27643   1.794   3.224   3.878
 8915SOL    HW127644   1.780   3.316   3.915
 8915SOL    HW227645   1.876   3.185   3.919
 8916SOL     OW27646   0.366   4.284   2.230
 8916SOL    HW127647   0.272   4.250   2.234
 8916SOL    HW227648   0.392   4.299   2.134
 8917SOL     OW27649   6.179   5.513   6.696
 8917SOL    HW127650   6.278   5.501   6.689
 8917SOL    HW227651   6.158   5.611   6.703
 8918SOL     OW27652   6.003   6.390   0.066
 8918SOL    HW127653   6.074   6.397   0.136
 8918SOL    HW227654   6.036   6.430   7.010
 8919SOL     OW27655   3.730   3.789   0.685
 8919SOL    HW127656   3.665   3.847   0.734
 8919SOL    HW227657   3.788   3.740   0.750
 8920SOL     OW27658   6.429   5.742   6.086
 8920SOL    HW127659   6.475   5.824   6.052
 8920SOL    HW227660   6.370   5.766   6.163
 8921SOL     OW27661   1.147   0.915   3.470
 8921SOL    HW127662   1.221   0.847   3.469
 8921SOL    HW227663   1.062   0.872   3.440
 8922SOL     OW27664   2.604   4.841   1.163
 8922SOL    HW127665   2.662   4.843   1.082
 8922SOL    HW227666   2.598   4.747   1.198
 8923SOL     OW27667   1.649   3.818   7.014
 8923SOL    HW127668   1.678   3.733   6.968
 8923SOL    HW227669   1.550   3.816   7.027
 8924SOL     OW27670   2.656   5.278   5.832
 8924SOL    HW127671   2.572   5.312   5.789
 8924SOL    HW227672   2.735   5.318   5.785
 8925SOL     OW27673   0.706   7.017   2.071
 8925SOL    HW127674   0.741   0.050   2.140
 8925SOL    HW227675   0.780   6.990   2.009
 8926SOL     OW27676   5.703   2.342   1.905
 8926SOL    HW127677   5.638   2.291   1.848
 8926SOL    HW227678   5.793   2.299   1.899
 8927SOL     OW27679   2.436   2.659   4.743
 8927SOL    HW127680   2.408   2.684   4.835
 8927SOL    HW227681   2.536   2.650   4.740
 8928SOL     OW27682   0.343   0.698   5.684
 8928SOL    HW127683   0.252   0.693   5.724
 8928SOL    HW227684   0.337   0.690   5.585
 8929SOL     OW27685   0.486   3.641   4.043
 8929SOL    HW127686   0.443   3.702   4.110
 8929SOL    HW227687   0.580   3.672   4.025
 8930SOL     OW27688   1.463   5.062   5.185
 8930SOL    HW127689   1.377   5.036   5.230
 8930SOL    HW227690   1.502   4.983   5.139
 8931SOL     OW27691   4.753   2.534   1.343
 8931SOL    HW127692   4.753   2.608   1.275
 8931SOL    HW227693   4.688   2.556   1.416
 8932SOL     OW27694   5.605   6.806   6.363
 8932SOL    HW127695   5.507   6.795   6.344
 8932SOL    HW227696   5.657   6.795   6.279
 8933SOL     OW27697   1.008   1.197   5.202
 8933SOL    HW127698   0.990   1.101   5.184
 8933SOL    HW227699   1.031   1.210   5.298
 8934SOL     OW27700   3.420   5.172   3.104
 8934SOL    HW127701   3.421   5.204   3.009
 8934SOL    HW227702   3.468   5.084   3.110
 8935SOL     OW27703   4.893   3.365   2.434
 8935SOL    HW127704   4.991   3.350   2.428
 8935SOL    HW227705   4.875   3.450   2.483
 8936SOL     OW27706   0.269   4.181   0.936
 8936SOL    HW127707   0.305   4.237   0.861
 8936SOL    HW227708   0.240   4.241   1.011
 8937SOL     OW27709   0.360   0.036   4.054
 8937SOL    HW127710   0.391   0.123   4.016
 8937SOL    HW227711   0.285   0.053   4.117
 8938SOL     OW27712   5.987   0.934   0.559
 8938SOL    HW127713   5.969   0.902   0.652
 8938SOL    HW227714   6.068   0.886   0.523
 8939SOL     OW27715   6.750   2.784   4.904
 8939SOL    HW127716   6.746   2.792   5.004
 8939SOL    HW227717   6.813   2.852   4.868
 8940SOL     OW27718   6.607   3.142   0.318
 8940SOL    HW127719   6.612   3.109   0.412
 8940SOL    HW227720   6.572   3.236   0.317
 8941SOL     OW27721   4.990   2.426   2.043
 8941SOL    HW127722   4.939   2.478   1.975
 8941SOL    HW227723   4.966   2.329   2.035
 8942SOL     OW27724   0.021   5.107   3.708
 8942SOL    HW127725   0.118   5.083   3.709
 8942SOL    HW227726   0.009   5.198   3.669
 8943SOL     OW27727   4.522   3.626   0.168
 8943SOL    HW127728   4.576   3.547   0.196
 8943SOL    HW227729   4.581   3.694   0.125
 8944SOL     OW27730   4.555   5.563   4.369
 8944SOL    HW127731   4.484   5.567   4.299
 8944SOL    HW227732   4.591   5.470   4.374
 8945SOL     OW27733   5.896   3.581   4.980
 8945SOL    HW127734   5.976   3.630   4.948
 8945SOL    HW227735   5.814   3.637   4.965
 8946SOL     OW27736   4.824   0.890   4.016
 8946SOL    HW127737   4.753   0.885   3.946
 8946SOL    HW227738   4.813   0.975   4.068
 8947SOL     OW27739   0.984   4.823   6.690
 8947SOL    HW127740   0.980   4.723   6.699
 8947SOL    HW227741   0.996   4.847   6.593
 8948SOL     OW27742   6.097   0.108   4.142
 8948SOL    HW127743   6.086   0.113   4.043
 8948SOL    HW227744   6.007   0.116   4.186
 8949SOL     OW27745   3.522   6.181   0.202
 8949SOL    HW127746   3.559   6.096   0.164
 8949SOL    HW227747   3.515   6.250   0.129
 8950SOL     OW27748   4.623   4.218   1.407
 8950SOL    HW127749   4.716   4.229   1.372
 8950SOL    HW227750   4.576   4.306   1.408
 8951SOL     OW27751   2.391   1.122   4.025
 8951SOL    HW127752   2.297   1.132   3.992
 8951SOL    HW227753   2.402   1.175   4.109
 8952SOL     OW27754   2.252   4.683   3.386
 8952SOL    HW127755   2.185   4.756   3.395
 8952SOL    HW227756   2.344   4.721   3.390
 8953SOL     OW27757   2.549   5.356   2.161
 8953SOL    HW127758   2.633   5.327   2.114
 8953SOL    HW227759   2.498   5.276   2.191
 8954SOL     OW27760   1.212   5.861   4.497
 8954SOL    HW127761   1.160   5.791   4.546
 8954SOL    HW227762   1.160   5.946   4.496
 8955SOL     OW27763   5.847   3.105   3.243
 8955SOL    HW127764   5.821   3.147   3.156
 8955SOL    HW227765   5.768   3.107   3.305
 8956SOL     OW27766   0.621   6.678   6.293
 8956SOL    HW127767   0.712   6.639   6.307
 8956SOL    HW227768   0.627   6.778   6.297
 8957SOL     OW27769   1.400   5.501   2.189
 8957SOL    HW127770   1.499   5.498   2.201
 8957SOL    HW227771   1.367   5.409   2.164
 8958SOL     OW27772   1.624   3.953   5.718
 8958SOL    HW127773   1.682   3.916   5.646
 8958SOL    HW227774   1.529   3.930   5.700
 8959SOL     OW27775   0.767   3.505   1.959
 8959SOL    HW127776   0.760   3.512   2.059
 8959SOL    HW227777   0.812   3.419   1.935
 8960SOL     OW27778   6.606   3.641   4.245
 8960SOL    HW127779   6.616   3.712   4.175
 8960SOL    HW227780   6.673   3.568   4.229
 8961SOL     OW27781   2.845   6.290   4.706
 8961SOL    HW127782   2.863   6.210   4.762
 8961SOL    HW227783   2.772   6.269   4.640
 8962SOL     OW27784   1.070   5.500   1.354
 8962SOL    HW127785   1.163   5.530   1.335
 8962SOL    HW227786   1.013   5.514   1.273
 8963SOL     OW27787   3.488   5.945   4.496
 8963SOL    HW127788   3.437   5.865   4.465
 8963SOL    HW227789   3.452   6.027   4.452
 8964SOL     OW27790   6.412   3.735   3.415
 8964SOL    HW127791   6.369   3.765   3.500
 8964SOL    HW227792   6.367   3.652   3.382
 8965SOL     OW27793   4.518   4.948   0.457
 8965SOL    HW127794   4.473   4.983   0.539
 8965SOL    HW227795   4.502   4.849   0.450
 8966SOL     OW27796   5.042   5.099   6.174
 8966SOL    HW127797   5.099   5.152   6.111
 8966SOL    HW227798   5.081   5.101   6.266
 8967SOL     OW27799   3.384   0.838   2.787
 8967SOL    HW127800   3.437   0.788   2.855
 8967SOL    HW227801   3.431   0.924   2.765
 8968SOL     OW27802   2.910   4.756   1.494
 8968SOL    HW127803   2.976   4.701   1.545
 8968SOL    HW227804   2.843   4.795   1.556
 8969SOL     OW27805   6.592   0.573   3.327
 8969SOL    HW127806   6.582   0.550   3.424
 8969SOL    HW227807   6.668   0.637   3.317
 8970SOL     OW27808   1.005   1.452   6.358
 8970SOL    HW127809   0.947   1.371   6.347
 8970SOL    HW227810   0.991   1.514   6.281
 8971SOL     OW27811   4.530   5.934   0.873
 8971SOL    HW127812   4.541   5.908   0.969
 8971SOL    HW227813   4.531   6.034   0.865
 8972SOL     OW27814   5.758   5.159   0.404
 8972SOL    HW127815   5.736   5.197   0.494
 8972SOL    HW227816   5.856   5.169   0.387
 8973SOL     OW27817   1.030   2.089   2.009
 8973SOL    HW127818   0.960   2.138   2.061
 8973SOL    HW227819   1.009   2.092   1.912
 8974SOL     OW27820   2.160   4.050   4.459
 8974SOL    HW127821   2.180   4.095   4.372
 8974SOL    HW227822   2.085   3.985   4.447
 8975SOL     OW27823   0.635   0.375   6.511
 8975SOL    HW127824   0.735   0.371   6.510
 8975SOL    HW227825   0.600   0.320   6.586
 8976SOL     OW27826   6.616   0.322   1.588
 8976SOL    HW127827   6.552   0.329   1.511
 8976SOL    HW227828   6.704   0.361   1.561
 8977SOL     OW27829   0.147   5.145   6.455
 8977SOL    HW127830   0.247   5.149   6.446
 8977SOL    HW227831   0.107   5.229   6.416
 8978SOL     OW27832   6.084   5.785   5.644
 8978SOL    HW127833   6.110   5.880   5.627
 8978SOL    HW227834   6.081   5.769   5.743
 8979SOL     OW27835   0.336   5.677   6.458
 8979SOL    HW127836   0.333   5.748   6.388
 8979SOL    HW227837   0.350   5.720   6.547
 8980SOL     OW27838   4.236   1.446   5.113
 8980SOL    HW127839   4.334   1.462   5.129
 8980SOL    HW227840   4.213   1.473   5.020
 8981SOL     OW27841   4.412   2.289   6.506
 8981SOL    HW127842   4.374   2.270   6.597
 8981SOL    HW227843   4.460   2.377   6.509
 8982SOL     OW27844   6.356   1.012   1.965
 8982SOL    HW127845   6.336   0.973   1.875
 8982SOL    HW227846   6.272   1.019   2.018
 8983SOL     OW27847   1.311   5.267   2.771
 8983SOL    HW127848   1.334   5.310   2.684
 8983SOL    HW227849   1.389   5.273   2.833
 8984SOL     OW27850   5.799   0.621   4.686
 8984SOL    HW127851   5.811   0.680   4.607
 8984SOL    HW227852   5.800   0.525   4.658
 8985SOL     OW27853   4.741   2.057   0.495
 8985SOL    HW127854   4.642   2.053   0.508
 8985SOL    HW227855   4.782   2.120   0.561
 8986SOL     OW27856   6.190   4.321   1.972
 8986SOL    HW127857   6.273   4.376   1.964
 8986SOL    HW227858   6.125   4.349   1.902
 8987SOL     OW27859   2.580   6.842   1.394
 8987SOL    HW127860   2.607   6.904   1.468
 8987SOL    HW227861   2.635   6.758   1.400
 8988SOL     OW27862   2.233   5.317   1.177
 8988SOL    HW127863   2.217   5.376   1.098
 8988SOL    HW227864   2.261   5.226   1.145
 8989SOL     OW27865   5.324   2.642   2.603
 8989SOL    HW127866   5.249   2.579   2.624
 8989SOL    HW227867   5.312   2.726   2.656
 8990SOL     OW27868   3.701   6.327   1.001
 8990SOL    HW127869   3.672   6.362   0.912
 8990SOL    HW227870   3.678   6.230   1.008
 8991SOL     OW27871   2.173   2.184   0.671
 8991SOL    HW127872   2.116   2.105   0.650
 8991SOL    HW227873   2.261   2.153   0.706
 8992SOL     OW27874   0.356   3.300   0.132
 8992SOL    HW127875   0.434   3.341   0.087
 8992SOL    HW227876   0.328   3.218   0.081
 8993SOL     OW27877   5.262   2.077   3.567
 8993SOL    HW127878   5.328   2.144   3.534
 8993SOL    HW227879   5.252   2.004   3.499
 8994SOL     OW27880   1.605   5.598   3.935
 8994SOL    HW127881   1.642   5.610   3.843
 8994SOL    HW227882   1.536   5.668   3.953
 8995SOL     OW27883   1.752   3.406   5.692
 8995SOL    HW127884   1.733   3.478   5.625
 8995SOL    HW227885   1.696   3.420   5.773
 8996SOL     OW27886   0.462   3.919   2.225
 8996SOL    HW127887   0.456   3.998   2.286
 8996SOL    HW227888   0.442   3.948   2.132
 8997SOL     OW27889   5.022   1.291   5.826
 8997SOL    HW127890   5.113   1.322   5.857
 8997SOL    HW227891   5.022   1.192   5.819
 8998SOL     OW27892   1.438   3.076   5.617
 8998SOL    HW127893   1.533   3.054   5.637
 8998SOL    HW227894   1.430   3.108   5.523
 8999SOL     OW27895   5.459   1.383   5.927
 8999SOL    HW127896   5.423   1.331   6.004
 8999SOL    HW227897   5.431   1.479   5.935
 9000SOL     OW27898   3.511   4.016   0.546
 9000SOL    HW127899   3.602   3.979   0.566
 9000SOL    HW227900   3.468   4.047   0.631
 9001SOL     OW27901   2.514   4.987   3.541
 9001SOL    HW127902   2.489   4.913   3.604
 9001SOL    HW227903   2.456   5.067   3.559
 9002SOL     OW27904   5.779   4.650   5.492
 9002SOL    HW127905   5.679   4.638   5.492
 9002SOL    HW227906   5.819   4.593   5.421
 9003SOL     OW27907   6.382   2.930   0.040
 9003SOL    HW127908   6.414   2.846   0.084
 9003SOL    HW227909   6.346   2.992   0.110
 9004SOL     OW27910   5.125   6.482   1.177
 9004SOL    HW127911   5.077   6.479   1.265
 9004SOL    HW227912   5.198   6.414   1.175
 9005SOL     OW27913   4.724   2.106   3.329
 9005SOL    HW127914   4.753   2.072   3.240
 9005SOL    HW227915   4.627   2.130   3.325
 9006SOL     OW27916   1.832   5.208   0.875
 9006SOL    HW127917   1.905   5.141   0.888
 9006SOL    HW227918   1.842   5.282   0.941
 9007SOL     OW27919   3.372   5.304   4.036
 9007SOL    HW127920   3.427   5.303   3.953
 9007SOL    HW227921   3.276   5.286   4.014
 9008SOL     OW27922   0.025   4.139   1.801
 9008SOL    HW127923   0.044   4.210   1.868
 9008SOL    HW227924   6.974   4.165   1.747
 9009SOL     OW27925   2.384   6.620   0.465
 9009SOL    HW127926   2.303   6.598   0.412
 9009SOL    HW227927   2.383   6.569   0.551
 9010SOL     OW27928   0.524   6.474   5.022
 9010SOL    HW127929   0.529   6.380   4.988
 9010SOL    HW227930   0.441   6.518   4.988
 9011SOL     OW27931   3.962   1.778   1.073
 9011SOL    HW127932   4.018   1.817   1.147
 9011SOL    HW227933   3.909   1.851   1.030
 9012SOL     OW27934   0.976   4.879   1.284
 9012SOL    HW127935   0.995   4.976   1.290
 9012SOL    HW227936   0.925   4.850   1.365
 9013SOL     OW27937   6.152   6.366   4.122
 9013SOL    HW127938   6.183   6.429   4.192
 9013SOL    HW227939   6.198   6.277   4.134
 9014SOL     OW27940   1.129   0.981   0.833
 9014SOL    HW127941   1.064   1.032   0.776
 9014SOL    HW227942   1.197   0.937   0.774
 9015SOL     OW27943   0.102   1.465   5.990
 9015SOL    HW127944   0.141   1.550   5.956
 9015SOL    HW227945   0.175   1.398   6.006
 9016SOL     OW27946   6.721   6.058   5.888
 9016SOL    HW127947   6.756   6.081   5.979
 9016SOL    HW227948   6.754   6.125   5.822
 9017SOL     OW27949   5.784   2.353   3.775
 9017SOL    HW127950   5.836   2.307   3.847
 9017SOL    HW227951   5.847   2.389   3.706
 9018SOL     OW27952   3.105   1.540   5.154
 9018SOL    HW127953   3.052   1.538   5.238
 9018SOL    HW227954   3.185   1.598   5.166
 9019SOL     OW27955   3.003   6.166   0.679
 9019SOL    HW127956   2.926   6.151   0.617
 9019SOL    HW227957   3.087   6.134   0.636
 9020SOL     OW27958   1.789   4.560   2.714
 9020SOL    HW127959   1.884   4.530   2.706
 9020SOL    HW227960   1.731   4.483   2.740
 9021SOL     OW27961   0.012   5.898   4.356
 9021SOL    HW127962   0.097   5.846   4.353
 9021SOL    HW227963   7.003   5.907   4.264
 9022SOL     OW27964   3.000   0.296   0.249
 9022SOL    HW127965   2.923   0.296   0.186
 9022SOL    HW227966   3.085   0.309   0.198
 9023SOL     OW27967   3.519   3.626   3.602
 9023SOL    HW127968   3.503   3.543   3.550
 9023SOL    HW227969   3.583   3.607   3.677
 9024SOL     OW27970   1.591   6.159   6.009
 9024SOL    HW127971   1.671   6.100   5.996
 9024SOL    HW227972   1.580   6.179   6.106
 9025SOL     OW27973   6.159   5.036   1.955
 9025SOL    HW127974   6.241   5.026   1.899
 9025SOL    HW227975   6.149   4.957   2.015
 9026SOL     OW27976   3.492   2.901   4.204
 9026SOL    HW127977   3.417   2.939   4.258
 9026SOL    HW227978   3.572   2.887   4.262
 9027SOL     OW27979   2.314   2.032   3.016
 9027SOL    HW127980   2.356   2.074   3.096
 9027SOL    HW227981   2.376   1.964   2.977
 9028SOL     OW27982   2.415   4.131   6.129
 9028SOL    HW127983   2.486   4.197   6.103
 9028SOL    HW227984   2.453   4.039   6.126
 9029SOL     OW27985   4.908   5.436   3.872
 9029SOL    HW127986   4.957   5.407   3.954
 9029SOL    HW227987   4.954   5.516   3.832
 9030SOL     OW27988   2.145   0.889   2.304
 9030SOL    HW127989   2.148   0.980   2.347
 9030SOL    HW227990   2.238   0.854   2.294
 9031SOL     OW27991   2.730   6.228   5.748
 9031SOL    HW127992   2.768   6.224   5.656
 9031SOL    HW227993   2.785   6.170   5.809
 9032SOL     OW27994   2.645   2.217   2.009
 9032SOL    HW127995   2.745   2.220   2.007
 9032SOL    HW227996   2.611   2.281   2.078
 9033SOL     OW27997   1.881   3.420   4.164
 9033SOL    HW127998   1.934   3.496   4.127
 9033SOL    HW227999   1.916   3.395   4.254
 9034SOL     OW28000   2.638   6.698   5.238
 9034SOL    HW128001   2.627   6.784   5.289
 9034SOL    HW228002   2.557   6.641   5.251
 9035SOL     OW28003   6.884   0.062   4.841
 9035SOL    HW128004   6.871   0.147   4.791
 9035SOL    HW228005   6.976   0.058   4.880
 9036SOL     OW28006   1.718   2.267   5.612
 9036SOL    HW128007   1.663   2.197   5.567
 9036SOL    HW228008   1.666   2.352   5.617
 9037SOL     OW28009   2.343   4.096   6.388
 9037SOL    HW128010   2.382   4.135   6.305
 9037SOL    HW228011   2.257   4.142   6.410
 9038SOL     OW28012   5.272   0.325   5.368
 9038SOL    HW128013   5.228   0.374   5.443
 9038SOL    HW228014   5.243   0.366   5.281
 9039SOL     OW28015   2.140   5.018   5.141
 9039SOL    HW128016   2.239   5.012   5.130
 9039SOL    HW228017   2.097   5.024   5.051
 9040SOL     OW28018   2.758   1.645   2.607
 9040SOL    HW128019   2.662   1.673   2.620
 9040SOL    HW228020   2.775   1.631   2.509
 9041SOL     OW28021   1.259   2.310   1.383
 9041SOL    HW128022   1.341   2.265   1.348
 9041SOL    HW228023   1.186   2.304   1.315
 9042SOL     OW28024   2.950   5.482   3.310
 9042SOL    HW128025   2.896   5.540   3.371
 9042SOL    HW228026   2.950   5.388   3.344
 9043SOL     OW28027   1.380   2.486   6.328
 9043SOL    HW128028   1.317   2.490   6.406
 9043SOL    HW228029   1.328   2.491   6.243
 9044SOL     OW28030   5.853   0.235   0.824
 9044SOL    HW128031   5.832   0.145   0.784
 9044SOL    HW228032   5.785   0.301   0.792
 9045SOL     OW28033   3.587   0.314   3.229
 9045SOL    HW128034   3.534   0.398   3.230
 9045SOL    HW228035   3.543   0.247   3.169
 9046SOL     OW28036   3.307   4.269   5.251
 9046SOL    HW128037   3.327   4.237   5.344
 9046SOL    HW228038   3.390   4.305   5.209
 9047SOL     OW28039   1.462   4.557   4.114
 9047SOL    HW128040   1.484   4.469   4.156
 9047SOL    HW228041   1.394   4.544   4.042
 9048SOL     OW28042   1.816   3.964   5.015
 9048SOL    HW128043   1.832   3.869   4.986
 9048SOL    HW228044   1.902   4.014   5.015
 9049SOL     OW28045   5.055   5.951   6.091
 9049SOL    HW128046   4.984   5.881   6.086
 9049SOL    HW228047   5.098   5.962   6.001
 9050SOL     OW28048   0.262   5.319   0.015
 9050SOL    HW128049   0.280   5.280   6.953
 9050SOL    HW228050   0.311   5.265   0.084
 9051SOL     OW28051   4.913   6.568   0.360
 9051SOL    HW128052   4.948   6.612   0.276
 9051SOL    HW228053   4.987   6.564   0.428
 9052SOL     OW28054   2.733   4.748   4.476
 9052SOL    HW128055   2.750   4.705   4.564
 9052SOL    HW228056   2.658   4.701   4.429
 9053SOL     OW28057   2.040   3.124   4.029
 9053SOL    HW128058   2.061   3.206   3.976
 9053SOL    HW228059   2.097   3.121   4.111
 9054SOL     OW28060   1.481   0.783   1.573
 9054SOL    HW128061   1.574   0.799   1.608
 9054SOL    HW228062   1.418   0.774   1.650
 9055SOL     OW28063   0.863   2.852   4.236
 9055SOL    HW128064   0.812   2.784   4.289
 9055SOL    HW228065   0.830   2.852   4.142
 9056SOL     OW28066   5.267   7.013   2.308
 9056SOL    HW128067   5.348   0.024   2.265
 9056SOL    HW228068   5.188   7.026   2.248
 9057SOL     OW28069   6.001   5.310   0.080
 9057SOL    HW128070   6.044   5.286   0.167
 9057SOL    HW228071   6.045   5.259   0.006
 9058SOL     OW28072   2.056   2.774   4.957
 9058SOL    HW128073   2.086   2.789   5.051
 9058SOL    HW228074   2.091   2.847   4.899
 9059SOL     OW28075   6.519   1.167   3.480
 9059SOL    HW128076   6.521   1.191   3.383
 9059SOL    HW228077   6.492   1.248   3.533
 9060SOL     OW28078   6.604   3.748   2.481
 9060SOL    HW128079   6.637   3.749   2.386
 9060SOL    HW228080   6.505   3.733   2.481
 9061SOL     OW28081   4.647   6.073   3.099
 9061SOL    HW128082   4.640   6.021   3.014
 9061SOL    HW228083   4.560   6.070   3.148
 9062SOL     OW28084   1.449   4.485   2.830
 9062SOL    HW128085   1.362   4.505   2.786
 9062SOL    HW228086   1.456   4.537   2.916
 9063SOL     OW28087   3.183   1.646   2.524
 9063SOL    HW128088   3.259   1.672   2.584
 9063SOL    HW228089   3.099   1.691   2.554
 9064SOL     OW28090   0.057   4.291   3.516
 9064SOL    HW128091   0.067   4.235   3.434
 9064SOL    HW228092   0.089   4.238   3.595
 9065SOL     OW28093   2.917   6.204   4.978
 9065SOL    HW128094   2.832   6.251   4.956
 9065SOL    HW228095   2.901   6.105   4.978
 9066SOL     OW28096   6.468   6.270   6.463
 9066SOL    HW128097   6.534   6.325   6.413
 9066SOL    HW228098   6.412   6.329   6.521
 9067SOL     OW28099   6.892   6.557   4.406
 9067SOL    HW128100   6.948   6.474   4.396
 9067SOL    HW228101   6.802   6.541   4.367
 9068SOL     OW28102   5.507   0.231   5.535
 9068SOL    HW128103   5.434   0.257   5.472
 9068SOL    HW228104   5.582   0.189   5.483
 9069SOL     OW28105   4.421   2.461   2.778
 9069SOL    HW128106   4.348   2.393   2.788
 9069SOL    HW228107   4.431   2.512   2.863
 9070SOL     OW28108   1.564   1.959   6.465
 9070SOL    HW128109   1.569   2.050   6.424
 9070SOL    HW228110   1.625   1.955   6.544
 9071SOL     OW28111   4.378   1.541   5.927
 9071SOL    HW128112   4.325   1.567   6.008
 9071SOL    HW228113   4.438   1.465   5.950
 9072SOL     OW28114   5.652   6.904   1.465
 9072SOL    HW128115   5.596   6.971   1.514
 9072SOL    HW228116   5.733   6.882   1.520
 9073SOL     OW28117   4.252   0.168   0.119
 9073SOL    HW128118   4.296   0.094   0.067
 9073SOL    HW228119   4.153   0.162   0.106
 9074SOL     OW28120   1.421   0.431   1.193
 9074SOL    HW128121   1.405   0.482   1.108
 9074SOL    HW228122   1.414   0.493   1.271
 9075SOL     OW28123   6.582   1.049   2.145
 9075SOL    HW128124   6.507   1.068   2.082
 9075SOL    HW228125   6.638   1.131   2.155
 9076SOL     OW28126   5.006   1.197   3.230
 9076SOL    HW128127   5.036   1.118   3.284
 9076SOL    HW228128   4.958   1.262   3.289
 9077SOL     OW28129   5.251   1.109   5.930
 9077SOL    HW128130   5.285   1.094   5.838
 9077SOL    HW228131   5.187   1.037   5.954
 9078SOL     OW28132   5.102   5.186   6.647
 9078SOL    HW128133   5.066   5.153   6.734
 9078SOL    HW228134   5.030   5.235   6.598
 9079SOL     OW28135   1.503   0.693   5.220
 9079SOL    HW128136   1.582   0.749   5.244
 9079SOL    HW228137   1.490   0.622   5.289
 9080SOL     OW28138   6.487   3.386   0.303
 9080SOL    HW128139   6.514   3.415   0.211
 9080SOL    HW228140   6.389   3.366   0.303
 9081SOL     OW28141   3.831   1.649   1.473
 9081SOL    HW128142   3.859   1.640   1.378
 9081SOL    HW228143   3.825   1.558   1.515
 9082SOL     OW28144   2.795   6.976   5.747
 9082SOL    HW128145   2.809   0.045   5.755
 9082SOL    HW228146   2.818   6.931   5.833
 9083SOL     OW28147   4.789   4.712   6.184
 9083SOL    HW128148   4.743   4.652   6.118
 9083SOL    HW228149   4.784   4.807   6.152
 9084SOL     OW28150   0.518   2.808   5.581
 9084SOL    HW128151   0.543   2.725   5.631
 9084SOL    HW228152   0.434   2.846   5.618
 9085SOL     OW28153   3.255   5.012   0.167
 9085SOL    HW128154   3.280   4.972   0.255
 9085SOL    HW228155   3.160   5.043   0.171
 9086SOL     OW28156   6.306   4.561   1.029
 9086SOL    HW128157   6.310   4.466   0.999
 9086SOL    HW228158   6.397   4.590   1.060
 9087SOL     OW28159   5.782   3.152   2.952
 9087SOL    HW128160   5.804   3.180   2.859
 9087SOL    HW228161   5.758   3.055   2.953
 9088SOL     OW28162   6.298   0.284   1.935
 9088SOL    HW128163   6.387   0.302   1.976
 9088SOL    HW228164   6.285   0.186   1.924
 9089SOL     OW28165   4.196   5.219   3.806
 9089SOL    HW128166   4.108   5.237   3.762
 9089SOL    HW228167   4.212   5.286   3.879
 9090SOL     OW28168   4.986   6.533   4.347
 9090SOL    HW128169   4.975   6.466   4.420
 9090SOL    HW228170   4.964   6.492   4.259
 9091SOL     OW28171   3.197   2.554   0.104
 9091SOL    HW128172   3.185   2.522   0.198
 9091SOL    HW228173   3.220   2.477   0.045
 9092SOL     OW28174   1.345   0.280   5.825
 9092SOL    HW128175   1.312   0.302   5.916
 9092SOL    HW228176   1.398   0.195   5.828
 9093SOL     OW28177   1.761   6.309   6.637
 9093SOL    HW128178   1.805   6.294   6.549
 9093SOL    HW228179   1.755   6.222   6.686
 9094SOL     OW28180   0.177   6.231   1.906
 9094SOL    HW128181   0.241   6.242   1.982
 9094SOL    HW228182   0.095   6.184   1.938
 9095SOL     OW28183   5.499   3.421   6.534
 9095SOL    HW128184   5.453   3.487   6.592
 9095SOL    HW228185   5.534   3.345   6.590
 9096SOL     OW28186   5.024   3.493   2.858
 9096SOL    HW128187   5.100   3.555   2.838
 9096SOL    HW228188   5.058   3.399   2.861
 9097SOL     OW28189   0.928   3.550   0.340
 9097SOL    HW128190   0.962   3.574   0.249
 9097SOL    HW228191   0.990   3.585   0.409
 9098SOL     OW28192   4.183   3.603   1.327
 9098SOL    HW128193   4.168   3.583   1.230
 9098SOL    HW228194   4.281   3.619   1.343
 9099SOL     OW28195   3.190   3.459   0.997
 9099SOL    HW128196   3.264   3.410   0.951
 9099SOL    HW228197   3.103   3.416   0.976
 9100SOL     OW28198   0.830   2.750   2.123
 9100SOL    HW128199   0.764   2.750   2.049
 9100SOL    HW228200   0.801   2.686   2.194
 9101SOL     OW28201   2.230   3.078   2.638
 9101SOL    HW128202   2.279   3.127   2.711
 9101SOL    HW228203   2.218   2.983   2.664
 9102SOL     OW28204   3.640   6.124   2.180
 9102SOL    HW128205   3.559   6.183   2.186
 9102SOL    HW228206   3.688   6.142   2.095
 9103SOL     OW28207   0.138   3.387   0.385
 9103SOL    HW128208   0.059   3.426   0.433
 9103SOL    HW228209   0.175   3.455   0.321
 9104SOL     OW28210   4.429   6.399   1.917
 9104SOL    HW128211   4.368   6.424   1.842
 9104SOL    HW228212   4.445   6.301   1.916
 9105SOL     OW28213   1.977   0.582   0.299
 9105SOL    HW128214   2.031   0.644   0.242
 9105SOL    HW228215   1.904   0.542   0.243
 9106SOL     OW28216   6.453   3.767   0.281
 9106SOL    HW128217   6.464   3.770   0.380
 9106SOL    HW228218   6.536   3.731   0.239
 9107SOL     OW28219   4.533   6.817   6.537
 9107SOL    HW128220   4.552   6.909   6.504
 9107SOL    HW228221   4.434   6.802   6.540
 9108SOL     OW28222   4.921   4.435   5.217
 9108SOL    HW128223   5.003   4.476   5.257
 9108SOL    HW228224   4.944   4.345   5.181
 9109SOL     OW28225   1.790   2.377   2.718
 9109SOL    HW128226   1.882   2.415   2.720
 9109SOL    HW228227   1.729   2.436   2.771
 9110SOL     OW28228   2.385   4.395   4.236
 9110SOL    HW128229   2.433   4.354   4.314
 9110SOL    HW228230   2.321   4.328   4.198
 9111SOL     OW28231   4.310   3.417   0.699
 9111SOL    HW128232   4.300   3.487   0.628
 9111SOL    HW228233   4.407   3.394   0.709
 9112SOL     OW28234   0.495   4.295   4.245
 9112SOL    HW128235   0.497   4.295   4.145
 9112SOL    HW228236   0.584   4.323   4.280
 9113SOL     OW28237   4.506   0.508   0.385
 9113SOL    HW128238   4.442   0.482   0.457
 9113SOL    HW228239   4.506   0.438   0.313
 9114SOL     OW28240   1.493   5.036   2.531
 9114SOL    HW128241   1.535   4.999   2.448
 9114SOL    HW228242   1.461   5.129   2.514
 9115SOL     OW28243   0.254   5.629   5.399
 9115SOL    HW128244   0.285   5.545   5.355
 9115SOL    HW228245   0.239   5.699   5.330
 9116SOL     OW28246   6.421   1.799   0.424
 9116SOL    HW128247   6.415   1.755   0.335
 9116SOL    HW228248   6.330   1.807   0.464
 9117SOL     OW28249   6.143   2.779   6.916
 9117SOL    HW128250   6.171   2.818   7.003
 9117SOL    HW228251   6.200   2.699   6.895
 9118SOL     OW28252   5.933   5.945   0.325
 9118SOL    HW128253   5.841   5.985   0.327
 9118SOL    HW228254   5.981   5.978   0.244
 9119SOL     OW28255   5.692   1.542   2.694
 9119SOL    HW128256   5.618   1.507   2.638
 9119SOL    HW228257   5.749   1.466   2.725
 9120SOL     OW28258   5.519   3.004   5.770
 9120SOL    HW128259   5.462   2.929   5.802
 9120SOL    HW228260   5.478   3.044   5.688
 9121SOL     OW28261   0.732   2.620   6.376
 9121SOL    HW128262   0.665   2.692   6.391
 9121SOL    HW228263   0.816   2.659   6.338
 9122SOL     OW28264   2.100   2.489   1.604
 9122SOL    HW128265   2.176   2.489   1.539
 9122SOL    HW228266   2.066   2.582   1.616
 9123SOL     OW28267   3.508   0.324   4.419
 9123SOL    HW128268   3.480   0.270   4.340
 9123SOL    HW228269   3.551   0.265   4.487
 9124SOL     OW28270   5.854   6.524   5.507
 9124SOL    HW128271   5.898   6.603   5.549
 9124SOL    HW228272   5.788   6.555   5.439
 9125SOL     OW28273   4.783   4.110   3.843
 9125SOL    HW128274   4.778   4.031   3.904
 9125SOL    HW228275   4.768   4.194   3.895
 9126SOL     OW28276   5.750   1.628   2.291
 9126SOL    HW128277   5.760   1.564   2.367
 9126SOL    HW228278   5.665   1.609   2.242
 9127SOL     OW28279   6.423   0.591   6.429
 9127SOL    HW128280   6.385   0.533   6.501
 9127SOL    HW228281   6.493   0.540   6.379
 9128SOL     OW28282   3.355   2.161   5.232
 9128SOL    HW128283   3.293   2.236   5.210
 9128SOL    HW228284   3.379   2.112   5.148
 9129SOL     OW28285   2.051   2.927   1.215
 9129SOL    HW128286   2.020   2.985   1.139
 9129SOL    HW228287   2.151   2.935   1.223
 9130SOL     OW28288   6.869   3.385   0.468
 9130SOL    HW128289   6.798   3.455   0.476
 9130SOL    HW228290   6.878   3.359   0.372
 9131SOL     OW28291   0.078   4.104   5.781
 9131SOL    HW128292   0.109   4.048   5.857
 9131SOL    HW228293   7.010   4.088   5.765
 9132SOL     OW28294   0.271   4.665   4.484
 9132SOL    HW128295   0.250   4.762   4.471
 9132SOL    HW228296   0.345   4.656   4.550
 9133SOL     OW28297   3.328   5.409   1.122
 9133SOL    HW128298   3.325   5.322   1.171
 9133SOL    HW228299   3.235   5.438   1.100
 9134SOL     OW28300   3.600   6.543   0.563
 9134SOL    HW128301   3.634   6.500   0.480
 9134SOL    HW228302   3.526   6.607   0.540
 9135SOL     OW28303   6.454   6.318   2.263
 9135SOL    HW128304   6.420   6.238   2.213
 9135SOL    HW228305   6.431   6.309   2.360
 9136SOL     OW28306   4.668   5.466   5.298
 9136SOL    HW128307   4.710   5.496   5.212
 9136SOL    HW228308   4.692   5.530   5.371
 9137SOL     OW28309   4.856   1.917   1.054
 9137SOL    HW128310   4.821   1.938   1.145
 9137SOL    HW228311   4.956   1.913   1.057
 9138SOL     OW28312   6.062   4.684   5.623
 9138SOL    HW128313   6.107   4.755   5.570
 9138SOL    HW228314   5.970   4.669   5.586
 9139SOL     OW28315   2.355   1.594   4.618
 9139SOL    HW128316   2.269   1.642   4.598
 9139SOL    HW228317   2.431   1.643   4.575
 9140SOL     OW28318   6.099   3.163   3.035
 9140SOL    HW128319   6.112   3.140   3.131
 9140SOL    HW228320   6.052   3.087   2.989
 9141SOL     OW28321   5.506   0.660   6.562
 9141SOL    HW128322   5.482   0.563   6.565
 9141SOL    HW228323   5.583   0.678   6.623
 9142SOL     OW28324   0.444   2.393   0.432
 9142SOL    HW128325   0.440   2.491   0.410
 9142SOL    HW228326   0.472   2.381   0.527
 9143SOL     OW28327   5.267   3.756   0.884
 9143SOL    HW128328   5.314   3.843   0.902
 9143SOL    HW228329   5.290   3.691   0.956
 9144SOL     OW28330   2.251   5.529   5.667
 9144SOL    HW128331   2.301   5.468   5.728
 9144SOL    HW228332   2.162   5.551   5.707
 9145SOL     OW28333   6.760   5.555   0.438
 9145SOL    HW128334   6.718   5.506   0.515
 9145SOL    HW228335   6.751   5.653   0.451
 9146SOL     OW28336   4.985   2.356   2.381
 9146SOL    HW128337   4.974   2.279   2.317
 9146SOL    HW228338   5.044   2.425   2.339
 9147SOL     OW28339   5.826   0.160   4.247
 9147SOL    HW128340   5.809   0.192   4.154
 9147SOL    HW228341   5.741   0.164   4.299
 9148SOL     OW28342   5.332   6.720   0.923
 9148SOL    HW128343   5.387   6.769   0.855
 9148SOL    HW228344   5.261   6.668   0.876
 9149SOL     OW28345   5.278   3.249   3.694
 9149SOL    HW128346   5.246   3.300   3.614
 9149SOL    HW228347   5.318   3.312   3.760
 9150SOL     OW28348   3.416   5.194   3.798
 9150SOL    HW128349   3.324   5.229   3.778
 9150SOL    HW228350   3.408   5.114   3.857
 9151SOL     OW28351   1.759   4.699   3.383
 9151SOL    HW128352   1.848   4.655   3.373
 9151SOL    HW228353   1.699   4.670   3.308
 9152SOL     OW28354   2.414   5.092   4.663
 9152SOL    HW128355   2.339   5.148   4.699
 9152SOL    HW228356   2.396   4.996   4.680
 9153SOL     OW28357   1.357   2.915   0.864
 9153SOL    HW128358   1.419   2.897   0.788
 9153SOL    HW228359   1.301   2.995   0.844
 9154SOL     OW28360   4.449   5.231   6.805
 9154SOL    HW128361   4.404   5.319   6.790
 9154SOL    HW228362   4.385   5.168   6.849
 9155SOL     OW28363   1.061   2.956   0.749
 9155SOL    HW128364   1.090   3.030   0.688
 9155SOL    HW228365   1.038   2.875   0.694
 9156SOL     OW28366   2.178   2.499   0.005
 9156SOL    HW128367   2.276   2.481   0.005
 9156SOL    HW228368   2.160   2.588   6.993
 9157SOL     OW28369   6.114   4.532   6.219
 9157SOL    HW128370   6.098   4.438   6.187
 9157SOL    HW228371   6.028   4.569   6.254
 9158SOL     OW28372   5.626   3.301   4.715
 9158SOL    HW128373   5.711   3.312   4.766
 9158SOL    HW228374   5.572   3.384   4.720
 9159SOL     OW28375   1.390   0.143   3.082
 9159SOL    HW128376   1.432   0.062   3.041
 9159SOL    HW228377   1.293   0.126   3.098
 9160SOL     OW28378   6.117   0.177   4.844
 9160SOL    HW128379   6.174   0.097   4.827
 9160SOL    HW228380   6.086   0.177   4.939
 9161SOL     OW28381   4.744   4.126   4.628
 9161SOL    HW128382   4.671   4.058   4.613
 9161SOL    HW228383   4.718   4.213   4.587
 9162SOL     OW28384   4.369   1.301   4.063
 9162SOL    HW128385   4.434   1.333   4.133
 9162SOL    HW228386   4.408   1.223   4.015
 9163SOL     OW28387   2.099   3.449   4.648
 9163SOL    HW128388   2.194   3.478   4.636
 9163SOL    HW228389   2.081   3.431   4.744
 9164SOL     OW28390   2.394   0.265   6.891
 9164SOL    HW128391   2.475   0.257   6.833
 9164SOL    HW228392   2.404   0.206   6.971
 9165SOL     OW28393   6.081   1.629   5.447
 9165SOL    HW128394   6.036   1.594   5.529
 9165SOL    HW228395   6.180   1.621   5.458
 9166SOL     OW28396   4.542   6.218   0.865
 9166SOL    HW128397   4.470   6.202   0.932
 9166SOL    HW228398   4.595   6.299   0.890
 9167SOL     OW28399   1.548   2.420   6.536
 9167SOL    HW128400   1.512   2.429   6.443
 9167SOL    HW228401   1.559   2.511   6.576
 9168SOL     OW28402   0.549   0.780   6.698
 9168SOL    HW128403   0.548   0.880   6.694
 9168SOL    HW228404   0.566   0.750   6.792
 9169SOL     OW28405   6.048   1.347   5.567
 9169SOL    HW128406   6.121   1.332   5.500
 9169SOL    HW228407   5.987   1.268   5.569
 9170SOL     OW28408   1.348   4.848   0.527
 9170SOL    HW128409   1.312   4.904   0.452
 9170SOL    HW228410   1.436   4.809   0.500
 9171SOL     OW28411   3.506   4.816   0.575
 9171SOL    HW128412   3.589   4.774   0.613
 9171SOL    HW228413   3.501   4.912   0.603
 9172SOL     OW28414   3.298   0.550   4.633
 9172SOL    HW128415   3.205   0.573   4.604
 9172SOL    HW228416   3.358   0.629   4.616
 9173SOL     OW28417   6.453   3.855   5.070
 9173SOL    HW128418   6.393   3.843   4.991
 9173SOL    HW228419   6.410   3.917   5.136
 9174SOL     OW28420   6.073   4.668   1.455
 9174SOL    HW128421   6.053   4.725   1.375
 9174SOL    HW228422   6.155   4.614   1.439
 9175SOL     OW28423   0.559   6.898   3.953
 9175SOL    HW128424   0.463   6.923   3.952
 9175SOL    HW228425   0.615   6.978   3.973
 9176SOL     OW28426   3.159   1.132   4.952
 9176SOL    HW128427   3.207   1.128   4.864
 9176SOL    HW228428   3.108   1.219   4.958
 9177SOL     OW28429   1.065   4.902   4.896
 9177SOL    HW128430   1.073   4.809   4.931
 9177SOL    HW228431   1.076   4.967   4.971
 9178SOL     OW28432   2.228   5.439   0.251
 9178SOL    HW128433   2.290   5.463   0.326
 9178SOL    HW228434   2.270   5.462   0.164
 9179SOL     OW28435   2.810   5.376   4.237
 9179SOL    HW128436   2.824   5.406   4.142
 9179SOL    HW228437   2.839   5.281   4.246
 9180SOL     OW28438   5.853   2.655   2.875
 9180SOL    HW128439   5.925   2.632   2.809
 9180SOL    HW228440   5.865   2.598   2.957
 9181SOL     OW28441   3.934   2.135   4.205
 9181SOL    HW128442   3.903   2.134   4.300
 9181SOL    HW228443   4.006   2.204   4.194
 9182SOL     OW28444   2.051   6.226   1.774
 9182SOL    HW128445   2.120   6.295   1.753
 9182SOL    HW228446   2.013   6.242   1.865
 9183SOL     OW28447   5.245   6.313   0.264
 9183SOL    HW128448   5.224   6.310   0.166
 9183SOL    HW228449   5.301   6.233   0.288
 9184SOL     OW28450   5.256   2.006   0.964
 9184SOL    HW128451   5.244   2.061   1.047
 9184SOL    HW228452   5.272   2.067   0.886
 9185SOL     OW28453   3.896   6.597   4.559
 9185SOL    HW128454   3.911   6.642   4.471
 9185SOL    HW228455   3.857   6.662   4.624
 9186SOL     OW28456   5.572   0.153   4.353
 9186SOL    HW128457   5.556   0.219   4.427
 9186SOL    HW228458   5.494   0.153   4.291
 9187SOL     OW28459   2.661   1.526   1.375
 9187SOL    HW128460   2.610   1.569   1.301
 9187SOL    HW228461   2.744   1.484   1.339
 9188SOL     OW28462   1.775   6.640   1.712
 9188SOL    HW128463   1.720   6.716   1.677
 9188SOL    HW228464   1.764   6.560   1.654
 9189SOL     OW28465   4.657   6.385   1.428
 9189SOL    HW128466   4.751   6.413   1.408
 9189SOL    HW228467   4.612   6.355   1.344
 9190SOL     OW28468   1.921   4.257   7.004
 9190SOL    HW128469   1.970   4.176   0.009
 9190SOL    HW228470   1.823   4.237   7.000
 9191SOL     OW28471   6.379   1.566   5.427
 9191SOL    HW128472   6.352   1.474   5.396
 9191SOL    HW228473   6.432   1.611   5.355
 9192SOL     OW28474   0.538   3.712   6.380
 9192SOL    HW128475   0.576   3.740   6.468
 9192SOL    HW228476   0.559   3.616   6.364
 9193SOL     OW28477   4.750   4.174   0.159
 9193SOL    HW128478   4.815   4.124   0.216
 9193SOL    HW228479   4.751   4.137   0.066
 9194SOL     OW28480   3.355   0.272   3.522
 9194SOL    HW128481   3.444   0.229   3.506
 9194SOL    HW228482   3.368   0.369   3.544
 9195SOL     OW28483   1.732   1.732   4.148
 9195SOL    HW128484   1.754   1.668   4.074
 9195SOL    HW228485   1.774   1.820   4.128
 9196SOL     OW28486   4.425   6.723   3.599
 9196SOL    HW128487   4.368   6.684   3.526
 9196SOL    HW228488   4.367   6.750   3.676
 9197SOL     OW28489   1.872   4.871   2.088
 9197SOL    HW128490   1.915   4.925   2.160
 9197SOL    HW228491   1.942   4.836   2.026
 9198SOL     OW28492   6.606   5.181   6.628
 9198SOL    HW128493   6.641   5.092   6.600
 9198SOL    HW228494   6.645   5.253   6.570
 9199SOL     OW28495   1.311   3.899   6.057
 9199SOL    HW128496   1.334   3.829   5.988
 9199SOL    HW228497   1.388   3.962   6.067
 9200SOL     OW28498   2.267   0.094   0.686
 9200SOL    HW128499   2.363   0.105   0.660
 9200SOL    HW228500   2.209   0.117   0.608
 9201SOL     OW28501   0.740   2.617   0.442
 9201SOL    HW128502   0.758   2.526   0.480
 9201SOL    HW228503   0.826   2.660   0.416
 9202SOL     OW28504   1.612   6.864   2.706
 9202SOL    HW128505   1.572   6.890   2.618
 9202SOL    HW228506   1.709   6.886   2.707
 9203SOL     OW28507   0.710   4.402   6.844
 9203SOL    HW128508   0.766   4.430   6.766
 9203SOL    HW228509   0.615   4.431   6.830
 9204SOL     OW28510   4.774   3.259   6.361
 9204SOL    HW128511   4.677   3.245   6.382
 9204SOL    HW228512   4.825   3.175   6.381
 9205SOL     OW28513   6.775   4.744   2.849
 9205SOL    HW128514   6.731   4.833   2.863
 9205SOL    HW228515   6.708   4.671   2.859
 9206SOL     OW28516   4.598   5.682   1.969
 9206SOL    HW128517   4.671   5.739   1.932
 9206SOL    HW228518   4.627   5.642   2.055
 9207SOL     OW28519   5.481   4.572   6.195
 9207SOL    HW128520   5.552   4.518   6.241
 9207SOL    HW228521   5.404   4.587   6.257
 9208SOL     OW28522   6.229   4.218   3.823
 9208SOL    HW128523   6.218   4.229   3.724
 9208SOL    HW228524   6.221   4.307   3.867
 9209SOL     OW28525   3.333   0.369   6.824
 9209SOL    HW128526   3.295   0.443   6.879
 9209SOL    HW228527   3.347   0.401   6.730
 9210SOL     OW28528   0.112   0.959   2.993
 9210SOL    HW128529   0.046   0.897   2.951
 9210SOL    HW228530   0.077   1.053   2.990
 9211SOL     OW28531   0.255   2.548   5.461
 9211SOL    HW128532   0.162   2.583   5.476
 9211SOL    HW228533   0.255   2.485   5.383
 9212SOL     OW28534   4.672   5.288   4.308
 9212SOL    HW128535   4.630   5.212   4.258
 9212SOL    HW228536   4.692   5.259   4.401
 9213SOL     OW28537   5.369   3.612   5.920
 9213SOL    HW128538   5.433   3.551   5.873
 9213SOL    HW228539   5.403   3.706   5.913
 9214SOL     OW28540   0.294   4.109   6.545
 9214SOL    HW128541   0.254   4.158   6.623
 9214SOL    HW228542   0.223   4.055   6.500
 9215SOL     OW28543   0.587   1.935   1.358
 9215SOL    HW128544   0.577   1.874   1.279
 9215SOL    HW228545   0.565   2.029   1.331
 9216SOL     OW28546   2.792   0.292   2.212
 9216SOL    HW128547   2.752   0.335   2.131
 9216SOL    HW228548   2.880   0.335   2.232
 9217SOL     OW28549   0.739   1.819   0.177
 9217SOL    HW128550   0.786   1.810   0.265
 9217SOL    HW228551   0.673   1.893   0.182
 9218SOL     OW28552   2.365   6.805   0.235
 9218SOL    HW128553   2.387   6.769   0.326
 9218SOL    HW228554   2.380   6.734   0.167
 9219SOL     OW28555   6.757   2.448   1.453
 9219SOL    HW128556   6.788   2.411   1.366
 9219SOL    HW228557   6.657   2.446   1.457
 9220SOL     OW28558   1.924   6.200   0.787
 9220SOL    HW128559   1.878   6.112   0.796
 9220SOL    HW228560   1.877   6.269   0.842
 9221SOL     OW28561   3.105   0.562   3.526
 9221SOL    HW128562   3.059   0.649   3.511
 9221SOL    HW228563   3.144   0.560   3.618
 9222SOL     OW28564   2.039   0.523   6.210
 9222SOL    HW128565   2.124   0.471   6.219
 9222SOL    HW228566   1.999   0.537   6.300
 9223SOL     OW28567   1.055   0.686   4.066
 9223SOL    HW128568   1.060   0.736   4.152
 9223SOL    HW228569   1.148   0.664   4.035
 9224SOL     OW28570   1.743   4.892   4.893
 9224SOL    HW128571   1.697   4.947   4.824
 9224SOL    HW228572   1.836   4.926   4.907
 9225SOL     OW28573   3.264   6.520   5.930
 9225SOL    HW128574   3.271   6.423   5.951
 9225SOL    HW228575   3.213   6.532   5.844
 9226SOL     OW28576   6.018   0.148   1.274
 9226SOL    HW128577   5.924   0.116   1.268
 9226SOL    HW228578   6.021   0.246   1.252
 9227SOL     OW28579   1.277   4.911   1.178
 9227SOL    HW128580   1.303   4.943   1.087
 9227SOL    HW228581   1.199   4.848   1.171
 9228SOL     OW28582   1.609   1.065   6.049
 9228SOL    HW128583   1.523   1.047   6.097
 9228SOL    HW228584   1.647   0.979   6.015
 9229SOL     OW28585   0.753   5.328   4.627
 9229SOL    HW128586   0.774   5.339   4.724
 9229SOL    HW228587   0.804   5.395   4.573
 9230SOL     OW28588   5.144   1.438   3.075
 9230SOL    HW128589   5.231   1.432   3.027
 9230SOL    HW228590   5.147   1.381   3.157
 9231SOL     OW28591   1.082   4.449   4.683
 9231SOL    HW128592   1.009   4.515   4.701
 9231SOL    HW228593   1.073   4.372   4.746
 9232SOL     OW28594   3.832   5.388   0.086
 9232SOL    HW128595   3.928   5.374   0.063
 9232SOL    HW228596   3.803   5.480   0.059
 9233SOL     OW28597   5.465   5.145   1.985
 9233SOL    HW128598   5.391   5.140   2.051
 9233SOL    HW228599   5.473   5.238   1.949
 9234SOL     OW28600   3.744   5.454   5.522
 9234SOL    HW128601   3.843   5.452   5.538
 9234SOL    HW228602   3.716   5.370   5.475
 9235SOL     OW28603   1.396   2.879   3.334
 9235SOL    HW128604   1.456   2.942   3.383
 9235SOL    HW228605   1.302   2.891   3.366
 9236SOL     OW28606   2.968   4.268   5.506
 9236SOL    HW128607   3.015   4.209   5.572
 9236SOL    HW228608   3.034   4.301   5.439
 9237SOL     OW28609   2.226   5.278   4.723
 9237SOL    HW128610   2.237   5.320   4.634
 9237SOL    HW228611   2.161   5.331   4.778
 9238SOL     OW28612   3.911   1.418   6.613
 9238SOL    HW128613   3.890   1.379   6.702
 9238SOL    HW228614   3.974   1.358   6.564
 9239SOL     OW28615   6.926   4.234   0.497
 9239SOL    HW128616   7.016   4.237   0.541
 9239SOL    HW228617   6.926   4.295   0.417
 9240SOL     OW28618   4.750   1.838   0.821
 9240SOL    HW128619   4.790   1.879   0.903
 9240SOL    HW228620   4.819   1.783   0.774
 9241SOL     OW28621   0.500   5.167   5.675
 9241SOL    HW128622   0.545   5.156   5.763
 9241SOL    HW228623   0.488   5.078   5.632
 9242SOL     OW28624   7.003   5.645   0.629
 9242SOL    HW128625   0.067   5.676   0.650
 9242SOL    HW228626   7.005   5.589   0.546
 9243SOL     OW28627   6.046   7.028   2.468
 9243SOL    HW128628   6.011   0.011   2.561
 9243SOL    HW228629   6.128   6.969   2.471
 9244SOL     OW28630   4.839   4.722   6.451
 9244SOL    HW128631   4.935   4.742   6.468
 9244SOL    HW228632   4.824   4.712   6.352
 9245SOL     OW28633   2.006   5.242   3.547
 9245SOL    HW128634   1.969   5.293   3.625
 9245SOL    HW228635   1.939   5.174   3.516
 9246SOL     OW28636   0.461   4.268   2.783
 9246SOL    HW128637   0.500   4.194   2.838
 9246SOL    HW228638   0.366   4.245   2.758
 9247SOL     OW28639   1.105   0.092   3.136
 9247SOL    HW128640   1.105   0.042   3.049
 9247SOL    HW228641   1.077   0.031   3.210
 9248SOL     OW28642   1.574   2.515   5.613
 9248SOL    HW128643   1.493   2.519   5.672
 9248SOL    HW228644   1.605   2.607   5.593
 9249SOL     OW28645   5.225   3.245   6.759
 9249SOL    HW128646   5.166   3.302   6.702
 9249SOL    HW228647   5.169   3.186   6.817
 9250SOL     OW28648   5.243   3.139   4.523
 9250SOL    HW128649   5.190   3.065   4.565
 9250SOL    HW228650   5.215   3.227   4.562
 9251SOL     OW28651   4.092   2.178   3.342
 9251SOL    HW128652   4.050   2.090   3.365
 9251SOL    HW228653   4.129   2.221   3.424
 9252SOL     OW28654   5.650   0.601   4.033
 9252SOL    HW128655   5.700   0.563   3.955
 9252SOL    HW228656   5.713   0.652   4.091
 9253SOL     OW28657   5.588   6.281   5.847
 9253SOL    HW128658   5.626   6.214   5.783
 9253SOL    HW228659   5.588   6.243   5.939
 9254SOL     OW28660   6.441   4.279   2.825
 9254SOL    HW128661   6.461   4.347   2.896
 9254SOL    HW228662   6.342   4.278   2.808
 9255SOL     OW28663   5.204   4.146   0.154
 9255SOL    HW128664   5.235   4.241   0.156
 9255SOL    HW228665   5.283   4.085   0.157
 9256SOL     OW28666   3.737   5.961   2.400
 9256SOL    HW128667   3.712   6.020   2.323
 9256SOL    HW228668   3.814   5.903   2.373
 9257SOL     OW28669   0.543   3.828   3.077
 9257SOL    HW128670   0.551   3.733   3.048
 9257SOL    HW228671   0.469   3.872   3.025
 9258SOL     OW28672   2.977   3.266   3.291
 9258SOL    HW128673   2.952   3.267   3.194
 9258SOL    HW228674   2.966   3.358   3.329
 9259SOL     OW28675   1.021   1.924   0.810
 9259SOL    HW128676   0.973   1.836   0.814
 9259SOL    HW228677   1.062   1.935   0.719
 9260SOL     OW28678   4.981   1.561   5.446
 9260SOL    HW128679   5.063   1.569   5.389
 9260SOL    HW228680   4.960   1.649   5.487
 9261SOL     OW28681   4.750   0.389   6.659
 9261SOL    HW128682   4.819   0.360   6.724
 9261SOL    HW228683   4.742   0.489   6.661
 9262SOL     OW28684   6.371   3.023   5.350
 9262SOL    HW128685   6.282   2.983   5.329
 9262SOL    HW228686   6.386   3.021   5.448
 9263SOL     OW28687   5.824   4.993   1.742
 9263SOL    HW128688   5.914   4.967   1.707
 9263SOL    HW228689   5.758   4.920   1.724
 9264SOL     OW28690   5.462   4.057   0.227
 9264SOL    HW128691   5.480   4.022   0.135
 9264SOL    HW228692   5.512   4.143   0.241
 9265SOL     OW28693   3.080   1.585   6.585
 9265SOL    HW128694   3.133   1.530   6.520
 9265SOL    HW228695   2.983   1.570   6.569
 9266SOL     OW28696   1.645   6.372   2.038
 9266SOL    HW128697   1.717   6.347   2.103
 9266SOL    HW228698   1.564   6.314   2.055
 9267SOL     OW28699   0.148   4.157   6.204
 9267SOL    HW128700   0.217   4.154   6.132
 9267SOL    HW228701   0.122   4.064   6.229
 9268SOL     OW28702   1.938   5.129   1.255
 9268SOL    HW128703   2.025   5.090   1.225
 9268SOL    HW228704   1.893   5.174   1.177
 9269SOL     OW28705   3.068   2.362   6.201
 9269SOL    HW128706   3.107   2.272   6.183
 9269SOL    HW228707   3.096   2.394   6.291
 9270SOL     OW28708   5.126   0.085   5.823
 9270SOL    HW128709   5.090   0.148   5.754
 9270SOL    HW228710   5.092   0.112   5.913
 9271SOL     OW28711   2.047   5.465   6.690
 9271SOL    HW128712   2.009   5.480   6.599
 9271SOL    HW228713   2.147   5.459   6.684
 9272SOL     OW28714   2.291   5.798   5.910
 9272SOL    HW128715   2.228   5.725   5.937
 9272SOL    HW228716   2.289   5.809   5.811
 9273SOL     OW28717   5.412   5.781   3.893
 9273SOL    HW128718   5.450   5.872   3.911
 9273SOL    HW228719   5.456   5.714   3.953
 9274SOL     OW28720   6.750   2.581   0.305
 9274SOL    HW128721   6.747   2.517   0.382
 9274SOL    HW228722   6.734   2.674   0.337
 9275SOL     OW28723   6.855   1.965   0.082
 9275SOL    HW128724   6.822   1.874   0.107
 9275SOL    HW228725   6.955   1.963   0.078
 9276SOL     OW28726   2.628   4.579   3.564
 9276SOL    HW128727   2.657   4.625   3.648
 9276SOL    HW228728   2.673   4.490   3.557
 9277SOL     OW28729   5.086   3.829   0.450
 9277SOL    HW128730   5.072   3.808   0.547
 9277SOL    HW228731   5.181   3.857   0.435
 9278SOL     OW28732   0.968   0.712   4.931
 9278SOL    HW128733   1.008   0.760   4.853
 9278SOL    HW228734   0.905   0.773   4.979
 9279SOL     OW28735   4.543   1.014   1.688
 9279SOL    HW128736   4.479   1.048   1.619
 9279SOL    HW228737   4.622   1.075   1.693
 9280SOL     OW28738   1.526   0.875   3.317
 9280SOL    HW128739   1.531   0.905   3.412
 9280SOL    HW228740   1.466   0.937   3.265
 9281SOL     OW28741   3.190   4.230   1.267
 9281SOL    HW128742   3.180   4.215   1.365
 9281SOL    HW228743   3.264   4.172   1.232
 9282SOL     OW28744   4.821   1.498   4.768
 9282SOL    HW128745   4.802   1.421   4.706
 9282SOL    HW228746   4.884   1.468   4.840
 9283SOL     OW28747   5.416   0.488   3.926
 9283SOL    HW128748   5.407   0.392   3.952
 9283SOL    HW228749   5.497   0.527   3.970
 9284SOL     OW28750   3.338   4.955   5.697
 9284SOL    HW128751   3.238   4.946   5.697
 9284SOL    HW228752   3.375   4.917   5.781
 9285SOL     OW28753   5.571   3.119   0.990
 9285SOL    HW128754   5.563   3.079   0.899
 9285SOL    HW228755   5.532   3.056   1.058
 9286SOL     OW28756   5.435   0.035   6.160
 9286SOL    HW128757   5.416   6.984   6.103
 9286SOL    HW228758   5.532   0.036   6.185
 9287SOL     OW28759   3.303   5.225   0.466
 9287SOL    HW128760   3.400   5.223   0.489
 9287SOL    HW228761   3.273   5.319   0.453
 9288SOL     OW28762   3.934   0.931   5.246
 9288SOL    HW128763   3.918   0.929   5.148
 9288SOL    HW228764   3.938   1.026   5.278
 9289SOL     OW28765   3.308   2.045   2.601
 9289SOL    HW128766   3.353   1.957   2.589
 9289SOL    HW228767   3.336   2.107   2.527
 9290SOL     OW28768   4.713   1.833   3.669
 9290SOL    HW128769   4.755   1.916   3.632
 9290SOL    HW228770   4.751   1.752   3.625
 9291SOL     OW28771   2.207   0.121   4.773
 9291SOL    HW128772   2.284   0.064   4.745
 9291SOL    HW228773   2.132   0.063   4.806
 9292SOL     OW28774   0.320   2.618   6.546
 9292SOL    HW128775   0.419   2.613   6.536
 9292SOL    HW228776   0.276   2.573   6.468
 9293SOL     OW28777   5.885   4.048   0.288
 9293SOL    HW128778   5.859   4.072   0.195
 9293SOL    HW228779   5.826   3.975   0.322
 9294SOL     OW28780   3.640   6.792   5.066
 9294SOL    HW128781   3.563   6.753   5.016
 9294SOL    HW228782   3.609   6.871   5.119
 9295SOL     OW28783   5.010   2.523   4.206
 9295SOL    HW128784   5.024   2.565   4.116
 9295SOL    HW228785   5.048   2.430   4.205
 9296SOL     OW28786   0.279   6.602   6.162
 9296SOL    HW128787   0.300   6.521   6.107
 9296SOL    HW228788   0.326   6.681   6.123
 9297SOL     OW28789   6.359   1.151   0.668
 9297SOL    HW128790   6.311   1.065   0.648
 9297SOL    HW228791   6.457   1.139   0.653
 9298SOL     OW28792   1.099   0.786   4.661
 9298SOL    HW128793   1.181   0.730   4.649
 9298SOL    HW228794   1.020   0.735   4.627
 9299SOL     OW28795   0.974   2.727   5.012
 9299SOL    HW128796   0.957   2.708   4.915
 9299SOL    HW228797   0.927   2.659   5.068
 9300SOL     OW28798   0.104   4.540   4.827
 9300SOL    HW128799   0.053   4.517   4.744
 9300SOL    HW228800   0.045   4.593   4.889
 9301SOL     OW28801   5.034   4.498   3.562
 9301SOL    HW128802   4.937   4.521   3.550
 9301SOL    HW228803   5.074   4.477   3.473
 9302SOL     OW28804   1.980   3.337   4.397
 9302SOL    HW128805   2.003   3.396   4.474
 9302SOL    HW228806   1.918   3.264   4.427
 9303SOL     OW28807   4.242   5.980   0.519
 9303SOL    HW128808   4.157   5.947   0.477
 9303SOL    HW228809   4.242   6.080   0.519
 9304SOL     OW28810   4.674   4.429   1.138
 9304SOL    HW128811   4.638   4.490   1.209
 9304SOL    HW228812   4.738   4.364   1.179
 9305SOL     OW28813   3.575   1.436   2.185
 9305SOL    HW128814   3.504   1.450   2.253
 9305SOL    HW228815   3.545   1.369   2.117
 9306SOL     OW28816   0.396   4.209   4.946
 9306SOL    HW128817   0.388   4.279   5.017
 9306SOL    HW228818   0.348   4.126   4.975
 9307SOL     OW28819   1.236   3.339   1.291
 9307SOL    HW128820   1.227   3.403   1.367
 9307SOL    HW228821   1.198   3.250   1.317
 9308SOL     OW28822   1.198   4.280   1.161
 9308SOL    HW128823   1.138   4.326   1.096
 9308SOL    HW228824   1.143   4.226   1.224
 9309SOL     OW28825   3.565   4.956   5.535
 9309SOL    HW128826   3.562   4.860   5.560
 9309SOL    HW228827   3.473   4.989   5.515
 9310SOL     OW28828   4.560   4.932   5.900
 9310SOL    HW128829   4.555   4.961   5.996
 9310SOL    HW228830   4.469   4.935   5.859
 9311SOL     OW28831   5.160   5.267   1.869
 9311SOL    HW128832   5.236   5.282   1.806
 9311SOL    HW228833   5.100   5.195   1.833
 9312SOL     OW28834   0.987   3.685   1.746
 9312SOL    HW128835   0.925   3.642   1.682
 9312SOL    HW228836   0.986   3.635   1.833
 9313SOL     OW28837   6.582   0.432   1.074
 9313SOL    HW128838   6.634   0.394   0.997
 9313SOL    HW228839   6.592   0.531   1.075
 9314SOL     OW28840   4.659   5.753   6.264
 9314SOL    HW128841   4.699   5.676   6.314
 9314SOL    HW228842   4.570   5.727   6.228
 9315SOL     OW28843   6.360   0.890   5.249
 9315SOL    HW128844   6.440   0.943   5.220
 9315SOL    HW228845   6.281   0.951   5.257
 9316SOL     OW28846   4.369   5.670   5.299
 9316SOL    HW128847   4.275   5.703   5.289
 9316SOL    HW228848   4.414   5.670   5.210
 9317SOL     OW28849   6.760   5.200   3.254
 9317SOL    HW128850   6.736   5.124   3.314
 9317SOL    HW228851   6.677   5.243   3.218
 9318SOL     OW28852   6.223   0.445   5.552
 9318SOL    HW128853   6.284   0.479   5.481
 9318SOL    HW228854   6.206   0.518   5.619
 9319SOL     OW28855   1.143   2.592   6.812
 9319SOL    HW128856   1.235   2.622   6.838
 9319SOL    HW228857   1.114   2.517   6.872
 9320SOL     OW28858   4.087   1.160   6.296
 9320SOL    HW128859   4.003   1.213   6.278
 9320SOL    HW228860   4.153   1.176   6.223
 9321SOL     OW28861   6.361   0.263   3.417
 9321SOL    HW128862   6.297   0.196   3.380
 9321SOL    HW228863   6.451   0.251   3.375
 9322SOL     OW28864   0.749   5.048   6.187
 9322SOL    HW128865   0.697   5.117   6.238
 9322SOL    HW228866   0.785   4.980   6.251
 9323SOL     OW28867   1.683   0.119   5.456
 9323SOL    HW128868   1.607   0.151   5.400
 9323SOL    HW228869   1.667   0.142   5.552
 9324SOL     OW28870   2.005   5.054   0.465
 9324SOL    HW128871   2.075   4.985   0.449
 9324SOL    HW228872   2.034   5.114   0.540
 9325SOL     OW28873   4.926   1.184   6.743
 9325SOL    HW128874   4.917   1.090   6.776
 9325SOL    HW228875   4.990   1.187   6.666
 9326SOL     OW28876   1.875   6.463   0.924
 9326SOL    HW128877   1.784   6.500   0.913
 9326SOL    HW228878   1.935   6.531   0.965
 9327SOL     OW28879   5.028   6.970   2.810
 9327SOL    HW128880   4.972   6.955   2.728
 9327SOL    HW228881   4.968   6.979   2.890
 9328SOL     OW28882   3.522   1.020   5.750
 9328SOL    HW128883   3.605   0.991   5.796
 9328SOL    HW228884   3.498   0.954   5.679
 9329SOL     OW28885   6.513   4.305   2.369
 9329SOL    HW128886   6.553   4.378   2.425
 9329SOL    HW228887   6.579   4.274   2.302
 9330SOL     OW28888   0.167   6.607   6.796
 9330SOL    HW128889   0.239   6.537   6.795
 9330SOL    HW228890   0.163   6.651   6.707
 9331SOL     OW28891   1.230   1.405   6.190
 9331SOL    HW128892   1.150   1.442   6.237
 9331SOL    HW228893   1.215   1.406   6.091
 9332SOL     OW28894   3.903   3.913   2.202
 9332SOL    HW128895   3.823   3.875   2.248
 9332SOL    HW228896   3.937   3.991   2.254
 9333SOL     OW28897   4.312   3.961   1.115
 9333SOL    HW128898   4.309   3.865   1.088
 9333SOL    HW228899   4.371   3.971   1.195
 9334SOL     OW28900   4.803   5.934   3.849
 9334SOL    HW128901   4.760   6.013   3.806
 9334SOL    HW228902   4.735   5.861   3.861
 9335SOL     OW28903   0.716   1.702   6.153
 9335SOL    HW128904   0.665   1.716   6.068
 9335SOL    HW228905   0.751   1.790   6.186
 9336SOL     OW28906   2.921   5.335   5.706
 9336SOL    HW128907   2.992   5.318   5.774
 9336SOL    HW228908   2.912   5.255   5.647
 9337SOL     OW28909   5.189   1.717   3.676
 9337SOL    HW128910   5.129   1.787   3.637
 9337SOL    HW228911   5.281   1.727   3.638
 9338SOL     OW28912   3.928   0.041   1.747
 9338SOL    HW128913   3.884   0.126   1.718
 9338SOL    HW228914   4.027   0.055   1.750
 9339SOL     OW28915   5.740   6.824   1.040
 9339SOL    HW128916   5.674   6.817   0.965
 9339SOL    HW228917   5.692   6.844   1.125
 9340SOL     OW28918   5.778   3.729   4.662
 9340SOL    HW128919   5.832   3.812   4.679
 9340SOL    HW228920   5.818   3.678   4.586
 9341SOL     OW28921   0.189   6.055   0.028
 9341SOL    HW128922   0.206   5.957   0.037
 9341SOL    HW228923   0.266   6.098   7.010
 9342SOL     OW28924   2.016   0.202   3.626
 9342SOL    HW128925   2.031   0.259   3.707
 9342SOL    HW228926   1.924   0.161   3.631
 9343SOL     OW28927   6.193   4.403   3.062
 9343SOL    HW128928   6.206   4.334   3.133
 9343SOL    HW228929   6.126   4.471   3.093
 9344SOL     OW28930   4.741   6.456   1.858
 9344SOL    HW128931   4.709   6.455   1.953
 9344SOL    HW228932   4.830   6.410   1.852
 9345SOL     OW28933   6.534   4.550   2.497
 9345SOL    HW128934   6.437   4.539   2.518
 9345SOL    HW228935   6.569   4.630   2.545
 9346SOL     OW28936   5.878   0.717   1.132
 9346SOL    HW128937   5.880   0.750   1.226
 9346SOL    HW228938   5.861   0.794   1.070
 9347SOL     OW28939   0.940   4.582   0.827
 9347SOL    HW128940   0.959   4.624   0.916
 9347SOL    HW228941   1.026   4.547   0.788
 9348SOL     OW28942   3.854   5.975   1.731
 9348SOL    HW128943   3.794   5.940   1.658
 9348SOL    HW228944   3.800   6.029   1.795
 9349SOL     OW28945   1.075   6.525   2.526
 9349SOL    HW128946   1.164   6.572   2.529
 9349SOL    HW228947   1.047   6.515   2.430
 9350SOL     OW28948   0.528   3.437   5.303
 9350SOL    HW128949   0.599   3.500   5.333
 9350SOL    HW228950   0.448   3.489   5.274
 9351SOL     OW28951   3.001   0.478   6.198
 9351SOL    HW128952   3.036   0.385   6.211
 9351SOL    HW228953   3.077   0.541   6.183
 9352SOL     OW28954   3.158   2.453   6.816
 9352SOL    HW128955   3.235   2.422   6.871
 9352SOL    HW228956   3.102   2.374   6.790
 9353SOL     OW28957   0.628   5.363   0.734
 9353SOL    HW128958   0.579   5.278   0.714
 9353SOL    HW228959   0.632   5.376   0.833
 9354SOL     OW28960   6.418   1.857   6.431
 9354SOL    HW128961   6.487   1.788   6.409
 9354SOL    HW228962   6.446   1.945   6.392
 9355SOL     OW28963   0.453   2.460   5.108
 9355SOL    HW128964   0.425   2.506   5.023
 9355SOL    HW228965   0.539   2.412   5.092
 9356SOL     OW28966   4.119   0.382   1.310
 9356SOL    HW128967   4.088   0.345   1.223
 9356SOL    HW228968   4.219   0.386   1.311
 9357SOL     OW28969   0.884   3.564   6.609
 9357SOL    HW128970   0.961   3.628   6.602
 9357SOL    HW228971   0.913   3.482   6.658
 9358SOL     OW28972   6.851   4.157   2.557
 9358SOL    HW128973   6.797   4.086   2.512
 9358SOL    HW228974   6.797   4.200   2.629
 9359SOL     OW28975   1.559   4.804   6.794
 9359SOL    HW128976   1.578   4.805   6.696
 9359SOL    HW228977   1.467   4.767   6.809
 9360SOL     OW28978   1.586   5.533   6.283
 9360SOL    HW128979   1.629   5.489   6.362
 9360SOL    HW228980   1.487   5.529   6.292
 9361SOL     OW28981   1.574   5.470   3.183
 9361SOL    HW128982   1.637   5.396   3.163
 9361SOL    HW228983   1.591   5.504   3.276
 9362SOL     OW28984   1.438   1.281   3.010
 9362SOL    HW128985   1.508   1.284   2.939
 9362SOL    HW228986   1.412   1.375   3.034
 9363SOL     OW28987   3.818   5.270   1.791
 9363SOL    HW128988   3.865   5.320   1.718
 9363SOL    HW228989   3.788   5.334   1.861
 9364SOL     OW28990   2.183   1.677   0.921
 9364SOL    HW128991   2.161   1.626   0.838
 9364SOL    HW228992   2.177   1.616   1.000
 9365SOL     OW28993   3.234   2.082   3.674
 9365SOL    HW128994   3.304   2.086   3.602
 9365SOL    HW228995   3.177   2.163   3.668
 9366SOL     OW28996   3.378   5.798   0.016
 9366SOL    HW128997   3.403   5.729   0.084
 9366SOL    HW228998   3.419   5.886   0.041
 9367SOL     OW28999   6.300   0.440   1.501
 9367SOL    HW129000   6.279   0.342   1.505
 9367SOL    HW229001   6.293   0.479   1.593
 9368SOL     OW29002   3.817   6.820   2.049
 9368SOL    HW129003   3.901   6.788   2.006
 9368SOL    HW229004   3.741   6.811   1.985
 9369SOL     OW29005   7.027   5.736   5.424
 9369SOL    HW129006   6.953   5.691   5.375
 9369SOL    HW229007   0.076   5.673   5.431
 9370SOL     OW29008   5.026   0.769   3.607
 9370SOL    HW129009   5.107   0.715   3.583
 9370SOL    HW229010   5.018   0.847   3.545
 9371SOL     OW29011   2.660   5.755   1.336
 9371SOL    HW129012   2.757   5.781   1.340
 9371SOL    HW229013   2.653   5.660   1.304
 9372SOL     OW29014   4.930   6.869   2.029
 9372SOL    HW129015   4.940   6.956   2.079
 9372SOL    HW229016   4.949   6.793   2.091
 9373SOL     OW29017   5.713   2.233   0.419
 9373SOL    HW129018   5.776   2.306   0.445
 9373SOL    HW229019   5.619   2.262   0.434
 9374SOL     OW29020   6.863   3.413   5.764
 9374SOL    HW129021   6.784   3.468   5.737
 9374SOL    HW229022   6.875   3.419   5.864
 9375SOL     OW29023   6.836   1.817   1.116
 9375SOL    HW129024   6.883   1.732   1.142
 9375SOL    HW229025   6.825   1.874   1.197
 9376SOL     OW29026   2.066   3.477   1.768
 9376SOL    HW129027   2.070   3.570   1.732
 9376SOL    HW229028   2.128   3.469   1.846
 9377SOL     OW29029   2.531   5.402   3.144
 9377SOL    HW129030   2.478   5.483   3.118
 9377SOL    HW229031   2.628   5.423   3.143
 9378SOL     OW29032   3.255   1.408   3.896
 9378SOL    HW129033   3.253   1.430   3.993
 9378SOL    HW229034   3.162   1.406   3.860
 9379SOL     OW29035   5.098   0.301   4.774
 9379SOL    HW129036   5.081   0.308   4.676
 9379SOL    HW229037   5.089   0.391   4.817
 9380SOL     OW29038   3.361   5.614   5.521
 9380SOL    HW129039   3.378   5.649   5.428
 9380SOL    HW229040   3.367   5.514   5.520
 9381SOL     OW29041   5.065   2.494   4.920
 9381SOL    HW129042   5.087   2.513   5.016
 9381SOL    HW229043   5.051   2.395   4.908
 9382SOL     OW29044   4.270   0.976   4.036
 9382SOL    HW129045   4.370   0.984   4.024
 9382SOL    HW229046   4.248   0.883   4.065
 9383SOL     OW29047   4.652   4.375   4.471
 9383SOL    HW129048   4.565   4.423   4.466
 9383SOL    HW229049   4.723   4.439   4.500
 9384SOL     OW29050   2.769   6.469   2.089
 9384SOL    HW129051   2.711   6.413   2.148
 9384SOL    HW229052   2.719   6.491   2.005
 9385SOL     OW29053   3.965   1.786   4.184
 9385SOL    HW129054   4.003   1.838   4.107
 9385SOL    HW229055   4.039   1.739   4.231
 9386SOL     OW29056   3.156   5.823   5.265
 9386SOL    HW129057   3.145   5.906   5.319
 9386SOL    HW229058   3.140   5.743   5.323
 9387SOL     OW29059   3.669   2.182   0.064
 9387SOL    HW129060   3.767   2.162   0.066
 9387SOL    HW229061   3.634   2.172   7.000
 9388SOL     OW29062   1.750   6.737   3.471
 9388SOL    HW129063   1.756   6.694   3.380
 9388SOL    HW229064   1.696   6.821   3.465
 9389SOL     OW29065   3.076   5.940   2.016
 9389SOL    HW129066   3.083   5.864   2.080
 9389SOL    HW229067   3.124   5.917   1.932
 9390SOL     OW29068   5.916   4.780   6.078
 9390SOL    HW129069   5.833   4.792   6.133
 9390SOL    HW229070   5.910   4.695   6.026
 9391SOL     OW29071   0.720   0.137   4.751
 9391SOL    HW129072   0.725   0.161   4.654
 9391SOL    HW229073   0.730   0.038   4.761
 9392SOL     OW29074   4.964   4.344   4.076
 9392SOL    HW129075   5.026   4.282   4.029
 9392SOL    HW229076   4.879   4.297   4.099
 9393SOL     OW29077   2.661   6.481   6.075
 9393SOL    HW129078   2.626   6.400   6.121
 9393SOL    HW229079   2.730   6.526   6.132
 9394SOL     OW29080   5.542   0.981   1.492
 9394SOL    HW129081   5.569   0.958   1.398
 9394SOL    HW229082   5.611   0.946   1.555
 9395SOL     OW29083   2.591   1.523   0.659
 9395SOL    HW129084   2.568   1.514   0.756
 9395SOL    HW229085   2.548   1.604   0.622
 9396SOL     OW29086   1.920   5.429   5.291
 9396SOL    HW129087   1.932   5.472   5.201
 9396SOL    HW229088   1.945   5.332   5.285
 9397SOL     OW29089   3.271   6.793   5.626
 9397SOL    HW129090   3.221   6.717   5.667
 9397SOL    HW229091   3.358   6.761   5.589
 9398SOL     OW29092   6.275   1.195   5.900
 9398SOL    HW129093   6.369   1.228   5.910
 9398SOL    HW229094   6.277   1.103   5.861
 9399SOL     OW29095   0.837   2.451   4.576
 9399SOL    HW129096   0.894   2.377   4.539
 9399SOL    HW229097   0.782   2.490   4.502
 9400SOL     OW29098   4.931   0.582   0.142
 9400SOL    HW129099   4.849   0.599   0.197
 9400SOL    HW229100   4.915   0.503   0.082
 9401SOL     OW29101   0.207   2.720   1.577
 9401SOL    HW129102   0.123   2.672   1.600
 9401SOL    HW229103   0.248   2.758   1.660
 9402SOL     OW29104   2.043   5.365   3.945
 9402SOL    HW129105   2.130   5.319   3.933
 9402SOL    HW229106   1.983   5.309   4.004
 9403SOL     OW29107   0.256   1.103   2.690
 9403SOL    HW129108   0.355   1.105   2.679
 9403SOL    HW229109   0.222   1.010   2.678
 9404SOL     OW29110   0.527   2.579   1.301
 9404SOL    HW129111   0.558   2.674   1.301
 9404SOL    HW229112   0.512   2.549   1.395
 9405SOL     OW29113   1.023   4.657   5.037
 9405SOL    HW129114   0.950   4.608   4.989
 9405SOL    HW229115   0.983   4.716   5.107
 9406SOL     OW29116   0.934   3.311   6.740
 9406SOL    HW129117   0.967   3.217   6.748
 9406SOL    HW229118   0.978   3.367   6.810
 9407SOL     OW29119   2.734   5.115   4.907
 9407SOL    HW129120   2.751   5.045   4.977
 9407SOL    HW229121   2.640   5.106   4.875
 9408SOL     OW29122   6.824   3.117   5.690
 9408SOL    HW129123   6.905   3.113   5.630
 9408SOL    HW229124   6.819   3.207   5.733
 9409SOL     OW29125   6.289   5.762   2.386
 9409SOL    HW129126   6.369   5.713   2.421
 9409SOL    HW229127   6.244   5.811   2.461
 9410SOL     OW29128   5.069   1.568   1.717
 9410SOL    HW129129   5.103   1.645   1.664
 9410SOL    HW229130   4.969   1.566   1.713
 9411SOL     OW29131   2.847   3.487   2.882
 9411SOL    HW129132   2.754   3.463   2.910
 9411SOL    HW229133   2.882   3.415   2.822
 9412SOL     OW29134   0.879   0.794   0.955
 9412SOL    HW129135   0.865   0.893   0.957
 9412SOL    HW229136   0.811   0.749   1.013
 9413SOL     OW29137   4.759   4.739   4.763
 9413SOL    HW129138   4.708   4.825   4.771
 9413SOL    HW229139   4.714   4.668   4.817
 9414SOL     OW29140   2.378   2.327   4.914
 9414SOL    HW129141   2.455   2.391   4.913
 9414SOL    HW229142   2.292   2.378   4.911
 9415SOL     OW29143   3.063   0.267   1.855
 9415SOL    HW129144   3.047   0.181   1.807
 9415SOL    HW229145   3.154   0.301   1.835
 9416SOL     OW29146   0.293   0.021   5.367
 9416SOL    HW129147   0.244   0.048   5.284
 9416SOL    HW229148   0.363   6.983   5.344
 9417SOL     OW29149   3.220   6.504   1.729
 9417SOL    HW129150   3.309   6.533   1.764
 9417SOL    HW229151   3.233   6.432   1.661
 9418SOL     OW29152   3.025   1.131   3.373
 9418SOL    HW129153   3.096   1.202   3.377
 9418SOL    HW229154   3.068   1.041   3.378
 9419SOL     OW29155   2.304   2.705   6.296
 9419SOL    HW129156   2.232   2.641   6.271
 9419SOL    HW229157   2.262   2.788   6.335
 9420SOL     OW29158   5.840   4.369   0.607
 9420SOL    HW129159   5.925   4.325   0.636
 9420SOL    HW229160   5.833   4.366   0.507
 9421SOL     OW29161   3.716   5.493   4.848
 9421SOL    HW129162   3.662   5.426   4.799
 9421SOL    HW229163   3.656   5.553   4.900
 9422SOL     OW29164   2.429   6.426   4.183
 9422SOL    HW129165   2.527   6.408   4.172
 9422SOL    HW229166   2.389   6.355   4.242
 9423SOL     OW29167   3.548   5.422   3.136
 9423SOL    HW129168   3.559   5.454   3.230
 9423SOL    HW229169   3.497   5.336   3.136
 9424SOL     OW29170   4.900   1.717   4.637
 9424SOL    HW129171   4.946   1.675   4.559
 9424SOL    HW229172   4.855   1.646   4.691
 9425SOL     OW29173   6.033   4.873   1.635
 9425SOL    HW129174   6.129   4.869   1.661
 9425SOL    HW229175   6.017   4.813   1.557
 9426SOL     OW29176   1.041   2.064   6.438
 9426SOL    HW129177   1.031   1.966   6.452
 9426SOL    HW229178   0.993   2.091   6.355
 9427SOL     OW29179   2.742   5.780   2.838
 9427SOL    HW129180   2.709   5.862   2.884
 9427SOL    HW229181   2.684   5.702   2.861
 9428SOL     OW29182   6.303   6.049   0.431
 9428SOL    HW129183   6.365   6.098   0.492
 9428SOL    HW229184   6.335   5.955   0.420
 9429SOL     OW29185   1.481   2.367   4.376
 9429SOL    HW129186   1.518   2.411   4.293
 9429SOL    HW229187   1.556   2.344   4.437
 9430SOL     OW29188   0.312   2.223   4.645
 9430SOL    HW129189   0.298   2.131   4.681
 9430SOL    HW229190   0.240   2.283   4.680
 9431SOL     OW29191   6.687   4.396   1.008
 9431SOL    HW129192   6.683   4.305   0.967
 9431SOL    HW229193   6.755   4.396   1.082
 9432SOL     OW29194   6.816   1.647   4.001
 9432SOL    HW129195   6.760   1.565   3.992
 9432SOL    HW229196   6.892   1.629   4.064
 9433SOL     OW29197   4.116   5.708   2.524
 9433SOL    HW129198   4.075   5.687   2.612
 9433SOL    HW229199   4.094   5.636   2.458
 9434SOL     OW29200   5.608   5.499   3.743
 9434SOL    HW129201   5.637   5.553   3.822
 9434SOL    HW229202   5.645   5.539   3.659
 9435SOL     OW29203   0.214   2.784   2.345
 9435SOL    HW129204   0.119   2.811   2.363
 9435SOL    HW229205   0.231   2.694   2.384
 9436SOL     OW29206   1.101   1.142   1.974
 9436SOL    HW129207   1.196   1.112   1.970
 9436SOL    HW229208   1.097   1.241   1.965
 9437SOL     OW29209   0.521   5.322   3.105
 9437SOL    HW129210   0.595   5.280   3.158
 9437SOL    HW229211   0.560   5.391   3.044
 9438SOL     OW29212   2.381   7.028   1.736
 9438SOL    HW129213   2.398   6.961   1.808
 9438SOL    HW229214   2.297   7.004   1.688
 9439SOL     OW29215   0.402   3.158   0.864
 9439SOL    HW129216   0.326   3.186   0.806
 9439SOL    HW229217   0.413   3.223   0.939
 9440SOL     OW29218   3.052   4.911   3.265
 9440SOL    HW129219   2.988   4.840   3.295
 9440SOL    HW229220   3.001   4.992   3.237
 9441SOL     OW29221   6.700   5.737   5.079
 9441SOL    HW129222   6.626   5.760   5.143
 9441SOL    HW229223   6.773   5.804   5.086
 9442SOL     OW29224   4.798   3.735   1.105
 9442SOL    HW129225   4.722   3.720   1.041
 9442SOL    HW229226   4.867   3.664   1.092
 9443SOL     OW29227   3.000   5.588   1.327
 9443SOL    HW129228   3.050   5.661   1.374
 9443SOL    HW229229   2.922   5.560   1.383
 9444SOL     OW29230   1.929   3.772   0.698
 9444SOL    HW129231   1.950   3.778   0.796
 9444SOL    HW229232   2.011   3.741   0.649
 9445SOL     OW29233   0.665   1.900   4.202
 9445SOL    HW129234   0.631   1.914   4.109
 9445SOL    HW229235   0.636   1.809   4.234
 9446SOL     OW29236   6.344   4.956   4.054
 9446SOL    HW129237   6.330   4.886   3.984
 9446SOL    HW229238   6.441   4.977   4.061
 9447SOL     OW29239   5.045   5.519   3.224
 9447SOL    HW129240   5.121   5.495   3.164
 9447SOL    HW229241   5.075   5.586   3.292
 9448SOL     OW29242   5.990   6.741   5.619
 9448SOL    HW129243   6.057   6.747   5.546
 9448SOL    HW229244   5.942   6.829   5.627
 9449SOL     OW29245   5.284   6.555   6.813
 9449SOL    HW129246   5.189   6.530   6.833
 9449SOL    HW229247   5.317   6.619   6.884
 9450SOL     OW29248   1.606   5.848   4.188
 9450SOL    HW129249   1.647   5.900   4.263
 9450SOL    HW229250   1.624   5.894   4.101
 9451SOL     OW29251   3.625   5.607   6.648
 9451SOL    HW129252   3.593   5.601   6.743
 9451SOL    HW229253   3.614   5.518   6.603
 9452SOL     OW29254   0.571   4.386   1.168
 9452SOL    HW129255   0.609   4.478   1.173
 9452SOL    HW229256   0.595   4.345   1.080
 9453SOL     OW29257   3.246   4.904   3.081
 9453SOL    HW129258   3.336   4.894   3.123
 9453SOL    HW229259   3.176   4.898   3.153
 9454SOL     OW29260   4.585   4.323   0.909
 9454SOL    HW129261   4.512   4.254   0.904
 9454SOL    HW229262   4.587   4.362   1.001
 9455SOL     OW29263   2.607   2.428   2.707
 9455SOL    HW129264   2.693   2.384   2.734
 9455SOL    HW229265   2.533   2.360   2.709
 9456SOL     OW29266   6.350   3.729   2.436
 9456SOL    HW129267   6.288   3.789   2.385
 9456SOL    HW229268   6.314   3.716   2.528
 9457SOL     OW29269   1.110   5.155   4.464
 9457SOL    HW129270   1.114   5.055   4.466
 9457SOL    HW229271   1.192   5.192   4.507
 9458SOL     OW29272   6.908   4.393   0.287
 9458SOL    HW129273   6.842   4.345   0.230
 9458SOL    HW229274   6.920   4.487   0.254
 9459SOL     OW29275   5.331   4.210   4.457
 9459SOL    HW129276   5.409   4.160   4.420
 9459SOL    HW229277   5.259   4.215   4.388
 9460SOL     OW29278   1.687   3.305   4.710
 9460SOL    HW129279   1.728   3.247   4.640
 9460SOL    HW229280   1.588   3.306   4.698
 9461SOL     OW29281   1.105   1.815   1.456
 9461SOL    HW129282   1.049   1.896   1.472
 9461SOL    HW229283   1.179   1.812   1.524
 9462SOL     OW29284   1.308   2.414   3.866
 9462SOL    HW129285   1.396   2.453   3.893
 9462SOL    HW229286   1.253   2.485   3.822
 9463SOL     OW29287   5.574   6.381   1.381
 9463SOL    HW129288   5.565   6.467   1.430
 9463SOL    HW229289   5.667   6.373   1.344
 9464SOL     OW29290   6.484   0.635   1.365
 9464SOL    HW129291   6.456   0.544   1.394
 9464SOL    HW229292   6.439   0.703   1.423
 9465SOL     OW29293   0.280   4.108   1.718
 9465SOL    HW129294   0.181   4.113   1.731
 9465SOL    HW229295   0.301   4.050   1.639
 9466SOL     OW29296   4.337   5.748   6.438
 9466SOL    HW129297   4.370   5.828   6.388
 9466SOL    HW229298   4.407   5.677   6.437
 9467SOL     OW29299   2.020   2.778   0.803
 9467SOL    HW129300   1.926   2.798   0.831
 9467SOL    HW229301   2.053   2.697   0.851
 9468SOL     OW29302   6.734   3.530   6.457
 9468SOL    HW129303   6.763   3.460   6.522
 9468SOL    HW229304   6.675   3.596   6.503
 9469SOL     OW29305   6.992   6.191   0.378
 9469SOL    HW129306   0.029   6.266   0.378
 9469SOL    HW229307   6.996   6.144   0.290
 9470SOL     OW29308   4.724   4.052   6.952
 9470SOL    HW129309   4.819   4.022   6.961
 9470SOL    HW229310   4.709   4.084   6.858
 9471SOL     OW29311   6.197   2.431   5.076
 9471SOL    HW129312   6.267   2.417   5.006
 9471SOL    HW229313   6.135   2.505   5.047
 9472SOL     OW29314   1.101   4.638   6.322
 9472SOL    HW129315   1.079   4.629   6.225
 9472SOL    HW229316   1.059   4.563   6.373
 9473SOL     OW29317   3.357   3.929   7.027
 9473SOL    HW129318   3.436   3.918   6.967
 9473SOL    HW229319   3.387   3.936   0.093
 9474SOL     OW29320   5.976   3.651   1.883
 9474SOL    HW129321   6.041   3.717   1.920
 9474SOL    HW229322   5.894   3.648   1.941
 9475SOL     OW29323   4.440   3.531   6.482
 9475SOL    HW129324   4.487   3.442   6.485
 9475SOL    HW229325   4.341   3.517   6.488
 9476SOL     OW29326   3.891   4.309   5.702
 9476SOL    HW129327   3.902   4.368   5.622
 9476SOL    HW229328   3.815   4.343   5.758
 9477SOL     OW29329   1.693   3.551   1.216
 9477SOL    HW129330   1.695   3.634   1.272
 9477SOL    HW229331   1.719   3.472   1.272
 9478SOL     OW29332   4.227   2.617   1.103
 9478SOL    HW129333   4.204   2.664   1.189
 9478SOL    HW229334   4.234   2.684   1.029
 9479SOL     OW29335   4.128   1.088   1.683
 9479SOL    HW129336   4.168   1.099   1.592
 9479SOL    HW229337   4.200   1.063   1.748
 9480SOL     OW29338   5.422   5.880   0.036
 9480SOL    HW129339   5.392   5.967   7.026
 9480SOL    HW229340   5.371   5.804   7.025
 9481SOL     OW29341   4.730   1.708   3.127
 9481SOL    HW129342   4.706   1.805   3.130
 9481SOL    HW229343   4.664   1.656   3.181
 9482SOL     OW29344   5.705   0.409   1.086
 9482SOL    HW129345   5.688   0.508   1.091
 9482SOL    HW229346   5.691   0.378   0.992
 9483SOL     OW29347   1.026   0.730   0.075
 9483SOL    HW129348   1.025   0.778   7.017
 9483SOL    HW229349   1.016   0.632   0.060
 9484SOL     OW29350   2.891   0.005   4.289
 9484SOL    HW129351   2.892   7.009   4.385
 9484SOL    HW229352   2.931   6.961   4.234
 9485SOL     OW29353   6.010   1.409   1.074
 9485SOL    HW129354   5.927   1.461   1.054
 9485SOL    HW229355   6.034   1.421   1.171
 9486SOL     OW29356   4.946   5.655   1.007
 9486SOL    HW129357   4.951   5.588   1.081
 9486SOL    HW229358   5.035   5.662   0.963
 9487SOL     OW29359   3.239   3.564   4.431
 9487SOL    HW129360   3.158   3.601   4.477
 9487SOL    HW229361   3.244   3.601   4.338
 9488SOL     OW29362   1.643   1.328   1.476
 9488SOL    HW129363   1.732   1.373   1.490
 9488SOL    HW229364   1.623   1.270   1.555
 9489SOL     OW29365   5.399   4.459   1.087
 9489SOL    HW129366   5.339   4.479   1.010
 9489SOL    HW229367   5.494   4.467   1.057
 9490SOL     OW29368   6.430   5.685   3.750
 9490SOL    HW129369   6.468   5.755   3.811
 9490SOL    HW229370   6.371   5.624   3.802
 9491SOL     OW29371   5.544   6.040   3.849
 9491SOL    HW129372   5.603   6.111   3.887
 9491SOL    HW229373   5.568   6.024   3.753
 9492SOL     OW29374   4.757   2.961   5.091
 9492SOL    HW129375   4.771   2.960   4.992
 9492SOL    HW229376   4.775   3.053   5.126
 9493SOL     OW29377   3.241   6.018   4.216
 9493SOL    HW129378   3.278   6.105   4.251
 9493SOL    HW229379   3.259   6.011   4.118
 9494SOL     OW29380   5.537   3.105   2.437
 9494SOL    HW129381   5.626   3.070   2.408
 9494SOL    HW229382   5.465   3.041   2.409
 9495SOL     OW29383   6.723   1.263   2.222
 9495SOL    HW129384   6.819   1.287   2.227
 9495SOL    HW229385   6.680   1.278   2.311
 9496SOL     OW29386   4.631   2.192   2.370
 9496SOL    HW129387   4.613   2.290   2.383
 9496SOL    HW229388   4.546   2.147   2.342
 9497SOL     OW29389   5.170   5.858   5.110
 9497SOL    HW129390   5.203   5.865   5.016
 9497SOL    HW229391   5.114   5.776   5.120
 9498SOL     OW29392   7.012   4.783   4.451
 9498SOL    HW129393   6.983   4.774   4.356
 9498SOL    HW229394   0.007   4.693   4.487
 9499SOL     OW29395   6.771   5.346   5.096
 9499SOL    HW129396   6.804   5.404   5.021
 9499SOL    HW229397   6.710   5.398   5.155
 9500SOL     OW29398   4.114   6.508   1.068
 9500SOL    HW129399   4.066   6.432   1.111
 9500SOL    HW229400   4.048   6.577   1.040
 9501SOL     OW29401   1.320   1.609   4.176
 9501SOL    HW129402   1.227   1.598   4.212
 9501SOL    HW229403   1.348   1.705   4.185
 9502SOL     OW29404   5.405   4.732   4.824
 9502SOL    HW129405   5.442   4.744   4.916
 9502SOL    HW229406   5.399   4.821   4.779
 9503SOL     OW29407   0.752   2.318   0.544
 9503SOL    HW129408   0.770   2.222   0.526
 9503SOL    HW229409   0.654   2.332   0.556
 9504SOL     OW29410   6.900   3.646   1.966
 9504SOL    HW129411   6.933   3.675   2.055
 9504SOL    HW229412   6.813   3.691   1.946
 9505SOL     OW29413   4.752   5.087   5.804
 9505SOL    HW129414   4.711   5.171   5.768
 9505SOL    HW229415   4.680   5.024   5.833
 9506SOL     OW29416   2.231   2.353   0.450
 9506SOL    HW129417   2.183   2.281   0.400
 9506SOL    HW229418   2.247   2.324   0.544
 9507SOL     OW29419   6.413   0.528   0.774
 9507SOL    HW129420   6.375   0.451   0.826
 9507SOL    HW229421   6.369   0.613   0.803
 9508SOL     OW29422   5.113   1.849   2.144
 9508SOL    HW129423   5.171   1.827   2.066
 9508SOL    HW229424   5.158   1.918   2.201
 9509SOL     OW29425   6.497   0.623   2.923
 9509SOL    HW129426   6.459   0.549   2.867
 9509SOL    HW229427   6.424   0.666   2.976
 9510SOL     OW29428   0.876   3.583   3.535
 9510SOL    HW129429   0.909   3.536   3.453
 9510SOL    HW229430   0.905   3.532   3.617
 9511SOL     OW29431   0.948   1.117   1.351
 9511SOL    HW129432   0.910   1.109   1.443
 9511SOL    HW229433   1.006   1.199   1.346
 9512SOL     OW29434   7.014   3.038   0.875
 9512SOL    HW129435   0.048   2.983   0.930
 9512SOL    HW229436   6.925   2.992   0.872
 9513SOL     OW29437   3.478   4.802   5.925
 9513SOL    HW129438   3.537   4.837   5.998
 9513SOL    HW229439   3.403   4.751   5.966
 9514SOL     OW29440   2.991   3.361   6.515
 9514SOL    HW129441   3.072   3.323   6.559
 9514SOL    HW229442   3.011   3.454   6.482
 9515SOL     OW29443   2.835   4.737   3.295
 9515SOL    HW129444   2.790   4.682   3.225
 9515SOL    HW229445   2.766   4.780   3.354
 9516SOL     OW29446   5.971   4.797   0.612
 9516SOL    HW129447   6.000   4.721   0.671
 9516SOL    HW229448   5.894   4.845   0.655
 9517SOL     OW29449   1.104   4.438   1.551
 9517SOL    HW129450   1.027   4.391   1.508
 9517SOL    HW229451   1.099   4.425   1.650
 9518SOL     OW29452   2.703   1.219   0.385
 9518SOL    HW129453   2.746   1.129   0.393
 9518SOL    HW229454   2.648   1.238   0.466
 9519SOL     OW29455   1.214   2.372   5.501
 9519SOL    HW129456   1.272   2.441   5.545
 9519SOL    HW229457   1.168   2.317   5.571
 9520SOL     OW29458   2.744   0.299   2.510
 9520SOL    HW129459   2.650   0.266   2.498
 9520SOL    HW229460   2.780   0.329   2.421
 9521SOL     OW29461   5.975   5.895   3.947
 9521SOL    HW129462   6.000   5.916   4.041
 9521SOL    HW229463   6.022   5.959   3.885
 9522SOL     OW29464   3.356   5.898   0.715
 9522SOL    HW129465   3.345   5.822   0.779
 9522SOL    HW229466   3.391   5.978   0.764
 9523SOL     OW29467   3.315   5.276   4.594
 9523SOL    HW129468   3.217   5.292   4.608
 9523SOL    HW229469   3.351   5.342   4.528
 9524SOL     OW29470   3.665   2.663   1.290
 9524SOL    HW129471   3.567   2.670   1.304
 9524SOL    HW229472   3.687   2.572   1.253
 9525SOL     OW29473   2.044   1.218   6.276
 9525SOL    HW129474   2.122   1.157   6.260
 9525SOL    HW229475   2.077   1.305   6.312
 9526SOL     OW29476   5.538   6.128   3.233
 9526SOL    HW129477   5.479   6.207   3.249
 9526SOL    HW229478   5.632   6.150   3.260
 9527SOL     OW29479   1.014   0.723   1.968
 9527SOL    HW129480   0.969   0.704   2.055
 9527SOL    HW229481   0.969   0.671   1.895
 9528SOL     OW29482   6.616   0.214   0.464
 9528SOL    HW129483   6.596   0.168   0.550
 9528SOL    HW229484   6.538   0.206   0.402
 9529SOL     OW29485   1.141   3.263   6.538
 9529SOL    HW129486   1.115   3.194   6.606
 9529SOL    HW229487   1.202   3.330   6.581
 9530SOL     OW29488   1.597   2.811   2.972
 9530SOL    HW129489   1.673   2.839   3.030
 9530SOL    HW229490   1.511   2.836   3.016
 9531SOL     OW29491   4.153   5.999   2.630
 9531SOL    HW129492   4.155   6.071   2.560
 9531SOL    HW229493   4.126   5.912   2.588
 9532SOL     OW29494   1.896   5.951   1.294
 9532SOL    HW129495   1.940   5.884   1.234
 9532SOL    HW229496   1.959   6.027   1.310
 9533SOL     OW29497   0.216   1.240   5.110
 9533SOL    HW129498   0.288   1.224   5.042
 9533SOL    HW229499   0.198   1.338   5.117
 9534SOL     OW29500   5.724   2.127   5.072
 9534SOL    HW129501   5.686   2.085   4.989
 9534SOL    HW229502   5.721   2.227   5.063
 9535SOL     OW29503   2.838   0.645   5.714
 9535SOL    HW129504   2.924   0.595   5.719
 9535SOL    HW229505   2.852   0.739   5.743
 9536SOL     OW29506   2.209   5.854   5.626
 9536SOL    HW129507   2.213   5.942   5.579
 9536SOL    HW229508   2.130   5.802   5.592
 9537SOL     OW29509   3.432   0.243   2.461
 9537SOL    HW129510   3.469   0.186   2.535
 9537SOL    HW229511   3.478   0.331   2.460
 9538SOL     OW29512   6.569   1.698   4.519
 9538SOL    HW129513   6.629   1.777   4.501
 9538SOL    HW229514   6.555   1.648   4.433
 9539SOL     OW29515   2.130   5.207   6.462
 9539SOL    HW129516   2.159   5.289   6.413
 9539SOL    HW229517   2.097   5.139   6.397
 9540SOL     OW29518   4.633   4.879   5.572
 9540SOL    HW129519   4.722   4.884   5.617
 9540SOL    HW229520   4.571   4.823   5.627
 9541SOL     OW29521   1.396   2.382   5.084
 9541SOL    HW129522   1.400   2.420   5.177
 9541SOL    HW229523   1.372   2.455   5.020
 9542SOL     OW29524   4.859   3.279   4.843
 9542SOL    HW129525   4.774   3.331   4.851
 9542SOL    HW229526   4.936   3.343   4.830
 9543SOL     OW29527   4.575   0.819   4.174
 9543SOL    HW129528   4.521   0.900   4.196
 9543SOL    HW229529   4.644   0.804   4.244
 9544SOL     OW29530   5.987   0.199   2.273
 9544SOL    HW129531   6.028   0.129   2.330
 9544SOL    HW229532   5.937   0.156   2.198
 9545SOL     OW29533   6.673   6.567   3.302
 9545SOL    HW129534   6.651   6.521   3.216
 9545SOL    HW229535   6.589   6.603   3.343
 9546SOL     OW29536   3.021   4.184   6.761
 9546SOL    HW129537   2.956   4.249   6.800
 9546SOL    HW229538   3.058   4.221   6.676
 9547SOL     OW29539   1.470   6.361   4.016
 9547SOL    HW129540   1.511   6.392   3.930
 9547SOL    HW229541   1.502   6.419   4.091
 9548SOL     OW29542   5.872   5.768   4.886
 9548SOL    HW129543   5.921   5.803   4.806
 9548SOL    HW229544   5.804   5.701   4.856
 9549SOL     OW29545   3.591   5.225   0.477
 9549SOL    HW129546   3.665   5.217   0.411
 9549SOL    HW229547   3.629   5.229   0.569
 9550SOL     OW29548   0.548   1.593   0.186
 9550SOL    HW129549   0.477   1.617   0.120
 9550SOL    HW229550   0.634   1.639   0.162
 9551SOL     OW29551   0.201   0.109   4.793
 9551SOL    HW129552   0.240   0.128   4.703
 9551SOL    HW229553   0.219   0.187   4.853
 9552SOL     OW29554   1.222   6.982   3.364
 9552SOL    HW129555   1.293   0.011   3.324
 9552SOL    HW229556   1.171   0.006   3.432
 9553SOL     OW29557   6.015   4.575   6.743
 9553SOL    HW129558   6.053   4.562   6.835
 9553SOL    HW229559   5.952   4.500   6.722
 9554SOL     OW29560   2.585   1.203   2.265
 9554SOL    HW129561   2.602   1.126   2.204
 9554SOL    HW229562   2.669   1.254   2.278
 9555SOL     OW29563   6.403   2.285   1.108
 9555SOL    HW129564   6.401   2.383   1.089
 9555SOL    HW229565   6.482   2.244   1.063
 9556SOL     OW29566   2.289   0.839   1.055
 9556SOL    HW129567   2.339   0.922   1.033
 9556SOL    HW229568   2.243   0.850   1.143
 9557SOL     OW29569   6.244   0.469   2.360
 9557SOL    HW129570   6.196   0.442   2.276
 9557SOL    HW229571   6.330   0.514   2.336
 9558SOL     OW29572   0.230   4.780   2.800
 9558SOL    HW129573   0.311   4.795   2.857
 9558SOL    HW229574   0.211   4.862   2.747
 9559SOL     OW29575   0.376   3.106   2.119
 9559SOL    HW129576   0.449   3.173   2.107
 9559SOL    HW229577   0.414   3.014   2.119
 9560SOL     OW29578   2.322   1.507   3.436
 9560SOL    HW129579   2.413   1.502   3.476
 9560SOL    HW229580   2.291   1.415   3.411
 9561SOL     OW29581   3.358   6.709   0.604
 9561SOL    HW129582   3.300   6.720   0.523
 9561SOL    HW229583   3.410   6.794   0.619
 9562SOL     OW29584   4.719   5.952   2.859
 9562SOL    HW129585   4.814   5.932   2.884
 9562SOL    HW229586   4.683   5.877   2.802
 9563SOL     OW29587   0.095   6.318   6.311
 9563SOL    HW129588   0.064   6.406   6.345
 9563SOL    HW229589   0.081   6.313   6.212
 9564SOL     OW29590   2.955   6.844   6.605
 9564SOL    HW129591   2.868   6.854   6.556
 9564SOL    HW229592   3.019   6.793   6.548
 9565SOL     OW29593   3.726   5.966   4.315
 9565SOL    HW129594   3.703   5.881   4.362
 9565SOL    HW229595   3.690   5.964   4.222
 9566SOL     OW29596   2.808   4.373   5.705
 9566SOL    HW129597   2.855   4.342   5.623
 9566SOL    HW229598   2.791   4.295   5.766
 9567SOL     OW29599   6.286   5.953   6.396
 9567SOL    HW129600   6.338   5.995   6.471
 9567SOL    HW229601   6.336   5.965   6.310
 9568SOL     OW29602   5.555   4.133   6.464
 9568SOL    HW129603   5.534   4.041   6.432
 9568SOL    HW229604   5.624   4.129   6.537
 9569SOL     OW29605   6.148   1.346   0.037
 9569SOL    HW129606   6.232   1.396   0.016
 9569SOL    HW229607   6.165   1.248   0.031
 9570SOL     OW29608   0.064   1.478   0.905
 9570SOL    HW129609   0.126   1.404   0.930
 9570SOL    HW229610   6.999   1.449   0.920
 9571SOL     OW29611   1.788   3.785   0.239
 9571SOL    HW129612   1.842   3.865   0.267
 9571SOL    HW229613   1.758   3.797   0.145
 9572SOL     OW29614   1.346   4.376   1.386
 9572SOL    HW129615   1.260   4.404   1.428
 9572SOL    HW229616   1.329   4.344   1.293
 9573SOL     OW29617   1.473   1.454   0.275
 9573SOL    HW129618   1.548   1.444   0.209
 9573SOL    HW229619   1.388   1.422   0.234
 9574SOL     OW29620   3.656   3.534   5.463
 9574SOL    HW129621   3.635   3.437   5.479
 9574SOL    HW229622   3.730   3.541   5.395
 9575SOL     OW29623   5.269   0.790   2.104
 9575SOL    HW129624   5.312   0.869   2.149
 9575SOL    HW229625   5.170   0.801   2.104
 9576SOL     OW29626   2.890   1.613   4.458
 9576SOL    HW129627   2.970   1.555   4.445
 9576SOL    HW229628   2.917   1.709   4.452
 9577SOL     OW29629   0.256   6.290   2.687
 9577SOL    HW129630   0.172   6.299   2.635
 9577SOL    HW229631   0.295   6.381   2.703
 9578SOL     OW29632   6.345   2.777   2.199
 9578SOL    HW129633   6.331   2.710   2.271
 9578SOL    HW229634   6.443   2.788   2.181
 9579SOL     OW29635   1.628   6.872   1.649
 9579SOL    HW129636   1.646   6.970   1.638
 9579SOL    HW229637   1.572   6.840   1.572
 9580SOL     OW29638   4.243   3.754   0.081
 9580SOL    HW129639   4.321   3.741   0.143
 9580SOL    HW229640   4.214   3.850   0.084
 9581SOL     OW29641   1.141   5.260   6.226
 9581SOL    HW129642   1.098   5.345   6.195
 9581SOL    HW229643   1.098   5.182   6.182
 9582SOL     OW29644   4.250   4.699   4.287
 9582SOL    HW129645   4.192   4.686   4.206
 9582SOL    HW229646   4.197   4.743   4.359
 9583SOL     OW29647   2.143   3.624   2.269
 9583SOL    HW129648   2.138   3.545   2.330
 9583SOL    HW229649   2.171   3.595   2.178
 9584SOL     OW29650   6.150   4.980   6.774
 9584SOL    HW129651   6.221   4.941   6.833
 9584SOL    HW229652   6.128   5.073   6.805
 9585SOL     OW29653   6.198   0.110   3.250
 9585SOL    HW129654   6.119   0.142   3.198
 9585SOL    HW229655   6.262   0.064   3.188
 9586SOL     OW29656   4.877   3.422   3.085
 9586SOL    HW129657   4.900   3.330   3.115
 9586SOL    HW229658   4.910   3.436   2.991
 9587SOL     OW29659   5.858   0.101   2.028
 9587SOL    HW129660   5.770   0.072   1.991
 9587SOL    HW229661   5.922   0.116   1.953
 9588SOL     OW29662   0.245   0.639   1.640
 9588SOL    HW129663   0.296   0.554   1.646
 9588SOL    HW229664   0.223   0.672   1.732
 9589SOL     OW29665   2.601   0.205   6.058
 9589SOL    HW129666   2.697   0.215   6.029
 9589SOL    HW229667   2.585   0.110   6.086
 9590SOL     OW29668   0.032   4.408   3.043
 9590SOL    HW129669   0.037   4.508   3.046
 9590SOL    HW229670   0.077   4.371   3.125
 9591SOL     OW29671   2.492   5.550   0.780
 9591SOL    HW129672   2.548   5.629   0.755
 9591SOL    HW229673   2.435   5.573   0.859
 9592SOL     OW29674   4.531   5.638   2.426
 9592SOL    HW129675   4.459   5.570   2.438
 9592SOL    HW229676   4.510   5.720   2.480
 9593SOL     OW29677   6.364   2.779   4.739
 9593SOL    HW129678   6.306   2.733   4.671
 9593SOL    HW229679   6.412   2.711   4.793
 9594SOL     OW29680   6.453   6.597   2.370
 9594SOL    HW129681   6.356   6.598   2.347
 9594SOL    HW229682   6.507   6.592   2.285
 9595SOL     OW29683   1.988   5.988   4.524
 9595SOL    HW129684   2.068   5.980   4.465
 9595SOL    HW229685   1.975   5.903   4.575
 9596SOL     OW29686   5.977   5.591   5.486
 9596SOL    HW129687   6.025   5.619   5.569
 9596SOL    HW229688   6.037   5.532   5.432
 9597SOL     OW29689   1.195   3.959   1.714
 9597SOL    HW129690   1.230   4.022   1.645
 9597SOL    HW229691   1.240   3.870   1.703
 9598SOL     OW29692   0.108   4.571   6.037
 9598SOL    HW129693   0.079   4.660   6.071
 9598SOL    HW229694   0.201   4.578   5.999
 9599SOL     OW29695   4.338   0.985   5.784
 9599SOL    HW129696   4.313   1.073   5.826
 9599SOL    HW229697   4.361   0.999   5.688
 9600SOL     OW29698   1.610   6.704   6.150
 9600SOL    HW129699   1.576   6.612   6.171
 9600SOL    HW229700   1.553   6.772   6.196
 9601SOL     OW29701   0.580   4.742   5.308
 9601SOL    HW129702   0.657   4.702   5.358
 9601SOL    HW229703   0.501   4.681   5.314
 9602SOL     OW29704   0.771   5.513   6.928
 9602SOL    HW129705   0.716   5.432   6.948
 9602SOL    HW229706   0.867   5.494   6.951
 9603SOL     OW29707   1.669   6.221   4.818
 9603SOL    HW129708   1.749   6.281   4.811
 9603SOL    HW229709   1.639   6.195   4.726
 9604SOL     OW29710   5.436   1.460   6.689
 9604SOL    HW129711   5.342   1.445   6.720
 9604SOL    HW229712   5.455   1.558   6.689
 9605SOL     OW29713   2.154   5.824   6.260
 9605SOL    HW129714   2.153   5.923   6.279
 9605SOL    HW229715   2.077   5.781   6.306
 9606SOL     OW29716   0.435   6.048   3.791
 9606SOL    HW129717   0.430   6.128   3.850
 9606SOL    HW229718   0.373   6.060   3.713
 9607SOL     OW29719   1.192   1.560   2.503
 9607SOL    HW129720   1.229   1.648   2.532
 9607SOL    HW229721   1.240   1.486   2.550
 9608SOL     OW29722   0.386   0.040   2.876
 9608SOL    HW129723   0.416   7.026   2.790
 9608SOL    HW229724   0.287   0.035   2.883
 9609SOL     OW29725   2.062   4.457   4.539
 9609SOL    HW129726   2.083   4.552   4.519
 9609SOL    HW229727   2.042   4.446   4.636
 9610SOL     OW29728   2.024   1.461   6.411
 9610SOL    HW129729   1.942   1.476   6.468
 9610SOL    HW229730   2.032   1.536   6.345
 9611SOL     OW29731   6.398   0.108   0.934
 9611SOL    HW129732   6.414   0.179   1.002
 9611SOL    HW229733   6.338   0.037   0.974
 9612SOL     OW29734   5.753   3.325   1.865
 9612SOL    HW129735   5.700   3.282   1.939
 9612SOL    HW229736   5.783   3.416   1.893
 9613SOL     OW29737   6.310   6.357   4.806
 9613SOL    HW129738   6.341   6.322   4.895
 9613SOL    HW229739   6.213   6.336   4.794
 9614SOL     OW29740   3.234   3.738   2.297
 9614SOL    HW129741   3.155   3.776   2.345
 9614SOL    HW229742   3.258   3.649   2.337
 9615SOL     OW29743   1.385   6.232   2.415
 9615SOL    HW129744   1.416   6.207   2.506
 9615SOL    HW229745   1.436   6.311   2.382
 9616SOL     OW29746   3.517   2.282   0.705
 9616SOL    HW129747   3.579   2.213   0.669
 9616SOL    HW229748   3.431   2.238   0.733
 9617SOL     OW29749   1.250   3.040   3.622
 9617SOL    HW129750   1.322   3.058   3.555
 9617SOL    HW229751   1.282   2.974   3.690
 9618SOL     OW29752   3.473   5.926   6.406
 9618SOL    HW129753   3.458   5.849   6.345
 9618SOL    HW229754   3.481   6.010   6.352
 9619SOL     OW29755   2.756   6.041   0.560
 9619SOL    HW129756   2.673   6.088   0.590
 9619SOL    HW229757   2.743   5.942   0.571
 9620SOL     OW29758   3.314   1.352   6.680
 9620SOL    HW129759   3.220   1.378   6.704
 9620SOL    HW229760   3.314   1.299   6.596
 9621SOL     OW29761   0.574   0.737   2.160
 9621SOL    HW129762   0.549   0.833   2.147
 9621SOL    HW229763   0.673   0.729   2.165
 9622SOL     OW29764   5.793   0.291   6.291
 9622SOL    HW129765   5.821   0.206   6.246
 9622SOL    HW229766   5.694   0.300   6.286
 9623SOL     OW29767   4.559   6.144   6.153
 9623SOL    HW129768   4.540   6.236   6.120
 9623SOL    HW229769   4.626   6.147   6.226
 9624SOL     OW29770   4.501   5.713   5.033
 9624SOL    HW129771   4.495   5.805   5.072
 9624SOL    HW229772   4.414   5.690   4.988
 9625SOL     OW29773   5.273   4.083   6.393
 9625SOL    HW129774   5.276   4.050   6.299
 9625SOL    HW229775   5.365   4.108   6.423
 9626SOL     OW29776   1.651   4.191   6.299
 9626SOL    HW129777   1.699   4.206   6.386
 9626SOL    HW229778   1.684   4.258   6.232
 9627SOL     OW29779   0.886   5.257   6.584
 9627SOL    HW129780   0.867   5.199   6.663
 9627SOL    HW229781   0.973   5.230   6.543
 9628SOL     OW29782   5.956   3.942   6.894
 9628SOL    HW129783   5.884   3.909   6.834
 9628SOL    HW229784   5.964   3.881   6.974
 9629SOL     OW29785   0.025   5.649   3.049
 9629SOL    HW129786   0.091   5.671   2.977
 9629SOL    HW229787   6.968   5.694   3.030
 9630SOL     OW29788   6.478   6.218   5.610
 9630SOL    HW129789   6.565   6.192   5.567
 9630SOL    HW229790   6.484   6.313   5.641
 9631SOL     OW29791   4.329   1.234   0.740
 9631SOL    HW129792   4.283   1.323   0.750
 9631SOL    HW229793   4.321   1.202   0.646
 9632SOL     OW29794   3.315   6.347   1.252
 9632SOL    HW129795   3.374   6.421   1.219
 9632SOL    HW229796   3.261   6.311   1.176
 9633SOL     OW29797   4.053   3.264   2.350
 9633SOL    HW129798   3.972   3.321   2.339
 9633SOL    HW229799   4.031   3.169   2.328
 9634SOL     OW29800   5.263   4.971   2.727
 9634SOL    HW129801   5.235   5.039   2.660
 9634SOL    HW229802   5.200   4.973   2.805
 9635SOL     OW29803   1.370   4.234   3.749
 9635SOL    HW129804   1.322   4.273   3.828
 9635SOL    HW229805   1.424   4.156   3.779
 9636SOL     OW29806   4.522   2.014   5.029
 9636SOL    HW129807   4.499   1.928   4.983
 9636SOL    HW229808   4.613   2.044   4.999
 9637SOL     OW29809   2.559   2.939   0.637
 9637SOL    HW129810   2.618   2.960   0.559
 9637SOL    HW229811   2.500   2.862   0.614
 9638SOL     OW29812   0.331   4.437   5.687
 9638SOL    HW129813   0.336   4.447   5.787
 9638SOL    HW229814   0.243   4.397   5.662
 9639SOL     OW29815   4.430   1.847   1.784
 9639SOL    HW129816   4.529   1.855   1.793
 9639SOL    HW229817   4.406   1.836   1.688
 9640SOL     OW29818   3.788   0.919   2.310
 9640SOL    HW129819   3.876   0.938   2.354
 9640SOL    HW229820   3.771   0.985   2.237
 9641SOL     OW29821   6.121   4.742   2.626
 9641SOL    HW129822   6.079   4.831   2.611
 9641SOL    HW229823   6.080   4.675   2.565
 9642SOL     OW29824   1.582   0.321   3.918
 9642SOL    HW129825   1.672   0.354   3.888
 9642SOL    HW229826   1.564   0.356   4.011
 9643SOL     OW29827   5.065   3.732   4.174
 9643SOL    HW129828   5.119   3.811   4.202
 9643SOL    HW229829   5.099   3.697   4.086
 9644SOL     OW29830   1.314   5.746   5.074
 9644SOL    HW129831   1.221   5.763   5.108
 9644SOL    HW229832   1.334   5.808   4.999
 9645SOL     OW29833   1.663   5.578   6.022
 9645SOL    HW129834   1.749   5.526   6.020
 9645SOL    HW229835   1.610   5.551   6.102
 9646SOL     OW29836   2.942   6.620   5.503
 9646SOL    HW129837   2.853   6.588   5.533
 9646SOL    HW229838   2.945   6.720   5.509
 9647SOL     OW29839   6.463   5.992   3.419
 9647SOL    HW129840   6.384   5.965   3.364
 9647SOL    HW229841   6.450   6.085   3.452
 9648SOL     OW29842   4.793   2.027   1.302
 9648SOL    HW129843   4.770   2.118   1.269
 9648SOL    HW229844   4.730   2.002   1.375
 9649SOL     OW29845   2.487   3.341   0.579
 9649SOL    HW129846   2.466   3.429   0.619
 9649SOL    HW229847   2.497   3.351   0.480
 9650SOL     OW29848   6.820   4.898   4.111
 9650SOL    HW129849   6.911   4.922   4.079
 9650SOL    HW229850   6.786   4.820   4.058
 9651SOL     OW29851   2.612   1.451   0.265
 9651SOL    HW129852   2.632   1.356   0.291
 9651SOL    HW229853   2.693   1.507   0.280
 9652SOL     OW29854   7.006   3.672   1.200
 9652SOL    HW129855   0.062   3.684   1.251
 9652SOL    HW229856   6.937   3.736   1.233
 9653SOL     OW29857   4.729   3.728   6.133
 9653SOL    HW129858   4.631   3.709   6.126
 9653SOL    HW229859   4.742   3.823   6.161
 9654SOL     OW29860   3.668   3.261   3.560
 9654SOL    HW129861   3.570   3.243   3.572
 9654SOL    HW229862   3.717   3.174   3.552
 9655SOL     OW29863   5.532   0.813   1.973
 9655SOL    HW129864   5.623   0.808   2.015
 9655SOL    HW229865   5.462   0.797   2.043
 9656SOL     OW29866   6.012   3.770   0.633
 9656SOL    HW129867   6.082   3.804   0.569
 9656SOL    HW229868   6.055   3.749   0.720
 9657SOL     OW29869   6.068   3.630   3.586
 9657SOL    HW129870   5.999   3.679   3.638
 9657SOL    HW229871   6.046   3.633   3.488
 9658SOL     OW29872   4.573   1.414   2.861
 9658SOL    HW129873   4.497   1.414   2.927
 9658SOL    HW229874   4.616   1.504   2.860
 9659SOL     OW29875   3.322   2.727   0.784
 9659SOL    HW129876   3.356   2.658   0.721
 9659SOL    HW229877   3.260   2.789   0.735
 9660SOL     OW29878   1.028   5.914   0.605
 9660SOL    HW129879   1.056   5.996   0.556
 9660SOL    HW229880   0.964   5.861   0.549
 9661SOL     OW29881   5.239   4.858   1.125
 9661SOL    HW129882   5.300   4.865   1.046
 9661SOL    HW229883   5.146   4.882   1.097
 9662SOL     OW29884   5.274   4.652   6.925
 9662SOL    HW129885   5.352   4.596   6.899
 9662SOL    HW229886   5.269   4.657   7.025
 9663SOL     OW29887   1.040   4.501   3.573
 9663SOL    HW129888   1.086   4.416   3.547
 9663SOL    HW229889   0.961   4.480   3.631
 9664SOL     OW29890   5.239   3.936   3.566
 9664SOL    HW129891   5.190   4.023   3.565
 9664SOL    HW229892   5.337   3.953   3.565
 9665SOL     OW29893   6.336   6.366   6.671
 9665SOL    HW129894   6.274   6.444   6.671
 9665SOL    HW229895   6.291   6.288   6.717
 9666SOL     OW29896   6.297   4.491   1.304
 9666SOL    HW129897   6.358   4.415   1.285
 9666SOL    HW229898   6.255   4.522   1.219
 9667SOL     OW29899   4.518   5.623   1.080
 9667SOL    HW129900   4.584   5.562   1.124
 9667SOL    HW229901   4.531   5.620   0.981
 9668SOL     OW29902   1.311   6.235   5.864
 9668SOL    HW129903   1.306   6.188   5.775
 9668SOL    HW229904   1.379   6.190   5.922
 9669SOL     OW29905   2.632   6.875   0.653
 9669SOL    HW129906   2.614   6.950   0.589
 9669SOL    HW229907   2.575   6.887   0.734
 9670SOL     OW29908   0.270   0.398   5.770
 9670SOL    HW129909   0.316   0.309   5.776
 9670SOL    HW229910   0.286   0.449   5.855
 9671SOL     OW29911   0.825   5.048   6.733
 9671SOL    HW129912   0.841   4.959   6.692
 9671SOL    HW229913   0.858   5.048   6.827
 9672SOL     OW29914   0.923   4.217   4.222
 9672SOL    HW129915   0.824   4.218   4.234
 9672SOL    HW229916   0.966   4.268   4.296
 9673SOL     OW29917   2.803   4.208   1.437
 9673SOL    HW129918   2.823   4.305   1.450
 9673SOL    HW229919   2.736   4.197   1.365
 9674SOL     OW29920   3.401   6.408   3.130
 9674SOL    HW129921   3.336   6.440   3.199
 9674SOL    HW229922   3.417   6.480   3.063
 9675SOL     OW29923   4.747   4.059   0.916
 9675SOL    HW129924   4.689   4.136   0.939
 9675SOL    HW229925   4.823   4.053   0.981
 9676SOL     OW29926   1.031   2.732   6.332
 9676SOL    HW129927   1.049   2.752   6.428
 9676SOL    HW229928   1.075   2.802   6.275
 9677SOL     OW29929   6.082   5.070   0.629
 9677SOL    HW129930   6.041   4.979   0.621
 9677SOL    HW229931   6.182   5.060   0.637
 9678SOL     OW29932   3.290   3.899   4.753
 9678SOL    HW129933   3.192   3.894   4.775
 9678SOL    HW229934   3.321   3.811   4.717
 9679SOL     OW29935   2.456   1.865   4.401
 9679SOL    HW129936   2.399   1.871   4.483
 9679SOL    HW229937   2.528   1.797   4.415
 9680SOL     OW29938   4.566   6.389   3.613
 9680SOL    HW129939   4.540   6.463   3.675
 9680SOL    HW229940   4.506   6.391   3.533
 9681SOL     OW29941   2.167   0.901   1.283
 9681SOL    HW129942   2.102   0.969   1.319
 9681SOL    HW229943   2.219   0.862   1.358
 9682SOL     OW29944   5.410   5.382   4.485
 9682SOL    HW129945   5.375   5.408   4.575
 9682SOL    HW229946   5.343   5.408   4.415
 9683SOL     OW29947   1.699   6.626   0.586
 9683SOL    HW129948   1.639   6.673   0.521
 9683SOL    HW229949   1.790   6.617   0.546
 9684SOL     OW29950   1.779   4.468   5.584
 9684SOL    HW129951   1.763   4.544   5.647
 9684SOL    HW229952   1.786   4.383   5.636
 9685SOL     OW29953   4.452   3.513   1.066
 9685SOL    HW129954   4.405   3.425   1.061
 9685SOL    HW229955   4.494   3.523   1.157
 9686SOL     OW29956   6.465   2.356   6.511
 9686SOL    HW129957   6.397   2.309   6.567
 9686SOL    HW229958   6.451   2.454   6.516
 9687SOL     OW29959   6.059   0.133   1.713
 9687SOL    HW129960   6.067   0.036   1.734
 9687SOL    HW229961   6.150   0.173   1.705
 9688SOL     OW29962   1.707   4.634   1.208
 9688SOL    HW129963   1.759   4.681   1.137
 9688SOL    HW229964   1.638   4.695   1.246
 9689SOL     OW29965   1.210   6.210   6.729
 9689SOL    HW129966   1.255   6.296   6.751
 9689SOL    HW229967   1.277   6.136   6.728
 9690SOL     OW29968   5.093   5.374   4.484
 9690SOL    HW129969   5.093   5.276   4.505
 9690SOL    HW229970   5.067   5.425   4.566
 9691SOL     OW29971   3.061   3.940   2.074
 9691SOL    HW129972   3.042   3.945   1.976
 9691SOL    HW229973   2.985   3.894   2.121
 9692SOL     OW29974   4.080   5.189   6.787
 9692SOL    HW129975   4.005   5.137   6.746
 9692SOL    HW229976   4.153   5.126   6.815
 9693SOL     OW29977   6.041   3.844   4.248
 9693SOL    HW129978   6.050   3.771   4.181
 9693SOL    HW229979   6.104   3.827   4.324
 9694SOL     OW29980   2.924   6.826   1.964
 9694SOL    HW129981   2.996   6.758   1.951
 9694SOL    HW229982   2.835   6.781   1.967
 9695SOL     OW29983   0.153   4.149   3.733
 9695SOL    HW129984   0.139   4.050   3.728
 9695SOL    HW229985   0.249   4.168   3.751
 9696SOL     OW29986   6.035   1.874   3.048
 9696SOL    HW129987   5.971   1.927   2.994
 9696SOL    HW229988   6.117   1.854   2.994
 9697SOL     OW29989   0.159   5.742   0.372
 9697SOL    HW129990   0.192   5.794   0.293
 9697SOL    HW229991   0.201   5.651   0.371
 9698SOL     OW29992   5.593   3.732   0.169
 9698SOL    HW129993   5.522   3.729   0.098
 9698SOL    HW229994   5.571   3.665   0.240
 9699SOL     OW29995   1.276   5.429   0.305
 9699SOL    HW129996   1.359   5.450   0.253
 9699SOL    HW229997   1.240   5.513   0.345
 9700SOL     OW29998   5.967   6.844   4.115
 9700SOL    HW129999   5.962   6.930   4.063
 9700SOL    HW230000   5.921   6.857   4.203
 9701SOL     OW30001   5.002   3.126   6.894
 9701SOL    HW130002   4.949   3.078   6.964
 9701SOL    HW230003   4.945   3.140   6.813
 9702SOL     OW30004   3.579   3.137   0.682
 9702SOL    HW130005   3.484   3.164   0.666
 9702SOL    HW230006   3.620   3.108   0.595
 9703SOL     OW30007   6.104   4.196   5.199
 9703SOL    HW130008   6.042   4.241   5.135
 9703SOL    HW230009   6.192   4.243   5.198
 9704SOL     OW30010   3.064   4.848   2.700
 9704SOL    HW130011   3.040   4.806   2.613
 9704SOL    HW230012   3.162   4.836   2.717
 9705SOL     OW30013   5.775   4.341   5.360
 9705SOL    HW130014   5.822   4.419   5.319
 9705SOL    HW230015   5.827   4.309   5.439
 9706SOL     OW30016   1.481   1.440   1.927
 9706SOL    HW130017   1.530   1.353   1.921
 9706SOL    HW230018   1.415   1.447   1.853
 9707SOL     OW30019   6.044   4.868   2.271
 9707SOL    HW130020   5.951   4.895   2.297
 9707SOL    HW230021   6.064   4.777   2.306
 9708SOL     OW30022   1.604   0.923   2.564
 9708SOL    HW130023   1.681   0.888   2.510
 9708SOL    HW230024   1.528   0.858   2.558
 9709SOL     OW30025   5.729   3.232   2.658
 9709SOL    HW130026   5.803   3.299   2.664
 9709SOL    HW230027   5.667   3.257   2.584
 9710SOL     OW30028   6.548   6.576   6.401
 9710SOL    HW130029   6.617   6.508   6.427
 9710SOL    HW230030   6.528   6.635   6.480
 9711SOL     OW30031   3.780   6.146   6.406
 9711SOL    HW130032   3.832   6.066   6.436
 9711SOL    HW230033   3.838   6.205   6.350
 9712SOL     OW30034   5.777   3.175   0.763
 9712SOL    HW130035   5.789   3.129   0.851
 9712SOL    HW230036   5.811   3.116   0.690
 9713SOL     OW30037   1.714   6.356   3.276
 9713SOL    HW130038   1.658   6.304   3.212
 9713SOL    HW230039   1.701   6.454   3.260
 9714SOL     OW30040   3.580   5.252   4.731
 9714SOL    HW130041   3.481   5.243   4.720
 9714SOL    HW230042   3.620   5.288   4.646
 9715SOL     OW30043   6.363   4.563   1.556
 9715SOL    HW130044   6.330   4.536   1.466
 9715SOL    HW230045   6.409   4.652   1.549
 9716SOL     OW30046   4.117   4.302   6.655
 9716SOL    HW130047   4.075   4.236   6.718
 9716SOL    HW230048   4.201   4.338   6.695
 9717SOL     OW30049   4.680   0.439   6.182
 9717SOL    HW130050   4.648   0.365   6.123
 9717SOL    HW230051   4.773   0.464   6.155
 9718SOL     OW30052   3.222   1.933   0.289
 9718SOL    HW130053   3.307   1.896   0.254
 9718SOL    HW230054   3.238   1.976   0.378
 9719SOL     OW30055   4.963   6.406   4.598
 9719SOL    HW130056   5.061   6.412   4.618
 9719SOL    HW230057   4.912   6.466   4.659
 9720SOL     OW30058   1.579   4.066   2.481
 9720SOL    HW130059   1.670   4.079   2.521
 9720SOL    HW230060   1.517   4.137   2.515
 9721SOL     OW30061   0.612   1.740   0.755
 9721SOL    HW130062   0.602   1.697   0.665
 9721SOL    HW230063   0.704   1.724   0.790
 9722SOL     OW30064   3.195   2.309   5.680
 9722SOL    HW130065   3.187   2.244   5.605
 9722SOL    HW230066   3.165   2.400   5.649
 9723SOL     OW30067   6.152   4.851   4.560
 9723SOL    HW130068   6.190   4.886   4.646
 9723SOL    HW230069   6.219   4.864   4.487
 9724SOL     OW30070   1.945   5.657   6.346
 9724SOL    HW130071   1.900   5.579   6.388
 9724SOL    HW230072   1.923   5.659   6.248
 9725SOL     OW30073   3.953   5.521   5.084
 9725SOL    HW130074   3.861   5.558   5.069
 9725SOL    HW230075   4.006   5.530   4.999
 9726SOL     OW30076   5.305   0.949   4.437
 9726SOL    HW130077   5.252   0.896   4.370
 9726SOL    HW230078   5.278   1.045   4.433
 9727SOL     OW30079   0.314   2.552   0.143
 9727SOL    HW130080   0.388   2.579   0.204
 9727SOL    HW230081   0.231   2.601   0.169
 9728SOL     OW30082   6.109   0.791   5.916
 9728SOL    HW130083   6.199   0.809   5.956
 9728SOL    HW230084   6.078   0.871   5.864
 9729SOL     OW30085   1.283   4.020   3.588
 9729SOL    HW130086   1.335   3.950   3.540
 9729SOL    HW230087   1.344   4.078   3.641
 9730SOL     OW30088   0.557   4.650   4.196
 9730SOL    HW130089   0.589   4.561   4.230
 9730SOL    HW230090   0.561   4.717   4.269
 9731SOL     OW30091   5.164   4.064   2.366
 9731SOL    HW130092   5.139   3.976   2.326
 9731SOL    HW230093   5.211   4.119   2.297
 9732SOL     OW30094   1.301   3.123   2.270
 9732SOL    HW130095   1.216   3.075   2.250
 9732SOL    HW230096   1.298   3.160   2.363
 9733SOL     OW30097   6.275   5.715   3.054
 9733SOL    HW130098   6.337   5.679   2.985
 9733SOL    HW230099   6.282   5.660   3.137
 9734SOL     OW30100   6.649   6.592   6.980
 9734SOL    HW130101   6.731   6.580   0.008
 9734SOL    HW230102   6.653   6.529   6.902
 9735SOL     OW30103   1.417   2.009   3.867
 9735SOL    HW130104   1.420   2.029   3.964
 9735SOL    HW230105   1.510   2.016   3.829
 9736SOL     OW30106   4.805   2.127   5.795
 9736SOL    HW130107   4.820   2.108   5.698
 9736SOL    HW230108   4.774   2.222   5.806
 9737SOL     OW30109   5.812   2.120   2.701
 9737SOL    HW130110   5.736   2.182   2.687
 9737SOL    HW230111   5.794   2.034   2.653
 9738SOL     OW30112   1.844   6.633   0.228
 9738SOL    HW130113   1.823   6.713   0.285
 9738SOL    HW230114   1.901   6.661   0.150
 9739SOL     OW30115   4.598   6.415   6.826
 9739SOL    HW130116   4.504   6.428   6.795
 9739SOL    HW230117   4.637   6.335   6.782
 9740SOL     OW30118   5.693   1.028   2.261
 9740SOL    HW130119   5.755   1.105   2.247
 9740SOL    HW230120   5.641   1.042   2.345
 9741SOL     OW30121   3.077   1.076   4.166
 9741SOL    HW130122   3.046   1.019   4.090
 9741SOL    HW230123   3.041   1.169   4.155
 9742SOL     OW30124   4.414   1.661   6.634
 9742SOL    HW130125   4.428   1.643   6.537
 9742SOL    HW230126   4.494   1.631   6.686
 9743SOL     OW30127   0.377   3.208   3.476
 9743SOL    HW130128   0.362   3.142   3.403
 9743SOL    HW230129   0.451   3.271   3.450
 9744SOL     OW30130   1.860   0.002   2.639
 9744SOL    HW130131   1.841   0.083   2.694
 9744SOL    HW230132   1.954   7.001   2.655
 9745SOL     OW30133   5.808   1.761   6.105
 9745SOL    HW130134   5.761   1.786   6.020
 9745SOL    HW230135   5.899   1.801   6.104
 9746SOL     OW30136   4.936   6.688   0.086
 9746SOL    HW130137   4.844   6.648   0.080
 9746SOL    HW230138   4.977   6.692   7.024
 9747SOL     OW30139   2.507   1.761   1.712
 9747SOL    HW130140   2.485   1.796   1.621
 9747SOL    HW230141   2.509   1.837   1.777
 9748SOL     OW30142   6.910   0.284   3.017
 9748SOL    HW130143   6.981   0.318   2.955
 9748SOL    HW230144   6.946   0.207   3.070
 9749SOL     OW30145   0.604   2.362   2.331
 9749SOL    HW130146   0.647   2.287   2.381
 9749SOL    HW230147   0.505   2.362   2.350
 9750SOL     OW30148   6.432   4.684   3.983
 9750SOL    HW130149   6.475   4.659   3.896
 9750SOL    HW230150   6.333   4.691   3.970
 9751SOL     OW30151   2.406   0.422   1.382
 9751SOL    HW130152   2.321   0.472   1.395
 9751SOL    HW230153   2.401   0.370   1.297
 9752SOL     OW30154   4.250   2.351   6.962
 9752SOL    HW130155   4.208   2.376   6.874
 9752SOL    HW230156   4.225   2.258   6.986
 9753SOL     OW30157   1.004   5.692   5.925
 9753SOL    HW130158   0.915   5.736   5.917
 9753SOL    HW230159   0.994   5.605   5.973
 9754SOL     OW30160   3.645   0.607   0.697
 9754SOL    HW130161   3.626   0.585   0.792
 9754SOL    HW230162   3.689   0.529   0.653
 9755SOL     OW30163   3.219   4.062   5.078
 9755SOL    HW130164   3.315   4.047   5.055
 9755SOL    HW230165   3.212   4.142   5.138
 9756SOL     OW30166   5.864   1.478   6.117
 9756SOL    HW130167   5.955   1.458   6.155
 9756SOL    HW230168   5.846   1.576   6.123
 9757SOL     OW30169   6.108   4.433   3.943
 9757SOL    HW130170   6.044   4.356   3.951
 9757SOL    HW230171   6.113   4.481   4.030
 9758SOL     OW30172   1.532   1.410   0.537
 9758SOL    HW130173   1.458   1.392   0.602
 9758SOL    HW230174   1.493   1.444   0.451
 9759SOL     OW30175   1.014   1.371   0.290
 9759SOL    HW130176   0.921   1.348   0.317
 9759SOL    HW230177   1.029   1.347   0.194
 9760SOL     OW30178   4.947   2.484   6.791
 9760SOL    HW130179   5.005   2.507   6.870
 9760SOL    HW230180   5.004   2.444   6.719
 9761SOL     OW30181   1.368   1.107   1.982
 9761SOL    HW130182   1.448   1.163   1.965
 9761SOL    HW230183   1.368   1.077   2.078
 9762SOL     OW30184   2.708   2.119   4.719
 9762SOL    HW130185   2.711   2.153   4.813
 9762SOL    HW230186   2.621   2.144   4.677
 9763SOL     OW30187   6.587   1.603   2.559
 9763SOL    HW130188   6.520   1.589   2.486
 9763SOL    HW230189   6.541   1.594   2.647
 9764SOL     OW30190   5.989   2.841   2.649
 9764SOL    HW130191   6.059   2.893   2.600
 9764SOL    HW230192   6.025   2.752   2.675
 9765SOL     OW30193   6.084   1.545   2.269
 9765SOL    HW130194   6.021   1.505   2.336
 9765SOL    HW230195   6.168   1.491   2.265
 9766SOL     OW30196   2.889   0.397   3.510
 9766SOL    HW130197   2.982   0.432   3.525
 9766SOL    HW230198   2.887   0.298   3.526
 9767SOL     OW30199   2.329   3.299   5.881
 9767SOL    HW130200   2.428   3.292   5.867
 9767SOL    HW230201   2.286   3.212   5.860
 9768SOL     OW30202   5.667   2.625   0.673
 9768SOL    HW130203   5.640   2.538   0.713
 9768SOL    HW230204   5.587   2.671   0.635
 9769SOL     OW30205   3.397   0.931   5.400
 9769SOL    HW130206   3.496   0.924   5.385
 9769SOL    HW230207   3.351   0.947   5.312
 9770SOL     OW30208   3.345   2.016   6.105
 9770SOL    HW130209   3.247   2.033   6.091
 9770SOL    HW230210   3.398   2.071   6.040
 9771SOL     OW30211   2.345   6.837   1.924
 9771SOL    HW130212   2.271   6.889   1.967
 9771SOL    HW230213   2.315   6.743   1.908
 9772SOL     OW30214   1.720   5.966   2.019
 9772SOL    HW130215   1.810   6.007   2.037
 9772SOL    HW230216   1.724   5.910   1.937
 9773SOL     OW30217   5.680   5.065   3.235
 9773SOL    HW130218   5.588   5.084   3.270
 9773SOL    HW230219   5.748   5.095   3.302
 9774SOL     OW30220   1.116   5.377   3.283
 9774SOL    HW130221   1.022   5.411   3.288
 9774SOL    HW230222   1.117   5.278   3.297
 9775SOL     OW30223   2.997   0.890   3.115
 9775SOL    HW130224   3.094   0.913   3.129
 9775SOL    HW230225   2.979   0.882   3.017
 9776SOL     OW30226   1.876   5.248   6.162
 9776SOL    HW130227   1.790   5.238   6.211
 9776SOL    HW230228   1.939   5.176   6.191
 9777SOL     OW30229   5.061   6.505   6.340
 9777SOL    HW130230   5.131   6.503   6.269
 9777SOL    HW230231   5.104   6.520   6.429
 9778SOL     OW30232   0.079   1.811   4.726
 9778SOL    HW130233   0.056   1.907   4.711
 9778SOL    HW230234   0.014   1.771   4.790
 9779SOL     OW30235   0.595   2.639   3.873
 9779SOL    HW130236   0.630   2.617   3.782
 9779SOL    HW230237   0.613   2.563   3.935
 9780SOL     OW30238   1.849   1.528   1.533
 9780SOL    HW130239   1.908   1.534   1.453
 9780SOL    HW230240   1.816   1.619   1.557
 9781SOL     OW30241   1.605   3.602   4.318
 9781SOL    HW130242   1.609   3.550   4.403
 9781SOL    HW230243   1.685   3.581   4.263
 9782SOL     OW30244   0.328   2.300   0.952
 9782SOL    HW130245   0.256   2.349   0.902
 9782SOL    HW230246   0.312   2.202   0.947
 9783SOL     OW30247   4.434   1.892   3.145
 9783SOL    HW130248   4.431   1.835   3.063
 9783SOL    HW230249   4.367   1.859   3.211
 9784SOL     OW30250   3.333   1.214   6.425
 9784SOL    HW130251   3.330   1.246   6.330
 9784SOL    HW230252   3.287   1.125   6.432
 9785SOL     OW30253   6.620   2.369   4.953
 9785SOL    HW130254   6.592   2.463   4.933
 9785SOL    HW230255   6.595   2.310   4.875
 9786SOL     OW30256   2.778   4.580   0.742
 9786SOL    HW130257   2.701   4.562   0.682
 9786SOL    HW230258   2.863   4.572   0.690
 9787SOL     OW30259   3.575   3.486   4.151
 9787SOL    HW130260   3.563   3.558   4.218
 9787SOL    HW230261   3.658   3.434   4.171
 9788SOL     OW30262   0.916   5.515   1.873
 9788SOL    HW130263   0.986   5.585   1.864
 9788SOL    HW230264   0.920   5.475   1.965
 9789SOL     OW30265   2.817   6.669   6.778
 9789SOL    HW130266   2.722   6.652   6.750
 9789SOL    HW230267   2.849   6.754   6.737
 9790SOL     OW30268   6.258   4.984   5.136
 9790SOL    HW130269   6.273   5.064   5.079
 9790SOL    HW230270   6.272   5.009   5.232
 9791SOL     OW30271   0.707   0.092   0.074
 9791SOL    HW130272   0.755   0.157   0.133
 9791SOL    HW230273   0.608   0.105   0.084
 9792SOL     OW30274   3.917   5.248   0.895
 9792SOL    HW130275   3.945   5.344   0.886
 9792SOL    HW230276   3.947   5.213   0.984
 9793SOL     OW30277   4.102   0.550   0.984
 9793SOL    HW130278   4.067   0.614   0.915
 9793SOL    HW230279   4.154   0.600   1.053
 9794SOL     OW30280   4.840   4.507   4.618
 9794SOL    HW130281   4.808   4.583   4.673
 9794SOL    HW230282   4.939   4.503   4.620
 9795SOL     OW30283   1.069   3.031   4.138
 9795SOL    HW130284   1.124   2.948   4.137
 9795SOL    HW230285   0.973   3.006   4.151
 9796SOL     OW30286   4.011   3.784   3.972
 9796SOL    HW130287   3.959   3.799   3.888
 9796SOL    HW230288   4.074   3.708   3.959
 9797SOL     OW30289   2.659   6.117   6.847
 9797SOL    HW130290   2.735   6.181   6.831
 9797SOL    HW230291   2.695   6.032   6.886
 9798SOL     OW30292   2.438   1.848   1.227
 9798SOL    HW130293   2.497   1.905   1.170
 9798SOL    HW230294   2.444   1.878   1.322
 9799SOL     OW30295   3.062   4.507   6.238
 9799SOL    HW130296   2.982   4.561   6.265
 9799SOL    HW230297   3.053   4.479   6.143
 9800SOL     OW30298   5.914   3.196   4.270
 9800SOL    HW130299   6.000   3.210   4.319
 9800SOL    HW230300   5.871   3.112   4.302
 9801SOL     OW30301   4.937   4.795   0.136
 9801SOL    HW130302   4.894   4.859   0.199
 9801SOL    HW230303   5.033   4.820   0.123
 9802SOL     OW30304   4.389   4.690   0.418
 9802SOL    HW130305   4.436   4.633   0.486
 9802SOL    HW230306   4.297   4.712   0.451
 9803SOL     OW30307   1.791   3.263   0.019
 9803SOL    HW130308   1.754   3.344   7.001
 9803SOL    HW230309   1.886   3.249   7.021
 9804SOL     OW30310   6.715   5.924   3.116
 9804SOL    HW130311   6.795   5.911   3.174
 9804SOL    HW230312   6.687   6.020   3.119
 9805SOL     OW30313   1.158   6.855   2.990
 9805SOL    HW130314   1.087   6.785   2.998
 9805SOL    HW230315   1.180   6.869   2.894
 9806SOL     OW30316   3.115   2.995   5.997
 9806SOL    HW130317   3.152   3.005   5.905
 9806SOL    HW230318   3.052   2.917   5.999
 9807SOL     OW30319   3.369   2.884   2.279
 9807SOL    HW130320   3.465   2.861   2.292
 9807SOL    HW230321   3.349   2.891   2.181
 9808SOL     OW30322   4.429   5.494   3.778
 9808SOL    HW130323   4.510   5.474   3.833
 9808SOL    HW230324   4.449   5.477   3.682
 9809SOL     OW30325   0.511   3.254   0.349
 9809SOL    HW130326   0.449   3.248   0.271
 9809SOL    HW230327   0.557   3.343   0.349
 9810SOL     OW30328   2.776   2.003   5.012
 9810SOL    HW130329   2.725   1.918   5.027
 9810SOL    HW230330   2.869   1.992   5.046
 9811SOL     OW30331   6.447   3.243   3.753
 9811SOL    HW130332   6.502   3.305   3.697
 9811SOL    HW230333   6.405   3.295   3.827
 9812SOL     OW30334   2.737   0.276   4.364
 9812SOL    HW130335   2.694   0.249   4.450
 9812SOL    HW230336   2.826   0.233   4.357
 9813SOL     OW30337   5.873   2.477   0.510
 9813SOL    HW130338   5.949   2.416   0.533
 9813SOL    HW230339   5.862   2.546   0.581
 9814SOL     OW30340   5.250   1.866   6.936
 9814SOL    HW130341   5.346   1.835   6.940
 9814SOL    HW230342   5.200   1.828   7.014
 9815SOL     OW30343   4.622   2.424   4.057
 9815SOL    HW130344   4.679   2.387   4.130
 9815SOL    HW230345   4.603   2.352   3.990
 9816SOL     OW30346   0.955   6.914   6.272
 9816SOL    HW130347   1.017   6.842   6.300
 9816SOL    HW230348   0.912   6.889   6.185
 9817SOL     OW30349   0.766   6.845   3.011
 9817SOL    HW130350   0.758   6.941   2.984
 9817SOL    HW230351   0.732   6.786   2.938
 9818SOL     OW30352   6.065   2.160   4.826
 9818SOL    HW130353   6.159   2.193   4.815
 9818SOL    HW230354   6.047   2.141   4.923
 9819SOL     OW30355   4.643   2.611   3.419
 9819SOL    HW130356   4.722   2.667   3.395
 9819SOL    HW230357   4.667   2.514   3.412
 9820SOL     OW30358   3.454   3.542   0.082
 9820SOL    HW130359   3.528   3.557   0.017
 9820SOL    HW230360   3.367   3.568   0.041
 9821SOL     OW30361   6.285   7.001   6.619
 9821SOL    HW130362   6.361   6.989   6.683
 9821SOL    HW230363   6.303   0.050   6.559
 9822SOL     OW30364   0.688   7.008   2.815
 9822SOL    HW130365   0.632   6.949   2.758
 9822SOL    HW230366   0.785   6.995   2.792
 9823SOL     OW30367   3.525   0.415   1.258
 9823SOL    HW130368   3.514   0.494   1.318
 9823SOL    HW230369   3.469   0.427   1.176
 9824SOL     OW30370   1.450   4.262   6.084
 9824SOL    HW130371   1.492   4.172   6.070
 9824SOL    HW230372   1.429   4.303   5.995
 9825SOL     OW30373   3.395   5.343   5.533
 9825SOL    HW130374   3.446   5.293   5.602
 9825SOL    HW230375   3.350   5.278   5.471
 9826SOL     OW30376   4.064   5.879   6.212
 9826SOL    HW130377   4.087   5.879   6.115
 9826SOL    HW230378   4.086   5.790   6.252
 9827SOL     OW30379   2.016   4.290   4.312
 9827SOL    HW130380   1.962   4.355   4.258
 9827SOL    HW230381   2.048   4.334   4.396
 9828SOL     OW30382   3.542   2.715   6.526
 9828SOL    HW130383   3.487   2.636   6.499
 9828SOL    HW230384   3.491   2.770   6.592
 9829SOL     OW30385   2.863   6.638   0.976
 9829SOL    HW130386   2.771   6.640   1.015
 9829SOL    HW230387   2.911   6.723   0.999
 9830SOL     OW30388   5.579   2.232   1.687
 9830SOL    HW130389   5.674   2.246   1.658
 9830SOL    HW230390   5.522   2.307   1.653
 9831SOL     OW30391   1.716   5.968   0.109
 9831SOL    HW130392   1.739   5.984   0.205
 9831SOL    HW230393   1.734   6.051   0.057
 9832SOL     OW30394   4.764   5.455   2.514
 9832SOL    HW130395   4.843   5.469   2.455
 9832SOL    HW230396   4.688   5.512   2.483
 9833SOL     OW30397   3.062   2.862   5.340
 9833SOL    HW130398   3.125   2.834   5.413
 9833SOL    HW230399   2.992   2.791   5.328
 9834SOL     OW30400   2.478   3.901   5.871
 9834SOL    HW130401   2.492   3.889   5.969
 9834SOL    HW230402   2.539   3.840   5.821
 9835SOL     OW30403   4.022   2.534   5.660
 9835SOL    HW130404   3.949   2.591   5.622
 9835SOL    HW230405   4.015   2.534   5.760
 9836SOL     OW30406   6.551   4.226   3.488
 9836SOL    HW130407   6.589   4.315   3.515
 9836SOL    HW230408   6.607   4.186   3.416
 9837SOL     OW30409   1.872   0.309   2.626
 9837SOL    HW130410   1.858   0.408   2.623
 9837SOL    HW230411   1.970   0.289   2.615
 9838SOL     OW30412   0.541   6.767   5.750
 9838SOL    HW130413   0.545   6.710   5.832
 9838SOL    HW230414   0.483   6.847   5.768
 9839SOL     OW30415   6.433   1.304   2.865
 9839SOL    HW130416   6.401   1.393   2.898
 9839SOL    HW230417   6.531   1.311   2.842
 9840SOL     OW30418   0.238   0.909   0.829
 9840SOL    HW130419   0.286   0.845   0.889
 9840SOL    HW230420   0.173   0.858   0.773
 9841SOL     OW30421   1.307   5.032   4.735
 9841SOL    HW130422   1.283   4.950   4.682
 9841SOL    HW230423   1.268   5.024   4.827
 9842SOL     OW30424   3.651   4.186   3.358
 9842SOL    HW130425   3.614   4.278   3.364
 9842SOL    HW230426   3.656   4.158   3.262
 9843SOL     OW30427   6.844   1.747   1.911
 9843SOL    HW130428   6.912   1.712   1.976
 9843SOL    HW230429   6.791   1.820   1.955
 9844SOL     OW30430   4.895   0.207   2.367
 9844SOL    HW130431   4.893   0.291   2.422
 9844SOL    HW230432   4.968   0.147   2.401
 9845SOL     OW30433   2.220   1.558   5.254
 9845SOL    HW130434   2.142   1.605   5.212
 9845SOL    HW230435   2.227   1.465   5.217
 9846SOL     OW30436   3.995   3.499   2.882
 9846SOL    HW130437   3.973   3.495   2.785
 9846SOL    HW230438   4.022   3.408   2.914
 9847SOL     OW30439   3.086   3.269   6.116
 9847SOL    HW130440   2.989   3.251   6.133
 9847SOL    HW230441   3.126   3.191   6.068
 9848SOL     OW30442   3.488   2.280   6.390
 9848SOL    HW130443   3.449   2.188   6.392
 9848SOL    HW230444   3.468   2.327   6.475
 9849SOL     OW30445   6.129   0.796   0.355
 9849SOL    HW130446   6.047   0.749   0.387
 9849SOL    HW230447   6.166   0.749   0.275
 9850SOL     OW30448   5.335   6.028   2.368
 9850SOL    HW130449   5.251   6.062   2.411
 9850SOL    HW230450   5.399   6.104   2.356
 9851SOL     OW30451   4.294   1.971   5.639
 9851SOL    HW130452   4.390   1.943   5.643
 9851SOL    HW230453   4.263   1.970   5.544
 9852SOL     OW30454   4.430   2.106   3.362
 9852SOL    HW130455   4.399   2.128   3.269
 9852SOL    HW230456   4.462   2.012   3.365
 9853SOL     OW30457   4.903   4.206   3.418
 9853SOL    HW130458   4.821   4.260   3.401
 9853SOL    HW230459   4.878   4.122   3.466
 9854SOL     OW30460   5.740   4.782   5.173
 9854SOL    HW130461   5.797   4.824   5.102
 9854SOL    HW230462   5.746   4.836   5.257
 9855SOL     OW30463   2.118   4.308   1.684
 9855SOL    HW130464   2.025   4.321   1.720
 9855SOL    HW230465   2.114   4.305   1.584
 9856SOL     OW30466   4.999   4.064   0.315
 9856SOL    HW130467   5.078   4.095   0.263
 9856SOL    HW230468   5.006   3.965   0.331
 9857SOL     OW30469   4.815   2.092   3.594
 9857SOL    HW130470   4.826   2.185   3.628
 9857SOL    HW230471   4.771   2.093   3.505
 9858SOL     OW30472   6.104   1.126   1.565
 9858SOL    HW130473   6.143   1.217   1.552
 9858SOL    HW230474   6.012   1.123   1.524
 9859SOL     OW30475   6.635   6.950   1.171
 9859SOL    HW130476   6.635   6.925   1.074
 9859SOL    HW230477   6.650   0.019   1.180
 9860SOL     OW30478   6.778   0.960   2.359
 9860SOL    HW130479   6.712   1.005   2.299
 9860SOL    HW230480   6.871   0.976   2.323
 9861SOL     OW30481   2.789   0.041   3.347
 9861SOL    HW130482   2.700   7.024   3.344
 9861SOL    HW230483   2.798   0.091   3.433
 9862SOL     OW30484   2.805   3.944   0.599
 9862SOL    HW130485   2.769   4.007   0.668
 9862SOL    HW230486   2.843   3.863   0.644
 9863SOL     OW30487   3.235   7.026   3.348
 9863SOL    HW130488   3.235   0.090   3.311
 9863SOL    HW230489   3.329   6.997   3.366
 9864SOL     OW30490   4.182   5.587   3.853
 9864SOL    HW130491   4.258   5.527   3.829
 9864SOL    HW230492   4.207   5.682   3.834
 9865SOL     OW30493   1.204   1.258   4.797
 9865SOL    HW130494   1.208   1.158   4.798
 9865SOL    HW230495   1.130   1.288   4.857
 9866SOL     OW30496   5.296   4.445   4.806
 9866SOL    HW130497   5.225   4.442   4.736
 9866SOL    HW230498   5.359   4.520   4.786
 9867SOL     OW30499   6.001   0.386   1.177
 9867SOL    HW130500   6.068   0.453   1.209
 9867SOL    HW230501   5.909   0.425   1.187
 9868SOL     OW30502   1.384   4.876   5.815
 9868SOL    HW130503   1.321   4.869   5.892
 9868SOL    HW230504   1.376   4.795   5.757
 9869SOL     OW30505   2.222   3.031   2.365
 9869SOL    HW130506   2.315   3.043   2.333
 9869SOL    HW230507   2.217   3.052   2.463
 9870SOL     OW30508   4.154   5.879   2.304
 9870SOL    HW130509   4.175   5.831   2.389
 9870SOL    HW230510   4.239   5.902   2.257
 9871SOL     OW30511   0.911   6.933   5.820
 9871SOL    HW130512   0.971   6.958   5.744
 9871SOL    HW230513   0.885   6.837   5.812
 9872SOL     OW30514   3.088   5.136   3.992
 9872SOL    HW130515   3.107   5.202   3.920
 9872SOL    HW230516   3.113   5.044   3.961
 9873SOL     OW30517   2.816   2.359   1.125
 9873SOL    HW130518   2.741   2.421   1.104
 9873SOL    HW230519   2.866   2.390   1.206
 9874SOL     OW30520   0.741   3.054   4.375
 9874SOL    HW130521   0.784   2.970   4.342
 9874SOL    HW230522   0.676   3.088   4.306
 9875SOL     OW30523   0.336   6.529   2.063
 9875SOL    HW130524   0.265   6.460   2.070
 9875SOL    HW230525   0.302   6.607   2.010
 9876SOL     OW30526   6.725   0.734   2.517
 9876SOL    HW130527   6.720   0.792   2.436
 9876SOL    HW230528   6.744   0.640   2.490
 9877SOL     OW30529   0.713   6.147   2.881
 9877SOL    HW130530   0.738   6.207   2.957
 9877SOL    HW230531   0.797   6.111   2.839
 9878SOL     OW30532   2.761   5.459   4.603
 9878SOL    HW130533   2.787   5.364   4.588
 9878SOL    HW230534   2.663   5.470   4.587
 9879SOL     OW30535   5.876   5.475   4.472
 9879SOL    HW130536   5.955   5.525   4.507
 9879SOL    HW230537   5.888   5.377   4.490
 9880SOL     OW30538   2.279   2.380   5.526
 9880SOL    HW130539   2.197   2.328   5.503
 9880SOL    HW230540   2.279   2.467   5.476
 9881SOL     OW30541   1.895   1.162   4.827
 9881SOL    HW130542   1.865   1.162   4.732
 9881SOL    HW230543   1.991   1.191   4.832
 9882SOL     OW30544   0.891   2.215   3.730
 9882SOL    HW130545   0.862   2.122   3.709
 9882SOL    HW230546   0.960   2.213   3.804
 9883SOL     OW30547   1.865   5.175   0.022
 9883SOL    HW130548   1.940   5.114   0.048
 9883SOL    HW230549   1.875   5.199   6.954
 9884SOL     OW30550   4.315   1.513   3.000
 9884SOL    HW130551   4.268   1.528   3.087
 9884SOL    HW230552   4.350   1.600   2.965
 9885SOL     OW30553   0.018   3.173   5.527
 9885SOL    HW130554   6.985   3.238   5.484
 9885SOL    HW230555   0.103   3.221   5.552
 9886SOL     OW30556   0.667   4.367   1.861
 9886SOL    HW130557   0.662   4.452   1.914
 9886SOL    HW230558   0.731   4.304   1.906
 9887SOL     OW30559   3.098   1.081   6.026
 9887SOL    HW130560   3.076   1.016   5.952
 9887SOL    HW230561   3.197   1.083   6.041
 9888SOL     OW30562   6.451   4.011   1.998
 9888SOL    HW130563   6.502   4.068   2.062
 9888SOL    HW230564   6.469   4.040   1.905
 9889SOL     OW30565   6.716   5.083   1.541
 9889SOL    HW130566   6.690   5.113   1.633
 9889SOL    HW230567   6.776   5.152   1.500
 9890SOL     OW30568   1.645   2.056   0.038
 9890SOL    HW130569   1.559   2.103   0.054
 9890SOL    HW230570   1.648   1.971   0.091
 9891SOL     OW30571   5.771   3.002   1.218
 9891SOL    HW130572   5.712   3.075   1.253
 9891SOL    HW230573   5.740   2.914   1.254
 9892SOL     OW30574   6.811   5.096   0.734
 9892SOL    HW130575   6.850   5.004   0.731
 9892SOL    HW230576   6.882   5.162   0.760
 9893SOL     OW30577   1.302   6.968   1.237
 9893SOL    HW130578   1.287   6.877   1.198
 9893SOL    HW230579   1.318   0.004   1.163
 9894SOL     OW30580   2.055   2.441   2.093
 9894SOL    HW130581   2.119   2.498   2.143
 9894SOL    HW230582   2.093   2.417   2.004
 9895SOL     OW30583   6.412   3.714   5.333
 9895SOL    HW130584   6.385   3.809   5.322
 9895SOL    HW230585   6.375   3.660   5.257
 9896SOL     OW30586   5.978   0.413   6.970
 9896SOL    HW130587   6.002   0.401   0.037
 9896SOL    HW230588   5.959   0.509   6.952
 9897SOL     OW30589   6.425   5.632   3.468
 9897SOL    HW130590   6.421   5.633   3.568
 9897SOL    HW230591   6.335   5.657   3.431
 9898SOL     OW30592   1.877   6.150   5.100
 9898SOL    HW130593   1.945   6.219   5.126
 9898SOL    HW230594   1.826   6.182   5.020
 9899SOL     OW30595   0.590   5.718   7.001
 9899SOL    HW130596   0.563   5.622   7.010
 9899SOL    HW230597   0.690   5.725   7.003
 9900SOL     OW30598   1.779   3.649   3.284
 9900SOL    HW130599   1.766   3.655   3.185
 9900SOL    HW230600   1.756   3.738   3.325
 9901SOL     OW30601   2.964   0.782   6.063
 9901SOL    HW130602   2.875   0.806   6.024
 9901SOL    HW230603   2.996   0.856   6.122
 9902SOL     OW30604   3.262   4.985   0.610
 9902SOL    HW130605   3.274   5.081   0.586
 9902SOL    HW230606   3.270   4.929   0.527
 9903SOL     OW30607   4.982   1.424   1.940
 9903SOL    HW130608   4.900   1.473   1.971
 9903SOL    HW230609   5.022   1.473   1.863
 9904SOL     OW30610   1.286   4.593   0.276
 9904SOL    HW130611   1.303   4.551   0.365
 9904SOL    HW230612   1.365   4.647   0.249
 9905SOL     OW30613   2.649   0.371   6.301
 9905SOL    HW130614   2.654   0.455   6.247
 9905SOL    HW230615   2.632   0.293   6.241
 9906SOL     OW30616   2.577   3.036   1.646
 9906SOL    HW130617   2.506   2.991   1.699
 9906SOL    HW230618   2.659   2.978   1.642
 9907SOL     OW30619   6.756   0.169   1.194
 9907SOL    HW130620   6.680   0.232   1.207
 9907SOL    HW230621   6.782   0.169   1.097
 9908SOL     OW30622   4.944   1.657   4.296
 9908SOL    HW130623   5.011   1.622   4.231
 9908SOL    HW230624   4.946   1.757   4.296
 9909SOL     OW30625   4.204   0.679   3.972
 9909SOL    HW130626   4.275   0.623   3.929
 9909SOL    HW230627   4.213   0.674   4.071
 9910SOL     OW30628   1.805   4.133   2.812
 9910SOL    HW130629   1.746   4.075   2.869
 9910SOL    HW230630   1.759   4.221   2.796
 9911SOL     OW30631   3.111   6.618   1.965
 9911SOL    HW130632   3.085   6.560   2.042
 9911SOL    HW230633   3.116   6.563   1.882
 9912SOL     OW30634   3.995   0.959   1.278
 9912SOL    HW130635   4.000   0.909   1.192
 9912SOL    HW230636   3.903   0.947   1.317
 9913SOL     OW30637   6.468   4.329   1.167
 9913SOL    HW130638   6.440   4.329   1.072
 9913SOL    HW230639   6.567   4.338   1.173
 9914SOL     OW30640   5.446   1.973   4.331
 9914SOL    HW130641   5.411   2.031   4.258
 9914SOL    HW230642   5.546   1.967   4.325
 9915SOL     OW30643   4.988   0.727   3.890
 9915SOL    HW130644   4.923   0.791   3.932
 9915SOL    HW230645   4.978   0.731   3.790
 9916SOL     OW30646   1.860   2.390   3.258
 9916SOL    HW130647   1.827   2.437   3.340
 9916SOL    HW230648   1.788   2.389   3.188
 9917SOL     OW30649   5.574   3.995   7.023
 9917SOL    HW130650   5.670   4.022   0.004
 9917SOL    HW230651   5.559   3.957   6.932
 9918SOL     OW30652   3.469   1.364   3.686
 9918SOL    HW130653   3.430   1.354   3.777
 9918SOL    HW230654   3.428   1.443   3.640
 9919SOL     OW30655   6.464   5.073   1.424
 9919SOL    HW130656   6.558   5.061   1.454
 9919SOL    HW230657   6.425   4.984   1.400
 9920SOL     OW30658   4.749   1.564   2.027
 9920SOL    HW130659   4.783   1.623   2.100
 9920SOL    HW230660   4.667   1.516   2.059
 9921SOL     OW30661   3.965   0.177   5.619
 9921SOL    HW130662   4.050   0.127   5.599
 9921SOL    HW230663   3.931   0.150   5.709
 9922SOL     OW30664   2.938   4.263   0.511
 9922SOL    HW130665   3.031   4.273   0.547
 9922SOL    HW230666   2.939   4.206   0.429
 9923SOL     OW30667   5.149   4.817   6.753
 9923SOL    HW130668   5.217   4.777   6.814
 9923SOL    HW230669   5.057   4.789   6.781
 9924SOL     OW30670   6.368   2.027   5.128
 9924SOL    HW130671   6.398   1.968   5.053
 9924SOL    HW230672   6.308   1.976   5.189
 9925SOL     OW30673   6.628   2.969   4.643
 9925SOL    HW130674   6.630   3.033   4.720
 9925SOL    HW230675   6.543   2.918   4.645
 9926SOL     OW30676   3.918   2.359   0.915
 9926SOL    HW130677   3.919   2.283   0.980
 9926SOL    HW230678   4.010   2.394   0.903
 9927SOL     OW30679   0.132   6.674   0.397
 9927SOL    HW130680   0.133   6.704   0.493
 9927SOL    HW230681   0.138   6.753   0.337
 9928SOL     OW30682   5.271   4.706   2.633
 9928SOL    HW130683   5.326   4.711   2.549
 9928SOL    HW230684   5.270   4.796   2.677
 9929SOL     OW30685   3.062   4.607   5.486
 9929SOL    HW130686   2.988   4.646   5.431
 9929SOL    HW230687   3.090   4.520   5.446
 9930SOL     OW30688   6.914   6.417   4.825
 9930SOL    HW130689   6.878   6.511   4.827
 9930SOL    HW230690   6.920   6.382   4.918
 9931SOL     OW30691   0.603   5.633   3.833
 9931SOL    HW130692   0.698   5.604   3.834
 9931SOL    HW230693   0.572   5.651   3.927
 9932SOL     OW30694   3.281   4.457   0.049
 9932SOL    HW130695   3.260   4.458   6.980
 9932SOL    HW230696   3.197   4.470   0.101
 9933SOL     OW30697   0.279   6.056   3.547
 9933SOL    HW130698   0.220   5.976   3.554
 9933SOL    HW230699   0.224   6.135   3.518
 9934SOL     OW30700   5.389   2.109   5.639
 9934SOL    HW130701   5.406   2.208   5.632
 9934SOL    HW230702   5.466   2.059   5.600
 9935SOL     OW30703   2.393   6.590   0.070
 9935SOL    HW130704   2.333   6.514   0.047
 9935SOL    HW230705   2.484   6.573   0.034
 9936SOL     OW30706   6.307   5.355   6.945
 9936SOL    HW130707   6.329   5.319   0.006
 9936SOL    HW230708   6.284   5.452   6.952
 9937SOL     OW30709   6.457   1.439   0.824
 9937SOL    HW130710   6.443   1.420   0.921
 9937SOL    HW230711   6.380   1.494   0.790
 9938SOL     OW30712   6.822   5.322   2.523
 9938SOL    HW130713   6.778   5.261   2.589
 9938SOL    HW230714   6.899   5.274   2.480
 9939SOL     OW30715   4.299   2.331   0.813
 9939SOL    HW130716   4.287   2.293   0.905
 9939SOL    HW230717   4.388   2.376   0.807
 9940SOL     OW30718   1.077   0.601   1.021
 9940SOL    HW130719   1.022   0.519   1.013
 9940SOL    HW230720   1.021   0.681   1.002
 9941SOL     OW30721   3.111   4.116   5.700
 9941SOL    HW130722   3.197   4.146   5.740
 9941SOL    HW230723   3.121   4.024   5.664
 9942SOL     OW30724   2.851   5.760   2.176
 9942SOL    HW130725   2.784   5.827   2.208
 9942SOL    HW230726   2.829   5.735   2.081
 9943SOL     OW30727   7.002   4.667   5.179
 9943SOL    HW130728   0.037   4.598   5.210
 9943SOL    HW230729   6.919   4.663   5.236
 9944SOL     OW30730   1.659   4.518   6.490
 9944SOL    HW130731   1.747   4.527   6.536
 9944SOL    HW230732   1.585   4.532   6.556
 9945SOL     OW30733   5.823   5.307   6.471
 9945SOL    HW130734   5.921   5.327   6.474
 9945SOL    HW230735   5.771   5.390   6.492
 9946SOL     OW30736   4.667   1.251   3.420
 9946SOL    HW130737   4.661   1.233   3.322
 9946SOL    HW230738   4.582   1.224   3.464
 9947SOL     OW30739   1.610   2.812   5.069
 9947SOL    HW130740   1.560   2.779   5.149
 9947SOL    HW230741   1.651   2.900   5.090
 9948SOL     OW30742   5.340   4.026   4.893
 9948SOL    HW130743   5.276   4.014   4.969
 9948SOL    HW230744   5.419   4.080   4.924
 9949SOL     OW30745   6.825   5.074   4.358
 9949SOL    HW130746   6.838   5.007   4.286
 9949SOL    HW230747   6.822   5.027   4.447
 9950SOL     OW30748   5.475   5.864   4.928
 9950SOL    HW130749   5.509   5.920   4.852
 9950SOL    HW230750   5.541   5.866   5.003
 9951SOL     OW30751   6.819   0.370   4.617
 9951SOL    HW130752   6.855   0.444   4.561
 9951SOL    HW230753   6.728   0.395   4.652
 9952SOL     OW30754   0.861   3.641   1.109
 9952SOL    HW130755   0.785   3.668   1.050
 9952SOL    HW230756   0.860   3.697   1.192
 9953SOL     OW30757   5.840   2.884   4.336
 9953SOL    HW130758   5.768   2.835   4.385
 9953SOL    HW230759   5.820   2.883   4.238
 9954SOL     OW30760   6.345   0.269   6.190
 9954SOL    HW130761   6.432   0.319   6.198
 9954SOL    HW230762   6.364   0.172   6.173
 9955SOL     OW30763   6.222   3.534   5.130
 9955SOL    HW130764   6.221   3.574   5.038
 9955SOL    HW230765   6.147   3.573   5.184
 9956SOL     OW30766   1.300   0.212   2.481
 9956SOL    HW130767   1.352   0.222   2.566
 9956SOL    HW230768   1.304   0.117   2.450
 9957SOL     OW30769   5.193   5.470   2.569
 9957SOL    HW130770   5.269   5.515   2.617
 9957SOL    HW230771   5.111   5.476   2.625
 9958SOL     OW30772   4.000   5.531   0.836
 9958SOL    HW130773   4.029   5.616   0.881
 9958SOL    HW230774   3.918   5.549   0.782
 9959SOL     OW30775   4.141   3.701   5.255
 9959SOL    HW130776   4.131   3.702   5.156
 9959SOL    HW230777   4.170   3.792   5.286
 9960SOL     OW30778   0.229   6.889   2.352
 9960SOL    HW130779   0.176   6.862   2.272
 9960SOL    HW230780   0.299   6.955   2.325
 9961SOL     OW30781   1.249   5.438   4.724
 9961SOL    HW130782   1.332   5.489   4.744
 9961SOL    HW230783   1.271   5.341   4.712
 9962SOL     OW30784   6.485   6.997   2.770
 9962SOL    HW130785   6.577   6.971   2.801
 9962SOL    HW230786   6.423   6.921   2.785
 9963SOL     OW30787   3.121   2.859   6.570
 9963SOL    HW130788   3.055   2.929   6.546
 9963SOL    HW230789   3.102   2.825   6.662
 9964SOL     OW30790   4.901   4.849   5.684
 9964SOL    HW130791   4.872   4.887   5.772
 9964SOL    HW230792   4.950   4.919   5.633
 9965SOL     OW30793   3.724   6.590   6.295
 9965SOL    HW130794   3.686   6.566   6.206
 9965SOL    HW230795   3.665   6.554   6.367
 9966SOL     OW30796   1.762   5.536   1.617
 9966SOL    HW130797   1.756   5.493   1.708
 9966SOL    HW230798   1.812   5.622   1.624
 9967SOL     OW30799   0.601   6.550   1.936
 9967SOL    HW130800   0.517   6.540   1.989
 9967SOL    HW230801   0.596   6.634   1.882
 9968SOL     OW30802   3.788   3.943   1.267
 9968SOL    HW130803   3.771   3.968   1.362
 9968SOL    HW230804   3.850   3.864   1.264
 9969SOL     OW30805   1.897   2.545   2.423
 9969SOL    HW130806   1.946   2.629   2.399
 9969SOL    HW230807   1.840   2.517   2.347
 9970SOL     OW30808   5.156   3.877   2.662
 9970SOL    HW130809   5.058   3.878   2.646
 9970SOL    HW230810   5.188   3.970   2.680
 9971SOL     OW30811   1.923   5.134   1.562
 9971SOL    HW130812   1.882   5.180   1.483
 9971SOL    HW230813   1.863   5.061   1.594
 9972SOL     OW30814   4.951   4.797   1.583
 9972SOL    HW130815   4.935   4.796   1.485
 9972SOL    HW230816   4.864   4.781   1.631
 9973SOL     OW30817   5.371   2.156   4.104
 9973SOL    HW130818   5.450   2.114   4.059
 9973SOL    HW230819   5.378   2.255   4.099
 9974SOL     OW30820   0.526   2.751   2.597
 9974SOL    HW130821   0.479   2.833   2.630
 9974SOL    HW230822   0.609   2.737   2.652
 9975SOL     OW30823   6.137   4.345   0.008
 9975SOL    HW130824   6.097   4.382   0.092
 9975SOL    HW230825   6.221   4.295   0.031
 9976SOL     OW30826   1.141   6.446   5.565
 9976SOL    HW130827   1.079   6.395   5.625
 9976SOL    HW230828   1.095   6.465   5.479
 9977SOL     OW30829   6.887   5.106   5.422
 9977SOL    HW130830   6.880   5.079   5.326
 9977SOL    HW230831   6.981   5.091   5.454
 9978SOL     OW30832   0.294   2.519   4.477
 9978SOL    HW130833   0.245   2.492   4.560
 9978SOL    HW230834   0.232   2.567   4.415
 9979SOL     OW30835   6.031   5.111   5.333
 9979SOL    HW130836   5.972   5.171   5.386
 9979SOL    HW230837   5.994   5.101   5.240
 9980SOL     OW30838   1.925   0.787   6.280
 9980SOL    HW130839   1.930   0.883   6.254
 9980SOL    HW230840   1.836   0.750   6.253
 9981SOL     OW30841   2.648   1.457   2.997
 9981SOL    HW130842   2.627   1.361   3.016
 9981SOL    HW230843   2.715   1.463   2.923
 9982SOL     OW30844   6.474   6.322   4.484
 9982SOL    HW130845   6.384   6.285   4.458
 9982SOL    HW230846   6.481   6.417   4.454
 9983SOL     OW30847   6.801   1.898   2.535
 9983SOL    HW130848   6.706   1.922   2.515
 9983SOL    HW230849   6.844   1.862   2.452
 9984SOL     OW30850   2.122   0.743   0.137
 9984SOL    HW130851   2.203   0.723   0.082
 9984SOL    HW230852   2.049   0.778   0.078
 9985SOL     OW30853   1.125   0.996   1.112
 9985SOL    HW130854   1.120   0.996   1.012
 9985SOL    HW230855   1.037   1.025   1.150
 9986SOL     OW30856   5.493   4.512   5.925
 9986SOL    HW130857   5.562   4.548   5.862
 9986SOL    HW230858   5.537   4.485   6.011
 9987SOL     OW30859   0.408   2.873   4.283
 9987SOL    HW130860   0.451   2.945   4.230
 9987SOL    HW230861   0.424   2.889   4.380
 9988SOL     OW30862   6.821   5.666   4.155
 9988SOL    HW130863   6.901   5.723   4.136
 9988SOL    HW230864   6.772   5.703   4.235
 9989SOL     OW30865   6.819   3.587   3.985
 9989SOL    HW130866   6.836   3.666   3.926
 9989SOL    HW230867   6.895   3.523   3.979
 9990SOL     OW30868   2.260   5.343   2.516
 9990SOL    HW130869   2.334   5.283   2.543
 9990SOL    HW230870   2.288   5.398   2.437
 9991SOL     OW30871   2.105   2.265   3.710
 9991SOL    HW130872   2.116   2.233   3.804
 9991SOL    HW230873   2.047   2.347   3.710
 9992SOL     OW30874   5.689   5.593   6.794
 9992SOL    HW130875   5.720   5.499   6.777
 9992SOL    HW230876   5.669   5.604   6.892
 9993SOL     OW30877   3.128   1.164   0.719
 9993SOL    HW130878   3.187   1.163   0.638
 9993SOL    HW230879   3.123   1.072   0.758
 9994SOL     OW30880   6.404   4.481   3.270
 9994SOL    HW130881   6.329   4.423   3.302
 9994SOL    HW230882   6.458   4.430   3.204
 9995SOL     OW30883   4.441   1.015   2.682
 9995SOL    HW130884   4.511   1.082   2.704
 9995SOL    HW230885   4.413   1.025   2.586
 9996SOL     OW30886   2.999   3.295   0.869
 9996SOL    HW130887   3.034   3.203   0.851
 9996SOL    HW230888   3.012   3.352   0.788
 9997SOL     OW30889   3.312   1.688   6.170
 9997SOL    HW130890   3.312   1.746   6.088
 9997SOL    HW230891   3.405   1.655   6.186
 9998SOL     OW30892   5.678   4.760   6.222
 9998SOL    HW130893   5.668   4.845   6.169
 9998SOL    HW230894   5.617   4.691   6.185
 9999SOL     OW30895   6.267   2.958   5.775
 9999SOL    HW130896   6.264   2.987   5.871
 9999SOL    HW230897   6.310   3.029   5.720
10000SOL     OW30898   0.133   4.938   7.010
10000SOL    HW130899   0.072   4.859   7.015
10000SOL    HW230900   0.223   4.908   6.978
10001SOL     OW30901   5.237   6.747   2.140
10001SOL    HW130902   5.172   6.672   2.126
10001SOL    HW230903   5.241   6.769   2.238
10002SOL     OW30904   0.998   6.959   2.685
10002SOL    HW130905   0.971   6.959   2.589
10002SOL    HW230906   1.033   0.020   2.710
10003SOL     OW30907   3.946   1.970   3.627
10003SOL    HW130908   3.910   1.877   3.636
10003SOL    HW230909   4.045   1.969   3.636
10004SOL     OW30910   6.897   2.637   4.298
10004SOL    HW130911   6.822   2.600   4.243
10004SOL    HW230912   6.940   2.563   4.349
10005SOL     OW30913   5.512   0.359   4.553
10005SOL    HW130914   5.550   0.317   4.636
10005SOL    HW230915   5.580   0.421   4.513
10006SOL     OW30916   5.183   5.580   4.306
10006SOL    HW130917   5.182   5.547   4.212
10006SOL    HW230918   5.108   5.537   4.357
10007SOL     OW30919   6.588   4.253   5.537
10007SOL    HW130920   6.496   4.290   5.534
10007SOL    HW230921   6.587   4.159   5.501
10008SOL     OW30922   3.745   1.362   5.049
10008SOL    HW130923   3.797   1.309   5.117
10008SOL    HW230924   3.661   1.313   5.027
10009SOL     OW30925   1.867   3.842   1.866
10009SOL    HW130926   1.964   3.820   1.878
10009SOL    HW230927   1.843   3.835   1.769
10010SOL     OW30928   2.429   1.152   5.883
10010SOL    HW130929   2.362   1.088   5.920
10010SOL    HW230930   2.405   1.245   5.912
10011SOL     OW30931   6.364   0.890   5.955
10011SOL    HW130932   6.400   0.892   6.048
10011SOL    HW230933   6.436   0.863   5.892
10012SOL     OW30934   5.642   1.251   2.991
10012SOL    HW130935   5.725   1.305   3.003
10012SOL    HW230936   5.579   1.271   3.066
10013SOL     OW30937   0.021   1.249   3.422
10013SOL    HW130938   0.119   1.249   3.401
10013SOL    HW230939   7.022   1.341   3.448
10014SOL     OW30940   0.154   4.259   0.256
10014SOL    HW130941   0.152   4.168   0.298
10014SOL    HW230942   0.176   4.327   0.326
10015SOL     OW30943   2.512   5.224   0.571
10015SOL    HW130944   2.603   5.204   0.534
10015SOL    HW230945   2.443   5.194   0.505
10016SOL     OW30946   0.771   1.670   6.420
10016SOL    HW130947   0.687   1.633   6.458
10016SOL    HW230948   0.756   1.698   6.326
10017SOL     OW30949   3.242   1.881   3.366
10017SOL    HW130950   3.231   1.830   3.452
10017SOL    HW230951   3.169   1.949   3.358
10018SOL     OW30952   4.713   0.695   6.608
10018SOL    HW130953   4.638   0.753   6.639
10018SOL    HW230954   4.744   0.725   6.518
10019SOL     OW30955   0.306   1.360   2.828
10019SOL    HW130956   0.353   1.438   2.786
10019SOL    HW230957   0.291   1.289   2.759
10020SOL     OW30958   2.282   2.302   1.376
10020SOL    HW130959   2.366   2.252   1.356
10020SOL    HW230960   2.223   2.247   1.435
10021SOL     OW30961   0.302   2.769   1.321
10021SOL    HW130962   0.282   2.762   1.419
10021SOL    HW230963   0.315   2.677   1.284
10022SOL     OW30964   2.538   1.468   6.088
10022SOL    HW130965   2.447   1.482   6.049
10022SOL    HW230966   2.606   1.466   6.014
10023SOL     OW30967   0.142   4.939   0.763
10023SOL    HW130968   0.175   4.845   0.751
10023SOL    HW230969   0.060   4.939   0.821
10024SOL     OW30970   2.085   6.294   2.699
10024SOL    HW130971   2.009   6.268   2.639
10024SOL    HW230972   2.107   6.218   2.760
10025SOL     OW30973   1.495   0.590   0.786
10025SOL    HW130974   1.486   0.676   0.836
10025SOL    HW230975   1.567   0.535   0.827
10026SOL     OW30976   5.197   6.833   3.468
10026SOL    HW130977   5.279   6.777   3.475
10026SOL    HW230978   5.167   6.862   3.559
10027SOL     OW30979   6.074   3.490   4.664
10027SOL    HW130980   6.121   3.499   4.577
10027SOL    HW230981   5.977   3.507   4.652
10028SOL     OW30982   0.982   0.347   1.558
10028SOL    HW130983   1.026   0.302   1.481
10028SOL    HW230984   0.887   0.366   1.535
10029SOL     OW30985   5.158   2.504   3.936
10029SOL    HW130986   5.183   2.508   3.839
10029SOL    HW230987   5.156   2.596   3.974
10030SOL     OW30988   2.159   0.710   3.130
10030SOL    HW130989   2.226   0.648   3.090
10030SOL    HW230990   2.150   0.792   3.072
10031SOL     OW30991   5.463   4.736   4.277
10031SOL    HW130992   5.480   4.644   4.242
10031SOL    HW230993   5.481   4.803   4.205
10032SOL     OW30994   2.879   1.332   5.358
10032SOL    HW130995   2.881   1.242   5.315
10032SOL    HW230996   2.903   1.402   5.291
10033SOL     OW30997   6.961   3.526   4.549
10033SOL    HW130998   6.878   3.576   4.573
10033SOL    HW230999   7.021   3.521   4.629
10034SOL     OW31000   3.921   0.450   4.262
10034SOL    HW131001   3.954   0.526   4.318
10034SOL    HW231002   3.875   0.484   4.181
10035SOL     OW31003   6.914   5.460   1.643
10035SOL    HW131004   6.834   5.438   1.700
10035SOL    HW231005   6.973   5.524   1.692
10036SOL     OW31006   6.390   1.886   0.962
10036SOL    HW131007   6.483   1.878   0.927
10036SOL    HW231008   6.343   1.798   0.953
10037SOL     OW31009   6.993   1.544   6.741
10037SOL    HW131010   6.926   1.470   6.731
10037SOL    HW231011   7.004   1.592   6.654
10038SOL     OW31012   6.079   0.401   0.207
10038SOL    HW131013   6.147   0.470   0.186
10038SOL    HW231014   6.110   0.344   0.283
10039SOL     OW31015   3.541   0.614   3.473
10039SOL    HW131016   3.640   0.607   3.486
10039SOL    HW231017   3.494   0.580   3.555
10040SOL     OW31018   5.814   4.713   0.066
10040SOL    HW131019   5.797   4.631   0.121
10040SOL    HW231020   5.733   4.732   0.010
10041SOL     OW31021   3.217   5.934   0.246
10041SOL    HW131022   3.233   6.017   0.192
10041SOL    HW231023   3.198   5.858   0.184
10042SOL     OW31024   0.104   2.041   3.416
10042SOL    HW131025   0.063   2.074   3.331
10042SOL    HW231026   0.184   2.096   3.438
10043SOL     OW31027   6.420   1.652   5.686
10043SOL    HW131028   6.370   1.629   5.602
10043SOL    HW231029   6.411   1.576   5.751
10044SOL     OW31030   2.599   3.282   5.852
10044SOL    HW131031   2.650   3.359   5.892
10044SOL    HW231032   2.664   3.215   5.815
10045SOL     OW31033   4.195   0.893   0.769
10045SOL    HW131034   4.292   0.899   0.795
10045SOL    HW231035   4.189   0.864   0.673
10046SOL     OW31036   1.720   3.783   1.358
10046SOL    HW131037   1.675   3.863   1.318
10046SOL    HW231038   1.676   3.761   1.446
10047SOL     OW31039   0.849   3.512   6.333
10047SOL    HW131040   0.880   3.503   6.427
10047SOL    HW231041   0.915   3.565   6.281
10048SOL     OW31042   6.995   6.579   2.783
10048SOL    HW131043   6.951   6.627   2.859
10048SOL    HW231044   6.986   6.480   2.796
10049SOL     OW31045   0.360   2.265   6.318
10049SOL    HW131046   0.300   2.284   6.395
10049SOL    HW231047   0.452   2.246   6.352
10050SOL     OW31048   5.107   3.411   5.160
10050SOL    HW131049   5.079   3.405   5.256
10050SOL    HW231050   5.136   3.321   5.128
10051SOL     OW31051   0.979   4.226   5.164
10051SOL    HW131052   1.036   4.286   5.108
10051SOL    HW231053   0.892   4.209   5.117
10052SOL     OW31054   1.128   0.459   3.499
10052SOL    HW131055   1.036   0.463   3.461
10052SOL    HW231056   1.123   0.456   3.599
10053SOL     OW31057   4.860   5.464   4.196
10053SOL    HW131058   4.806   5.388   4.234
10053SOL    HW231059   4.957   5.441   4.201
10054SOL     OW31060   5.870   4.184   4.730
10054SOL    HW131061   5.782   4.228   4.712
10054SOL    HW231062   5.915   4.163   4.643
10055SOL     OW31063   6.283   2.557   6.874
10055SOL    HW131064   6.306   2.491   6.802
10055SOL    HW231065   6.318   2.525   6.962
10056SOL     OW31066   5.156   3.678   3.478
10056SOL    HW131067   5.180   3.765   3.521
10056SOL    HW231068   5.226   3.654   3.411
10057SOL     OW31069   5.912   4.005   6.216
10057SOL    HW131070   5.984   3.989   6.284
10057SOL    HW231071   5.853   3.924   6.211
10058SOL     OW31072   6.606   3.186   4.811
10058SOL    HW131073   6.695   3.199   4.853
10058SOL    HW231074   6.583   3.265   4.754
10059SOL     OW31075   6.128   1.559   0.477
10059SOL    HW131076   6.091   1.532   0.566
10059SOL    HW231077   6.196   1.491   0.447
10060SOL     OW31078   2.939   1.860   2.785
10060SOL    HW131079   2.913   1.799   2.861
10060SOL    HW231080   2.856   1.900   2.746
10061SOL     OW31081   4.295   1.327   3.784
10061SOL    HW131082   4.339   1.337   3.873
10061SOL    HW231083   4.251   1.413   3.758
10062SOL     OW31084   0.719   6.711   3.849
10062SOL    HW131085   0.650   6.764   3.900
10062SOL    HW231086   0.799   6.697   3.907
10063SOL     OW31087   1.941   2.319   4.931
10063SOL    HW131088   1.905   2.257   5.001
10063SOL    HW231089   1.866   2.375   4.895
10064SOL     OW31090   3.416   6.323   6.775
10064SOL    HW131091   3.334   6.348   6.724
10064SOL    HW231092   3.484   6.285   6.712
10065SOL     OW31093   1.194   0.490   1.627
10065SOL    HW131094   1.261   0.424   1.594
10065SOL    HW231095   1.104   0.448   1.631
10066SOL     OW31096   0.056   3.469   5.313
10066SOL    HW131097   0.133   3.526   5.286
10066SOL    HW231098   0.066   3.377   5.274
10067SOL     OW31099   0.628   2.894   6.669
10067SOL    HW131100   0.591   2.970   6.722
10067SOL    HW231101   0.727   2.904   6.661
10068SOL     OW31102   2.052   2.804   2.386
10068SOL    HW131103   1.982   2.835   2.321
10068SOL    HW231104   2.106   2.882   2.416
10069SOL     OW31105   3.580   5.099   1.756
10069SOL    HW131106   3.502   5.150   1.792
10069SOL    HW231107   3.660   5.160   1.753
10070SOL     OW31108   2.805   5.998   4.708
10070SOL    HW131109   2.869   5.922   4.706
10070SOL    HW231110   2.756   6.004   4.621
10071SOL     OW31111   0.414   6.671   3.743
10071SOL    HW131112   0.486   6.734   3.718
10071SOL    HW231113   0.437   6.579   3.712
10072SOL     OW31114   6.695   1.280   2.801
10072SOL    HW131115   6.695   1.207   2.869
10072SOL    HW231116   6.766   1.262   2.733
10073SOL     OW31117   6.180   2.903   4.170
10073SOL    HW131118   6.117   2.827   4.188
10073SOL    HW231119   6.233   2.923   4.252
10074SOL     OW31120   2.568   4.846   0.487
10074SOL    HW131121   2.512   4.764   0.500
10074SOL    HW231122   2.571   4.898   0.573
10075SOL     OW31123   1.980   1.759   2.111
10075SOL    HW131124   1.952   1.849   2.078
10075SOL    HW231125   2.038   1.715   2.042
10076SOL     OW31126   4.827   5.295   3.643
10076SOL    HW131127   4.817   5.376   3.585
10076SOL    HW231128   4.852   5.323   3.735
10077SOL     OW31129   6.243   3.500   6.502
10077SOL    HW131130   6.291   3.461   6.581
10077SOL    HW231131   6.145   3.488   6.512
10078SOL     OW31132   0.014   6.346   5.041
10078SOL    HW131133   0.055   6.399   4.965
10078SOL    HW231134   0.045   6.385   5.128
10079SOL     OW31135   5.127   3.201   3.047
10079SOL    HW131136   5.173   3.251   3.121
10079SOL    HW231137   5.196   3.161   2.986
10080SOL     OW31138   5.745   0.690   5.791
10080SOL    HW131139   5.801   0.669   5.871
10080SOL    HW231140   5.710   0.605   5.751
10081SOL     OW31141   2.061   2.161   0.326
10081SOL    HW131142   2.146   2.140   0.277
10081SOL    HW231143   1.988   2.102   0.292
10082SOL     OW31144   1.378   4.553   2.463
10082SOL    HW131145   1.466   4.599   2.469
10082SOL    HW231146   1.313   4.611   2.414
10083SOL     OW31147   3.763   5.149   3.930
10083SOL    HW131148   3.747   5.176   4.025
10083SOL    HW231149   3.715   5.063   3.912
10084SOL     OW31150   1.249   0.135   5.196
10084SOL    HW131151   1.330   0.191   5.179
10084SOL    HW231152   1.258   0.048   5.146
10085SOL     OW31153   3.965   6.398   0.346
10085SOL    HW131154   3.873   6.416   0.311
10085SOL    HW231155   3.967   6.414   0.444
10086SOL     OW31156   6.315   6.622   2.095
10086SOL    HW131157   6.413   6.604   2.081
10086SOL    HW231158   6.262   6.570   2.027
10087SOL     OW31159   1.341   6.450   4.524
10087SOL    HW131160   1.296   6.468   4.437
10087SOL    HW231161   1.439   6.468   4.514
10088SOL     OW31162   6.899   2.744   7.024
10088SOL    HW131163   6.984   2.729   0.047
10088SOL    HW231164   6.836   2.668   0.013
10089SOL     OW31165   4.328   2.107   2.323
10089SOL    HW131166   4.246   2.113   2.266
10089SOL    HW231167   4.301   2.094   2.419
10090SOL     OW31168   1.530   4.831   1.337
10090SOL    HW131169   1.620   4.869   1.355
10090SOL    HW231170   1.491   4.874   1.256
10091SOL     OW31171   6.266   4.958   5.430
10091SOL    HW131172   6.297   5.001   5.515
10091SOL    HW231173   6.172   4.987   5.410
10092SOL     OW31174   0.190   2.966   5.372
10092SOL    HW131175   0.256   2.892   5.364
10092SOL    HW231176   0.171   2.984   5.469
10093SOL     OW31177   5.832   4.158   5.738
10093SOL    HW131178   5.808   4.072   5.692
10093SOL    HW231179   5.869   4.137   5.829
10094SOL     OW31180   3.051   0.690   1.011
10094SOL    HW131181   2.995   0.649   1.083
10094SOL    HW231182   3.145   0.703   1.045
10095SOL     OW31183   5.057   2.877   5.259
10095SOL    HW131184   5.028   2.851   5.168
10095SOL    HW231185   4.982   2.865   5.324
10096SOL     OW31186   4.786   1.064   2.573
10096SOL    HW131187   4.820   1.029   2.660
10096SOL    HW231188   4.830   1.015   2.497
10097SOL     OW31189   1.028   1.787   6.425
10097SOL    HW131190   1.110   1.740   6.457
10097SOL    HW231191   0.948   1.729   6.439
10098SOL     OW31192   3.456   5.627   4.924
10098SOL    HW131193   3.374   5.594   4.877
10098SOL    HW231194   3.432   5.706   4.981
10099SOL     OW31195   0.265   4.520   2.413
10099SOL    HW131196   0.327   4.598   2.416
10099SOL    HW231197   0.308   4.445   2.362
10100SOL     OW31198   5.040   5.104   4.534
10100SOL    HW131199   4.967   5.053   4.489
10100SOL    HW231200   5.098   5.041   4.586
10101SOL     OW31201   0.983   2.384   1.781
10101SOL    HW131202   1.014   2.295   1.747
10101SOL    HW231203   0.883   2.383   1.789
10102SOL     OW31204   6.448   6.829   1.625
10102SOL    HW131205   6.402   6.759   1.571
10102SOL    HW231206   6.506   6.885   1.564
10103SOL     OW31207   6.989   6.719   5.807
10103SOL    HW131208   0.041   6.742   5.861
10103SOL    HW231209   6.914   6.781   5.831
10104SOL     OW31210   1.811   0.703   5.786
10104SOL    HW131211   1.776   0.731   5.697
10104SOL    HW231212   1.775   0.612   5.809
10105SOL     OW31213   2.307   0.894   5.336
10105SOL    HW131214   2.398   0.912   5.298
10105SOL    HW231215   2.297   0.943   5.422
10106SOL     OW31216   4.923   6.381   1.350
10106SOL    HW131217   4.952   6.317   1.278
10106SOL    HW231218   4.977   6.364   1.433
10107SOL     OW31219   5.452   4.482   6.823
10107SOL    HW131220   5.457   4.386   6.849
10107SOL    HW231221   5.447   4.490   6.724
10108SOL     OW31222   1.377   2.271   0.420
10108SOL    HW131223   1.403   2.218   0.339
10108SOL    HW231224   1.363   2.208   0.497
10109SOL     OW31225   0.823   1.742   0.443
10109SOL    HW131226   0.920   1.731   0.461
10109SOL    HW231227   0.773   1.661   0.474
10110SOL     OW31228   4.890   6.160   2.894
10110SOL    HW131229   4.906   6.204   2.805
10110SOL    HW231230   4.813   6.097   2.886
10111SOL     OW31231   1.439   1.682   2.057
10111SOL    HW131232   1.440   1.587   2.025
10111SOL    HW231233   1.346   1.717   2.054
10112SOL     OW31234   6.069   2.564   3.712
10112SOL    HW131235   6.089   2.612   3.627
10112SOL    HW231236   6.054   2.467   3.693
10113SOL     OW31237   5.550   1.224   6.702
10113SOL    HW131238   5.612   1.254   6.775
10113SOL    HW231239   5.498   1.303   6.669
10114SOL     OW31240   4.046   1.374   2.684
10114SOL    HW131241   4.054   1.347   2.779
10114SOL    HW231242   4.019   1.470   2.678
10115SOL     OW31243   3.029   2.019   5.155
10115SOL    HW131244   3.040   2.116   5.134
10115SOL    HW231245   3.105   1.967   5.117
10116SOL     OW31246   6.088   0.618   4.696
10116SOL    HW131247   6.124   0.526   4.712
10116SOL    HW231248   5.989   0.614   4.685
10117SOL     OW31249   6.591   5.394   3.958
10117SOL    HW131250   6.497   5.408   3.929
10117SOL    HW231251   6.594   5.376   4.056
10118SOL     OW31252   3.481   4.945   5.147
10118SOL    HW131253   3.455   4.957   5.051
10118SOL    HW231254   3.575   4.912   5.152
10119SOL     OW31255   0.307   5.293   4.766
10119SOL    HW131256   0.333   5.381   4.727
10119SOL    HW231257   0.320   5.221   4.697
10120SOL     OW31258   2.289   2.800   2.021
10120SOL    HW131259   2.273   2.864   2.096
10120SOL    HW231260   2.231   2.719   2.034
10121SOL     OW31261   6.449   4.152   0.569
10121SOL    HW131262   6.360   4.179   0.605
10121SOL    HW231263   6.477   4.066   0.612
10122SOL     OW31264   0.988   1.301   4.222
10122SOL    HW131265   1.010   1.236   4.149
10122SOL    HW231266   1.040   1.278   4.304
10123SOL     OW31267   6.044   5.911   0.846
10123SOL    HW131268   6.022   5.816   0.870
10123SOL    HW231269   6.028   5.925   0.748
10124SOL     OW31270   1.176   4.004   2.705
10124SOL    HW131271   1.128   3.952   2.634
10124SOL    HW231272   1.175   4.101   2.681
10125SOL     OW31273   1.381   1.745   6.381
10125SOL    HW131274   1.374   1.680   6.456
10125SOL    HW231275   1.437   1.823   6.410
10126SOL     OW31276   6.805   6.759   6.652
10126SOL    HW131277   6.826   6.807   6.567
10126SOL    HW231278   6.707   6.739   6.657
10127SOL     OW31279   2.291   5.233   6.177
10127SOL    HW131280   2.353   5.156   6.162
10127SOL    HW231281   2.345   5.314   6.203
10128SOL     OW31282   3.270   0.605   6.945
10128SOL    HW131283   3.352   0.638   6.993
10128SOL    HW231284   3.190   0.650   6.984
10129SOL     OW31285   6.055   1.271   3.940
10129SOL    HW131286   6.073   1.318   4.027
10129SOL    HW231287   5.981   1.318   3.892
10130SOL     OW31288   1.840   2.258   2.464
10130SOL    HW131289   1.821   2.310   2.548
10130SOL    HW231290   1.860   2.163   2.488
10131SOL     OW31291   1.664   0.667   4.057
10131SOL    HW131292   1.738   0.734   4.062
10131SOL    HW231293   1.630   0.662   3.963
10132SOL     OW31294   6.998   0.635   2.700
10132SOL    HW131295   6.994   0.680   2.610
10132SOL    HW231296   6.906   0.606   2.727
10133SOL     OW31297   5.097   6.515   0.558
10133SOL    HW131298   5.109   6.496   0.656
10133SOL    HW231299   5.187   6.533   0.517
10134SOL     OW31300   5.856   1.241   2.243
10134SOL    HW131301   5.906   1.202   2.166
10134SOL    HW231302   5.774   1.287   2.210
10135SOL     OW31303   5.722   6.896   2.655
10135SOL    HW131304   5.713   6.871   2.751
10135SOL    HW231305   5.665   6.976   2.636
10136SOL     OW31306   4.917   1.452   2.693
10136SOL    HW131307   4.908   1.482   2.598
10136SOL    HW231308   4.845   1.494   2.748
10137SOL     OW31309   6.703   5.551   5.689
10137SOL    HW131310   6.614   5.532   5.646
10137SOL    HW231311   6.696   5.633   5.745
10138SOL     OW31312   5.899   1.214   0.687
10138SOL    HW131313   5.905   1.178   0.594
10138SOL    HW231314   5.803   1.213   0.716
10139SOL     OW31315   3.350   3.661   5.437
10139SOL    HW131316   3.296   3.715   5.373
10139SOL    HW231317   3.446   3.667   5.413
10140SOL     OW31318   6.919   5.511   6.088
10140SOL    HW131319   6.978   5.456   6.029
10140SOL    HW231320   6.922   5.607   6.058
10141SOL     OW31321   2.637   1.643   4.461
10141SOL    HW131322   2.737   1.646   4.466
10141SOL    HW231323   2.607   1.549   4.443
10142SOL     OW31324   5.930   6.422   3.978
10142SOL    HW131325   5.907   6.518   3.993
10142SOL    HW231326   5.999   6.394   4.044
10143SOL     OW31327   5.839   2.863   6.954
10143SOL    HW131328   5.891   2.873   0.009
10143SOL    HW231329   5.890   2.807   6.889
10144SOL     OW31330   3.879   6.404   5.951
10144SOL    HW131331   3.972   6.438   5.966
10144SOL    HW231332   3.882   6.306   5.934
10145SOL     OW31333   5.167   6.026   6.870
10145SOL    HW131334   5.143   5.952   6.934
10145SOL    HW231335   5.095   6.036   6.802
10146SOL     OW31336   0.098   2.453   4.692
10146SOL    HW131337   0.045   2.433   4.610
10146SOL    HW231338   0.037   2.453   4.772
10147SOL     OW31339   4.839   5.724   6.572
10147SOL    HW131340   4.917   5.699   6.516
10147SOL    HW231341   4.796   5.807   6.535
10148SOL     OW31342   0.872   4.917   6.440
10148SOL    HW131343   0.805   4.849   6.408
10148SOL    HW231344   0.964   4.889   6.412
10149SOL     OW31345   4.644   4.174   0.622
10149SOL    HW131346   4.611   4.098   0.677
10149SOL    HW231347   4.712   4.226   0.674
10150SOL     OW31348   4.193   4.043   0.045
10150SOL    HW131349   4.291   4.062   0.056
10150SOL    HW231350   4.142   4.129   0.051
10151SOL     OW31351   6.246   6.689   5.153
10151SOL    HW131352   6.217   6.712   5.246
10151SOL    HW231353   6.321   6.623   5.157
10152SOL     OW31354   5.771   6.520   2.649
10152SOL    HW131355   5.816   6.599   2.608
10152SOL    HW231356   5.678   6.545   2.674
10153SOL     OW31357   5.422   4.224   3.508
10153SOL    HW131358   5.413   4.315   3.551
10153SOL    HW231359   5.332   4.180   3.505
10154SOL     OW31360   5.264   5.419   4.724
10154SOL    HW131361   5.340   5.456   4.779
10154SOL    HW231362   5.190   5.487   4.720
10155SOL     OW31363   4.455   2.071   5.299
10155SOL    HW131364   4.461   2.040   5.204
10155SOL    HW231365   4.531   2.134   5.317
10156SOL     OW31366   5.402   1.644   0.219
10156SOL    HW131367   5.472   1.714   0.226
10156SOL    HW231368   5.388   1.619   0.124
10157SOL     OW31369   0.184   3.173   1.409
10157SOL    HW131370   0.257   3.120   1.366
10157SOL    HW231371   0.123   3.111   1.458
10158SOL     OW31372   5.909   5.904   1.309
10158SOL    HW131373   5.834   5.927   1.247
10158SOL    HW231374   5.990   5.957   1.286
10159SOL     OW31375   3.382   3.228   2.786
10159SOL    HW131376   3.453   3.287   2.748
10159SOL    HW231377   3.422   3.138   2.806
10160SOL     OW31378   2.181   4.914   3.779
10160SOL    HW131379   2.193   4.936   3.682
10160SOL    HW231380   2.093   4.868   3.792
10161SOL     OW31381   4.595   3.874   5.840
10161SOL    HW131382   4.591   3.774   5.838
10161SOL    HW231383   4.549   3.907   5.923
10162SOL     OW31384   1.446   3.329   2.644
10162SOL    HW131385   1.523   3.393   2.635
10162SOL    HW231386   1.479   3.242   2.680
10163SOL     OW31387   1.198   6.482   5.107
10163SOL    HW131388   1.291   6.447   5.105
10163SOL    HW231389   1.158   6.465   5.197
10164SOL     OW31390   0.448   3.320   2.866
10164SOL    HW131391   0.435   3.323   2.965
10164SOL    HW231392   0.383   3.255   2.825
10165SOL     OW31393   6.729   3.382   4.231
10165SOL    HW131394   6.799   3.386   4.302
10165SOL    HW231395   6.680   3.295   4.236
10166SOL     OW31396   1.042   1.437   1.123
10166SOL    HW131397   1.099   1.362   1.089
10166SOL    HW231398   1.072   1.462   1.215
10167SOL     OW31399   1.253   0.103   6.654
10167SOL    HW131400   1.293   0.189   6.622
10167SOL    HW231401   1.321   0.054   6.710
10168SOL     OW31402   6.064   1.156   0.402
10168SOL    HW131403   6.090   1.129   0.309
10168SOL    HW231404   6.051   1.074   0.458
10169SOL     OW31405   6.298   2.560   3.877
10169SOL    HW131406   6.315   2.641   3.933
10169SOL    HW231407   6.218   2.575   3.819
10170SOL     OW31408   6.063   5.815   6.145
10170SOL    HW131409   6.106   5.753   6.211
10170SOL    HW231410   6.065   5.908   6.181
10171SOL     OW31411   1.848   3.799   5.950
10171SOL    HW131412   1.886   3.802   5.858
10171SOL    HW231413   1.836   3.892   5.985
10172SOL     OW31414   6.371   0.432   2.792
10172SOL    HW131415   6.299   0.399   2.853
10172SOL    HW231416   6.431   0.356   2.767
10173SOL     OW31417   3.255   4.670   6.030
10173SOL    HW131418   3.235   4.593   5.970
10173SOL    HW231419   3.316   4.641   6.103
10174SOL     OW31420   5.262   5.914   2.121
10174SOL    HW131421   5.191   5.844   2.114
10174SOL    HW231422   5.296   5.919   2.215
10175SOL     OW31423   0.468   1.674   4.392
10175SOL    HW131424   0.391   1.737   4.405
10175SOL    HW231425   0.529   1.679   4.470
10176SOL     OW31426   6.045   2.707   5.922
10176SOL    HW131427   6.112   2.776   5.951
10176SOL    HW231428   5.978   2.750   5.862
10177SOL     OW31429   2.552   0.743   2.467
10177SOL    HW131430   2.560   0.648   2.496
10177SOL    HW231431   2.526   0.800   2.545
10178SOL     OW31432   1.670   1.076   0.112
10178SOL    HW131433   1.684   1.160   0.059
10178SOL    HW231434   1.714   1.085   0.201
10179SOL     OW31435   0.471   4.356   1.411
10179SOL    HW131436   0.545   4.323   1.469
10179SOL    HW231437   0.503   4.359   1.316
10180SOL     OW31438   3.845   6.748   5.697
10180SOL    HW131439   3.789   6.831   5.693
10180SOL    HW231440   3.796   6.677   5.747
10181SOL     OW31441   6.832   3.372   1.984
10181SOL    HW131442   6.911   3.319   1.954
10181SOL    HW231443   6.862   3.463   2.013
10182SOL     OW31444   5.048   1.778   6.753
10182SOL    HW131445   5.129   1.822   6.792
10182SOL    HW231446   5.015   1.832   6.675
10183SOL     OW31447   6.233   2.723   6.517
10183SOL    HW131448   6.179   2.795   6.562
10183SOL    HW231449   6.184   2.636   6.524
10184SOL     OW31450   5.321   3.266   5.772
10184SOL    HW131451   5.356   3.235   5.684
10184SOL    HW231452   5.396   3.299   5.829
10185SOL     OW31453   4.348   5.439   2.514
10185SOL    HW131454   4.404   5.363   2.547
10185SOL    HW231455   4.257   5.404   2.488
10186SOL     OW31456   4.224   3.374   5.686
10186SOL    HW131457   4.262   3.420   5.606
10186SOL    HW231458   4.222   3.436   5.764
10187SOL     OW31459   2.139   5.241   5.940
10187SOL    HW131460   2.066   5.308   5.956
10187SOL    HW231461   2.195   5.233   6.023
10188SOL     OW31462   3.172   0.164   6.949
10188SOL    HW131463   3.235   0.241   6.935
10188SOL    HW231464   3.208   0.104   7.020
10189SOL     OW31465   0.917   2.130   6.184
10189SOL    HW131466   0.925   2.207   6.120
10189SOL    HW231467   0.821   2.106   6.197
10190SOL     OW31468   3.152   5.199   1.742
10190SOL    HW131469   3.091   5.259   1.690
10190SOL    HW231470   3.168   5.115   1.691
10191SOL     OW31471   5.588   5.698   0.173
10191SOL    HW131472   5.559   5.626   0.110
10191SOL    HW231473   5.548   5.785   0.145
10192SOL     OW31474   2.071   2.021   5.038
10192SOL    HW131475   1.978   2.049   5.066
10192SOL    HW231476   2.071   1.924   5.016
10193SOL     OW31477   3.956   3.903   3.204
10193SOL    HW131478   3.900   3.903   3.287
10193SOL    HW231479   4.019   3.825   3.207
10194SOL     OW31480   3.382   0.433   4.004
10194SOL    HW131481   3.473   0.409   4.036
10194SOL    HW231482   3.359   0.525   4.036
10195SOL     OW31483   4.621   6.901   2.181
10195SOL    HW131484   4.607   6.834   2.254
10195SOL    HW231485   4.590   6.863   2.094
10196SOL     OW31486   5.737   1.675   2.951
10196SOL    HW131487   5.684   1.706   2.872
10196SOL    HW231488   5.772   1.754   3.001
10197SOL     OW31489   6.078   0.874   2.332
10197SOL    HW131490   6.162   0.865   2.386
10197SOL    HW231491   5.999   0.866   2.392
10198SOL     OW31492   2.894   0.012   1.511
10198SOL    HW131493   2.912   7.005   1.419
10198SOL    HW231494   2.796   0.016   1.526
10199SOL     OW31495   0.558   1.472   6.893
10199SOL    HW131496   0.495   1.548   6.909
10199SOL    HW231497   0.607   1.450   6.977
10200SOL     OW31498   5.115   4.461   5.498
10200SOL    HW131499   5.041   4.465   5.565
10200SOL    HW231500   5.180   4.390   5.524
10201SOL     OW31501   0.899   5.434   2.136
10201SOL    HW131502   0.810   5.466   2.168
10201SOL    HW231503   0.954   5.405   2.215
10202SOL     OW31504   1.001   3.236   1.929
10202SOL    HW131505   0.928   3.168   1.931
10202SOL    HW231506   1.039   3.242   1.837
10203SOL     OW31507   1.863   2.944   2.245
10203SOL    HW131508   1.813   3.020   2.203
10203SOL    HW231509   1.798   2.878   2.282
10204SOL     OW31510   3.096   4.834   5.122
10204SOL    HW131511   3.040   4.751   5.125
10204SOL    HW231512   3.103   4.866   5.027
10205SOL     OW31513   5.322   2.133   3.186
10205SOL    HW131514   5.347   2.174   3.098
10205SOL    HW231515   5.393   2.154   3.253
10206SOL     OW31516   5.312   6.556   5.896
10206SOL    HW131517   5.397   6.517   5.933
10206SOL    HW231518   5.319   6.561   5.796
10207SOL     OW31519   3.563   1.063   3.153
10207SOL    HW131520   3.526   1.126   3.085
10207SOL    HW231521   3.512   1.072   3.238
10208SOL     OW31522   5.929   4.520   5.976
10208SOL    HW131523   5.903   4.428   5.947
10208SOL    HW231524   6.025   4.536   5.954
10209SOL     OW31525   6.535   6.737   6.623
10209SOL    HW131526   6.501   6.829   6.600
10209SOL    HW231527   6.506   6.714   6.716
10210SOL     OW31528   5.872   6.201   2.436
10210SOL    HW131529   5.932   6.134   2.392
10210SOL    HW231530   5.893   6.292   2.402
10211SOL     OW31531   3.807   6.134   5.272
10211SOL    HW131532   3.880   6.174   5.328
10211SOL    HW231533   3.820   6.158   5.176
10212SOL     OW31534   0.417   0.942   3.749
10212SOL    HW131535   0.358   0.870   3.713
10212SOL    HW231536   0.479   0.975   3.678
10213SOL     OW31537   6.077   1.841   3.634
10213SOL    HW131538   6.048   1.912   3.698
10213SOL    HW231539   6.005   1.773   3.624
10214SOL     OW31540   6.431   1.368   2.026
10214SOL    HW131541   6.403   1.346   2.120
10214SOL    HW231542   6.530   1.355   2.017
10215SOL     OW31543   3.670   3.569   6.942
10215SOL    HW131544   3.754   3.621   6.957
10215SOL    HW231545   3.611   3.618   6.877
10216SOL     OW31546   5.600   0.293   1.323
10216SOL    HW131547   5.612   0.355   1.400
10216SOL    HW231548   5.644   0.331   1.241
10217SOL     OW31549   2.606   2.090   4.292
10217SOL    HW131550   2.669   2.015   4.272
10217SOL    HW231551   2.520   2.053   4.326
10218SOL     OW31552   1.837   0.707   0.915
10218SOL    HW131553   1.926   0.664   0.898
10218SOL    HW231554   1.812   0.763   0.836
10219SOL     OW31555   0.919   2.763   1.560
10219SOL    HW131556   0.919   2.675   1.512
10219SOL    HW231557   0.904   2.748   1.658
10220SOL     OW31558   4.281   1.916   1.191
10220SOL    HW131559   4.356   1.860   1.157
10220SOL    HW231560   4.221   1.860   1.248
10221SOL     OW31561   2.753   0.249   5.353
10221SOL    HW131562   2.794   0.317   5.292
10221SOL    HW231563   2.724   0.169   5.300
10222SOL     OW31564   1.375   4.340   5.250
10222SOL    HW131565   1.387   4.438   5.266
10222SOL    HW231566   1.297   4.325   5.189
10223SOL     OW31567   1.569   4.361   6.961
10223SOL    HW131568   1.640   4.401   6.902
10223SOL    HW231569   1.602   4.273   6.997
10224SOL     OW31570   1.124   6.887   4.328
10224SOL    HW131571   1.210   6.842   4.306
10224SOL    HW231572   1.053   6.856   4.266
10225SOL     OW31573   6.667   6.354   4.984
10225SOL    HW131574   6.699   6.259   4.988
10225SOL    HW231575   6.713   6.400   4.908
10226SOL     OW31576   2.370   0.781   6.823
10226SOL    HW131577   2.336   0.857   6.767
10226SOL    HW231578   2.321   0.698   6.799
10227SOL     OW31579   4.726   4.450   0.204
10227SOL    HW131580   4.730   4.363   0.252
10227SOL    HW231581   4.795   4.452   0.132
10228SOL     OW31582   1.563   5.539   3.447
10228SOL    HW131583   1.603   5.611   3.504
10228SOL    HW231584   1.467   5.527   3.473
10229SOL     OW31585   1.077   0.117   3.510
10229SOL    HW131586   1.051   0.060   3.588
10229SOL    HW231587   0.996   0.161   3.473
10230SOL     OW31588   6.184   0.196   3.743
10230SOL    HW131589   6.122   0.274   3.747
10230SOL    HW231590   6.154   0.133   3.671
10231SOL     OW31591   5.548   6.739   4.910
10231SOL    HW131592   5.500   6.826   4.919
10231SOL    HW231593   5.482   6.666   4.891
10232SOL     OW31594   3.913   1.501   4.760
10232SOL    HW131595   3.884   1.596   4.756
10232SOL    HW231596   3.833   1.442   4.771
10233SOL     OW31597   4.539   3.081   5.957
10233SOL    HW131598   4.572   3.157   6.014
10233SOL    HW231599   4.443   3.097   5.933
10234SOL     OW31600   5.385   6.993   0.806
10234SOL    HW131601   5.355   0.003   0.892
10234SOL    HW231602   5.481   7.015   0.790
10235SOL     OW31603   4.618   1.855   6.839
10235SOL    HW131604   4.690   1.925   6.837
10235SOL    HW231605   4.534   1.893   6.800
10236SOL     OW31606   2.124   5.973   1.859
10236SOL    HW131607   2.070   5.959   1.941
10236SOL    HW231608   2.098   6.060   1.816
10237SOL     OW31609   6.148   4.000   2.533
10237SOL    HW131610   6.209   4.029   2.460
10237SOL    HW231611   6.063   4.053   2.529
10238SOL     OW31612   4.168   4.610   5.580
10238SOL    HW131613   4.131   4.613   5.487
10238SOL    HW231614   4.133   4.529   5.626
10239SOL     OW31615   0.222   3.998   4.995
10239SOL    HW131616   0.290   3.925   4.986
10239SOL    HW231617   0.136   3.968   4.953
10240SOL     OW31618   1.207   4.121   3.149
10240SOL    HW131619   1.226   4.181   3.227
10240SOL    HW231620   1.239   4.028   3.171
10241SOL     OW31621   0.911   1.517   2.563
10241SOL    HW131622   1.007   1.544   2.557
10241SOL    HW231623   0.905   1.421   2.591
10242SOL     OW31624   6.763   1.107   6.203
10242SOL    HW131625   6.681   1.093   6.148
10242SOL    HW231626   6.783   1.205   6.208
10243SOL     OW31627   0.797   5.425   1.524
10243SOL    HW131628   0.890   5.457   1.505
10243SOL    HW231629   0.773   5.351   1.462
10244SOL     OW31630   2.648   5.076   0.341
10244SOL    HW131631   2.661   5.058   0.244
10244SOL    HW231632   2.618   4.993   0.387
10245SOL     OW31633   1.440   3.304   0.084
10245SOL    HW131634   1.448   3.345   0.175
10245SOL    HW231635   1.364   3.240   0.084
10246SOL     OW31636   3.022   3.764   4.516
10246SOL    HW131637   3.024   3.760   4.616
10246SOL    HW231638   3.057   3.852   4.485
10247SOL     OW31639   6.808   5.233   6.101
10247SOL    HW131640   6.841   5.321   6.135
10247SOL    HW231641   6.753   5.248   6.019
10248SOL     OW31642   2.581   0.457   1.964
10248SOL    HW131643   2.570   0.358   1.951
10248SOL    HW231644   2.665   0.488   1.919
10249SOL     OW31645   4.723   0.950   5.688
10249SOL    HW131646   4.674   0.944   5.775
10249SOL    HW231647   4.706   0.866   5.635
10250SOL     OW31648   5.901   1.118   1.387
10250SOL    HW131649   5.897   1.147   1.291
10250SOL    HW231650   5.907   1.019   1.392
10251SOL     OW31651   2.725   2.719   6.715
10251SOL    HW131652   2.825   2.708   6.718
10251SOL    HW231653   2.686   2.645   6.660
10252SOL     OW31654   6.495   6.374   0.904
10252SOL    HW131655   6.585   6.359   0.862
10252SOL    HW231656   6.459   6.286   0.937
10253SOL     OW31657   5.166   4.423   0.142
10253SOL    HW131658   5.104   4.439   0.219
10253SOL    HW231659   5.113   4.414   0.058
10254SOL     OW31660   2.672   1.374   5.024
10254SOL    HW131661   2.665   1.463   4.980
10254SOL    HW231662   2.661   1.385   5.123
10255SOL     OW31663   2.089   5.524   2.017
10255SOL    HW131664   2.186   5.529   1.993
10255SOL    HW231665   2.044   5.610   1.994
10256SOL     OW31666   4.747   0.232   0.154
10256SOL    HW131667   4.844   0.256   0.153
10256SOL    HW231668   4.737   0.134   0.167
10257SOL     OW31669   1.431   5.177   6.209
10257SOL    HW131670   1.487   5.231   6.146
10257SOL    HW231671   1.335   5.202   6.200
10258SOL     OW31672   4.447   6.411   3.377
10258SOL    HW131673   4.447   6.478   3.303
10258SOL    HW231674   4.370   6.348   3.364
10259SOL     OW31675   0.261   4.447   4.315
10259SOL    HW131676   0.281   4.537   4.355
10259SOL    HW231677   0.346   4.396   4.302
10260SOL     OW31678   0.679   6.442   2.392
10260SOL    HW131679   0.768   6.473   2.359
10260SOL    HW231680   0.607   6.503   2.358
10261SOL     OW31681   0.238   5.205   1.843
10261SOL    HW131682   0.218   5.221   1.746
10261SOL    HW231683   0.314   5.263   1.872
10262SOL     OW31684   3.097   4.817   4.087
10262SOL    HW131685   3.181   4.797   4.138
10262SOL    HW231686   3.018   4.802   4.146
10263SOL     OW31687   5.253   1.732   6.253
10263SOL    HW131688   5.212   1.717   6.343
10263SOL    HW231689   5.351   1.714   6.258
10264SOL     OW31690   6.111   1.098   6.423
10264SOL    HW131691   6.155   1.138   6.343
10264SOL    HW231692   6.030   1.151   6.447
10265SOL     OW31693   3.740   1.522   3.008
10265SOL    HW131694   3.829   1.478   3.023
10265SOL    HW231695   3.740   1.613   3.051
10266SOL     OW31696   3.332   3.486   6.425
10266SOL    HW131697   3.336   3.505   6.327
10266SOL    HW231698   3.307   3.390   6.439
10267SOL     OW31699   0.111   1.644   6.967
10267SOL    HW131700   0.050   1.612   0.010
10267SOL    HW231701   0.076   1.613   6.878
10268SOL     OW31702   5.588   5.512   1.589
10268SOL    HW131703   5.549   5.548   1.505
10268SOL    HW231704   5.620   5.418   1.574
10269SOL     OW31705   1.847   2.516   6.162
10269SOL    HW131706   1.812   2.578   6.092
10269SOL    HW231707   1.935   2.479   6.133
10270SOL     OW31708   1.900   6.102   0.285
10270SOL    HW131709   1.911   6.075   0.381
10270SOL    HW231710   1.986   6.085   0.236
10271SOL     OW31711   3.753   3.629   1.448
10271SOL    HW131712   3.704   3.584   1.523
10271SOL    HW231713   3.709   3.606   1.361
10272SOL     OW31714   0.444   0.836   4.589
10272SOL    HW131715   0.454   0.782   4.506
10272SOL    HW231716   0.507   0.914   4.586
10273SOL     OW31717   3.609   5.667   4.432
10273SOL    HW131718   3.647   5.707   4.515
10273SOL    HW231719   3.509   5.676   4.433
10274SOL     OW31720   1.049   5.358   5.823
10274SOL    HW131721   1.061   5.408   5.909
10274SOL    HW231722   0.966   5.390   5.777
10275SOL     OW31723   0.931   6.339   2.658
10275SOL    HW131724   0.908   6.381   2.746
10275SOL    HW231725   0.962   6.409   2.594
10276SOL     OW31726   6.988   5.381   5.452
10276SOL    HW131727   6.935   5.296   5.449
10276SOL    HW231728   6.969   5.434   5.369
10277SOL     OW31729   3.179   6.313   3.938
10277SOL    HW131730   3.082   6.318   3.961
10277SOL    HW231731   3.202   6.383   3.871
10278SOL     OW31732   6.239   0.315   6.870
10278SOL    HW131733   6.147   0.350   6.889
10278SOL    HW231734   6.241   0.217   6.889
10279SOL     OW31735   2.972   0.426   4.544
10279SOL    HW131736   2.998   0.522   4.543
10279SOL    HW231737   2.985   0.387   4.452
10280SOL     OW31738   1.679   4.406   0.846
10280SOL    HW131739   1.600   4.450   0.890
10280SOL    HW231740   1.653   4.313   0.818
10281SOL     OW31741   4.529   1.447   2.160
10281SOL    HW131742   4.429   1.450   2.154
10281SOL    HW231743   4.558   1.355   2.186
10282SOL     OW31744   0.775   2.182   4.069
10282SOL    HW131745   0.827   2.133   4.139
10282SOL    HW231746   0.839   2.228   4.006
10283SOL     OW31747   0.913   3.065   0.940
10283SOL    HW131748   0.820   3.067   0.905
10283SOL    HW231749   0.973   3.019   0.874
10284SOL     OW31750   5.461   3.568   5.034
10284SOL    HW131751   5.459   3.470   5.053
10284SOL    HW231752   5.540   3.590   4.977
10285SOL     OW31753   4.758   0.664   1.072
10285SOL    HW131754   4.743   0.566   1.055
10285SOL    HW231755   4.841   0.676   1.127
10286SOL     OW31756   4.027   0.696   3.122
10286SOL    HW131757   4.041   0.773   3.061
10286SOL    HW231758   4.084   0.708   3.204
10287SOL     OW31759   1.522   6.771   1.423
10287SOL    HW131760   1.538   6.797   1.328
10287SOL    HW231761   1.491   6.675   1.426
10288SOL     OW31762   5.428   5.761   2.968
10288SOL    HW131763   5.477   5.848   2.955
10288SOL    HW231764   5.425   5.739   3.066
10289SOL     OW31765   2.871   1.183   1.778
10289SOL    HW131766   2.877   1.228   1.867
10289SOL    HW231767   2.779   1.197   1.740
10290SOL     OW31768   3.978   3.705   2.391
10290SOL    HW131769   4.027   3.731   2.308
10290SOL    HW231770   3.911   3.634   2.370
10291SOL     OW31771   3.767   0.530   4.058
10291SOL    HW131772   3.746   0.588   3.978
10291SOL    HW231773   3.698   0.546   4.129
10292SOL     OW31774   6.981   2.516   4.934
10292SOL    HW131775   6.971   2.514   5.033
10292SOL    HW231776   0.005   2.596   4.907
10293SOL     OW31777   1.972   5.974   3.040
10293SOL    HW131778   1.996   5.911   3.114
10293SOL    HW231779   1.903   6.039   3.072
10294SOL     OW31780   4.817   1.997   2.408
10294SOL    HW131781   4.770   2.085   2.407
10294SOL    HW231782   4.764   1.932   2.462
10295SOL     OW31783   0.163   4.701   5.504
10295SOL    HW131784   0.145   4.799   5.492
10295SOL    HW231785   0.094   4.661   5.565
10296SOL     OW31786   6.244   3.932   6.288
10296SOL    HW131787   6.302   3.890   6.218
10296SOL    HW231788   6.265   3.891   6.377
10297SOL     OW31789   1.527   6.166   3.781
10297SOL    HW131790   1.580   6.249   3.762
10297SOL    HW231791   1.440   6.192   3.824
10298SOL     OW31792   4.835   3.977   4.072
10298SOL    HW131793   4.850   3.993   4.170
10298SOL    HW231794   4.896   3.904   4.041
10299SOL     OW31795   4.392   4.581   3.402
10299SOL    HW131796   4.437   4.522   3.469
10299SOL    HW231797   4.412   4.548   3.309
10300SOL     OW31798   0.809   3.544   1.565
10300SOL    HW131799   0.843   3.450   1.562
10300SOL    HW231800   0.709   3.543   1.570
10301SOL     OW31801   5.878   1.788   3.248
10301SOL    HW131802   5.932   1.850   3.192
10301SOL    HW231803   5.935   1.712   3.279
10302SOL     OW31804   1.429   6.193   2.684
10302SOL    HW131805   1.372   6.250   2.743
10302SOL    HW231806   1.441   6.103   2.725
10303SOL     OW31807   3.666   3.342   1.229
10303SOL    HW131808   3.664   3.334   1.329
10303SOL    HW231809   3.631   3.257   1.189
10304SOL     OW31810   6.713   6.954   3.604
10304SOL    HW131811   6.781   7.023   3.632
10304SOL    HW231812   6.748   6.903   3.526
10305SOL     OW31813   2.014   5.939   0.027
10305SOL    HW131814   1.963   5.911   6.975
10305SOL    HW231815   2.032   5.858   0.084
10306SOL     OW31816   4.652   5.927   0.603
10306SOL    HW131817   4.631   5.911   0.699
10306SOL    HW231818   4.684   5.841   0.561
10307SOL     OW31819   1.298   1.176   6.330
10307SOL    HW131820   1.267   1.263   6.293
10307SOL    HW231821   1.394   1.183   6.357
10308SOL     OW31822   3.158   5.305   3.800
10308SOL    HW131823   3.122   5.395   3.776
10308SOL    HW231824   3.141   5.241   3.725
10309SOL     OW31825   5.953   6.499   3.230
10309SOL    HW131826   5.942   6.553   3.146
10309SOL    HW231827   6.032   6.531   3.281
10310SOL     OW31828   2.974   3.624   2.663
10310SOL    HW131829   2.929   3.593   2.747
10310SOL    HW231830   2.962   3.555   2.592
10311SOL     OW31831   0.456   5.608   0.698
10311SOL    HW131832   0.478   5.522   0.652
10311SOL    HW231833   0.398   5.664   0.639
10312SOL     OW31834   3.412   4.764   0.931
10312SOL    HW131835   3.348   4.836   0.904
10312SOL    HW231836   3.497   4.805   0.965
10313SOL     OW31837   4.664   0.141   2.541
10313SOL    HW131838   4.620   0.203   2.606
10313SOL    HW231839   4.734   0.191   2.490
10314SOL     OW31840   6.521   0.048   0.702
10314SOL    HW131841   6.449   0.068   0.636
10314SOL    HW231842   6.489   0.068   0.795
10315SOL     OW31843   6.341   5.551   5.100
10315SOL    HW131844   6.377   5.541   5.007
10315SOL    HW231845   6.248   5.586   5.096
10316SOL     OW31846   0.752   3.627   4.907
10316SOL    HW131847   0.830   3.565   4.901
10316SOL    HW231848   0.667   3.575   4.902
10317SOL     OW31849   4.456   5.017   6.144
10317SOL    HW131850   4.384   4.951   6.124
10317SOL    HW231851   4.489   5.003   6.237
10318SOL     OW31852   6.335   5.163   1.645
10318SOL    HW131853   6.407   5.139   1.579
10318SOL    HW231854   6.332   5.094   1.717
10319SOL     OW31855   7.008   5.303   3.330
10319SOL    HW131856   0.045   5.331   3.261
10319SOL    HW231857   6.917   5.297   3.288
10320SOL     OW31858   0.313   6.212   0.758
10320SOL    HW131859   0.310   6.120   0.796
10320SOL    HW231860   0.298   6.208   0.659
10321SOL     OW31861   4.463   5.582   4.658
10321SOL    HW131862   4.463   5.627   4.569
10321SOL    HW231863   4.370   5.556   4.683
10322SOL     OW31864   6.881   4.846   0.790
10322SOL    HW131865   6.831   4.792   0.721
10322SOL    HW231866   6.835   4.836   0.879
10323SOL     OW31867   5.497   3.316   6.134
10323SOL    HW131868   5.424   3.264   6.090
10323SOL    HW231869   5.543   3.258   6.201
10324SOL     OW31870   3.254   4.082   3.695
10324SOL    HW131871   3.170   4.105   3.645
10324SOL    HW231872   3.333   4.095   3.636
10325SOL     OW31873   0.431   3.377   3.115
10325SOL    HW131874   0.331   3.377   3.120
10325SOL    HW231875   0.469   3.372   3.207
10326SOL     OW31876   5.107   2.464   0.020
10326SOL    HW131877   5.028   2.493   0.074
10326SOL    HW231878   5.126   2.368   0.036
10327SOL     OW31879   0.555   0.895   2.996
10327SOL    HW131880   0.602   0.900   2.908
10327SOL    HW231881   0.462   0.862   2.983
10328SOL     OW31882   6.187   3.726   2.674
10328SOL    HW131883   6.179   3.825   2.659
10328SOL    HW231884   6.112   3.695   2.732
10329SOL     OW31885   3.225   0.102   2.719
10329SOL    HW131886   3.212   0.075   2.624
10329SOL    HW231887   3.141   0.085   2.770
10330SOL     OW31888   3.813   5.261   2.299
10330SOL    HW131889   3.902   5.268   2.254
10330SOL    HW231890   3.744   5.307   2.243
10331SOL     OW31891   5.207   0.927   3.870
10331SOL    HW131892   5.145   0.860   3.911
10331SOL    HW231893   5.161   1.016   3.866
10332SOL     OW31894   0.118   1.875   0.116
10332SOL    HW131895   0.136   1.810   0.043
10332SOL    HW231896   0.143   1.835   0.204
10333SOL     OW31897   6.120   5.358   4.345
10333SOL    HW131898   6.164   5.441   4.379
10333SOL    HW231899   6.043   5.382   4.287
10334SOL     OW31900   2.243   4.621   4.055
10334SOL    HW131901   2.182   4.697   4.077
10334SOL    HW231902   2.265   4.571   4.139
10335SOL     OW31903   2.442   5.132   1.059
10335SOL    HW131904   2.459   5.045   1.107
10335SOL    HW231905   2.522   5.153   1.002
10336SOL     OW31906   4.387   6.920   2.371
10336SOL    HW131907   4.346   6.990   2.312
10336SOL    HW231908   4.445   6.964   2.439
10337SOL     OW31909   0.130   5.243   4.985
10337SOL    HW131910   0.085   5.163   4.947
10337SOL    HW231911   0.209   5.267   4.928
10338SOL     OW31912   2.586   6.868   2.566
10338SOL    HW131913   2.629   6.958   2.567
10338SOL    HW231914   2.654   6.798   2.548
10339SOL     OW31915   2.427   6.256   1.448
10339SOL    HW131916   2.377   6.323   1.504
10339SOL    HW231917   2.396   6.263   1.354
10340SOL     OW31918   2.647   5.810   0.304
10340SOL    HW131919   2.570   5.856   0.261
10340SOL    HW231920   2.732   5.855   0.276
10341SOL     OW31921   2.402   1.580   2.326
10341SOL    HW131922   2.347   1.664   2.323
10341SOL    HW231923   2.473   1.584   2.255
10342SOL     OW31924   2.123   0.681   5.545
10342SOL    HW131925   2.220   0.701   5.535
10342SOL    HW231926   2.081   0.748   5.606
10343SOL     OW31927   2.539   3.883   6.170
10343SOL    HW131928   2.590   3.808   6.127
10343SOL    HW231929   2.554   3.881   6.268
10344SOL     OW31930   4.152   3.715   4.982
10344SOL    HW131931   4.231   3.762   4.944
10344SOL    HW231932   4.102   3.668   4.909
10345SOL     OW31933   1.992   1.484   6.769
10345SOL    HW131934   1.934   1.521   6.842
10345SOL    HW231935   2.025   1.558   6.711
10346SOL     OW31936   5.094   0.128   0.003
10346SOL    HW131937   5.180   0.120   6.981
10346SOL    HW231938   5.098   0.209   0.061
10347SOL     OW31939   5.180   1.846   1.621
10347SOL    HW131940   5.087   1.832   1.588
10347SOL    HW231941   5.230   1.905   1.558
10348SOL     OW31942   6.140   0.846   6.255
10348SOL    HW131943   6.234   0.812   6.261
10348SOL    HW231944   6.134   0.934   6.301
10349SOL     OW31945   6.383   1.588   1.536
10349SOL    HW131946   6.474   1.554   1.557
10349SOL    HW231947   6.356   1.657   1.604
10350SOL     OW31948   2.679   5.612   4.256
10350SOL    HW131949   2.724   5.524   4.269
10350SOL    HW231950   2.747   5.681   4.233
10351SOL     OW31951   5.546   5.238   5.292
10351SOL    HW131952   5.614   5.308   5.268
10351SOL    HW231953   5.558   5.212   5.387
10352SOL     OW31954   5.767   2.008   0.019
10352SOL    HW131955   5.827   2.087   0.036
10352SOL    HW231956   5.803   1.955   6.971
10353SOL     OW31957   0.254   2.727   3.106
10353SOL    HW131958   0.352   2.714   3.123
10353SOL    HW231959   0.239   2.819   3.071
10354SOL     OW31960   0.090   3.750   0.281
10354SOL    HW131961   0.002   3.705   0.298
10354SOL    HW231962   0.161   3.680   0.268
10355SOL     OW31963   1.428   0.247   0.396
10355SOL    HW131964   1.410   0.173   0.462
10355SOL    HW231965   1.387   0.332   0.429
10356SOL     OW31966   0.059   4.019   6.906
10356SOL    HW131967   0.101   4.110   6.901
10356SOL    HW231968   7.003   4.025   6.959
10357SOL     OW31969   1.110   2.946   6.135
10357SOL    HW131970   1.041   3.016   6.153
10357SOL    HW231971   1.130   2.943   6.037
10358SOL     OW31972   0.790   2.462   2.875
10358SOL    HW131973   0.881   2.421   2.879
10358SOL    HW231974   0.735   2.431   2.953
10359SOL     OW31975   5.355   2.258   2.520
10359SOL    HW131976   5.300   2.235   2.600
10359SOL    HW231977   5.346   2.184   2.452
10360SOL     OW31978   5.997   4.994   2.584
10360SOL    HW131979   5.958   5.068   2.639
10360SOL    HW231980   5.926   4.958   2.523
10361SOL     OW31981   0.324   1.433   1.559
10361SOL    HW131982   0.342   1.461   1.653
10361SOL    HW231983   0.382   1.354   1.537
10362SOL     OW31984   1.411   4.942   2.783
10362SOL    HW131985   1.477   5.005   2.824
10362SOL    HW231986   1.411   4.953   2.683
10363SOL     OW31987   5.047   3.724   0.696
10363SOL    HW131988   4.989   3.800   0.725
10363SOL    HW231989   5.127   3.719   0.757
10364SOL     OW31990   5.398   4.650   2.069
10364SOL    HW131991   5.492   4.685   2.065
10364SOL    HW231992   5.341   4.702   2.006
10365SOL     OW31993   6.006   5.514   0.361
10365SOL    HW131994   6.060   5.452   0.304
10365SOL    HW231995   5.920   5.537   0.314
10366SOL     OW31996   3.420   6.201   2.949
10366SOL    HW131997   3.417   6.270   3.022
10366SOL    HW231998   3.416   6.110   2.990
10367SOL     OW31999   5.985   1.959   0.709
10367SOL    HW132000   5.934   2.045   0.705
10367SOL    HW232001   6.083   1.977   0.701
10368SOL     OW32002   2.173   0.521   2.257
10368SOL    HW132003   2.246   0.529   2.189
10368SOL    HW232004   2.123   0.436   2.242
10369SOL     OW32005   2.978   6.587   5.238
10369SOL    HW132006   3.045   6.513   5.231
10369SOL    HW232007   2.947   6.596   5.333
10370SOL     OW32008   0.253   1.834   4.428
10370SOL    HW132009   0.222   1.744   4.459
10370SOL    HW232010   0.175   1.884   4.389
10371SOL     OW32011   3.388   5.790   3.246
10371SOL    HW132012   3.298   5.753   3.267
10371SOL    HW232013   3.458   5.720   3.263
10372SOL     OW32014   2.607   0.026   1.560
10372SOL    HW132015   2.562   0.115   1.556
10372SOL    HW232016   2.567   7.002   1.635
10373SOL     OW32017   6.958   1.686   5.814
10373SOL    HW132018   6.945   1.783   5.792
10373SOL    HW232019   6.891   1.631   5.764
10374SOL     OW32020   3.359   7.023   4.503
10374SOL    HW132021   3.398   6.937   4.538
10374SOL    HW232022   3.330   0.050   4.581
10375SOL     OW32023   4.121   2.759   0.070
10375SOL    HW132024   4.191   2.726   0.133
10375SOL    HW232025   4.032   2.762   0.117
10376SOL     OW32026   1.794   5.979   2.644
10376SOL    HW132027   1.716   5.971   2.705
10376SOL    HW232028   1.873   5.930   2.683
10377SOL     OW32029   0.266   1.600   2.164
10377SOL    HW132030   0.333   1.657   2.116
10377SOL    HW232031   0.288   1.504   2.150
10378SOL     OW32032   6.738   4.605   5.361
10378SOL    HW132033   6.670   4.634   5.429
10378SOL    HW232034   6.794   4.531   5.400
10379SOL     OW32035   2.357   6.878   3.945
10379SOL    HW132036   2.298   6.942   3.994
10379SOL    HW232037   2.439   6.859   3.999
10380SOL     OW32038   1.533   2.732   4.804
10380SOL    HW132039   1.531   2.805   4.872
10380SOL    HW232040   1.445   2.685   4.803
10381SOL     OW32041   4.471   4.458   1.416
10381SOL    HW132042   4.474   4.462   1.515
10381SOL    HW232043   4.397   4.397   1.386
10382SOL     OW32044   3.334   4.746   1.758
10382SOL    HW132045   3.397   4.669   1.767
10382SOL    HW232046   3.247   4.723   1.802
10383SOL     OW32047   2.262   4.630   0.122
10383SOL    HW132048   2.314   4.558   0.168
10383SOL    HW232049   2.220   4.592   0.040
10384SOL     OW32050   5.895   6.239   0.990
10384SOL    HW132051   5.984   6.281   0.974
10384SOL    HW232052   5.829   6.276   0.925
10385SOL     OW32053   3.530   4.893   6.160
10385SOL    HW132054   3.490   4.809   6.195
10385SOL    HW232055   3.586   4.936   6.232
10386SOL     OW32056   6.909   0.789   6.454
10386SOL    HW132057   6.892   0.888   6.462
10386SOL    HW232058   6.962   0.758   6.532
10387SOL     OW32059   4.895   3.178   2.648
10387SOL    HW132060   4.971   3.232   2.683
10387SOL    HW232061   4.851   3.227   2.573
10388SOL     OW32062   2.826   0.221   5.753
10388SOL    HW132063   2.820   0.217   5.853
10388SOL    HW232064   2.920   0.208   5.725
10389SOL     OW32065   6.619   3.576   0.014
10389SOL    HW132066   6.635   3.663   0.060
10389SOL    HW232067   6.703   3.522   0.013
10390SOL     OW32068   2.470   2.217   1.036
10390SOL    HW132069   2.548   2.227   0.973
10390SOL    HW232070   2.418   2.302   1.038
10391SOL     OW32071   0.449   6.538   3.293
10391SOL    HW132072   0.433   6.615   3.354
10391SOL    HW232073   0.398   6.551   3.208
10392SOL     OW32074   6.946   5.659   4.861
10392SOL    HW132075   6.990   5.678   4.949
10392SOL    HW232076   6.999   5.702   4.788
10393SOL     OW32077   2.152   3.875   4.046
10393SOL    HW132078   2.177   3.961   4.001
10393SOL    HW232079   2.206   3.865   4.130
10394SOL     OW32080   2.892   6.133   4.134
10394SOL    HW132081   2.822   6.204   4.130
10394SOL    HW232082   2.869   6.060   4.070
10395SOL     OW32083   0.331   6.488   1.174
10395SOL    HW132084   0.352   6.434   1.092
10395SOL    HW232085   0.310   6.427   1.250
10396SOL     OW32086   3.303   1.949   3.907
10396SOL    HW132087   3.243   2.007   3.852
10396SOL    HW232088   3.399   1.975   3.892
10397SOL     OW32089   3.055   2.113   2.519
10397SOL    HW132090   3.130   2.126   2.584
10397SOL    HW232091   3.071   2.170   2.439
10398SOL     OW32092   0.176   3.439   1.498
10398SOL    HW132093   0.197   3.349   1.459
10398SOL    HW232094   0.078   3.445   1.518
10399SOL     OW32095   5.692   2.855   2.970
10399SOL    HW132096   5.767   2.791   2.951
10399SOL    HW232097   5.652   2.886   2.884
10400SOL     OW32098   3.909   6.804   6.895
10400SOL    HW132099   3.848   6.792   6.973
10400SOL    HW232100   3.927   6.715   6.852
10401SOL     OW32101   6.106   0.557   3.550
10401SOL    HW132102   6.173   0.537   3.622
10401SOL    HW232103   6.149   0.613   3.480
10402SOL     OW32104   6.393   3.140   4.978
10402SOL    HW132105   6.474   3.131   4.920
10402SOL    HW232106   6.319   3.181   4.926
10403SOL     OW32107   3.754   0.722   3.852
10403SOL    HW132108   3.853   0.712   3.851
10403SOL    HW232109   3.727   0.786   3.779
10404SOL     OW32110   5.602   0.213   4.952
10404SOL    HW132111   5.663   0.219   4.873
10404SOL    HW232112   5.605   0.299   5.003
10405SOL     OW32113   0.458   1.509   6.196
10405SOL    HW132114   0.481   1.602   6.227
10405SOL    HW232115   0.445   1.450   6.275
10406SOL     OW32116   3.539   4.995   2.519
10406SOL    HW132117   3.511   4.948   2.435
10406SOL    HW232118   3.467   5.059   2.547
10407SOL     OW32119   3.286   6.237   6.037
10407SOL    HW132120   3.209   6.176   6.057
10407SOL    HW232121   3.372   6.187   6.048
10408SOL     OW32122   4.610   0.896   0.588
10408SOL    HW132123   4.599   0.985   0.544
10408SOL    HW232124   4.707   0.873   0.591
10409SOL     OW32125   0.042   4.308   1.285
10409SOL    HW132126   0.017   4.217   1.318
10409SOL    HW232127   6.988   4.361   1.266
10410SOL     OW32128   5.953   0.678   6.931
10410SOL    HW132129   5.961   0.754   6.996
10410SOL    HW232130   5.877   0.694   6.868
10411SOL     OW32131   3.726   6.486   3.131
10411SOL    HW132132   3.674   6.402   3.150
10411SOL    HW232133   3.662   6.562   3.118
10412SOL     OW32134   6.447   0.633   0.524
10412SOL    HW132135   6.497   0.718   0.543
10412SOL    HW232136   6.439   0.580   0.608
10413SOL     OW32137   5.975   2.164   1.056
10413SOL    HW132138   5.919   2.081   1.059
10413SOL    HW232139   6.056   2.147   0.999
10414SOL     OW32140   4.098   4.206   5.286
10414SOL    HW132141   4.137   4.280   5.232
10414SOL    HW232142   4.013   4.175   5.245
10415SOL     OW32143   0.227   4.214   5.157
10415SOL    HW132144   0.290   4.193   5.232
10415SOL    HW232145   0.202   4.129   5.110
10416SOL     OW32146   6.297   1.000   3.341
10416SOL    HW132147   6.263   1.028   3.251
10416SOL    HW232148   6.383   1.047   3.360
10417SOL     OW32149   3.676   5.399   4.490
10417SOL    HW132150   3.623   5.359   4.415
10417SOL    HW232151   3.667   5.499   4.488
10418SOL     OW32152   0.126   4.822   6.404
10418SOL    HW132153   0.109   4.918   6.429
10418SOL    HW232154   0.219   4.813   6.368
10419SOL     OW32155   1.339   0.351   6.510
10419SOL    HW132156   1.280   0.417   6.464
10419SOL    HW232157   1.414   0.399   6.555
10420SOL     OW32158   6.784   3.215   2.594
10420SOL    HW132159   6.724   3.150   2.548
10420SOL    HW232160   6.747   3.308   2.584
10421SOL     OW32161   0.420   1.523   3.569
10421SOL    HW132162   0.408   1.497   3.665
10421SOL    HW232163   0.513   1.558   3.555
10422SOL     OW32164   5.932   2.511   5.560
10422SOL    HW132165   6.018   2.533   5.606
10422SOL    HW232166   5.904   2.418   5.585
10423SOL     OW32167   5.215   4.926   4.642
10423SOL    HW132168   5.260   4.876   4.569
10423SOL    HW232169   5.163   4.863   4.700
10424SOL     OW32170   5.934   3.485   7.025
10424SOL    HW132171   5.994   3.406   7.013
10424SOL    HW232172   5.849   3.471   6.975
10425SOL     OW32173   2.111   6.941   2.022
10425SOL    HW132174   2.036   6.907   1.965
10425SOL    HW232175   2.098   0.009   2.041
10426SOL     OW32176   6.702   4.354   0.574
10426SOL    HW132177   6.625   4.290   0.568
10426SOL    HW232178   6.780   4.318   0.523
10427SOL     OW32179   3.847   1.330   0.189
10427SOL    HW132180   3.855   1.423   0.153
10427SOL    HW232181   3.873   1.329   0.286
10428SOL     OW32182   2.750   1.514   4.140
10428SOL    HW132183   2.729   1.516   4.238
10428SOL    HW232184   2.738   1.605   4.101
10429SOL     OW32185   0.345   5.418   1.195
10429SOL    HW132186   0.304   5.343   1.247
10429SOL    HW232187   0.331   5.504   1.243
10430SOL     OW32188   4.429   6.536   3.870
10430SOL    HW132189   4.362   6.464   3.852
10430SOL    HW232190   4.383   6.614   3.912
10431SOL     OW32191   3.458   6.294   4.703
10431SOL    HW132192   3.451   6.339   4.614
10431SOL    HW232193   3.369   6.258   4.730
10432SOL     OW32194   6.189   0.326   4.405
10432SOL    HW132195   6.238   0.366   4.482
10432SOL    HW232196   6.142   0.242   4.436
10433SOL     OW32197   1.885   6.986   1.419
10433SOL    HW132198   1.910   0.040   1.369
10433SOL    HW232199   1.820   7.010   1.492
10434SOL     OW32200   3.914   6.607   3.319
10434SOL    HW132201   3.994   6.650   3.276
10434SOL    HW232202   3.846   6.585   3.249
10435SOL     OW32203   6.997   0.333   4.838
10435SOL    HW132204   6.940   0.326   4.920
10435SOL    HW232205   6.938   0.341   4.758
10436SOL     OW32206   0.808   5.032   5.662
10436SOL    HW132207   0.764   5.095   5.726
10436SOL    HW232208   0.904   5.058   5.650
10437SOL     OW32209   5.951   4.592   5.238
10437SOL    HW132210   5.887   4.657   5.196
10437SOL    HW232211   6.038   4.638   5.255
10438SOL     OW32212   5.228   6.606   6.552
10438SOL    HW132213   5.212   6.701   6.580
10438SOL    HW232214   5.252   6.552   6.633
10439SOL     OW32215   3.716   1.754   5.781
10439SOL    HW132216   3.722   1.848   5.750
10439SOL    HW232217   3.723   1.692   5.703
10440SOL     OW32218   1.765   6.224   6.985
10440SOL    HW132219   1.718   6.293   0.012
10440SOL    HW232220   1.863   6.229   7.002
10441SOL     OW32221   4.665   1.379   0.137
10441SOL    HW132222   4.762   1.366   0.118
10441SOL    HW232223   4.639   1.473   0.115
10442SOL     OW32224   3.108   6.022   5.455
10442SOL    HW132225   3.174   6.021   5.531
10442SOL    HW232226   3.017   5.998   5.489
10443SOL     OW32227   5.239   3.379   4.699
10443SOL    HW132228   5.319   3.438   4.687
10443SOL    HW232229   5.185   3.411   4.777
10444SOL     OW32230   3.908   6.097   4.766
10444SOL    HW132231   3.825   6.069   4.717
10444SOL    HW232232   3.977   6.128   4.702
10445SOL     OW32233   0.470   5.420   4.051
10445SOL    HW132234   0.449   5.475   3.970
10445SOL    HW232235   0.480   5.479   4.130
10446SOL     OW32236   1.045   3.642   6.214
10446SOL    HW132237   1.076   3.730   6.248
10446SOL    HW232238   1.124   3.589   6.182
10447SOL     OW32239   6.672   1.395   1.898
10447SOL    HW132240   6.757   1.385   1.847
10447SOL    HW232241   6.669   1.486   1.939
10448SOL     OW32242   4.149   2.766   1.325
10448SOL    HW132243   4.054   2.767   1.358
10448SOL    HW232244   4.205   2.824   1.384
10449SOL     OW32245   2.503   5.604   4.660
10449SOL    HW132246   2.429   5.671   4.656
10449SOL    HW232247   2.556   5.618   4.744
10450SOL     OW32248   0.512   2.348   0.703
10450SOL    HW132249   0.505   2.270   0.765
10450SOL    HW232250   0.510   2.433   0.755
10451SOL     OW32251   2.497   5.212   2.542
10451SOL    HW132252   2.453   5.155   2.612
10451SOL    HW232253   2.457   5.193   2.453
10452SOL     OW32254   6.623   3.579   3.779
10452SOL    HW132255   6.605   3.647   3.708
10452SOL    HW232256   6.679   3.620   3.851
10453SOL     OW32257   5.505   6.142   1.515
10453SOL    HW132258   5.591   6.091   1.524
10453SOL    HW232259   5.515   6.210   1.442
10454SOL     OW32260   5.376   2.896   1.635
10454SOL    HW132261   5.281   2.921   1.659
10454SOL    HW232262   5.387   2.901   1.536
10455SOL     OW32263   0.826   4.831   3.133
10455SOL    HW132264   0.866   4.923   3.138
10455SOL    HW232265   0.850   4.779   3.215
10456SOL     OW32266   3.164   6.643   1.454
10456SOL    HW132267   3.153   6.611   1.549
10456SOL    HW232268   3.213   6.730   1.454
10457SOL     OW32269   3.387   3.215   3.139
10457SOL    HW132270   3.310   3.256   3.091
10457SOL    HW232271   3.366   3.120   3.162
10458SOL     OW32272   0.238   0.418   0.271
10458SOL    HW132273   0.166   0.350   0.283
10458SOL    HW232274   0.205   0.507   0.303
10459SOL     OW32275   5.372   5.397   3.192
10459SOL    HW132276   5.437   5.467   3.162
10459SOL    HW232277   5.292   5.397   3.132
10460SOL     OW32278   1.789   5.679   1.348
10460SOL    HW132279   1.824   5.687   1.442
10460SOL    HW232280   1.864   5.690   1.283
10461SOL     OW32281   1.007   6.263   5.718
10461SOL    HW132282   0.923   6.313   5.739
10461SOL    HW232283   1.030   6.203   5.795
10462SOL     OW32284   5.454   1.512   2.564
10462SOL    HW132285   5.385   1.490   2.632
10462SOL    HW232286   5.411   1.528   2.475
10463SOL     OW32287   3.737   3.816   5.838
10463SOL    HW132288   3.808   3.876   5.801
10463SOL    HW232289   3.759   3.721   5.815
10464SOL     OW32290   4.805   0.224   0.671
10464SOL    HW132291   4.735   0.198   0.604
10464SOL    HW232292   4.798   0.165   0.751
10465SOL     OW32293   6.509   0.105   0.209
10465SOL    HW132294   6.544   0.027   0.262
10465SOL    HW232295   6.426   0.077   0.160
10466SOL     OW32296   4.759   5.436   4.770
10466SOL    HW132297   4.774   5.493   4.688
10466SOL    HW232298   4.714   5.351   4.743
10467SOL     OW32299   1.643   1.702   5.498
10467SOL    HW132300   1.629   1.788   5.546
10467SOL    HW232301   1.554   1.659   5.480
10468SOL     OW32302   3.715   6.016   3.510
10468SOL    HW132303   3.781   5.949   3.474
10468SOL    HW232304   3.625   5.997   3.471
10469SOL     OW32305   3.519   3.831   0.884
10469SOL    HW132306   3.480   3.922   0.873
10469SOL    HW232307   3.452   3.762   0.857
10470SOL     OW32308   1.766   1.912   2.848
10470SOL    HW132309   1.855   1.896   2.890
10470SOL    HW232310   1.747   2.010   2.847
10471SOL     OW32311   2.065   3.485   1.014
10471SOL    HW132312   1.993   3.430   1.057
10471SOL    HW232313   2.154   3.453   1.046
10472SOL     OW32314   4.035   6.372   1.714
10472SOL    HW132315   4.102   6.434   1.674
10472SOL    HW232316   3.964   6.351   1.647
10473SOL     OW32317   5.610   0.111   0.647
10473SOL    HW132318   5.654   0.193   0.610
10473SOL    HW232319   5.680   0.043   0.670
10474SOL     OW32320   4.513   0.177   4.740
10474SOL    HW132321   4.427   0.185   4.689
10474SOL    HW232322   4.561   0.095   4.711
10475SOL     OW32323   4.986   6.127   1.191
10475SOL    HW132324   4.928   6.169   1.121
10475SOL    HW232325   4.957   6.032   1.205
10476SOL     OW32326   6.719   5.487   6.770
10476SOL    HW132327   6.644   5.433   6.730
10476SOL    HW232328   6.801   5.477   6.714
10477SOL     OW32329   6.120   3.725   4.946
10477SOL    HW132330   6.149   3.715   4.851
10477SOL    HW232331   6.130   3.821   4.974
10478SOL     OW32332   0.646   0.026   6.583
10478SOL    HW132333   0.600   0.106   6.621
10478SOL    HW232334   0.595   6.973   6.606
10479SOL     OW32335   1.093   1.788   1.852
10479SOL    HW132336   1.081   1.873   1.801
10479SOL    HW232337   1.140   1.806   1.938
10480SOL     OW32338   5.165   6.957   1.210
10480SOL    HW132339   5.175   7.004   1.122
10480SOL    HW232340   5.183   6.859   1.197
10481SOL     OW32341   2.632   1.291   4.708
10481SOL    HW132342   2.574   1.286   4.790
10481SOL    HW232343   2.699   1.364   4.720
10482SOL     OW32344   0.753   6.154   4.064
10482SOL    HW132345   0.667   6.165   4.015
10482SOL    HW232346   0.771   6.236   4.119
10483SOL     OW32347   6.637   5.246   0.380
10483SOL    HW132348   6.539   5.262   0.393
10483SOL    HW232349   6.687   5.279   0.460
10484SOL     OW32350   6.980   0.646   1.264
10484SOL    HW132351   6.990   0.653   1.363
10484SOL    HW232352   7.006   0.732   1.221
10485SOL     OW32353   3.928   3.987   2.956
10485SOL    HW132354   3.959   3.969   3.049
10485SOL    HW232355   3.966   3.917   2.894
10486SOL     OW32356   6.295   7.011   5.676
10486SOL    HW132357   6.393   7.022   5.663
10486SOL    HW232358   6.248   0.060   5.634
10487SOL     OW32359   4.710   1.818   1.745
10487SOL    HW132360   4.800   1.820   1.789
10487SOL    HW232361   4.696   1.729   1.702
10488SOL     OW32362   0.442   2.106   5.760
10488SOL    HW132363   0.542   2.102   5.760
10488SOL    HW232364   0.411   2.175   5.694
10489SOL     OW32365   5.797   5.694   3.921
10489SOL    HW132366   5.824   5.609   3.965
10489SOL    HW232367   5.870   5.762   3.933
10490SOL     OW32368   5.419   0.469   0.543
10490SOL    HW132369   5.362   0.492   0.622
10490SOL    HW232370   5.435   0.551   0.488
10491SOL     OW32371   1.771   2.852   6.199
10491SOL    HW132372   1.777   2.816   6.293
10491SOL    HW232373   1.752   2.777   6.136
10492SOL     OW32374   4.299   6.634   0.598
10492SOL    HW132375   4.261   6.724   0.620
10492SOL    HW232376   4.266   6.567   0.665
10493SOL     OW32377   4.047   5.278   1.145
10493SOL    HW132378   4.090   5.219   1.212
10493SOL    HW232379   4.109   5.353   1.120
10494SOL     OW32380   0.991   4.754   5.943
10494SOL    HW132381   1.014   4.663   5.975
10494SOL    HW232382   1.022   4.765   5.848
10495SOL     OW32383   0.024   6.340   6.837
10495SOL    HW132384   6.986   6.282   6.882
10495SOL    HW232385   0.017   6.433   6.873
10496SOL     OW32386   6.823   3.894   5.539
10496SOL    HW132387   6.852   3.941   5.623
10496SOL    HW232388   6.843   3.797   5.547
10497SOL     OW32389   2.067   6.754   1.737
10497SOL    HW132390   1.992   6.790   1.794
10497SOL    HW232391   2.077   6.811   1.656
10498SOL     OW32392   5.294   5.842   0.912
10498SOL    HW132393   5.371   5.889   0.868
10498SOL    HW232394   5.210   5.860   0.861
10499SOL     OW32395   5.938   5.631   1.340
10499SOL    HW132396   5.880   5.554   1.364
10499SOL    HW232397   5.884   5.715   1.342
10500SOL     OW32398   5.455   3.812   4.731
10500SOL    HW132399   5.511   3.847   4.656
10500SOL    HW232400   5.411   3.889   4.778
10501SOL     OW32401   2.770   5.567   2.588
10501SOL    HW132402   2.707   5.560   2.665
10501SOL    HW232403   2.729   5.524   2.507
10502SOL     OW32404   3.103   3.029   2.091
10502SOL    HW132405   3.201   3.028   2.069
10502SOL    HW232406   3.070   2.935   2.099
10503SOL     OW32407   0.049   4.026   6.461
10503SOL    HW132408   0.044   3.965   6.382
10503SOL    HW232409   6.995   4.080   6.468
10504SOL     OW32410   1.744   3.297   6.228
10504SOL    HW132411   1.680   3.262   6.296
10504SOL    HW232412   1.705   3.380   6.186
10505SOL     OW32413   5.880   5.898   2.353
10505SOL    HW132414   5.890   5.829   2.282
10505SOL    HW232415   5.784   5.927   2.359
10506SOL     OW32416   0.392   3.129   6.945
10506SOL    HW132417   0.346   3.146   6.858
10506SOL    HW232418   0.491   3.133   6.932
10507SOL     OW32419   2.767   4.411   7.029
10507SOL    HW132420   2.804   4.335   0.052
10507SOL    HW232421   2.765   4.387   6.932
10508SOL     OW32422   0.827   6.263   4.973
10508SOL    HW132423   0.901   6.209   5.012
10508SOL    HW232424   0.854   6.360   4.972
10509SOL     OW32425   4.989   3.214   4.092
10509SOL    HW132426   4.996   3.247   3.997
10509SOL    HW232427   4.945   3.283   4.148
10510SOL     OW32428   5.013   6.596   5.464
10510SOL    HW132429   5.022   6.694   5.482
10510SOL    HW232430   4.930   6.579   5.412
10511SOL     OW32431   2.788   0.965   1.934
10511SOL    HW132432   2.858   0.909   1.979
10511SOL    HW232433   2.832   1.025   1.867
10512SOL     OW32434   4.332   0.142   6.068
10512SOL    HW132435   4.280   0.071   6.115
10512SOL    HW232436   4.295   0.232   6.092
10513SOL     OW32437   5.844   3.026   2.425
10513SOL    HW132438   5.908   3.088   2.381
10513SOL    HW232439   5.867   3.017   2.522
10514SOL     OW32440   2.152   2.046   1.547
10514SOL    HW132441   2.090   1.982   1.592
10514SOL    HW232442   2.112   2.076   1.460
10515SOL     OW32443   2.074   2.383   4.382
10515SOL    HW132444   2.068   2.414   4.477
10515SOL    HW232445   2.170   2.381   4.353
10516SOL     OW32446   3.083   1.632   0.310
10516SOL    HW132447   2.999   1.614   0.361
10516SOL    HW232448   3.060   1.676   0.223
10517SOL     OW32449   1.736   3.594   2.890
10517SOL    HW132450   1.712   3.679   2.938
10517SOL    HW232451   1.722   3.606   2.791
10518SOL     OW32452   0.443   5.417   2.171
10518SOL    HW132453   0.502   5.452   2.243
10518SOL    HW232454   0.426   5.319   2.186
10519SOL     OW32455   2.999   5.375   1.971
10519SOL    HW132456   2.991   5.435   1.892
10519SOL    HW232457   3.096   5.367   1.997
10520SOL     OW32458   6.638   1.725   6.371
10520SOL    HW132459   6.613   1.643   6.423
10520SOL    HW232460   6.684   1.697   6.286
10521SOL     OW32461   6.081   3.590   1.500
10521SOL    HW132462   6.031   3.670   1.535
10521SOL    HW232463   6.099   3.527   1.576
10522SOL     OW32464   6.575   2.730   3.056
10522SOL    HW132465   6.579   2.803   3.124
10522SOL    HW232466   6.619   2.648   3.093
10523SOL     OW32467   0.711   4.402   4.340
10523SOL    HW132468   0.709   4.364   4.432
10523SOL    HW232469   0.754   4.493   4.343
10524SOL     OW32470   0.202   5.537   3.438
10524SOL    HW132471   0.291   5.542   3.484
10524SOL    HW232472   0.205   5.465   3.367
10525SOL     OW32473   4.505   0.969   5.000
10525SOL    HW132474   4.509   1.054   5.052
10525SOL    HW232475   4.597   0.947   4.965
10526SOL     OW32476   0.418   5.825   1.156
10526SOL    HW132477   0.372   5.914   1.155
10526SOL    HW232478   0.489   5.823   1.086
10527SOL     OW32479   0.024   1.378   5.527
10527SOL    HW132480   7.020   1.472   5.529
10527SOL    HW232481   0.035   1.349   5.431
10528SOL     OW32482   0.397   4.880   6.978
10528SOL    HW132483   0.394   4.785   7.010
10528SOL    HW232484   0.426   4.939   0.024
10529SOL     OW32485   1.804   5.991   5.922
10529SOL    HW132486   1.901   5.986   5.897
10529SOL    HW232487   1.751   5.936   5.857
10530SOL     OW32488   1.479   6.671   5.888
10530SOL    HW132489   1.539   6.705   5.960
10530SOL    HW232490   1.433   6.749   5.844
10531SOL     OW32491   2.838   2.661   5.341
10531SOL    HW132492   2.891   2.578   5.327
10531SOL    HW232493   2.766   2.644   5.408
10532SOL     OW32494   6.069   6.721   6.267
10532SOL    HW132495   6.117   6.660   6.329
10532SOL    HW232496   6.018   6.668   6.199
10533SOL     OW32497   3.136   5.786   4.256
10533SOL    HW132498   3.047   5.796   4.211
10533SOL    HW232499   3.186   5.873   4.250
10534SOL     OW32500   0.330   5.463   2.846
10534SOL    HW132501   0.353   5.470   2.749
10534SOL    HW232502   0.411   5.486   2.901
10535SOL     OW32503   2.740   1.446   2.323
10535SOL    HW132504   2.789   1.532   2.337
10535SOL    HW232505   2.700   1.416   2.409
10536SOL     OW32506   4.573   0.492   3.578
10536SOL    HW132507   4.615   0.416   3.628
10536SOL    HW232508   4.645   0.548   3.538
10537SOL     OW32509   4.695   6.703   3.538
10537SOL    HW132510   4.718   6.707   3.441
10537SOL    HW232511   4.595   6.707   3.548
10538SOL     OW32512   5.996   3.990   2.881
10538SOL    HW132513   6.095   3.997   2.875
10538SOL    HW232514   5.971   3.901   2.919
10539SOL     OW32515   6.140   5.752   2.732
10539SOL    HW132516   6.239   5.754   2.744
10539SOL    HW232517   6.110   5.658   2.721
10540SOL     OW32518   2.156   4.181   5.991
10540SOL    HW132519   2.249   4.159   6.022
10540SOL    HW232520   2.130   4.271   6.025
10541SOL     OW32521   2.975   3.237   4.660
10541SOL    HW132522   2.896   3.178   4.647
10541SOL    HW232523   2.983   3.300   4.582
10542SOL     OW32524   5.858   0.411   4.541
10542SOL    HW132525   5.896   0.465   4.466
10542SOL    HW232526   5.845   0.317   4.511
10543SOL     OW32527   6.564   2.233   5.740
10543SOL    HW132528   6.569   2.134   5.731
10543SOL    HW232529   6.475   2.259   5.779
10544SOL     OW32530   1.143   0.848   4.266
10544SOL    HW132531   1.189   0.859   4.354
10544SOL    HW232532   1.205   0.879   4.193
10545SOL     OW32533   1.628   2.577   2.835
10545SOL    HW132534   1.615   2.664   2.881
10545SOL    HW232535   1.557   2.565   2.766
10546SOL     OW32536   2.594   6.680   1.130
10546SOL    HW132537   2.620   6.652   1.222
10546SOL    HW232538   2.494   6.679   1.121
10547SOL     OW32539   4.868   6.816   4.725
10547SOL    HW132540   4.780   6.823   4.678
10547SOL    HW232541   4.896   6.906   4.757
10548SOL     OW32542   0.842   4.900   4.740
10548SOL    HW132543   0.925   4.904   4.796
10548SOL    HW232544   0.837   4.981   4.682
10549SOL     OW32545   0.549   1.583   0.491
10549SOL    HW132546   0.459   1.553   0.524
10549SOL    HW232547   0.547   1.590   0.392
10550SOL     OW32548   4.004   6.111   2.849
10550SOL    HW132549   4.071   6.101   2.776
10550SOL    HW232550   3.938   6.182   2.824
10551SOL     OW32551   3.085   2.048   6.026
10551SOL    HW132552   3.009   2.019   6.084
10551SOL    HW232553   3.089   1.988   5.945
10552SOL     OW32554   3.283   1.105   3.903
10552SOL    HW132555   3.316   1.122   3.995
10552SOL    HW232556   3.249   1.190   3.863
10553SOL     OW32557   0.111   5.188   0.682
10553SOL    HW132558   0.151   5.106   0.721
10553SOL    HW232559   0.058   5.164   0.600
10554SOL     OW32560   6.423   4.838   3.012
10554SOL    HW132561   6.433   4.745   3.047
10554SOL    HW232562   6.504   4.892   3.037
10555SOL     OW32563   2.925   1.828   0.607
10555SOL    HW132564   2.884   1.772   0.535
10555SOL    HW232565   3.023   1.833   0.594
10556SOL     OW32566   2.447   1.851   2.852
10556SOL    HW132567   2.542   1.873   2.871
10556SOL    HW232568   2.437   1.822   2.756
10557SOL     OW32569   1.944   3.897   4.539
10557SOL    HW132570   1.926   3.809   4.584
10557SOL    HW232571   1.914   3.971   4.599
10558SOL     OW32572   3.318   4.752   5.273
10558SOL    HW132573   3.390   4.809   5.235
10558SOL    HW232574   3.233   4.768   5.223
10559SOL     OW32575   3.598   0.280   0.425
10559SOL    HW132576   3.503   0.253   0.412
10559SOL    HW232577   3.647   0.208   0.474
10560SOL     OW32578   4.522   6.144   1.852
10560SOL    HW132579   4.575   6.116   1.932
10560SOL    HW232580   4.584   6.175   1.780
10561SOL     OW32581   4.959   4.326   1.877
10561SOL    HW132582   5.025   4.339   1.951
10561SOL    HW232583   4.975   4.395   1.806
10562SOL     OW32584   3.202   0.042   1.224
10562SOL    HW132585   3.284   0.005   1.181
10562SOL    HW232586   3.208   0.142   1.227
10563SOL     OW32587   0.663   6.841   0.812
10563SOL    HW132588   0.731   6.893   0.864
10563SOL    HW232589   0.651   6.750   0.853
10564SOL     OW32590   6.939   5.510   3.949
10564SOL    HW132591   6.891   5.533   4.034
10564SOL    HW232592   6.923   5.413   3.928
10565SOL     OW32593   6.559   0.089   5.589
10565SOL    HW132594   6.550   0.082   5.490
10565SOL    HW232595   6.653   0.067   5.615
10566SOL     OW32596   2.642   2.536   6.516
10566SOL    HW132597   2.605   2.612   6.464
10566SOL    HW232598   2.734   2.514   6.482
10567SOL     OW32599   1.713   2.145   6.109
10567SOL    HW132600   1.780   2.172   6.040
10567SOL    HW232601   1.688   2.225   6.164
10568SOL     OW32602   5.435   2.946   6.725
10568SOL    HW132603   5.442   2.862   6.671
10568SOL    HW232604   5.339   2.971   6.737
10569SOL     OW32605   5.484   0.079   1.626
10569SOL    HW132606   5.439   7.023   1.653
10569SOL    HW232607   5.423   0.132   1.568
10570SOL     OW32608   0.927   5.259   3.946
10570SOL    HW132609   1.005   5.206   3.914
10570SOL    HW232610   0.853   5.197   3.971
10571SOL     OW32611   7.014   4.591   6.397
10571SOL    HW132612   0.052   4.664   6.409
10571SOL    HW232613   0.019   4.507   6.439
10572SOL     OW32614   6.519   4.122   1.757
10572SOL    HW132615   6.574   4.078   1.686
10572SOL    HW232616   6.578   4.177   1.816
10573SOL     OW32617   5.654   0.643   4.427
10573SOL    HW132618   5.570   0.669   4.474
10573SOL    HW232619   5.688   0.721   4.374
10574SOL     OW32620   6.358   0.634   3.867
10574SOL    HW132621   6.353   0.554   3.808
10574SOL    HW232622   6.453   0.659   3.882
10575SOL     OW32623   5.305   0.809   3.144
10575SOL    HW132624   5.329   0.896   3.188
10575SOL    HW232625   5.357   0.735   3.186
10576SOL     OW32626   1.742   4.757   2.978
10576SOL    HW132627   1.780   4.700   2.905
10576SOL    HW232628   1.702   4.699   3.049
10577SOL     OW32629   3.213   6.263   0.407
10577SOL    HW132630   3.226   6.332   0.478
10577SOL    HW232631   3.212   6.172   0.449
10578SOL     OW32632   6.123   2.378   4.074
10578SOL    HW132633   6.188   2.421   4.011
10578SOL    HW232634   6.090   2.445   4.140
10579SOL     OW32635   3.021   3.771   1.197
10579SOL    HW132636   3.056   3.791   1.105
10579SOL    HW232637   2.970   3.685   1.195
10580SOL     OW32638   6.554   6.825   0.040
10580SOL    HW132639   6.649   6.855   0.051
10580SOL    HW232640   6.551   6.739   7.019
10581SOL     OW32641   5.633   6.566   3.009
10581SOL    HW132642   5.647   6.557   3.107
10581SOL    HW232643   5.714   6.534   2.960
10582SOL     OW32644   5.439   4.546   6.546
10582SOL    HW132645   5.462   4.643   6.535
10582SOL    HW232646   5.511   4.490   6.504
10583SOL     OW32647   3.237   6.811   3.640
10583SOL    HW132648   3.190   6.805   3.552
10583SOL    HW232649   3.335   6.823   3.625
10584SOL     OW32650   6.451   0.303   5.742
10584SOL    HW132651   6.388   0.358   5.687
10584SOL    HW232652   6.485   0.226   5.687
10585SOL     OW32653   0.328   1.971   6.618
10585SOL    HW132654   0.403   1.944   6.678
10585SOL    HW232655   0.351   2.057   6.572
10586SOL     OW32656   4.505   4.675   5.735
10586SOL    HW132657   4.554   4.693   5.820
10586SOL    HW232658   4.417   4.632   5.756
10587SOL     OW32659   0.489   5.806   5.639
10587SOL    HW132660   0.512   5.860   5.558
10587SOL    HW232661   0.458   5.715   5.612
10588SOL     OW32662   1.571   3.035   3.893
10588SOL    HW132663   1.658   2.985   3.890
10588SOL    HW232664   1.589   3.133   3.899
10589SOL     OW32665   5.517   6.275   5.129
10589SOL    HW132666   5.562   6.218   5.060
10589SOL    HW232667   5.427   6.303   5.094
10590SOL     OW32668   0.478   5.917   1.505
10590SOL    HW132669   0.380   5.923   1.483
10590SOL    HW232670   0.509   5.823   1.492
10591SOL     OW32671   1.269   1.128   1.501
10591SOL    HW132672   1.225   1.052   1.550
10591SOL    HW232673   1.311   1.094   1.417
10592SOL     OW32674   5.876   2.195   4.622
10592SOL    HW132675   5.881   2.109   4.570
10592SOL    HW232676   5.935   2.190   4.702
10593SOL     OW32677   2.565   6.249   0.611
10593SOL    HW132678   2.569   6.283   0.517
10593SOL    HW232679   2.592   6.321   0.674
10594SOL     OW32680   3.994   1.026   3.536
10594SOL    HW132681   3.972   0.931   3.516
10594SOL    HW232682   3.980   1.045   3.633
10595SOL     OW32683   5.652   0.625   0.751
10595SOL    HW132684   5.651   0.687   0.673
10595SOL    HW232685   5.743   0.626   0.794
10596SOL     OW32686   4.826   1.673   0.229
10596SOL    HW132687   4.793   1.682   0.135
10596SOL    HW232688   4.835   1.576   0.252
10597SOL     OW32689   2.311   0.789   6.047
10597SOL    HW132690   2.219   0.820   6.026
10597SOL    HW232691   2.362   0.775   5.962
10598SOL     OW32692   2.326   1.785   6.047
10598SOL    HW132693   2.318   1.859   6.114
10598SOL    HW232694   2.421   1.775   6.020
10599SOL     OW32695   6.444   4.651   5.902
10599SOL    HW132696   6.417   4.579   5.966
10599SOL    HW232697   6.415   4.740   5.938
10600SOL     OW32698   3.096   0.971   1.610
10600SOL    HW132699   3.141   0.963   1.699
10600SOL    HW232700   3.008   1.016   1.621
10601SOL     OW32701   0.159   6.789   5.978
10601SOL    HW132702   0.139   6.698   6.014
10601SOL    HW232703   0.258   6.802   5.976
10602SOL     OW32704   0.324   0.448   0.033
10602SOL    HW132705   0.284   0.437   0.124
10602SOL    HW232706   0.288   0.378   7.001
10603SOL     OW32707   4.538   6.785   1.567
10603SOL    HW132708   4.572   6.781   1.473
10603SOL    HW232709   4.569   6.704   1.617
10604SOL     OW32710   0.189   6.511   4.852
10604SOL    HW132711   0.238   6.444   4.797
10604SOL    HW232712   0.111   6.546   4.799
10605SOL     OW32713   2.115   0.210   0.471
10605SOL    HW132714   2.124   0.294   0.417
10605SOL    HW232715   2.160   0.135   0.424
10606SOL     OW32716   5.767   0.879   1.650
10606SOL    HW132717   5.809   0.968   1.671
10606SOL    HW232718   5.802   0.810   1.713
10607SOL     OW32719   4.378   4.018   6.608
10607SOL    HW132720   4.281   3.998   6.620
10607SOL    HW232721   4.427   3.933   6.587
10608SOL     OW32722   6.607   2.907   2.843
10608SOL    HW132723   6.608   2.842   2.918
10608SOL    HW232724   6.514   2.919   2.810
10609SOL     OW32725   3.927   6.819   0.585
10609SOL    HW132726   4.023   6.830   0.610
10609SOL    HW232727   3.884   6.756   0.649
10610SOL     OW32728   6.919   1.758   4.380
10610SOL    HW132729   6.993   1.744   4.314
10610SOL    HW232730   6.935   1.700   4.460
10611SOL     OW32731   2.493   5.321   4.565
10611SOL    HW132732   2.489   5.224   4.592
10611SOL    HW232733   2.484   5.378   4.647
10612SOL     OW32734   5.629   1.201   4.008
10612SOL    HW132735   5.707   1.263   4.003
10612SOL    HW232736   5.592   1.200   4.101
10613SOL     OW32737   5.557   6.297   4.278
10613SOL    HW132738   5.568   6.215   4.222
10613SOL    HW232739   5.552   6.377   4.219
10614SOL     OW32740   5.135   0.502   5.538
10614SOL    HW132741   5.162   0.593   5.508
10614SOL    HW232742   5.195   0.472   5.612
10615SOL     OW32743   2.691   1.405   5.850
10615SOL    HW132744   2.657   1.378   5.760
10615SOL    HW232745   2.780   1.361   5.866
10616SOL     OW32746   2.884   6.243   6.489
10616SOL    HW132747   2.785   6.245   6.475
10616SOL    HW232748   2.930   6.268   6.404
10617SOL     OW32749   2.502   3.670   1.726
10617SOL    HW132750   2.461   3.761   1.731
10617SOL    HW232751   2.440   3.603   1.767
10618SOL     OW32752   0.149   5.351   5.651
10618SOL    HW132753   0.195   5.262   5.652
10618SOL    HW232754   0.087   5.355   5.573
10619SOL     OW32755   0.177   2.086   2.971
10619SOL    HW132756   0.216   2.039   3.051
10619SOL    HW232757   0.177   2.024   2.893
10620SOL     OW32758   1.874   0.278   5.102
10620SOL    HW132759   1.788   0.231   5.084
10620SOL    HW232760   1.898   0.268   5.199
10621SOL     OW32761   0.733   3.907   2.817
10621SOL    HW132762   0.658   3.841   2.820
10621SOL    HW232763   0.816   3.867   2.856
10622SOL     OW32764   4.235   2.880   0.967
10622SOL    HW132765   4.137   2.895   0.949
10622SOL    HW232766   4.289   2.932   0.901
10623SOL     OW32767   5.759   5.852   5.622
10623SOL    HW132768   5.838   5.799   5.590
10623SOL    HW232769   5.683   5.840   5.559
10624SOL     OW32770   0.934   2.998   5.094
10624SOL    HW132771   0.888   3.036   5.014
10624SOL    HW232772   0.939   2.898   5.085
10625SOL     OW32773   0.035   3.273   6.812
10625SOL    HW132774   0.104   3.344   6.802
10625SOL    HW232775   0.036   3.213   6.732
10626SOL     OW32776   4.014   3.039   1.820
10626SOL    HW132777   4.063   3.126   1.834
10626SOL    HW232778   3.967   3.014   1.904
10627SOL     OW32779   6.061   0.350   6.372
10627SOL    HW132780   6.051   0.450   6.381
10627SOL    HW232781   5.975   0.311   6.339
10628SOL     OW32782   3.927   0.508   0.402
10628SOL    HW132783   3.846   0.510   0.344
10628SOL    HW232784   3.963   0.415   0.406
10629SOL     OW32785   3.389   5.174   5.283
10629SOL    HW132786   3.414   5.084   5.248
10629SOL    HW232787   3.414   5.244   5.217
10630SOL     OW32788   4.994   0.647   2.308
10630SOL    HW132789   5.063   0.640   2.379
10630SOL    HW232790   5.005   0.571   2.243
10631SOL     OW32791   4.437   4.999   6.436
10631SOL    HW132792   4.482   4.921   6.480
10631SOL    HW232793   4.338   4.990   6.447
10632SOL     OW32794   5.007   5.953   3.451
10632SOL    HW132795   5.022   5.959   3.549
10632SOL    HW232796   5.065   5.881   3.412
10633SOL     OW32797   2.118   2.784   1.607
10633SOL    HW132798   2.119   2.835   1.693
10633SOL    HW232799   2.040   2.815   1.552
10634SOL     OW32800   1.292   5.316   0.038
10634SOL    HW132801   1.371   5.256   0.051
10634SOL    HW232802   1.255   5.343   0.127
10635SOL     OW32803   1.981   3.371   0.351
10635SOL    HW132804   2.045   3.412   0.286
10635SOL    HW232805   1.888   3.376   0.314
10636SOL     OW32806   6.260   1.849   0.659
10636SOL    HW132807   6.224   1.756   0.667
10636SOL    HW232808   6.354   1.852   0.694
10637SOL     OW32809   2.580   5.855   6.601
10637SOL    HW132810   2.556   5.878   6.696
10637SOL    HW232811   2.530   5.914   6.539
10638SOL     OW32812   6.744   6.181   2.502
10638SOL    HW132813   6.684   6.262   2.507
10638SOL    HW232814   6.743   6.145   2.408
10639SOL     OW32815   2.140   3.750   1.854
10639SOL    HW132816   2.199   3.829   1.840
10639SOL    HW232817   2.194   3.673   1.889
10640SOL     OW32818   4.414   0.903   3.303
10640SOL    HW132819   4.397   0.986   3.251
10640SOL    HW232820   4.510   0.900   3.332
10641SOL     OW32821   1.441   1.729   3.441
10641SOL    HW132822   1.414   1.635   3.421
10641SOL    HW232823   1.532   1.747   3.405
10642SOL     OW32824   6.030   2.265   0.536
10642SOL    HW132825   6.116   2.255   0.586
10642SOL    HW232826   5.955   2.228   0.593
10643SOL     OW32827   2.159   5.697   4.978
10643SOL    HW132828   2.207   5.625   5.028
10643SOL    HW232829   2.139   5.773   5.040
10644SOL     OW32830   5.953   3.132   1.883
10644SOL    HW132831   5.885   3.205   1.892
10644SOL    HW232832   5.922   3.051   1.931
10645SOL     OW32833   2.191   3.033   3.607
10645SOL    HW132834   2.230   2.949   3.570
10645SOL    HW232835   2.213   3.040   3.704
10646SOL     OW32836   5.529   1.115   5.443
10646SOL    HW132837   5.584   1.032   5.444
10646SOL    HW232838   5.518   1.149   5.537
10647SOL     OW32839   4.120   5.483   5.311
10647SOL    HW132840   4.092   5.578   5.298
10647SOL    HW232841   4.100   5.430   5.229
10648SOL     OW32842   6.041   5.691   5.909
10648SOL    HW132843   5.943   5.699   5.888
10648SOL    HW232844   6.058   5.732   5.999
10649SOL     OW32845   0.771   3.212   3.853
10649SOL    HW132846   0.819   3.134   3.814
10649SOL    HW232847   0.749   3.193   3.949
10650SOL     OW32848   6.836   0.493   4.255
10650SOL    HW132849   6.753   0.546   4.240
10650SOL    HW232850   6.876   0.468   4.166
10651SOL     OW32851   5.187   6.237   5.958
10651SOL    HW132852   5.229   6.260   5.870
10651SOL    HW232853   5.257   6.210   6.023
10652SOL     OW32854   2.125   6.705   6.185
10652SOL    HW132855   2.158   6.736   6.096
10652SOL    HW232856   2.045   6.759   6.212
10653SOL     OW32857   3.652   6.058   4.673
10653SOL    HW132858   3.617   6.151   4.691
10653SOL    HW232859   3.588   6.011   4.612
10654SOL     OW32860   4.566   1.971   3.848
10654SOL    HW132861   4.534   1.927   3.931
10654SOL    HW232862   4.619   1.905   3.794
10655SOL     OW32863   2.001   4.657   1.355
10655SOL    HW132864   2.098   4.646   1.374
10655SOL    HW232865   1.949   4.651   1.440
10656SOL     OW32866   6.274   1.538   2.482
10656SOL    HW132867   6.187   1.539   2.431
10656SOL    HW232868   6.296   1.445   2.509
10657SOL     OW32869   6.076   1.369   4.186
10657SOL    HW132870   5.990   1.355   4.236
10657SOL    HW232871   6.142   1.300   4.216
10658SOL     OW32872   5.578   3.891   5.275
10658SOL    HW132873   5.588   3.950   5.356
10658SOL    HW232874   5.581   3.947   5.192
10659SOL     OW32875   1.430   4.549   0.937
10659SOL    HW132876   1.380   4.520   0.856
10659SOL    HW232877   1.469   4.640   0.921
10660SOL     OW32878   6.085   3.991   5.437
10660SOL    HW132879   6.029   3.911   5.457
10660SOL    HW232880   6.038   4.049   5.370
10661SOL     OW32881   1.308   5.012   0.933
10661SOL    HW132882   1.230   4.959   0.902
10661SOL    HW232883   1.392   4.963   0.912
10662SOL     OW32884   3.540   1.193   2.418
10662SOL    HW132885   3.478   1.239   2.353
10662SOL    HW232886   3.606   1.139   2.367
10663SOL     OW32887   0.694   1.638   3.528
10663SOL    HW132888   0.693   1.709   3.457
10663SOL    HW232889   0.766   1.572   3.507
10664SOL     OW32890   0.316   5.526   4.919
10664SOL    HW132891   0.388   5.465   4.950
10664SOL    HW232892   0.317   5.530   4.819
10665SOL     OW32893   2.377   2.527   6.590
10665SOL    HW132894   2.362   2.600   6.657
10665SOL    HW232895   2.473   2.527   6.562
10666SOL     OW32896   3.362   3.640   2.032
10666SOL    HW132897   3.380   3.613   2.127
10666SOL    HW232898   3.272   3.605   2.005
10667SOL     OW32899   5.020   1.512   3.622
10667SOL    HW132900   5.085   1.575   3.664
10667SOL    HW232901   4.985   1.449   3.691
10668SOL     OW32902   3.070   1.878   5.429
10668SOL    HW132903   3.044   1.879   5.332
10668SOL    HW232904   3.162   1.917   5.439
10669SOL     OW32905   5.596   0.352   0.833
10669SOL    HW132906   5.526   0.295   0.791
10669SOL    HW232907   5.578   0.448   0.811
10670SOL     OW32908   5.648   4.499   4.564
10670SOL    HW132909   5.555   4.508   4.528
10670SOL    HW232910   5.669   4.577   4.623
10671SOL     OW32911   1.091   1.319   4.524
10671SOL    HW132912   1.068   1.221   4.524
10671SOL    HW232913   1.160   1.337   4.593
10672SOL     OW32914   6.263   4.024   1.723
10672SOL    HW132915   6.356   4.063   1.726
10672SOL    HW232916   6.198   4.097   1.704
10673SOL     OW32917   1.481   6.722   0.327
10673SOL    HW132918   1.437   6.641   0.290
10673SOL    HW232919   1.568   6.737   0.281
10674SOL     OW32920   4.129   3.787   4.487
10674SOL    HW132921   4.150   3.804   4.391
10674SOL    HW232922   4.068   3.860   4.521
10675SOL     OW32923   3.200   0.665   6.175
10675SOL    HW132924   3.130   0.719   6.128
10675SOL    HW232925   3.283   0.663   6.119
10676SOL     OW32926   6.763   6.024   4.736
10676SOL    HW132927   6.665   6.025   4.754
10676SOL    HW232928   6.813   6.023   4.822
10677SOL     OW32929   1.360   1.015   1.263
10677SOL    HW132930   1.282   1.024   1.201
10677SOL    HW232931   1.438   0.979   1.212
10678SOL     OW32932   4.112   4.780   3.788
10678SOL    HW132933   4.149   4.869   3.761
10678SOL    HW232934   4.094   4.725   3.707
10679SOL     OW32935   4.046   5.717   6.933
10679SOL    HW132936   4.066   5.815   6.926
10679SOL    HW232937   4.128   5.669   6.963
10680SOL     OW32938   3.610   1.708   3.784
10680SOL    HW132939   3.691   1.726   3.728
10680SOL    HW232940   3.528   1.735   3.733
10681SOL     OW32941   6.889   3.548   0.225
10681SOL    HW132942   6.858   3.453   0.221
10681SOL    HW232943   6.927   3.575   0.136
10682SOL     OW32944   0.097   3.164   5.196
10682SOL    HW132945   0.157   3.143   5.119
10682SOL    HW232946   0.120   3.105   5.274
10683SOL     OW32947   4.282   0.972   3.573
10683SOL    HW132948   4.189   1.008   3.576
10683SOL    HW232949   4.293   0.914   3.492
10684SOL     OW32950   4.414   5.534   1.852
10684SOL    HW132951   4.488   5.578   1.903
10684SOL    HW232952   4.374   5.462   1.908
10685SOL     OW32953   0.222   5.814   0.644
10685SOL    HW132954   0.157   5.883   0.611
10685SOL    HW232955   0.256   5.841   0.734
10686SOL     OW32956   2.124   4.484   6.354
10686SOL    HW132957   2.099   4.581   6.361
10686SOL    HW232958   2.125   4.456   6.258
10687SOL     OW32959   6.813   4.468   4.149
10687SOL    HW132960   6.827   4.387   4.093
10687SOL    HW232961   6.883   4.471   4.220
10688SOL     OW32962   5.616   2.550   2.711
10688SOL    HW132963   5.596   2.612   2.635
10688SOL    HW232964   5.705   2.574   2.751
10689SOL     OW32965   6.827   7.027   1.819
10689SOL    HW132966   6.854   7.007   1.914
10689SOL    HW232967   6.736   0.040   1.819
10690SOL     OW32968   0.173   4.994   3.114
10690SOL    HW132969   0.158   5.027   3.207
10690SOL    HW232970   0.204   5.070   3.056
10691SOL     OW32971   2.247   1.566   1.626
10691SOL    HW132972   2.184   1.511   1.681
10691SOL    HW232973   2.295   1.630   1.685
10692SOL     OW32974   2.540   0.555   4.070
10692SOL    HW132975   2.577   0.475   4.024
10692SOL    HW232976   2.442   0.542   4.087
10693SOL     OW32977   1.184   6.046   0.875
10693SOL    HW132978   1.263   5.985   0.865
10693SOL    HW232979   1.102   5.991   0.887
10694SOL     OW32980   5.265   6.506   6.158
10694SOL    HW132981   5.361   6.476   6.160
10694SOL    HW232982   5.241   6.531   6.064
10695SOL     OW32983   1.045   2.100   1.738
10695SOL    HW132984   1.000   2.042   1.670
10695SOL    HW232985   1.143   2.104   1.718
10696SOL     OW32986   6.670   3.542   4.798
10696SOL    HW132987   6.760   3.511   4.829
10696SOL    HW232988   6.681   3.628   4.748
10697SOL     OW32989   6.998   0.172   5.660
10697SOL    HW132990   6.932   0.204   5.727
10697SOL    HW232991   6.957   0.172   5.569
10698SOL     OW32992   4.767   4.137   6.645
10698SOL    HW132993   4.838   4.196   6.685
10698SOL    HW232994   4.681   4.187   6.641
10699SOL     OW32995   3.844   5.063   1.401
10699SOL    HW132996   3.926   5.050   1.458
10699SOL    HW232997   3.850   5.007   1.319
10700SOL     OW32998   5.740   6.361   0.806
10700SOL    HW132999   5.682   6.344   0.726
10700SOL    HW233000   5.823   6.409   0.778
10701SOL     OW33001   3.035   6.939   6.044
10701SOL    HW133002   3.015   6.858   5.989
10701SOL    HW233003   3.028   6.917   6.141
10702SOL     OW33004   5.245   3.440   2.407
10702SOL    HW133005   5.220   3.412   2.314
10702SOL    HW233006   5.214   3.534   2.422
10703SOL     OW33007   2.566   2.755   5.494
10703SOL    HW133008   2.511   2.782   5.573
10703SOL    HW233009   2.580   2.656   5.495
10704SOL     OW33010   7.018   5.033   2.142
10704SOL    HW133011   6.984   5.090   2.068
10704SOL    HW233012   0.059   4.971   2.107
10705SOL     OW33013   6.257   5.303   1.999
10705SOL    HW133014   6.312   5.330   1.921
10705SOL    HW233015   6.206   5.219   1.977
10706SOL     OW33016   3.744   0.397   2.261
10706SOL    HW133017   3.729   0.332   2.335
10706SOL    HW233018   3.666   0.395   2.199
10707SOL     OW33019   0.623   6.830   3.610
10707SOL    HW133020   0.663   6.904   3.557
10707SOL    HW233021   0.666   6.825   3.700
10708SOL     OW33022   3.755   1.383   1.466
10708SOL    HW133023   3.816   1.352   1.393
10708SOL    HW233024   3.711   1.304   1.509
10709SOL     OW33025   5.280   5.165   4.829
10709SOL    HW133026   5.268   5.256   4.790
10709SOL    HW233027   5.268   5.096   4.758
10710SOL     OW33028   6.080   0.815   3.807
10710SOL    HW133029   5.980   0.811   3.812
10710SOL    HW233030   6.110   0.776   3.720
10711SOL     OW33031   1.846   6.619   3.770
10711SOL    HW133032   1.937   6.654   3.793
10711SOL    HW233033   1.778   6.692   3.779
10712SOL     OW33034   3.028   0.938   2.352
10712SOL    HW133035   2.944   0.923   2.404
10712SOL    HW233036   3.082   1.011   2.396
10713SOL     OW33037   0.694   3.352   0.906
10713SOL    HW133038   0.665   3.317   0.995
10713SOL    HW233039   0.630   3.422   0.875
10714SOL     OW33040   4.949   3.682   5.938
10714SOL    HW133041   5.010   3.603   5.943
10714SOL    HW233042   4.880   3.676   6.010
10715SOL     OW33043   4.699   0.454   2.264
10715SOL    HW133044   4.707   0.490   2.356
10715SOL    HW233045   4.773   0.490   2.207
10716SOL     OW33046   5.788   2.651   3.505
10716SOL    HW133047   5.831   2.688   3.422
10716SOL    HW233048   5.793   2.720   3.578
10717SOL     OW33049   1.840   2.615   1.358
10717SOL    HW133050   1.775   2.566   1.417
10717SOL    HW233051   1.913   2.552   1.331
10718SOL     OW33052   0.804   3.862   0.350
10718SOL    HW133053   0.825   3.904   0.262
10718SOL    HW233054   0.827   3.765   0.347
10719SOL     OW33055   7.023   5.669   2.694
10719SOL    HW133056   0.073   5.648   2.751
10719SOL    HW233057   7.006   5.768   2.696
10720SOL     OW33058   6.694   4.656   5.096
10720SOL    HW133059   6.616   4.711   5.067
10720SOL    HW233060   6.690   4.643   5.195
10721SOL     OW33061   4.925   3.330   5.342
10721SOL    HW133062   4.937   3.285   5.430
10721SOL    HW233063   4.895   3.425   5.357
10722SOL     OW33064   1.265   4.984   0.302
10722SOL    HW133065   1.305   4.974   0.211
10722SOL    HW233066   1.193   5.053   0.299
10723SOL     OW33067   7.001   2.496   6.706
10723SOL    HW133068   0.034   2.497   6.784
10723SOL    HW233069   7.015   2.579   6.651
10724SOL     OW33070   6.008   0.463   6.646
10724SOL    HW133071   5.944   0.526   6.603
10724SOL    HW233072   6.025   0.386   6.585
10725SOL     OW33073   1.615   5.748   4.989
10725SOL    HW133074   1.646   5.750   5.084
10725SOL    HW233075   1.570   5.834   4.967
10726SOL     OW33076   5.456   0.527   4.224
10726SOL    HW133077   5.511   0.533   4.307
10726SOL    HW233078   5.514   0.543   4.144
10727SOL     OW33079   0.210   5.659   5.943
10727SOL    HW133080   0.145   5.585   5.924
10727SOL    HW233081   0.278   5.627   6.009
10728SOL     OW33082   1.492   5.401   6.862
10728SOL    HW133083   1.445   5.473   6.913
10728SOL    HW233084   1.430   5.325   6.848
10729SOL     OW33085   4.632   1.302   2.576
10729SOL    HW133086   4.645   1.359   2.657
10729SOL    HW233087   4.701   1.230   2.573
10730SOL     OW33088   1.403   0.644   1.362
10730SOL    HW133089   1.330   0.699   1.322
10730SOL    HW233090   1.435   0.688   1.447
10731SOL     OW33091   3.480   1.085   0.797
10731SOL    HW133092   3.413   1.123   0.861
10731SOL    HW233093   3.435   1.025   0.732
10732SOL     OW33094   6.465   4.882   4.630
10732SOL    HW133095   6.439   4.815   4.561
10732SOL    HW233096   6.563   4.898   4.626
10733SOL     OW33097   6.989   1.451   0.131
10733SOL    HW133098   6.974   1.355   0.106
10733SOL    HW233099   6.906   1.489   0.170
10734SOL     OW33100   0.978   0.978   0.197
10734SOL    HW133101   1.030   0.987   0.282
10734SOL    HW233102   0.977   0.882   0.168
10735SOL     OW33103   7.019   2.852   2.480
10735SOL    HW133104   6.992   2.844   2.576
10735SOL    HW233105   6.937   2.862   2.424
10736SOL     OW33106   0.915   0.423   3.767
10736SOL    HW133107   1.007   0.395   3.795
10736SOL    HW233108   0.896   0.514   3.803
10737SOL     OW33109   1.323   1.920   0.333
10737SOL    HW133110   1.322   1.863   0.415
10737SOL    HW233111   1.230   1.948   0.310
10738SOL     OW33112   2.352   0.606   2.932
10738SOL    HW133113   2.273   0.623   2.874
10738SOL    HW233114   2.434   0.599   2.875
10739SOL     OW33115   1.822   1.310   0.977
10739SOL    HW133116   1.827   1.383   1.045
10739SOL    HW233117   1.785   1.348   0.891
10740SOL     OW33118   7.008   4.980   4.891
10740SOL    HW133119   6.959   4.894   4.904
10740SOL    HW233120   0.004   4.989   4.795
10741SOL     OW33121   4.556   0.871   1.056
10741SOL    HW133122   4.618   0.792   1.056
10741SOL    HW233123   4.519   0.884   0.964
10742SOL     OW33124   5.550   6.688   1.305
10742SOL    HW133125   5.589   6.768   1.350
10742SOL    HW233126   5.456   6.708   1.279
10743SOL     OW33127   1.390   1.623   5.493
10743SOL    HW133128   1.394   1.645   5.590
10743SOL    HW233129   1.347   1.534   5.480
10744SOL     OW33130   3.633   1.508   0.926
10744SOL    HW133131   3.611   1.428   0.871
10744SOL    HW233132   3.731   1.509   0.947
10745SOL     OW33133   0.401   5.797   6.699
10745SOL    HW133134   0.347   5.860   6.756
10745SOL    HW233135   0.406   5.708   6.743
10746SOL     OW33136   2.565   4.963   1.413
10746SOL    HW133137   2.593   4.892   1.477
10746SOL    HW233138   2.565   4.927   1.320
10747SOL     OW33139   4.216   1.171   4.597
10747SOL    HW133140   4.169   1.253   4.566
10747SOL    HW233141   4.312   1.175   4.568
10748SOL     OW33142   5.578   1.055   0.921
10748SOL    HW133143   5.527   1.098   0.847
10748SOL    HW233144   5.543   1.087   1.009
10749SOL     OW33145   0.143   5.844   3.627
10749SOL    HW133146   0.229   5.800   3.603
10749SOL    HW233147   0.090   5.783   3.687
10750SOL     OW33148   4.342   6.267   4.165
10750SOL    HW133149   4.389   6.181   4.142
10750SOL    HW233150   4.258   6.275   4.112
10751SOL     OW33151   1.889   4.697   4.638
10751SOL    HW133152   1.837   4.627   4.589
10751SOL    HW233153   1.839   4.784   4.635
10752SOL     OW33154   6.276   4.267   5.737
10752SOL    HW133155   6.246   4.344   5.792
10752SOL    HW233156   6.256   4.285   5.641
10753SOL     OW33157   5.113   4.508   4.610
10753SOL    HW133158   5.102   4.588   4.669
10753SOL    HW233159   5.124   4.538   4.515
10754SOL     OW33160   0.594   0.556   2.970
10754SOL    HW133161   0.627   0.531   2.879
10754SOL    HW233162   0.549   0.646   2.966
10755SOL     OW33163   0.035   0.963   0.400
10755SOL    HW133164   0.031   0.984   0.498
10755SOL    HW233165   0.097   1.027   0.355
10756SOL     OW33166   6.495   4.906   6.747
10756SOL    HW133167   6.410   4.862   6.778
10756SOL    HW233168   6.518   4.873   6.656
10757SOL     OW33169   1.492   3.006   0.291
10757SOL    HW133170   1.509   3.050   0.380
10757SOL    HW233171   1.519   2.910   0.296
10758SOL     OW33172   1.007   6.272   4.250
10758SOL    HW133173   1.015   6.178   4.282
10758SOL    HW233174   0.916   6.307   4.272
10759SOL     OW33175   1.913   2.856   1.432
10759SOL    HW133176   1.905   2.757   1.413
10759SOL    HW233177   1.968   2.898   1.360
10760SOL     OW33178   5.541   0.052   2.591
10760SOL    HW133179   5.546   0.052   2.491
10760SOL    HW233180   5.457   0.096   2.620
10761SOL     OW33181   0.764   6.038   6.235
10761SOL    HW133182   0.857   6.075   6.234
10761SOL    HW233183   0.762   5.950   6.188
10762SOL     OW33184   3.282   2.150   4.205
10762SOL    HW133185   3.265   2.213   4.129
10762SOL    HW233186   3.381   2.140   4.219
10763SOL     OW33187   4.860   6.947   3.014
10763SOL    HW133188   4.869   6.987   3.106
10763SOL    HW233189   4.798   6.869   3.017
10764SOL     OW33190   5.021   2.360   6.137
10764SOL    HW133191   5.020   2.312   6.049
10764SOL    HW233192   4.936   2.342   6.186
10765SOL     OW33193   5.342   2.565   1.034
10765SOL    HW133194   5.293   2.495   1.085
10765SOL    HW233195   5.286   2.647   1.027
10766SOL     OW33196   4.761   4.740   0.484
10766SOL    HW133197   4.721   4.783   0.403
10766SOL    HW233198   4.861   4.749   0.481
10767SOL     OW33199   1.868   0.149   0.897
10767SOL    HW133200   1.771   0.128   0.886
10767SOL    HW233201   1.907   0.177   0.809
10768SOL     OW33202   4.993   5.242   1.518
10768SOL    HW133203   4.926   5.250   1.444
10768SOL    HW233204   4.974   5.160   1.571
10769SOL     OW33205   2.342   4.213   5.289
10769SOL    HW133206   2.373   4.126   5.250
10769SOL    HW233207   2.243   4.222   5.279
10770SOL     OW33208   5.377   6.514   4.903
10770SOL    HW133209   5.444   6.451   4.864
10770SOL    HW233210   5.302   6.527   4.838
10771SOL     OW33211   5.122   0.215   3.139
10771SOL    HW133212   5.110   0.137   3.200
10771SOL    HW233213   5.126   0.300   3.193
10772SOL     OW33214   5.831   0.499   3.859
10772SOL    HW133215   5.922   0.523   3.892
10772SOL    HW233216   5.826   0.515   3.761
10773SOL     OW33217   6.112   5.067   6.160
10773SOL    HW133218   6.113   5.019   6.072
10773SOL    HW233219   6.135   5.163   6.146
10774SOL     OW33220   2.600   1.771   5.999
10774SOL    HW133221   2.632   1.700   6.061
10774SOL    HW233222   2.609   1.739   5.905
10775SOL     OW33223   0.520   4.591   2.293
10775SOL    HW133224   0.611   4.552   2.303
10775SOL    HW233225   0.506   4.662   2.362
10776SOL     OW33226   0.431   0.987   6.459
10776SOL    HW133227   0.505   1.017   6.519
10776SOL    HW233228   0.453   1.010   6.365
10777SOL     OW33229   4.062   5.718   1.812
10777SOL    HW133230   4.128   5.643   1.821
10777SOL    HW233231   3.975   5.690   1.853
10778SOL     OW33232   5.169   6.806   3.829
10778SOL    HW133233   5.254   6.782   3.783
10778SOL    HW233234   5.187   6.827   3.925
10779SOL     OW33235   6.583   2.854   3.301
10779SOL    HW133236   6.497   2.806   3.282
10779SOL    HW233237   6.600   2.854   3.399
10780SOL     OW33238   1.887   0.726   3.895
10780SOL    HW133239   1.985   0.719   3.913
10780SOL    HW233240   1.862   0.822   3.881
10781SOL     OW33241   4.494   1.074   4.263
10781SOL    HW133242   4.432   1.152   4.249
10781SOL    HW233243   4.465   1.022   4.343
10782SOL     OW33244   7.017   1.154   2.745
10782SOL    HW133245   0.087   1.138   2.748
10782SOL    HW233246   6.971   1.071   2.714
10783SOL     OW33247   0.600   2.317   2.682
10783SOL    HW133248   0.636   2.386   2.745
10783SOL    HW233249   0.500   2.320   2.684
10784SOL     OW33250   3.988   6.966   3.919
10784SOL    HW133251   4.006   0.004   3.847
10784SOL    HW233252   3.901   6.921   3.902
10785SOL     OW33253   0.386   4.445   0.698
10785SOL    HW133254   0.430   4.530   0.668
10785SOL    HW233255   0.325   4.464   0.775
10786SOL     OW33256   6.481   4.661   3.720
10786SOL    HW133257   6.446   4.743   3.675
10786SOL    HW233258   6.540   4.611   3.657
10787SOL     OW33259   1.466   1.284   5.910
10787SOL    HW133260   1.491   1.366   5.961
10787SOL    HW233261   1.505   1.203   5.955
10788SOL     OW33262   1.810   4.405   6.748
10788SOL    HW133263   1.900   4.365   6.765
10788SOL    HW233264   1.806   4.497   6.789
10789SOL     OW33265   6.313   3.017   6.406
10789SOL    HW133266   6.260   2.942   6.446
10789SOL    HW233267   6.345   2.991   6.315
10790SOL     OW33268   0.675   0.536   1.911
10790SOL    HW133269   0.599   0.488   1.867
10790SOL    HW233270   0.646   0.628   1.939
10791SOL     OW33271   0.066   6.451   1.818
10791SOL    HW133272   7.009   6.445   1.869
10791SOL    HW233273   0.116   6.365   1.828
10792SOL     OW33274   3.218   2.920   5.078
10792SOL    HW133275   3.219   2.974   5.163
10792SOL    HW233276   3.134   2.867   5.073
10793SOL     OW33277   5.761   3.178   5.704
10793SOL    HW133278   5.785   3.134   5.791
10793SOL    HW233279   5.695   3.121   5.655
10794SOL     OW33280   4.123   3.389   4.387
10794SOL    HW133281   4.196   3.422   4.446
10794SOL    HW233282   4.091   3.300   4.419
10795SOL     OW33283   0.373   5.076   2.561
10795SOL    HW133284   0.275   5.064   2.577
10795SOL    HW233285   0.388   5.132   2.480
10796SOL     OW33286   6.652   6.525   5.724
10796SOL    HW133287   6.730   6.463   5.730
10796SOL    HW233288   6.597   6.502   5.643
10797SOL     OW33289   2.981   2.491   1.317
10797SOL    HW133290   3.049   2.425   1.348
10797SOL    HW233291   3.026   2.565   1.268
10798SOL     OW33292   2.916   0.906   0.157
10798SOL    HW133293   2.946   0.932   0.249
10798SOL    HW233294   2.895   0.988   0.104
10799SOL     OW33295   4.276   1.386   2.229
10799SOL    HW133296   4.330   1.392   2.313
10799SOL    HW233297   4.190   1.436   2.242
10800SOL     OW33298   0.415   6.181   5.468
10800SOL    HW133299   0.407   6.271   5.425
10800SOL    HW233300   0.440   6.113   5.399
10801SOL     OW33301   1.232   0.333   0.106
10801SOL    HW133302   1.251   0.260   0.171
10801SOL    HW233303   1.295   0.409   0.121
10802SOL     OW33304   0.394   0.343   2.018
10802SOL    HW133305   0.307   0.297   2.001
10802SOL    HW233306   0.410   0.348   2.117
10803SOL     OW33307   1.803   5.429   5.731
10803SOL    HW133308   1.807   5.366   5.809
10803SOL    HW233309   1.715   5.417   5.685
10804SOL     OW33310   6.022   3.649   2.877
10804SOL    HW133311   6.106   3.653   2.931
10804SOL    HW233312   5.971   3.566   2.900
10805SOL     OW33313   4.577   6.963   5.468
10805SOL    HW133314   4.526   6.877   5.470
10805SOL    HW233315   4.609   6.982   5.375
10806SOL     OW33316   3.924   4.070   6.315
10806SOL    HW133317   3.914   4.032   6.223
10806SOL    HW233318   3.853   4.139   6.330
10807SOL     OW33319   1.854   7.004   3.293
10807SOL    HW133320   1.892   6.971   3.379
10807SOL    HW233321   1.755   7.008   3.299
10808SOL     OW33322   0.357   2.903   6.270
10808SOL    HW133323   0.444   2.874   6.309
10808SOL    HW233324   0.368   2.920   6.172
10809SOL     OW33325   2.175   4.101   3.870
10809SOL    HW133326   2.168   4.035   3.795
10809SOL    HW233327   2.211   4.187   3.834
10810SOL     OW33328   6.916   6.987   4.427
10810SOL    HW133329   6.915   0.037   4.365
10810SOL    HW233330   6.971   6.914   4.386
10811SOL     OW33331   4.264   4.511   5.901
10811SOL    HW133332   4.221   4.423   5.882
10811SOL    HW233333   4.198   4.572   5.945
10812SOL     OW33334   6.738   3.771   0.646
10812SOL    HW133335   6.664   3.734   0.590
10812SOL    HW233336   6.751   3.714   0.727
10813SOL     OW33337   0.730   3.946   5.993
10813SOL    HW133338   0.766   4.028   5.949
10813SOL    HW233339   0.736   3.869   5.930
10814SOL     OW33340   1.774   0.206   6.534
10814SOL    HW133341   1.685   0.240   6.566
10814SOL    HW233342   1.845   0.229   6.600
10815SOL     OW33343   4.899   3.097   2.923
10815SOL    HW133344   4.861   3.151   2.848
10815SOL    HW233345   4.998   3.112   2.928
10816SOL     OW33346   3.025   3.156   2.318
10816SOL    HW133347   3.059   3.109   2.236
10816SOL    HW233348   2.977   3.239   2.290
10817SOL     OW33349   3.825   0.325   3.645
10817SOL    HW133350   3.831   0.422   3.621
10817SOL    HW233351   3.889   0.305   3.719
10818SOL     OW33352   4.735   3.878   5.331
10818SOL    HW133353   4.731   3.978   5.336
10818SOL    HW233354   4.643   3.840   5.337
10819SOL     OW33355   5.905   4.651   6.408
10819SOL    HW133356   5.930   4.690   6.497
10819SOL    HW233357   5.836   4.709   6.365
10820SOL     OW33358   0.461   5.306   4.393
10820SOL    HW133359   0.464   5.242   4.470
10820SOL    HW233360   0.554   5.335   4.371
10821SOL     OW33361   4.346   7.012   3.392
10821SOL    HW133362   4.383   7.003   3.484
10821SOL    HW233363   4.246   7.023   3.397
10822SOL     OW33364   6.111   1.963   2.511
10822SOL    HW133365   6.132   2.008   2.425
10822SOL    HW233366   6.020   1.921   2.506
10823SOL     OW33367   0.830   0.613   2.150
10823SOL    HW133368   0.784   0.581   2.068
10823SOL    HW233369   0.850   0.536   2.210
10824SOL     OW33370   0.483   0.359   2.319
10824SOL    HW133371   0.553   0.342   2.388
10824SOL    HW233372   0.441   0.449   2.335
10825SOL     OW33373   2.464   1.883   0.322
10825SOL    HW133374   2.372   1.896   0.286
10825SOL    HW233375   2.531   1.923   0.259
10826SOL     OW33376   1.079   1.075   2.855
10826SOL    HW133377   1.045   0.983   2.871
10826SOL    HW233378   1.176   1.072   2.833
10827SOL     OW33379   0.283   3.523   5.103
10827SOL    HW133380   0.222   3.598   5.079
10827SOL    HW233381   0.361   3.522   5.041
10828SOL     OW33382   2.169   4.565   0.876
10828SOL    HW133383   2.161   4.644   0.816
10828SOL    HW233384   2.082   4.515   0.878
10829SOL     OW33385   5.382   2.804   0.080
10829SOL    HW133386   5.463   2.830   0.028
10829SOL    HW233387   5.306   2.788   0.017
10830SOL     OW33388   4.443   1.741   2.917
10830SOL    HW133389   4.517   1.736   2.850
10830SOL    HW233390   4.384   1.819   2.896
10831SOL     OW33391   3.081   6.185   2.139
10831SOL    HW133392   3.125   6.180   2.229
10831SOL    HW233393   3.070   6.093   2.102
10832SOL     OW33394   0.111   3.903   6.237
10832SOL    HW133395   0.054   3.823   6.254
10832SOL    HW233396   0.206   3.884   6.263
10833SOL     OW33397   0.263   1.606   1.372
10833SOL    HW133398   0.303   1.599   1.281
10833SOL    HW233399   0.305   1.539   1.432
10834SOL     OW33400   5.845   1.506   0.375
10834SOL    HW133401   5.863   1.440   0.301
10834SOL    HW233402   5.932   1.537   0.413
10835SOL     OW33403   6.177   3.138   6.902
10835SOL    HW133404   6.129   3.166   6.819
10835SOL    HW233405   6.244   3.068   6.879
10836SOL     OW33406   0.354   1.712   3.364
10836SOL    HW133407   0.362   1.647   3.440
10836SOL    HW233408   0.364   1.805   3.398
10837SOL     OW33409   6.930   4.877   1.470
10837SOL    HW133410   6.874   4.958   1.488
10837SOL    HW233411   7.016   4.905   1.427
10838SOL     OW33412   6.400   6.842   4.021
10838SOL    HW133413   6.409   6.914   4.090
10838SOL    HW233414   6.476   6.847   3.957
10839SOL     OW33415   4.315   4.003   0.691
10839SOL    HW133416   4.399   3.949   0.690
10839SOL    HW233417   4.295   4.035   0.598
10840SOL     OW33418   3.440   6.296   2.171
10840SOL    HW133419   3.471   6.389   2.191
10840SOL    HW233420   3.380   6.264   2.244
10841SOL     OW33421   5.900   4.610   4.864
10841SOL    HW133422   5.939   4.698   4.888
10841SOL    HW233423   5.832   4.622   4.791
10842SOL     OW33424   4.995   2.461   1.455
10842SOL    HW133425   4.909   2.477   1.406
10842SOL    HW233426   5.016   2.540   1.512
10843SOL     OW33427   1.614   1.242   1.193
10843SOL    HW133428   1.700   1.260   1.240
10843SOL    HW233429   1.595   1.144   1.193
10844SOL     OW33430   0.292   5.216   2.982
10844SOL    HW133431   0.312   5.295   2.923
10844SOL    HW233432   0.366   5.205   3.048
10845SOL     OW33433   3.915   6.304   5.484
10845SOL    HW133434   3.974   6.385   5.478
10845SOL    HW233435   3.835   6.325   5.541
10846SOL     OW33436   5.218   0.145   6.613
10846SOL    HW133437   5.138   0.204   6.613
10846SOL    HW233438   5.240   0.117   6.519
10847SOL     OW33439   3.344   2.355   6.997
10847SOL    HW133440   3.361   2.257   7.005
10847SOL    HW233441   3.429   2.405   7.013
10848SOL     OW33442   1.199   4.147   0.620
10848SOL    HW133443   1.275   4.154   0.685
10848SOL    HW233444   1.134   4.078   0.653
10849SOL     OW33445   2.543   4.548   4.104
10849SOL    HW133446   2.486   4.472   4.136
10849SOL    HW233447   2.563   4.535   4.007
10850SOL     OW33448   3.583   6.518   6.075
10850SOL    HW133449   3.487   6.493   6.066
10850SOL    HW233450   3.627   6.516   5.985
10851SOL     OW33451   3.306   3.657   0.834
10851SOL    HW133452   3.326   3.604   0.751
10851SOL    HW233453   3.262   3.597   0.901
10852SOL     OW33454   1.351   0.630   6.704
10852SOL    HW133455   1.273   0.585   6.747
10852SOL    HW233456   1.319   0.709   6.651
10853SOL     OW33457   2.357   2.804   5.666
10853SOL    HW133458   2.377   2.803   5.764
10853SOL    HW233459   2.280   2.866   5.649
10854SOL     OW33460   4.459   5.297   5.261
10854SOL    HW133461   4.475   5.222   5.325
10854SOL    HW233462   4.523   5.371   5.280
10855SOL     OW33463   4.177   0.740   6.836
10855SOL    HW133464   4.118   0.685   6.777
10855SOL    HW233465   4.262   0.691   6.853
10856SOL     OW33466   5.668   1.333   0.513
10856SOL    HW133467   5.704   1.245   0.481
10856SOL    HW233468   5.702   1.406   0.453
10857SOL     OW33469   1.002   2.372   2.658
10857SOL    HW133470   0.973   2.438   2.588
10857SOL    HW233471   1.075   2.314   2.622
10858SOL     OW33472   0.784   0.873   0.420
10858SOL    HW133473   0.735   0.792   0.451
10858SOL    HW233474   0.883   0.858   0.426
10859SOL     OW33475   0.882   4.662   4.613
10859SOL    HW133476   0.866   4.751   4.655
10859SOL    HW233477   0.875   4.671   4.513
10860SOL     OW33478   0.437   3.232   4.809
10860SOL    HW133479   0.487   3.189   4.733
10860SOL    HW233480   0.340   3.236   4.786
10861SOL     OW33481   3.253   3.627   3.204
10861SOL    HW133482   3.320   3.623   3.130
10861SOL    HW233483   3.279   3.699   3.269
10862SOL     OW33484   0.973   0.911   5.968
10862SOL    HW133485   0.925   0.867   6.043
10862SOL    HW233486   0.993   1.006   5.992
10863SOL     OW33487   1.656   0.697   4.443
10863SOL    HW133488   1.675   0.626   4.510
10863SOL    HW233489   1.611   0.657   4.364
10864SOL     OW33490   3.135   6.076   0.017
10864SOL    HW133491   3.104   6.158   0.065
10864SOL    HW233492   3.233   6.085   7.026
10865SOL     OW33493   6.372   1.139   0.955
10865SOL    HW133494   6.370   1.173   0.861
10865SOL    HW233495   6.394   1.214   1.017
10866SOL     OW33496   5.211   4.502   0.845
10866SOL    HW133497   5.228   4.433   0.775
10866SOL    HW233498   5.113   4.509   0.863
10867SOL     OW33499   3.396   4.074   0.851
10867SOL    HW133500   3.433   4.162   0.822
10867SOL    HW233501   3.300   4.066   0.825
10868SOL     OW33502   4.763   1.524   3.990
10868SOL    HW133503   4.820   1.603   3.969
10868SOL    HW233504   4.816   1.440   3.978
10869NA      NA33505   6.454   3.178   5.205
10870NA      NA33506   4.410   4.639   5.214
10871NA      NA33507   1.577   2.833   1.643
10872NA      NA33508   5.024   3.641   5.129
10873NA      NA33509   4.277   2.428   5.296
10874NA      NA33510   3.559   4.853   1.724
10875NA      NA33511   6.592   5.085   6.885
10876NA      NA33512   3.378   3.132   4.742
10877NA      NA33513   4.562   5.941   0.146
10878NA      NA33514   4.204   6.352   5.101
10879NA      NA33515   6.374   5.202   2.424
10880NA      NA33516   2.167   6.837   3.626
10881NA      NA33517   4.073   5.967   1.859
10882NA      NA33518   3.310   3.899   2.141
   7.02914   7.02914   7.02914
