Generated by trjconv : CNT in water t=   9.00000
33518
    1C        C    1   2.839   2.764   4.744
    1C        C    2   2.896   2.719   4.866
    1C        C    3   2.842   2.772   4.984
    1C        C    4   2.845   2.772   4.260
    1C        C    5   2.900   2.725   4.381
    1C        C    6   2.845   2.771   4.503
    1C        C    7   3.007   2.632   4.626
    1C        C    8   2.892   2.714   4.623
    1C        C    9   3.076   2.600   4.745
    1C        C   10   3.004   2.629   4.863
    1C        C   11   3.178   2.492   4.976
    1C        C   12   3.056   2.560   4.973
    1C        C   13   2.850   2.768   3.770
    1C        C   14   2.898   2.719   3.893
    1C        C   15   2.847   2.773   4.014
    1C        C   16   3.013   2.645   4.137
    1C        C   17   2.896   2.724   4.137
    1C        C   18   3.078   2.614   4.258
    1C        C   19   3.017   2.646   4.382
    1C        C   20   3.204   2.553   4.501
    1C        C   21   3.072   2.602   4.504
    1C        C   22   3.276   2.535   4.622
    1C        C   23   3.209   2.549   4.746
    1C        C   24   3.411   2.481   4.866
    1C        C   25   3.269   2.505   4.866
    1C        C   26   3.489   2.473   4.982
    1C        C   27   2.845   2.764   3.283
    1C        C   28   2.902   2.717   3.403
    1C        C   29   2.851   2.767   3.525
    1C        C   30   3.018   2.639   3.648
    1C        C   31   2.904   2.722   3.648
    1C        C   32   3.076   2.605   3.772
    1C        C   33   3.014   2.638   3.895
    1C        C   34   3.206   2.549   4.017
    1C        C   35   3.076   2.604   4.017
    1C        C   36   3.275   2.531   4.139
    1C        C   37   3.208   2.558   4.260
    1C        C   38   3.415   2.509   4.380
    1C        C   39   3.276   2.532   4.381
    1C        C   40   3.485   2.497   4.502
    1C        C   41   3.413   2.503   4.624
    1C        C   42   3.627   2.484   4.744
    1C        C   43   3.484   2.484   4.744
    1C        C   44   3.703   2.487   4.863
    1C        C   45   3.628   2.470   4.980
    1C        C   46   2.838   2.755   2.788
    1C        C   47   2.893   2.713   2.911
    1C        C   48   2.846   2.759   3.036
    1C        C   49   3.016   2.640   3.157
    1C        C   50   2.898   2.717   3.161
    1C        C   51   3.080   2.604   3.278
    1C        C   52   3.019   2.638   3.402
    1C        C   53   3.208   2.546   3.528
    1C        C   54   3.079   2.604   3.525
    1C        C   55   3.276   2.521   3.649
    1C        C   56   3.206   2.550   3.767
    1C        C   57   3.410   2.509   3.893
    1C        C   58   3.270   2.530   3.892
    1C        C   59   3.485   2.501   4.012
    1C        C   60   3.414   2.504   4.135
    1C        C   61   3.625   2.503   4.257
    1C        C   62   3.484   2.498   4.257
    1C        C   63   3.697   2.506   4.379
    1C        C   64   3.626   2.496   4.501
    1C        C   65   3.832   2.540   4.619
    1C        C   66   3.697   2.501   4.623
    1C        C   67   3.900   2.563   4.741
    1C        C   68   3.840   2.523   4.862
    1C        C   69   4.048   2.582   4.977
    1C        C   70   3.919   2.528   4.977
    1C        C   71   2.823   2.734   2.304
    1C        C   72   2.882   2.693   2.426
    1C        C   73   2.827   2.742   2.546
    1C        C   74   3.004   2.622   2.668
    1C        C   75   2.886   2.699   2.667
    1C        C   76   3.068   2.595   2.791
    1C        C   77   3.010   2.633   2.914
    1C        C   78   3.205   2.546   3.033
    1C        C   79   3.074   2.600   3.035
    1C        C   80   3.270   2.523   3.157
    1C        C   81   3.206   2.541   3.281
    1C        C   82   3.410   2.493   3.398
    1C        C   83   3.272   2.520   3.404
    1C        C   84   3.480   2.494   3.521
    1C        C   85   3.416   2.501   3.646
    1C        C   86   3.623   2.505   3.766
    1C        C   87   3.482   2.502   3.772
    1C        C   88   3.692   2.512   3.889
    1C        C   89   3.626   2.504   4.013
    1C        C   90   3.833   2.550   4.136
    1C        C   91   3.696   2.514   4.136
    1C        C   92   3.900   2.569   4.259
    1C        C   93   3.834   2.537   4.379
    1C        C   94   4.028   2.632   4.500
    1C        C   95   3.904   2.564   4.499
    1C        C   96   4.092   2.666   4.621
    1C        C   97   4.028   2.626   4.740
    1C        C   98   4.186   2.765   4.860
    1C        C   99   4.094   2.656   4.863
    1C        C  100   4.213   2.838   4.977
    1C        C  101   2.822   2.731   2.064
    1C        C  102   2.987   2.593   2.188
    1C        C  103   2.869   2.675   2.183
    1C        C  104   3.063   2.573   2.306
    1C        C  105   3.000   2.616   2.425
    1C        C  106   3.198   2.533   2.548
    1C        C  107   3.068   2.589   2.546
    1C        C  108   3.267   2.519   2.670
    1C        C  109   3.198   2.538   2.791
    1C        C  110   3.408   2.491   2.911
    1C        C  111   3.269   2.518   2.911
    1C        C  112   3.476   2.491   3.035
    1C        C  113   3.409   2.496   3.160
    1C        C  114   3.627   2.494   3.275
    1C        C  115   3.486   2.488   3.278
    1C        C  116   3.689   2.504   3.402
    1C        C  117   3.621   2.497   3.526
    1C        C  118   3.834   2.542   3.640
    1C        C  119   3.696   2.509   3.645
    1C        C  120   3.893   2.567   3.766
    1C        C  121   3.829   2.546   3.890
    1C        C  122   4.020   2.640   4.011
    1C        C  123   3.897   2.570   4.012
    1C        C  124   4.082   2.677   4.132
    1C        C  125   4.026   2.634   4.255
    1C        C  126   4.194   2.762   4.375
    1C        C  127   4.083   2.676   4.377
    1C        C  128   4.242   2.818   4.496
    1C        C  129   4.194   2.763   4.617
    1C        C  130   4.325   2.931   4.741
    1C        C  131   4.242   2.815   4.739
    1C        C  132   4.357   2.999   4.860
    1C        C  133   4.284   2.957   4.972
    1C        C  134   3.167   2.465   2.082
    1C        C  135   3.033   2.507   2.083
    1C        C  136   3.258   2.477   2.188
    1C        C  137   3.193   2.515   2.308
    1C        C  138   3.406   2.482   2.426
    1C        C  139   3.267   2.506   2.428
    1C        C  140   3.478   2.479   2.548
    1C        C  141   3.406   2.495   2.669
    1C        C  142   3.620   2.498   2.793
    1C        C  143   3.480   2.486   2.790
    1C        C  144   3.693   2.509   2.914
    1C        C  145   3.617   2.500   3.033
    1C        C  146   3.830   2.540   3.154
    1C        C  147   3.694   2.504   3.151
    1C        C  148   3.894   2.567   3.277
    1C        C  149   3.826   2.539   3.398
    1C        C  150   4.025   2.628   3.519
    1C        C  151   3.900   2.561   3.517
    1C        C  152   4.075   2.668   3.645
    1C        C  153   4.017   2.634   3.770
    1C        C  154   4.191   2.764   3.885
    1C        C  155   4.078   2.679   3.889
    1C        C  156   4.242   2.807   4.010
    1C        C  157   4.193   2.765   4.135
    1C        C  158   4.340   2.921   4.252
    1C        C  159   4.249   2.813   4.256
    1C        C  160   4.375   2.980   4.375
    1C        C  161   4.330   2.929   4.499
    1C        C  162   4.436   3.114   4.616
    1C        C  163   4.367   2.991   4.620
    1C        C  164   4.468   3.180   4.736
    1C        C  165   4.433   3.118   4.859
    1C        C  166   4.521   3.318   4.972
    1C        C  167   4.477   3.186   4.973
    1C        C  168   3.474   2.447   2.070
    1C        C  169   3.398   2.460   2.186
    1C        C  170   3.617   2.463   2.306
    1C        C  171   3.475   2.463   2.305
    1C        C  172   3.691   2.483   2.425
    1C        C  173   3.619   2.480   2.546
    1C        C  174   3.824   2.534   2.664
    1C        C  175   3.686   2.503   2.668
    1C        C  176   3.894   2.560   2.785
    1C        C  177   3.831   2.538   2.909
    1C        C  178   4.024   2.624   3.031
    1C        C  179   3.898   2.561   3.032
    1C        C  180   4.086   2.663   3.152
    1C        C  181   4.022   2.626   3.273
    1C        C  182   4.194   2.749   3.400
    1C        C  183   4.083   2.662   3.395
    1C        C  184   4.241   2.804   3.521
    1C        C  185   4.187   2.754   3.642
    1C        C  186   4.329   2.918   3.767
    1C        C  187   4.240   2.809   3.761
    1C        C  188   4.372   2.977   3.888
    1C        C  189   4.330   2.917   4.009
    1C        C  190   4.442   3.104   4.130
    1C        C  191   4.375   2.980   4.128
    1C        C  192   4.465   3.173   4.251
    1C        C  193   4.436   3.108   4.373
    1C        C  194   4.507   3.312   4.491
    1C        C  195   4.458   3.180   4.492
    1C        C  196   4.522   3.386   4.610
    1C        C  197   4.512   3.315   4.732
    1C        C  198   4.560   3.529   4.850
    1C        C  199   4.535   3.388   4.852
    1C        C  200   4.579   3.618   4.960
    1C        C  201   3.611   2.416   2.073
    1C        C  202   3.825   2.509   2.181
    1C        C  203   3.691   2.457   2.185
    1C        C  204   3.896   2.538   2.300
    1C        C  205   3.828   2.519   2.422
    1C        C  206   4.020   2.614   2.542
    1C        C  207   3.895   2.549   2.543
    1C        C  208   4.081   2.654   2.663
    1C        C  209   4.019   2.625   2.787
    1C        C  210   4.195   2.745   2.908
    1C        C  211   4.085   2.657   2.908
    1C        C  212   4.251   2.794   3.028
    1C        C  213   4.197   2.749   3.150
    1C        C  214   4.331   2.906   3.274
    1C        C  215   4.243   2.796   3.276
    1C        C  216   4.370   2.971   3.393
    1C        C  217   4.330   2.914   3.516
    1C        C  218   4.428   3.096   3.641
    1C        C  219   4.368   2.968   3.641
    1C        C  220   4.462   3.166   3.759
    1C        C  221   4.439   3.101   3.883
    1C        C  222   4.502   3.303   4.002
    1C        C  223   4.466   3.167   4.005
    1C        C  224   4.515   3.376   4.122
    1C        C  225   4.505   3.308   4.246
    1C        C  226   4.513   3.521   4.365
    1C        C  227   4.513   3.380   4.367
    1C        C  228   4.515   3.595   4.486
    1C        C  229   4.527   3.527   4.609
    1C        C  230   4.502   3.739   4.726
    1C        C  231   4.539   3.602   4.729
    1C        C  232   4.490   3.814   4.845
    1C        C  233   4.543   3.753   4.960
    1C        C  234   4.017   2.607   2.061
    1C        C  235   3.893   2.544   2.063
    1C        C  236   4.082   2.647   2.179
    1C        C  237   4.022   2.605   2.300
    1C        C  238   4.196   2.734   2.423
    1C        C  239   4.083   2.647   2.420
    1C        C  240   4.251   2.784   2.543
    1C        C  241   4.193   2.739   2.664
    1C        C  242   4.325   2.909   2.783
    1C        C  243   4.242   2.794   2.784
    1C        C  244   4.370   2.964   2.905
    1C        C  245   4.338   2.906   3.030
    1C        C  246   4.442   3.088   3.147
    1C        C  247   4.377   2.963   3.153
    1C        C  248   4.462   3.157   3.269
    1C        C  249   4.428   3.100   3.394
    1C        C  250   4.494   3.297   3.513
    1C        C  251   4.449   3.163   3.519
    1C        C  252   4.511   3.368   3.634
    1C        C  253   4.501   3.302   3.758
    1C        C  254   4.520   3.514   3.879
    1C        C  255   4.516   3.373   3.880
    1C        C  256   4.515   3.588   3.999
    1C        C  257   4.520   3.517   4.121
    1C        C  258   4.490   3.730   4.243
    1C        C  259   4.513   3.590   4.242
    1C        C  260   4.470   3.802   4.362
    1C        C  261   4.483   3.733   4.484
    1C        C  262   4.430   3.939   4.600
    1C        C  263   4.473   3.805   4.605
    1C        C  264   4.405   4.009   4.720
    1C        C  265   4.434   3.944   4.842
    1C        C  266   4.315   4.126   4.953
    1C        C  267   4.394   4.012   4.957
    1C        C  268   4.258   2.773   2.061
    1C        C  269   4.196   2.730   2.179
    1C        C  270   4.339   2.889   2.298
    1C        C  271   4.249   2.779   2.300
    1C        C  272   4.384   2.948   2.418
    1C        C  273   4.343   2.891   2.541
    1C        C  274   4.450   3.079   2.658
    1C        C  275   4.375   2.959   2.661
    1C        C  276   4.473   3.144   2.781
    1C        C  277   4.443   3.085   2.905
    1C        C  278   4.500   3.292   3.024
    1C        C  279   4.467   3.155   3.025
    1C        C  280   4.510   3.360   3.147
    1C        C  281   4.496   3.294   3.271
    1C        C  282   4.516   3.509   3.388
    1C        C  283   4.507   3.368   3.391
    1C        C  284   4.517   3.578   3.511
    1C        C  285   4.514   3.509   3.634
    1C        C  286   4.480   3.720   3.751
    1C        C  287   4.507   3.581   3.756
    1C        C  288   4.469   3.791   3.872
    1C        C  289   4.484   3.726   3.996
    1C        C  290   4.418   3.926   4.114
    1C        C  291   4.467   3.794   4.119
    1C        C  292   4.393   3.996   4.234
    1C        C  293   4.422   3.935   4.359
    1C        C  294   4.324   4.126   4.477
    1C        C  295   4.391   4.001   4.479
    1C        C  296   4.286   4.188   4.598
    1C        C  297   4.333   4.132   4.718
    1C        C  298   4.201   4.313   4.836
    1C        C  299   4.285   4.196   4.836
    1C        C  300   4.165   4.396   4.947
    1C        C  301   4.347   2.880   2.064
    1C        C  302   4.466   3.068   2.172
    1C        C  303   4.394   2.944   2.179
    1C        C  304   4.476   3.141   2.294
    1C        C  305   4.447   3.074   2.415
    1C        C  306   4.503   3.282   2.537
    1C        C  307   4.474   3.144   2.535
    1C        C  308   4.512   3.354   2.658
    1C        C  309   4.502   3.283   2.780
    1C        C  310   4.519   3.499   2.899
    1C        C  311   4.510   3.358   2.899
    1C        C  312   4.515   3.572   3.020
    1C        C  313   4.517   3.501   3.142
    1C        C  314   4.486   3.713   3.263
    1C        C  315   4.513   3.574   3.263
    1C        C  316   4.472   3.783   3.385
    1C        C  317   4.492   3.717   3.508
    1C        C  318   4.424   3.923   3.625
    1C        C  319   4.469   3.789   3.628
    1C        C  320   4.393   3.987   3.747
    1C        C  321   4.420   3.924   3.870
    1C        C  322   4.319   4.113   3.987
    1C        C  323   4.388   3.990   3.991
    1C        C  324   4.278   4.170   4.110
    1C        C  325   4.318   4.115   4.234
    1C        C  326   4.186   4.284   4.352
    1C        C  327   4.284   4.182   4.354
    1C        C  328   4.134   4.335   4.472
    1C        C  329   4.187   4.289   4.595
    1C        C  330   4.022   4.430   4.713
    1C        C  331   4.136   4.345   4.714
    1C        C  332   3.969   4.490   4.829
    1C        C  333   4.049   4.474   4.943
    1C        C  334   4.550   3.267   2.056
    1C        C  335   4.529   3.129   2.059
    1C        C  336   4.535   3.347   2.170
    1C        C  337   4.509   3.279   2.291
    1C        C  338   4.510   3.491   2.409
    1C        C  339   4.511   3.350   2.413
    1C        C  340   4.516   3.564   2.530
    1C        C  341   4.519   3.495   2.653
    1C        C  342   4.503   3.707   2.772
    1C        C  343   4.522   3.566   2.775
    1C        C  344   4.478   3.779   2.891
    1C        C  345   4.489   3.711   3.014
    1C        C  346   4.419   3.908   3.137
    1C        C  347   4.468   3.776   3.138
    1C        C  348   4.389   3.977   3.256
    1C        C  349   4.422   3.915   3.378
    1C        C  350   4.318   4.100   3.500
    1C        C  351   4.393   3.980   3.500
    1C        C  352   4.271   4.160   3.619
    1C        C  353   4.315   4.105   3.741
    1C        C  354   4.175   4.264   3.864
    1C        C  355   4.274   4.163   3.863
    1C        C  356   4.122   4.314   3.985
    1C        C  357   4.177   4.269   4.107
    1C        C  358   4.014   4.403   4.226
    1C        C  359   4.133   4.326   4.228
    1C        C  360   3.953   4.440   4.348
    1C        C  361   4.017   4.415   4.471
    1C        C  362   3.827   4.513   4.588
    1C        C  363   3.959   4.463   4.591
    1C        C  364   3.759   4.545   4.707
    1C        C  365   3.837   4.538   4.825
    1C        C  366   3.630   4.582   4.949
    1C        C  367   3.768   4.562   4.945
    1C        C  368   4.511   3.565   2.052
    1C        C  369   4.531   3.488   2.168
    1C        C  370   4.499   3.702   2.289
    1C        C  371   4.510   3.561   2.287
    1C        C  372   4.485   3.775   2.409
    1C        C  373   4.497   3.704   2.530
    1C        C  374   4.422   3.904   2.647
    1C        C  375   4.478   3.775   2.651
    1C        C  376   4.393   3.971   2.768
    1C        C  377   4.419   3.908   2.892
    1C        C  378   4.315   4.092   3.009
    1C        C  379   4.389   3.972   3.014
    1C        C  380   4.271   4.152   3.130
    1C        C  381   4.312   4.096   3.253
    1C        C  382   4.176   4.255   3.373
    1C        C  383   4.275   4.154   3.376
    1C        C  384   4.121   4.304   3.494
    1C        C  385   4.173   4.262   3.618
    1C        C  386   4.005   4.390   3.741
    1C        C  387   4.119   4.306   3.741
    1C        C  388   3.944   4.429   3.862
    1C        C  389   4.004   4.391   3.985
    1C        C  390   3.814   4.484   4.105
    1C        C  391   3.945   4.431   4.107
    1C        C  392   3.750   4.508   4.229
    1C        C  393   3.823   4.496   4.349
    1C        C  394   3.614   4.550   4.474
    1C        C  395   3.753   4.524   4.468
    1C        C  396   3.543   4.565   4.596
    1C        C  397   3.620   4.570   4.714
    1C        C  398   3.410   4.549   4.839
    1C        C  399   3.549   4.576   4.836
    1C        C  400   3.341   4.518   4.956
    1C        C  401   4.503   3.704   2.051
    1C        C  402   4.458   3.915   2.166
    1C        C  403   4.492   3.778   2.170
    1C        C  404   4.412   3.977   2.284
    1C        C  405   4.430   3.905   2.404
    1C        C  406   4.323   4.092   2.524
    1C        C  407   4.395   3.970   2.525
    1C        C  408   4.280   4.150   2.645
    1C        C  409   4.322   4.093   2.767
    1C        C  410   4.172   4.247   2.886
    1C        C  411   4.276   4.151   2.887
    1C        C  412   4.124   4.299   3.008
    1C        C  413   4.177   4.257   3.132
    1C        C  414   4.002   4.379   3.252
    1C        C  415   4.122   4.305   3.253
    1C        C  416   3.939   4.412   3.374
    1C        C  417   4.003   4.381   3.496
    1C        C  418   3.812   4.475   3.616
    1C        C  419   3.941   4.418   3.618
    1C        C  420   3.746   4.503   3.738
    1C        C  421   3.814   4.484   3.860
    1C        C  422   3.610   4.538   3.986
    1C        C  423   3.748   4.509   3.983
    1C        C  424   3.538   4.543   4.107
    1C        C  425   3.611   4.534   4.228
    1C        C  426   3.404   4.550   4.354
    1C        C  427   3.545   4.554   4.351
    1C        C  428   3.331   4.542   4.475
    1C        C  429   3.402   4.560   4.595
    1C        C  430   3.196   4.516   4.723
    1C        C  431   3.335   4.547   4.719
    1C        C  432   3.122   4.492   4.842
    1C        C  433   3.204   4.492   4.956
    1C        C  434   4.381   4.122   2.051
    1C        C  435   4.445   3.997   2.054
    1C        C  436   4.296   4.159   2.161
    1C        C  437   4.332   4.095   2.283
    1C        C  438   4.182   4.250   2.401
    1C        C  439   4.283   4.152   2.403
    1C        C  440   4.122   4.296   2.520
    1C        C  441   4.178   4.248   2.641
    1C        C  442   4.004   4.372   2.765
    1C        C  443   4.117   4.287   2.762
    1C        C  444   3.942   4.411   2.886
    1C        C  445   4.004   4.374   3.007
    1C        C  446   3.812   4.468   3.129
    1C        C  447   3.942   4.412   3.128
    1C        C  448   3.744   4.496   3.249
    1C        C  449   3.813   4.477   3.370
    1C        C  450   3.608   4.524   3.493
    1C        C  451   3.747   4.500   3.493
    1C        C  452   3.541   4.538   3.616
    1C        C  453   3.608   4.533   3.740
    1C        C  454   3.399   4.539   3.862
    1C        C  455   3.540   4.544   3.863
    1C        C  456   3.330   4.537   3.986
    1C        C  457   3.396   4.542   4.111
    1C        C  458   3.193   4.500   4.233
    1C        C  459   3.330   4.534   4.235
    1C        C  460   3.128   4.486   4.358
    1C        C  461   3.193   4.511   4.481
    1C        C  462   2.996   4.434   4.599
    1C        C  463   3.125   4.491   4.603
    1C        C  464   2.932   4.399   4.720
    1C        C  465   2.989   4.439   4.844
    1C        C  466   2.799   4.332   4.956
    1C        C  467   2.904   4.425   4.958
    1C        C  468   4.116   4.279   2.040
    1C        C  469   4.184   4.248   2.158
    1C        C  470   4.008   4.374   2.277
    1C        C  471   4.126   4.294   2.279
    1C        C  472   3.942   4.406   2.398
    1C        C  473   4.003   4.371   2.521
    1C        C  474   3.807   4.452   2.642
    1C        C  475   3.939   4.402   2.643
    1C        C  476   3.742   4.484   2.764
    1C        C  477   3.813   4.468   2.885
    1C        C  478   3.608   4.523   3.005
    1C        C  479   3.746   4.493   3.007
    1C        C  480   3.536   4.533   3.127
    1C        C  481   3.605   4.523   3.250
    1C        C  482   3.393   4.534   3.375
    1C        C  483   3.534   4.529   3.372
    1C        C  484   3.327   4.528   3.499
    1C        C  485   3.399   4.542   3.620
    1C        C  486   3.190   4.499   3.745
    1C        C  487   3.327   4.531   3.741
    1C        C  488   3.124   4.477   3.868
    1C        C  489   3.194   4.502   3.988
    1C        C  490   3.001   4.414   4.116
    1C        C  491   3.128   4.475   4.110
    1C        C  492   2.939   4.380   4.239
    1C        C  493   2.999   4.428   4.357
    1C        C  494   2.825   4.304   4.481
    1C        C  495   2.936   4.392   4.478
    1C        C  496   2.772   4.255   4.602
    1C        C  497   2.819   4.313   4.722
    1C        C  498   2.660   4.165   4.840
    1C        C  499   2.750   4.273   4.839
    1C        C  500   2.600   4.115   4.957
    1C        C  501   4.001   4.357   2.040
    1C        C  502   3.812   4.463   2.156
    1C        C  503   3.941   4.405   2.157
    1C        C  504   3.744   4.480   2.278
    1C        C  505   3.810   4.456   2.401
    1C        C  506   3.600   4.504   2.520
    1C        C  507   3.737   4.472   2.521
    1C        C  508   3.531   4.510   2.644
    1C        C  509   3.604   4.511   2.765
    1C        C  510   3.391   4.521   2.886
    1C        C  511   3.532   4.526   2.886
    1C        C  512   3.322   4.515   3.009
    1C        C  513   3.395   4.525   3.130
    1C        C  514   3.188   4.485   3.253
    1C        C  515   3.324   4.522   3.252
    1C        C  516   3.121   4.467   3.376
    1C        C  517   3.189   4.495   3.497
    1C        C  518   3.000   4.409   3.622
    1C        C  519   3.126   4.473   3.621
    1C        C  520   2.940   4.371   3.745
    1C        C  521   2.999   4.411   3.867
    1C        C  522   2.839   4.282   3.992
    1C        C  523   2.943   4.376   3.993
    1C        C  524   2.788   4.235   4.116
    1C        C  525   2.834   4.286   4.239
    1C        C  526   2.691   4.135   4.361
    1C        C  527   2.777   4.246   4.362
    1C        C  528   2.655   4.072   4.482
    1C        C  529   2.689   4.140   4.601
    1C        C  530   2.584   3.959   4.728
    1C        C  531   2.636   4.091   4.722
    1C        C  532   2.543   3.902   4.851
    1C        C  533   2.523   3.998   4.956
    1C        C  534   3.615   4.556   2.041
    1C        C  535   3.748   4.512   2.041
    1C        C  536   3.533   4.532   2.156
    1C        C  537   3.604   4.509   2.276
    1C        C  538   3.390   4.517   2.398
    1C        C  539   3.532   4.516   2.397
    1C        C  540   3.318   4.508   2.519
    1C        C  541   3.390   4.517   2.639
    1C        C  542   3.184   4.482   2.765
    1C        C  543   3.323   4.508   2.763
    1C        C  544   3.116   4.460   2.887
    1C        C  545   3.186   4.476   3.009
    1C        C  546   2.990   4.401   3.138
    1C        C  547   3.120   4.457   3.132
    1C        C  548   2.930   4.366   3.261
    1C        C  549   2.996   4.401   3.381
    1C        C  550   2.827   4.277   3.508
    1C        C  551   2.936   4.367   3.504
    1C        C  552   2.775   4.228   3.631
    1C        C  553   2.829   4.285   3.749
    1C        C  554   2.701   4.117   3.874
    1C        C  555   2.785   4.231   3.872
    1C        C  556   2.664   4.059   3.997
    1C        C  557   2.698   4.126   4.117
    1C        C  558   2.594   3.943   4.244
    1C        C  559   2.653   4.071   4.240
    1C        C  560   2.565   3.879   4.366
    1C        C  561   2.590   3.947   4.488
    1C        C  562   2.526   3.747   4.613
    1C        C  563   2.562   3.883   4.610
    1C        C  564   2.512   3.682   4.737
    1C        C  565   2.522   3.760   4.855
    1C        C  566   2.530   3.546   4.976
    1C        C  567   2.524   3.685   4.974
    1C        C  568   3.325   4.471   2.041
    1C        C  569   3.392   4.510   2.157
    1C        C  570   3.178   4.477   2.279
    1C        C  571   3.317   4.504   2.278
    1C        C  572   3.110   4.460   2.401
    1C        C  573   3.179   4.480   2.523
    1C        C  574   2.983   4.405   2.646
    1C        C  575   3.112   4.464   2.645
    1C        C  576   2.925   4.365   2.769
    1C        C  577   2.989   4.398   2.890
    1C        C  578   2.825   4.272   3.013
    1C        C  579   2.932   4.364   3.015
    1C        C  580   2.777   4.223   3.137
    1C        C  581   2.821   4.276   3.260
    1C        C  582   2.699   4.111   3.382
    1C        C  583   2.776   4.229   3.385
    1C        C  584   2.657   4.055   3.504
    1C        C  585   2.692   4.114   3.628
    1C        C  586   2.597   3.931   3.754
    1C        C  587   2.661   4.056   3.753
    1C        C  588   2.571   3.868   3.878
    1C        C  589   2.603   3.932   4.000
    1C        C  590   2.532   3.736   4.128
    1C        C  591   2.574   3.871   4.124
    1C        C  592   2.522   3.668   4.251
    1C        C  593   2.530   3.742   4.371
    1C        C  594   2.509   3.531   4.496
    1C        C  595   2.515   3.672   4.493
    1C        C  596   2.514   3.465   4.621
    1C        C  597   2.513   3.539   4.741
    1C        C  598   2.529   3.325   4.863
    1C        C  599   2.524   3.466   4.861
    1C        C  600   2.532   3.245   4.978
    1C        C  601   3.192   4.433   2.042
    1C        C  602   2.980   4.388   2.158
    1C        C  603   3.113   4.442   2.157
    1C        C  604   2.923   4.353   2.283
    1C        C  605   2.987   4.390   2.404
    1C        C  606   2.813   4.272   2.527
    1C        C  607   2.924   4.360   2.526
    1C        C  608   2.766   4.224   2.651
    1C        C  609   2.816   4.275   2.773
    1C        C  610   2.682   4.109   2.894
    1C        C  611   2.768   4.221   2.895
    1C        C  612   2.653   4.052   3.020
    1C        C  613   2.690   4.112   3.143
    1C        C  614   2.589   3.922   3.263
    1C        C  615   2.654   4.047   3.264
    1C        C  616   2.567   3.862   3.389
    1C        C  617   2.595   3.928   3.510
    1C        C  618   2.526   3.729   3.635
    1C        C  619   2.569   3.863   3.633
    1C        C  620   2.515   3.662   3.760
    1C        C  621   2.531   3.733   3.881
    1C        C  622   2.512   3.526   4.007
    1C        C  623   2.517   3.668   4.005
    1C        C  624   2.516   3.455   4.129
    1C        C  625   2.512   3.527   4.250
    1C        C  626   2.537   3.321   4.379
    1C        C  627   2.511   3.460   4.374
    1C        C  628   2.554   3.253   4.502
    1C        C  629   2.535   3.325   4.621
    1C        C  630   2.600   3.122   4.743
    1C        C  631   2.549   3.254   4.743
    1C        C  632   2.620   3.050   4.864
    1C        C  633   2.558   3.108   4.979
    1C        C  634   2.778   4.303   2.050
    1C        C  635   2.890   4.387   2.046
    1C        C  636   2.741   4.232   2.165
    1C        C  637   2.804   4.275   2.283
    1C        C  638   2.674   4.110   2.409
    1C        C  639   2.758   4.223   2.406
    1C        C  640   2.639   4.047   2.531
    1C        C  641   2.683   4.110   2.649
    1C        C  642   2.583   3.923   2.778
    1C        C  643   2.645   4.049   2.771
    1C        C  644   2.556   3.856   2.899
    1C        C  645   2.588   3.927   3.017
    1C        C  646   2.529   3.722   3.148
    1C        C  647   2.565   3.859   3.139
    1C        C  648   2.515   3.655   3.271
    1C        C  649   2.521   3.728   3.391
    1C        C  650   2.506   3.517   3.515
    1C        C  651   2.509   3.659   3.514
    1C        C  652   2.515   3.452   3.639
    1C        C  653   2.514   3.521   3.763
    1C        C  654   2.534   3.313   3.885
    1C        C  655   2.513   3.453   3.887
    1C        C  656   2.556   3.252   4.010
    1C        C  657   2.538   3.315   4.135
    1C        C  658   2.601   3.116   4.256
    1C        C  659   2.552   3.249   4.259
    1C        C  660   2.635   3.057   4.380
    1C        C  661   2.601   3.119   4.502
    1C        C  662   2.708   2.935   4.624
    1C        C  663   2.632   3.054   4.623
    1C        C  664   2.750   2.875   4.745
    1C        C  665   2.699   2.930   4.865
    1C        C  666   2.741   2.868   4.983
    1C        C  667   2.682   4.022   2.053
    1C        C  668   2.689   4.101   2.169
    1C        C  669   2.593   3.909   2.288
    1C        C  670   2.643   4.042   2.289
    1C        C  671   2.561   3.847   2.411
    1C        C  672   2.581   3.918   2.532
    1C        C  673   2.516   3.721   2.655
    1C        C  674   2.557   3.856   2.656
    1C        C  675   2.508   3.651   2.778
    1C        C  676   2.524   3.718   2.901
    1C        C  677   2.506   3.511   3.029
    1C        C  678   2.515   3.652   3.026
    1C        C  679   2.503   3.442   3.153
    1C        C  680   2.501   3.514   3.275
    1C        C  681   2.535   3.303   3.400
    1C        C  682   2.508   3.441   3.396
    1C        C  683   2.552   3.239   3.524
    1C        C  684   2.533   3.312   3.644
    1C        C  685   2.606   3.111   3.769
    1C        C  686   2.548   3.240   3.765
    1C        C  687   2.634   3.051   3.893
    1C        C  688   2.601   3.118   4.013
    1C        C  689   2.714   2.937   4.138
    1C        C  690   2.631   3.052   4.134
    1C        C  691   2.753   2.879   4.260
    1C        C  692   2.705   2.934   4.381
    1C        C  693   2.754   2.879   4.502
    1C        C  694   2.633   3.890   2.055
    1C        C  695   2.532   3.700   2.175
    1C        C  696   2.584   3.831   2.171
    1C        C  697   2.505   3.635   2.297
    1C        C  698   2.521   3.712   2.415
    1C        C  699   2.492   3.504   2.541
    1C        C  700   2.502   3.644   2.537
    1C        C  701   2.504   3.436   2.665
    1C        C  702   2.499   3.510   2.785
    1C        C  703   2.526   3.301   2.910
    1C        C  704   2.506   3.440   2.907
    1C        C  705   2.544   3.230   3.031
    1C        C  706   2.531   3.304   3.151
    1C        C  707   2.599   3.106   3.278
    1C        C  708   2.551   3.239   3.275
    1C        C  709   2.634   3.043   3.399
    1C        C  710   2.605   3.108   3.521
    1C        C  711   2.712   2.930   3.648
    1C        C  712   2.637   3.049   3.645
    1C        C  713   2.762   2.879   3.770
    1C        C  714   2.715   2.935   3.891
    1C        C  715   2.756   2.880   4.015
    1C        C  716   2.452   3.499   2.062
    1C        C  717   2.493   3.632   2.058
    1C        C  718   2.463   3.419   2.180
    1C        C  719   2.477   3.496   2.299
    1C        C  720   2.512   3.289   2.425
    1C        C  721   2.484   3.427   2.423
    1C        C  722   2.532   3.222   2.548
    1C        C  723   2.523   3.296   2.668
    1C        C  724   2.595   3.098   2.789
    1C        C  725   2.540   3.227   2.790
    1C        C  726   2.620   3.032   2.912
    1C        C  727   2.589   3.096   3.034
    1C        C  728   2.701   2.918   3.156
    1C        C  729   2.623   3.036   3.157
    1C        C  730   2.749   2.868   3.279
    1C        C  731   2.712   2.925   3.403
    1C        C  732   2.755   2.871   3.527
    1C        C  733   2.481   3.194   2.072
    1C        C  734   2.488   3.278   2.184
    1C        C  735   2.580   3.084   2.305
    1C        C  736   2.524   3.214   2.306
    1C        C  737   2.614   3.022   2.427
    1C        C  738   2.589   3.092   2.547
    1C        C  739   2.697   2.909   2.669
    1C        C  740   2.625   3.030   2.669
    1C        C  741   2.740   2.856   2.793
    1C        C  742   2.697   2.913   2.914
    1C        C  743   2.747   2.861   3.035
    1C        C  744   2.539   3.068   2.072
    1C        C  745   2.682   2.896   2.183
    1C        C  746   2.604   3.014   2.184
    1C        C  747   2.727   2.839   2.304
    1C        C  748   2.688   2.902   2.424
    1C        C  749   2.735   2.850   2.546
    1C        C  750   2.736   2.840   2.066
    1C        C  751   3.654   2.304   1.987
    1C        O  752   3.629   2.184   2.016
    1C        O  753   3.676   2.315   1.849
    1C        C  754   4.633   3.060   1.980
    1C        O  755   4.609   3.015   1.865
    1C        O  756   4.770   3.081   2.000
    1C        C  757   4.446   4.223   1.965
    1C        O  758   4.527   4.307   2.012
    1C        O  759   4.458   4.211   1.826
    1C        C  760   3.594   4.676   1.957
    1C        O  761   3.570   4.793   1.999
    1C        O  762   3.570   4.667   1.820
    1C        C  763   2.865   4.512   1.971
    1C        O  764   2.874   4.524   1.846
    1C        O  765   2.832   4.625   2.047
    1C        C  766   2.349   3.463   1.961
    1C        O  767   2.372   3.408   1.850
    1C        O  768   2.212   3.477   1.983
    1C        C  769   4.694   3.589   5.049
    1C        O  770   4.683   3.604   5.174
    1C        O  771   4.829   3.592   5.010
    1C        C  772   4.261   4.435   5.053
    1C        O  773   4.238   4.418   5.176
    1C        O  774   4.348   4.541   5.023
    1C        C  775   4.144   2.523   5.072
    1C        O  776   4.219   2.423   5.057
    1C        O  777   4.126   2.554   5.208
    1C        C  778   2.895   4.521   5.071
    1C        O  779   2.803   4.606   5.068
    1C        O  780   2.944   4.470   5.192
    1C        C  781   2.454   3.039   5.059
    1C        O  782   2.361   2.971   5.008
    1C        O  783   2.470   2.995   5.190
    1C        C  784   2.400   3.991   5.037
    1C        O  785   2.304   4.071   5.015
    1C        O  786   2.390   3.951   5.171
    1C        C  787   2.938   2.409   2.027
    1C        O  788   2.902   2.408   1.906
    1C        O  789   2.881   2.311   2.108
    1C        C  790   3.193   2.386   5.079
    1C        O  791   3.129   2.277   5.077
    1C        O  792   3.207   2.420   5.214
    1C        H  793   4.282   3.023   5.057
    1C        H  794   4.159   2.815   5.066
    1C        H  795   4.466   3.145   5.072
    1C        H  796   4.548   3.360   5.066
    1C        H  797   4.559   3.812   5.048
    1C        H  798   4.442   3.984   5.048
    1C        H  799   4.252   4.142   5.039
    1C        H  800   4.049   4.558   5.009
    1C        H  801   3.820   4.585   5.036
    1C        H  802   3.590   4.631   5.036
    1C        H  803   3.377   4.555   5.050
    1C        H  804   3.163   4.474   5.053
    1C        H  805   3.896   2.454   5.050
    1C        H  806   3.680   2.433   5.066
    1C        H  807   2.998   2.553   5.063
    1C        H  808   3.445   2.496   5.077
    1C        H  809   2.863   2.722   5.076
    1C        H  810   2.672   2.872   5.065
    1C        H  811   2.491   3.285   5.069
    1C        H  812   2.557   3.493   5.065
    1C        H  813   2.542   3.737   5.066
    1C        H  814   2.618   4.157   5.054
    1C        H  815   2.789   4.269   5.042
    1C        H  816   2.706   2.873   1.969
    1C        H  817   2.868   2.702   1.971
    1C        H  818   3.213   2.449   1.987
    1C        H  819   3.429   2.424   1.976
    1C        H  820   3.835   2.569   1.977
    1C        H  821   4.079   2.581   1.978
    1C        H  822   4.237   2.727   1.967
    1C        H  823   4.370   2.928   1.971
    1C        H  824   4.576   3.310   1.962
    1C        H  825   4.497   3.516   1.959
    1C        H  826   4.556   3.747   1.969
    1C        H  827   3.799   4.514   1.948
    1C        H  828   3.955   4.367   1.944
    1C        H  829   4.154   4.235   1.950
    1C        H  830   4.469   3.953   1.959
    1C        H  831   2.667   3.822   1.979
    1C        H  832   2.668   4.066   1.957
    1C        H  833   2.696   4.331   1.987
    1C        H  834   3.363   4.504   1.946
    1C        H  835   3.143   4.434   1.947
    1C        H  836   2.502   2.998   2.001
    1C        H  837   2.424   3.220   1.985
    1C        H  838   2.488   3.688   1.967
    2V3OU   H29  839   2.806   3.551   0.706
    2V3OU   C27  840   2.781   3.500   0.802
    2V3OU   H27  841   2.722   3.566   0.870
    2V3OU   H28  842   2.728   3.402   0.789
    2V3OU   O11  843   2.910   3.473   0.857
    2V3OU   C15  844   2.921   3.397   0.972
    2V3OU   C13  845   3.049   3.370   1.024
    2V3OU   C14  846   3.075   3.264   1.111
    2V3OU   C16  847   2.968   3.188   1.156
    2V3OU    H6  848   2.987   3.107   1.228
    2V3OU   C12  849   3.213   3.219   1.144
    2V3OU    O2  850   3.237   3.118   1.213
    2V3OU   C10  851   3.323   3.305   1.096
    2V3OU    C8  852   3.455   3.270   1.123
    2V3OU   O10  853   3.488   3.156   1.189
    2V3OU   H26  854   3.402   3.116   1.211
    2V3OU    C6  855   3.561   3.347   1.067
    2V3OU    C5  856   3.538   3.465   0.997
    2V3OU    C4  857   3.699   3.292   1.055
    2V3OU    H4  858   3.721   3.226   1.144
    2V3OU    H5  859   3.704   3.231   0.960
    2V3OU    C2  860   3.814   3.393   1.052
    2V3OU    O6  861   3.805   3.469   1.174
    2V3OU   H21  862   3.770   3.557   1.151
    2V3OU    C3  863   3.781   3.491   0.939
    2V3OU    H2  864   3.858   3.571   0.938
    2V3OU    H3  865   3.781   3.436   0.841
    2V3OU   C25  866   3.951   3.330   1.032
    2V3OU    O7  867   3.996   3.302   0.921
    2V3OU   C26  868   4.027   3.288   1.157
    2V3OU   H22  869   4.063   3.382   1.207
    2V3OU   H23  870   4.119   3.232   1.127
    2V3OU    O8  871   3.959   3.211   1.253
    2V3OU   H24  872   3.926   3.269   1.324
    2V3OU    C1  873   3.646   3.560   0.955
    2V3OU    H1  874   3.622   3.614   0.859
    2V3OU    O3  875   3.658   3.654   1.063
    2V3OU   C19  876   3.616   3.789   1.041
    2V3OU    H9  877   3.519   3.791   0.984
    2V3OU    O4  878   3.710   3.843   0.951
    2V3OU   C20  879   3.838   3.876   1.007
    2V3OU   H10  880   3.882   3.773   1.023
    2V3OU   C24  881   3.608   3.851   1.181
    2V3OU   H16  882   3.542   3.787   1.244
    2V3OU   H17  883   3.561   3.951   1.165
    2V3OU   C23  884   3.749   3.875   1.237
    2V3OU   H15  885   3.789   3.771   1.259
    2V3OU    N1  886   3.735   3.956   1.357
    2V3OU   H19  887   3.809   3.920   1.414
    2V3OU   H20  888   3.652   3.925   1.402
    2V3OU   C21  889   3.847   3.949   1.141
    2V3OU   H11  890   3.953   3.931   1.176
    2V3OU    O5  891   3.827   4.090   1.135
    2V3OU   H18  892   3.776   4.107   1.216
    2V3OU   C22  893   3.910   3.948   0.895
    2V3OU   H12  894   3.861   4.045   0.869
    2V3OU   H13  895   3.906   3.887   0.801
    2V3OU   H14  896   4.020   3.954   0.916
    2V3OU   C11  897   3.158   3.464   0.994
    2V3OU    O1  898   3.131   3.584   0.972
    2V3OU    C9  899   3.298   3.424   1.023
    2V3OU    C7  900   3.401   3.502   0.973
    2V3OU    O9  901   3.384   3.621   0.906
    2V3OU   H25  902   3.287   3.631   0.896
    2V3OU   C17  903   2.819   3.315   1.026
    2V3OU    H7  904   2.716   3.343   1.005
    2V3OU   C18  905   2.837   3.210   1.114
    2V3OU    H8  906   2.751   3.149   1.146
    3SOL     OW  907   0.728   4.903   1.042
    3SOL    HW1  908   0.651   4.851   1.079
    3SOL    HW2  909   0.812   4.876   1.090
    4SOL     OW  910   6.166   1.625   2.245
    4SOL    HW1  911   6.249   1.664   2.285
    4SOL    HW2  912   6.178   1.614   2.147
    5SOL     OW  913   3.667   2.905   0.758
    5SOL    HW1  914   3.607   2.828   0.781
    5SOL    HW2  915   3.648   2.936   0.665
    6SOL     OW  916   3.350   2.167   0.247
    6SOL    HW1  917   3.260   2.125   0.263
    6SOL    HW2  918   3.397   2.180   0.334
    7SOL     OW  919   5.664   1.034   1.941
    7SOL    HW1  920   5.681   0.946   1.897
    7SOL    HW2  921   5.592   1.023   2.010
    8SOL     OW  922   3.235   2.175   3.337
    8SOL    HW1  923   3.166   2.184   3.265
    8SOL    HW2  924   3.324   2.158   3.295
    9SOL     OW  925   6.427   4.016   6.705
    9SOL    HW1  926   6.397   4.104   6.668
    9SOL    HW2  927   6.386   4.002   6.796
   10SOL     OW  928   0.075   4.268   1.837
   10SOL    HW1  929   0.144   4.308   1.897
   10SOL    HW2  930   0.046   4.335   1.769
   11SOL     OW  931   3.853   6.928   6.888
   11SOL    HW1  932   3.931   6.904   6.945
   11SOL    HW2  933   3.770   6.885   6.924
   12SOL     OW  934   5.406   6.918   2.187
   12SOL    HW1  935   5.479   6.850   2.175
   12SOL    HW2  936   5.328   6.875   2.234
   13SOL     OW  937   2.268   6.780   2.225
   13SOL    HW1  938   2.340   6.849   2.211
   13SOL    HW2  939   2.201   6.814   2.291
   14SOL     OW  940   2.806   0.361   3.152
   14SOL    HW1  941   2.875   0.360   3.080
   14SOL    HW2  942   2.791   0.455   3.183
   15SOL     OW  943   2.815   6.970   6.341
   15SOL    HW1  944   2.753   6.984   6.418
   15SOL    HW2  945   2.803   6.877   6.305
   16SOL     OW  946   6.218   1.856   0.600
   16SOL    HW1  947   6.209   1.887   0.694
   16SOL    HW2  948   6.152   1.905   0.543
   17SOL     OW  949   4.136   5.477   3.836
   17SOL    HW1  950   4.051   5.462   3.785
   17SOL    HW2  951   4.206   5.513   3.774
   18SOL     OW  952   1.499   0.482   6.911
   18SOL    HW1  953   1.545   0.404   6.954
   18SOL    HW2  954   1.401   0.475   6.926
   19SOL     OW  955   0.242   6.630   0.879
   19SOL    HW1  956   0.236   6.542   0.830
   19SOL    HW2  957   0.227   6.705   0.815
   20SOL     OW  958   3.384   0.266   4.776
   20SOL    HW1  959   3.396   0.325   4.696
   20SOL    HW2  960   3.287   0.257   4.796
   21SOL     OW  961   2.798   3.057   1.425
   21SOL    HW1  962   2.795   3.042   1.524
   21SOL    HW2  963   2.878   3.011   1.387
   22SOL     OW  964   1.668   0.614   5.353
   22SOL    HW1  965   1.610   0.569   5.421
   22SOL    HW2  966   1.754   0.641   5.395
   23SOL     OW  967   2.463   6.307   4.477
   23SOL    HW1  968   2.548   6.330   4.429
   23SOL    HW2  969   2.485   6.277   4.570
   24SOL     OW  970   4.875   1.598   4.963
   24SOL    HW1  971   4.966   1.639   4.960
   24SOL    HW2  972   4.830   1.610   4.874
   25SOL     OW  973   2.399   6.059   0.885
   25SOL    HW1  974   2.381   6.063   0.787
   25SOL    HW2  975   2.478   6.117   0.907
   26SOL     OW  976   6.100   1.223   2.730
   26SOL    HW1  977   6.033   1.157   2.764
   26SOL    HW2  978   6.170   1.175   2.679
   27SOL     OW  979   5.888   6.875   2.476
   27SOL    HW1  980   5.841   6.954   2.515
   27SOL    HW2  981   5.981   6.901   2.450
   28SOL     OW  982   2.719   1.326   0.234
   28SOL    HW1  983   2.720   1.283   0.325
   28SOL    HW2  984   2.801   1.381   0.222
   29SOL     OW  985   4.876   2.996   1.731
   29SOL    HW1  986   4.813   3.022   1.804
   29SOL    HW2  987   4.968   2.989   1.768
   30SOL     OW  988   4.271   1.317   6.616
   30SOL    HW1  989   4.208   1.246   6.587
   30SOL    HW2  990   4.331   1.281   6.688
   31SOL     OW  991   0.995   1.868   5.382
   31SOL    HW1  992   1.055   1.851   5.303
   31SOL    HW2  993   0.929   1.939   5.359
   32SOL     OW  994   6.437   1.699   2.263
   32SOL    HW1  995   6.524   1.747   2.267
   32SOL    HW2  996   6.449   1.605   2.296
   33SOL     OW  997   1.461   1.237   4.758
   33SOL    HW1  998   1.369   1.212   4.786
   33SOL    HW2  999   1.499   1.304   4.822
   34SOL     OW 1000   0.855   0.811   4.914
   34SOL    HW1 1001   0.759   0.789   4.928
   34SOL    HW2 1002   0.897   0.742   4.856
   35SOL     OW 1003   4.679   2.534   6.262
   35SOL    HW1 1004   4.678   2.623   6.309
   35SOL    HW2 1005   4.698   2.462   6.329
   36SOL     OW 1006   0.925   2.697   6.018
   36SOL    HW1 1007   0.851   2.640   5.982
   36SOL    HW2 1008   0.922   2.787   5.975
   37SOL     OW 1009   3.260   6.632   1.856
   37SOL    HW1 1010   3.164   6.650   1.879
   37SOL    HW2 1011   3.311   6.607   1.938
   38SOL     OW 1012   6.764   5.656   1.537
   38SOL    HW1 1013   6.728   5.655   1.631
   38SOL    HW2 1014   6.761   5.749   1.502
   39SOL     OW 1015   0.042   2.592   6.473
   39SOL    HW1 1016   0.047   2.560   6.378
   39SOL    HW2 1017   0.121   2.557   6.524
   40SOL     OW 1018   0.108   1.528   1.878
   40SOL    HW1 1019   0.038   1.599   1.864
   40SOL    HW2 1020   0.063   1.440   1.892
   41SOL     OW 1021   0.692   1.371   6.413
   41SOL    HW1 1022   0.693   1.413   6.503
   41SOL    HW2 1023   0.784   1.375   6.373
   42SOL     OW 1024   3.970   6.715   0.476
   42SOL    HW1 1025   4.003   6.637   0.528
   42SOL    HW2 1026   4.015   6.798   0.509
   43SOL     OW 1027   4.695   5.546   5.583
   43SOL    HW1 1028   4.620   5.516   5.643
   43SOL    HW2 1029   4.738   5.627   5.621
   44SOL     OW 1030   1.000   4.469   6.829
   44SOL    HW1 1031   1.066   4.489   6.757
   44SOL    HW2 1032   0.916   4.434   6.788
   45SOL     OW 1033   2.758   6.933   1.019
   45SOL    HW1 1034   2.777   6.856   1.080
   45SOL    HW2 1035   2.689   6.907   0.952
   46SOL     OW 1036   0.524   5.559   3.790
   46SOL    HW1 1037   0.493   5.484   3.848
   46SOL    HW2 1038   0.611   5.595   3.824
   47SOL     OW 1039   6.745   4.348   2.620
   47SOL    HW1 1040   6.765   4.366   2.523
   47SOL    HW2 1041   6.648   4.332   2.632
   48SOL     OW 1042   0.627   1.743   5.379
   48SOL    HW1 1043   0.715   1.708   5.345
   48SOL    HW2 1044   0.590   1.680   5.447
   49SOL     OW 1045   5.596   3.301   0.016
   49SOL    HW1 1046   5.560   3.273   0.105
   49SOL    HW2 1047   5.695   3.283   0.013
   50SOL     OW 1048   0.811   3.962   4.622
   50SOL    HW1 1049   0.910   3.969   4.611
   50SOL    HW2 1050   0.768   3.948   4.533
   51SOL     OW 1051   2.924   6.074   1.905
   51SOL    HW1 1052   2.933   5.980   1.937
   51SOL    HW2 1053   2.836   6.086   1.860
   52SOL     OW 1054   0.580   2.274   2.327
   52SOL    HW1 1055   0.599   2.297   2.232
   52SOL    HW2 1056   0.482   2.262   2.340
   53SOL     OW 1057   4.552   6.600   3.869
   53SOL    HW1 1058   4.551   6.695   3.838
   53SOL    HW2 1059   4.493   6.589   3.948
   54SOL     OW 1060   4.566   4.566   5.390
   54SOL    HW1 1061   4.663   4.542   5.387
   54SOL    HW2 1062   4.510   4.487   5.364
   55SOL     OW 1063   3.994   2.297   1.264
   55SOL    HW1 1064   4.032   2.358   1.334
   55SOL    HW2 1065   3.904   2.329   1.237
   56SOL     OW 1066   0.203   0.670   2.289
   56SOL    HW1 1067   0.118   0.669   2.236
   56SOL    HW2 1068   0.279   0.699   2.231
   57SOL     OW 1069   5.261   0.534   0.058
   57SOL    HW1 1070   5.178   0.589   0.067
   57SOL    HW2 1071   5.308   0.559   6.993
   58SOL     OW 1072   0.161   0.885   7.008
   58SOL    HW1 1073   0.213   0.971   7.015
   58SOL    HW2 1074   0.073   0.902   6.964
   59SOL     OW 1075   0.092   0.017   5.712
   59SOL    HW1 1076   0.028   0.001   5.636
   59SOL    HW2 1077   0.065   6.981   5.791
   60SOL     OW 1078   4.733   6.823   4.967
   60SOL    HW1 1079   4.820   6.871   4.954
   60SOL    HW2 1080   4.657   6.886   4.951
   61SOL     OW 1081   3.552   0.169   5.454
   61SOL    HW1 1082   3.474   0.106   5.455
   61SOL    HW2 1083   3.569   0.203   5.546
   62SOL     OW 1084   2.732   7.011   4.586
   62SOL    HW1 1085   2.733   0.009   4.684
   62SOL    HW2 1086   2.648   6.962   4.561
   63SOL     OW 1087   6.901   3.241   4.306
   63SOL    HW1 1088   6.940   3.333   4.312
   63SOL    HW2 1089   6.969   3.178   4.269
   64SOL     OW 1090   0.087   2.286   5.711
   64SOL    HW1 1091   0.080   2.380   5.678
   64SOL    HW2 1092   0.021   2.272   5.785
   65SOL     OW 1093   1.403   4.582   5.365
   65SOL    HW1 1094   1.323   4.564   5.308
   65SOL    HW2 1095   1.397   4.674   5.403
   66SOL     OW 1096   2.756   0.778   1.491
   66SOL    HW1 1097   2.680   0.839   1.469
   66SOL    HW2 1098   2.800   0.747   1.406
   67SOL     OW 1099   4.606   5.274   4.156
   67SOL    HW1 1100   4.520   5.305   4.114
   67SOL    HW2 1101   4.585   5.220   4.238
   68SOL     OW 1102   5.206   2.852   0.022
   68SOL    HW1 1103   5.240   2.812   0.107
   68SOL    HW2 1104   5.133   2.794   7.005
   69SOL     OW 1105   2.344   3.106   5.657
   69SOL    HW1 1106   2.387   3.127   5.569
   69SOL    HW2 1107   2.397   3.036   5.704
   70SOL     OW 1108   5.970   0.780   3.010
   70SOL    HW1 1109   5.929   0.689   3.011
   70SOL    HW2 1110   6.042   0.786   3.079
   71SOL     OW 1111   1.819   4.635   2.000
   71SOL    HW1 1112   1.855   4.618   2.092
   71SOL    HW2 1113   1.862   4.717   1.962
   72SOL     OW 1114   3.989   5.646   3.986
   72SOL    HW1 1115   4.049   5.719   3.953
   72SOL    HW2 1116   4.021   5.558   3.952
   73SOL     OW 1117   3.527   2.790   6.747
   73SOL    HW1 1118   3.517   2.838   6.834
   73SOL    HW2 1119   3.476   2.839   6.675
   74SOL     OW 1120   4.995   0.128   5.568
   74SOL    HW1 1121   4.945   0.105   5.652
   74SOL    HW2 1122   4.932   0.171   5.503
   75SOL     OW 1123   3.425   5.833   5.584
   75SOL    HW1 1124   3.384   5.819   5.494
   75SOL    HW2 1125   3.523   5.853   5.573
   76SOL     OW 1126   2.987   2.620   0.930
   76SOL    HW1 1127   3.047   2.575   0.995
   76SOL    HW2 1128   2.968   2.714   0.961
   77SOL     OW 1129   6.095   3.892   6.693
   77SOL    HW1 1130   6.128   3.914   6.600
   77SOL    HW2 1131   6.044   3.970   6.728
   78SOL     OW 1132   6.133   0.345   5.561
   78SOL    HW1 1133   6.232   0.333   5.558
   78SOL    HW2 1134   6.107   0.383   5.650
   79SOL     OW 1135   3.283   6.212   0.664
   79SOL    HW1 1136   3.273   6.114   0.652
   79SOL    HW2 1137   3.368   6.232   0.713
   80SOL     OW 1138   0.008   1.105   4.412
   80SOL    HW1 1139   0.031   1.090   4.316
   80SOL    HW2 1140   0.092   1.108   4.466
   81SOL     OW 1141   1.589   6.000   2.813
   81SOL    HW1 1142   1.505   6.052   2.804
   81SOL    HW2 1143   1.633   5.991   2.724
   82SOL     OW 1144   6.466   4.308   5.842
   82SOL    HW1 1145   6.517   4.222   5.847
   82SOL    HW2 1146   6.397   4.302   5.770
   83SOL     OW 1147   5.474   0.238   5.281
   83SOL    HW1 1148   5.426   0.155   5.254
   83SOL    HW2 1149   5.570   0.230   5.255
   84SOL     OW 1150   6.737   3.165   2.052
   84SOL    HW1 1151   6.743   3.074   2.095
   84SOL    HW2 1152   6.829   3.199   2.033
   85SOL     OW 1153   0.879   1.266   5.094
   85SOL    HW1 1154   0.927   1.178   5.082
   85SOL    HW2 1155   0.870   1.286   5.192
   86SOL     OW 1156   1.928   0.962   4.395
   86SOL    HW1 1157   1.952   0.952   4.298
   86SOL    HW2 1158   1.904   1.057   4.413
   87SOL     OW 1159   4.513   6.717   2.043
   87SOL    HW1 1160   4.538   6.788   2.108
   87SOL    HW2 1161   4.574   6.638   2.054
   88SOL     OW 1162   5.905   0.699   1.678
   88SOL    HW1 1163   5.865   0.678   1.589
   88SOL    HW2 1164   5.956   0.620   1.712
   89SOL     OW 1165   2.008   1.872   5.686
   89SOL    HW1 1166   1.909   1.855   5.693
   89SOL    HW2 1167   2.041   1.838   5.598
   90SOL     OW 1168   5.981   5.952   3.578
   90SOL    HW1 1169   5.896   6.001   3.595
   90SOL    HW2 1170   6.044   6.013   3.529
   91SOL     OW 1171   5.218   5.049   4.480
   91SOL    HW1 1172   5.271   5.127   4.514
   91SOL    HW2 1173   5.133   5.041   4.533
   92SOL     OW 1174   3.482   5.598   1.284
   92SOL    HW1 1175   3.387   5.571   1.266
   92SOL    HW2 1176   3.543   5.521   1.263
   93SOL     OW 1177   2.835   5.127   5.824
   93SOL    HW1 1178   2.831   5.035   5.785
   93SOL    HW2 1179   2.913   5.133   5.886
   94SOL     OW 1180   1.819   6.488   2.332
   94SOL    HW1 1181   1.733   6.438   2.342
   94SOL    HW2 1182   1.804   6.571   2.279
   95SOL     OW 1183   6.816   0.105   4.026
   95SOL    HW1 1184   6.902   0.135   3.982
   95SOL    HW2 1185   6.740   0.120   3.963
   96SOL     OW 1186   1.755   6.476   4.497
   96SOL    HW1 1187   1.773   6.379   4.479
   96SOL    HW2 1188   1.715   6.517   4.415
   97SOL     OW 1189   6.634   2.505   4.069
   97SOL    HW1 1190   6.613   2.485   3.973
   97SOL    HW2 1191   6.724   2.469   4.091
   98SOL     OW 1192   4.734   0.937   5.364
   98SOL    HW1 1193   4.642   0.933   5.402
   98SOL    HW2 1194   4.780   1.020   5.397
   99SOL     OW 1195   4.567   0.896   0.875
   99SOL    HW1 1196   4.483   0.845   0.891
   99SOL    HW2 1197   4.580   0.964   0.947
  100SOL     OW 1198   6.545   5.894   0.579
  100SOL    HW1 1199   6.556   5.856   0.487
  100SOL    HW2 1200   6.623   5.865   0.636
  101SOL     OW 1201   1.674   6.613   3.737
  101SOL    HW1 1202   1.767   6.623   3.702
  101SOL    HW2 1203   1.637   6.704   3.758
  102SOL     OW 1204   4.720   0.455   2.773
  102SOL    HW1 1205   4.756   0.524   2.711
  102SOL    HW2 1206   4.795   0.412   2.823
  103SOL     OW 1207   4.357   1.481   2.962
  103SOL    HW1 1208   4.376   1.387   2.933
  103SOL    HW2 1209   4.422   1.508   3.033
  104SOL     OW 1210   6.164   6.174   2.291
  104SOL    HW1 1211   6.218   6.090   2.288
  104SOL    HW2 1212   6.221   6.250   2.320
  105SOL     OW 1213   5.459   1.533   5.929
  105SOL    HW1 1214   5.475   1.597   5.854
  105SOL    HW2 1215   5.546   1.494   5.959
  106SOL     OW 1216   3.830   6.986   1.079
  106SOL    HW1 1217   3.856   6.930   1.158
  106SOL    HW2 1218   3.754   0.026   1.103
  107SOL     OW 1219   2.579   3.735   6.834
  107SOL    HW1 1220   2.621   3.794   6.766
  107SOL    HW2 1221   2.582   3.780   6.923
  108SOL     OW 1222   4.563   4.036   5.378
  108SOL    HW1 1223   4.605   4.050   5.467
  108SOL    HW2 1224   4.467   4.011   5.389
  109SOL     OW 1225   5.793   1.049   2.221
  109SOL    HW1 1226   5.749   0.959   2.217
  109SOL    HW2 1227   5.741   1.114   2.166
  110SOL     OW 1228   3.678   6.556   4.334
  110SOL    HW1 1229   3.618   6.540   4.412
  110SOL    HW2 1230   3.748   6.624   4.359
  111SOL     OW 1231   3.389   1.354   3.249
  111SOL    HW1 1232   3.334   1.397   3.178
  111SOL    HW2 1233   3.347   1.267   3.276
  112SOL     OW 1234   0.122   1.619   6.711
  112SOL    HW1 1235   0.143   1.545   6.646
  112SOL    HW2 1236   0.035   1.601   6.755
  113SOL     OW 1237   6.594   6.555   3.906
  113SOL    HW1 1238   6.536   6.563   3.825
  113SOL    HW2 1239   6.657   6.478   3.894
  114SOL     OW 1240   1.399   6.266   0.654
  114SOL    HW1 1241   1.339   6.307   0.723
  114SOL    HW2 1242   1.344   6.223   0.583
  115SOL     OW 1243   5.585   1.086   5.753
  115SOL    HW1 1244   5.521   1.080   5.677
  115SOL    HW2 1245   5.584   1.178   5.791
  116SOL     OW 1246   6.271   3.982   3.060
  116SOL    HW1 1247   6.257   3.962   2.963
  116SOL    HW2 1248   6.210   4.055   3.089
  117SOL     OW 1249   0.575   6.659   6.312
  117SOL    HW1 1250   0.524   6.630   6.231
  117SOL    HW2 1251   0.671   6.675   6.287
  118SOL     OW 1252   2.475   1.453   3.691
  118SOL    HW1 1253   2.377   1.470   3.679
  118SOL    HW2 1254   2.489   1.359   3.722
  119SOL     OW 1255   6.785   2.357   6.669
  119SOL    HW1 1256   6.688   2.378   6.681
  119SOL    HW2 1257   6.810   2.368   6.573
  120SOL     OW 1258   4.484   5.692   1.417
  120SOL    HW1 1259   4.516   5.786   1.431
  120SOL    HW2 1260   4.553   5.641   1.366
  121SOL     OW 1261   2.793   2.851   6.301
  121SOL    HW1 1262   2.822   2.854   6.205
  121SOL    HW2 1263   2.833   2.927   6.351
  122SOL     OW 1264   1.295   3.208   4.626
  122SOL    HW1 1265   1.231   3.189   4.551
  122SOL    HW2 1266   1.355   3.129   4.640
  123SOL     OW 1267   6.502   1.545   1.971
  123SOL    HW1 1268   6.462   1.514   2.057
  123SOL    HW2 1269   6.488   1.476   1.900
  124SOL     OW 1270   5.266   3.699   1.328
  124SOL    HW1 1271   5.208   3.650   1.264
  124SOL    HW2 1272   5.336   3.638   1.364
  125SOL     OW 1273   2.414   3.470   1.470
  125SOL    HW1 1274   2.343   3.409   1.505
  125SOL    HW2 1275   2.479   3.491   1.543
  126SOL     OW 1276   3.895   4.521   0.365
  126SOL    HW1 1277   3.992   4.503   0.383
  126SOL    HW2 1278   3.884   4.613   0.327
  127SOL     OW 1279   0.627   5.687   5.794
  127SOL    HW1 1280   0.617   5.605   5.738
  127SOL    HW2 1281   0.675   5.758   5.742
  128SOL     OW 1282   4.739   2.315   0.257
  128SOL    HW1 1283   4.665   2.261   0.298
  128SOL    HW2 1284   4.805   2.253   0.214
  129SOL     OW 1285   2.597   3.618   6.540
  129SOL    HW1 1286   2.570   3.592   6.447
  129SOL    HW2 1287   2.575   3.715   6.555
  130SOL     OW 1288   1.662   1.971   5.051
  130SOL    HW1 1289   1.737   1.924   5.004
  130SOL    HW2 1290   1.580   1.914   5.047
  131SOL     OW 1291   6.194   1.331   2.384
  131SOL    HW1 1292   6.166   1.413   2.334
  131SOL    HW2 1293   6.120   1.264   2.383
  132SOL     OW 1294   0.892   1.814   2.038
  132SOL    HW1 1295   0.923   1.909   2.031
  132SOL    HW2 1296   0.915   1.778   2.128
  133SOL     OW 1297   0.053   5.597   2.909
  133SOL    HW1 1298   0.065   5.660   2.987
  133SOL    HW2 1299   6.985   5.616   2.865
  134SOL     OW 1300   1.200   3.667   3.145
  134SOL    HW1 1301   1.254   3.598   3.096
  134SOL    HW2 1302   1.113   3.627   3.174
  135SOL     OW 1303   4.883   0.754   4.409
  135SOL    HW1 1304   4.792   0.757   4.369
  135SOL    HW2 1305   4.880   0.705   4.496
  136SOL     OW 1306   4.860   4.828   6.274
  136SOL    HW1 1307   4.936   4.790   6.223
  136SOL    HW2 1308   4.778   4.831   6.216
  137SOL     OW 1309   4.215   0.956   5.540
  137SOL    HW1 1310   4.210   0.871   5.592
  137SOL    HW2 1311   4.126   1.002   5.543
  138SOL     OW 1312   5.460   4.668   5.444
  138SOL    HW1 1313   5.477   4.765   5.423
  138SOL    HW2 1314   5.541   4.614   5.420
  139SOL     OW 1315   3.281   5.739   5.353
  139SOL    HW1 1316   3.294   5.833   5.320
  139SOL    HW2 1317   3.306   5.675   5.280
  140SOL     OW 1318   6.510   4.107   4.563
  140SOL    HW1 1319   6.441   4.168   4.524
  140SOL    HW2 1320   6.544   4.146   4.649
  141SOL     OW 1321   1.601   2.132   2.713
  141SOL    HW1 1322   1.514   2.149   2.666
  141SOL    HW2 1323   1.601   2.180   2.801
  142SOL     OW 1324   1.087   4.802   1.423
  142SOL    HW1 1325   1.146   4.738   1.373
  142SOL    HW2 1326   1.114   4.896   1.402
  143SOL     OW 1327   5.009   4.524   2.054
  143SOL    HW1 1328   5.067   4.605   2.050
  143SOL    HW2 1329   4.926   4.545   2.107
  144SOL     OW 1330   3.152   6.651   0.552
  144SOL    HW1 1331   3.158   6.556   0.583
  144SOL    HW2 1332   3.226   6.704   0.594
  145SOL     OW 1333   6.144   5.550   0.503
  145SOL    HW1 1334   6.132   5.625   0.438
  145SOL    HW2 1335   6.241   5.528   0.511
  146SOL     OW 1336   0.346   4.353   0.650
  146SOL    HW1 1337   0.341   4.269   0.597
  146SOL    HW2 1338   0.293   4.343   0.734
  147SOL     OW 1339   6.083   2.500   0.592
  147SOL    HW1 1340   6.166   2.509   0.647
  147SOL    HW2 1341   6.016   2.569   0.620
  148SOL     OW 1342   0.602   5.599   5.315
  148SOL    HW1 1343   0.550   5.515   5.301
  148SOL    HW2 1344   0.592   5.658   5.235
  149SOL     OW 1345   3.024   0.793   6.694
  149SOL    HW1 1346   3.056   0.876   6.739
  149SOL    HW2 1347   3.097   0.724   6.694
  150SOL     OW 1348   6.951   5.920   5.304
  150SOL    HW1 1349   6.947   5.821   5.315
  150SOL    HW2 1350   6.910   5.964   5.384
  151SOL     OW 1351   4.807   0.225   2.020
  151SOL    HW1 1352   4.737   0.296   2.030
  151SOL    HW2 1353   4.772   0.152   1.962
  152SOL     OW 1354   2.815   0.599   4.160
  152SOL    HW1 1355   2.763   0.635   4.238
  152SOL    HW2 1356   2.872   0.671   4.122
  153SOL     OW 1357   0.827   0.369   2.549
  153SOL    HW1 1358   0.804   0.367   2.646
  153SOL    HW2 1359   0.924   0.391   2.538
  154SOL     OW 1360   0.703   1.513   3.129
  154SOL    HW1 1361   0.725   1.512   3.227
  154SOL    HW2 1362   0.657   1.599   3.107
  155SOL     OW 1363   0.804   1.499   3.364
  155SOL    HW1 1364   0.810   1.421   3.427
  155SOL    HW2 1365   0.787   1.582   3.415
  156SOL     OW 1366   6.914   2.275   1.328
  156SOL    HW1 1367   6.983   2.348   1.330
  156SOL    HW2 1368   6.955   2.190   1.363
  157SOL     OW 1369   0.650   2.490   2.506
  157SOL    HW1 1370   0.616   2.406   2.464
  157SOL    HW2 1371   0.717   2.468   2.577
  158SOL     OW 1372   2.015   0.996   3.238
  158SOL    HW1 1373   1.948   0.951   3.180
  158SOL    HW2 1374   2.085   0.930   3.266
  159SOL     OW 1375   5.140   3.843   1.602
  159SOL    HW1 1376   5.177   3.812   1.514
  159SOL    HW2 1377   5.079   3.774   1.639
  160SOL     OW 1378   6.570   4.498   6.424
  160SOL    HW1 1379   6.662   4.529   6.445
  160SOL    HW2 1380   6.536   4.439   6.498
  161SOL     OW 1381   2.772   4.465   5.407
  161SOL    HW1 1382   2.852   4.468   5.347
  161SOL    HW2 1383   2.763   4.373   5.446
  162SOL     OW 1384   4.498   5.624   2.638
  162SOL    HW1 1385   4.587   5.636   2.681
  162SOL    HW2 1386   4.483   5.696   2.571
  163SOL     OW 1387   5.977   0.216   1.180
  163SOL    HW1 1388   6.004   0.215   1.084
  163SOL    HW2 1389   5.879   0.236   1.187
  164SOL     OW 1390   6.235   3.144   1.737
  164SOL    HW1 1391   6.271   3.061   1.779
  164SOL    HW2 1392   6.149   3.170   1.782
  165SOL     OW 1393   6.491   3.437   6.965
  165SOL    HW1 1394   6.491   3.452   0.044
  165SOL    HW2 1395   6.551   3.504   6.922
  166SOL     OW 1396   1.403   6.890   0.717
  166SOL    HW1 1397   1.365   6.805   0.754
  166SOL    HW2 1398   1.419   6.879   0.619
  167SOL     OW 1399   6.844   2.491   1.709
  167SOL    HW1 1400   6.747   2.504   1.691
  167SOL    HW2 1401   6.872   2.550   1.784
  168SOL     OW 1402   2.290   5.040   1.303
  168SOL    HW1 1403   2.384   5.068   1.317
  168SOL    HW2 1404   2.232   5.076   1.376
  169SOL     OW 1405   0.937   0.223   1.208
  169SOL    HW1 1406   0.961   0.276   1.289
  169SOL    HW2 1407   1.017   0.215   1.148
  170SOL     OW 1408   0.306   1.589   3.972
  170SOL    HW1 1409   0.378   1.657   3.991
  170SOL    HW2 1410   0.240   1.590   4.047
  171SOL     OW 1411   3.309   3.975   0.807
  171SOL    HW1 1412   3.288   4.051   0.869
  171SOL    HW2 1413   3.408   3.961   0.805
  172SOL     OW 1414   0.044   3.015   1.972
  172SOL    HW1 1415   0.094   2.929   1.962
  172SOL    HW2 1416   0.047   3.065   1.885
  173SOL     OW 1417   6.804   6.916   5.323
  173SOL    HW1 1418   6.799   6.991   5.257
  173SOL    HW2 1419   6.723   6.858   5.314
  174SOL     OW 1420   2.394   6.110   3.405
  174SOL    HW1 1421   2.303   6.099   3.365
  174SOL    HW2 1422   2.417   6.029   3.459
  175SOL     OW 1423   0.467   5.103   3.707
  175SOL    HW1 1424   0.542   5.110   3.641
  175SOL    HW2 1425   0.380   5.118   3.660
  176SOL     OW 1426   2.637   5.982   0.011
  176SOL    HW1 1427   2.635   5.964   6.932
  176SOL    HW2 1428   2.553   6.029   0.037
  177SOL     OW 1429   4.855   1.399   2.668
  177SOL    HW1 1430   4.763   1.381   2.634
  177SOL    HW2 1431   4.853   1.480   2.726
  178SOL     OW 1432   5.526   3.960   6.409
  178SOL    HW1 1433   5.601   3.912   6.363
  178SOL    HW2 1434   5.454   3.895   6.433
  179SOL     OW 1435   3.622   6.757   0.171
  179SOL    HW1 1436   3.677   6.792   0.246
  179SOL    HW2 1437   3.575   6.673   0.199
  180SOL     OW 1438   0.758   2.308   7.007
  180SOL    HW1 1439   0.789   2.402   0.002
  180SOL    HW2 1440   0.760   2.258   0.074
  181SOL     OW 1441   2.950   3.462   4.128
  181SOL    HW1 1442   3.015   3.512   4.071
  181SOL    HW2 1443   2.865   3.448   4.077
  182SOL     OW 1444   5.559   2.510   5.040
  182SOL    HW1 1445   5.502   2.578   4.994
  182SOL    HW2 1446   5.502   2.435   5.074
  183SOL     OW 1447   6.508   1.317   3.039
  183SOL    HW1 1448   6.484   1.361   3.126
  183SOL    HW2 1449   6.512   1.387   2.967
  184SOL     OW 1450   0.190   4.595   2.491
  184SOL    HW1 1451   0.246   4.514   2.512
  184SOL    HW2 1452   0.221   4.672   2.546
  185SOL     OW 1453   3.157   3.563   6.051
  185SOL    HW1 1454   3.159   3.487   5.987
  185SOL    HW2 1455   3.158   3.649   6.001
  186SOL     OW 1456   6.099   6.895   3.311
  186SOL    HW1 1457   6.130   6.856   3.225
  186SOL    HW2 1458   6.176   6.936   3.360
  187SOL     OW 1459   5.706   0.102   4.254
  187SOL    HW1 1460   5.614   0.079   4.222
  187SOL    HW2 1461   5.736   0.187   4.212
  188SOL     OW 1462   5.955   2.628   4.809
  188SOL    HW1 1463   5.891   2.672   4.871
  188SOL    HW2 1464   6.033   2.689   4.793
  189SOL     OW 1465   1.937   4.499   3.479
  189SOL    HW1 1466   1.953   4.492   3.578
  189SOL    HW2 1467   1.850   4.543   3.462
  190SOL     OW 1468   3.374   1.205   0.094
  190SOL    HW1 1469   3.411   1.116   0.072
  190SOL    HW2 1470   3.412   1.236   0.181
  191SOL     OW 1471   4.985   5.737   6.431
  191SOL    HW1 1472   4.976   5.725   6.530
  191SOL    HW2 1473   5.072   5.781   6.410
  192SOL     OW 1474   6.718   0.942   6.558
  192SOL    HW1 1475   6.657   0.933   6.480
  192SOL    HW2 1476   6.793   0.876   6.550
  193SOL     OW 1477   6.107   4.090   0.011
  193SOL    HW1 1478   6.068   4.023   0.075
  193SOL    HW2 1479   6.201   4.065   7.009
  194SOL     OW 1480   4.297   0.028   4.563
  194SOL    HW1 1481   4.229   0.003   4.632
  194SOL    HW2 1482   4.380   6.994   4.578
  195SOL     OW 1483   0.168   5.669   3.420
  195SOL    HW1 1484   0.234   5.672   3.496
  195SOL    HW2 1485   0.075   5.671   3.457
  196SOL     OW 1486   0.596   0.939   1.299
  196SOL    HW1 1487   0.499   0.934   1.274
  196SOL    HW2 1488   0.651   0.941   1.215
  197SOL     OW 1489   1.970   0.957   0.897
  197SOL    HW1 1490   2.042   0.910   0.847
  197SOL    HW2 1491   1.883   0.908   0.886
  198SOL     OW 1492   3.014   1.490   5.252
  198SOL    HW1 1493   2.985   1.551   5.178
  198SOL    HW2 1494   3.029   1.543   5.335
  199SOL     OW 1495   2.322   1.141   4.444
  199SOL    HW1 1496   2.298   1.238   4.454
  199SOL    HW2 1497   2.301   1.092   4.528
  200SOL     OW 1498   6.037   2.018   0.419
  200SOL    HW1 1499   5.967   2.055   0.480
  200SOL    HW2 1500   6.101   2.091   0.395
  201SOL     OW 1501   0.457   1.705   5.909
  201SOL    HW1 1502   0.540   1.712   5.964
  201SOL    HW2 1503   0.384   1.665   5.965
  202SOL     OW 1504   5.455   6.638   0.116
  202SOL    HW1 1505   5.439   6.735   0.097
  202SOL    HW2 1506   5.531   6.629   0.181
  203SOL     OW 1507   6.583   3.994   0.125
  203SOL    HW1 1508   6.554   3.995   0.221
  203SOL    HW2 1509   6.609   4.087   0.098
  204SOL     OW 1510   6.437   0.561   4.989
  204SOL    HW1 1511   6.489   0.477   4.972
  204SOL    HW2 1512   6.376   0.578   4.912
  205SOL     OW 1513   2.167   4.830   3.466
  205SOL    HW1 1514   2.164   4.929   3.452
  205SOL    HW2 1515   2.255   4.794   3.434
  206SOL     OW 1516   0.986   4.106   1.146
  206SOL    HW1 1517   1.035   4.047   1.082
  206SOL    HW2 1518   0.901   4.137   1.103
  207SOL     OW 1519   0.294   2.843   4.256
  207SOL    HW1 1520   0.286   2.763   4.196
  207SOL    HW2 1521   0.302   2.926   4.201
  208SOL     OW 1522   1.223   3.003   4.938
  208SOL    HW1 1523   1.281   2.984   4.859
  208SOL    HW2 1524   1.269   3.067   4.999
  209SOL     OW 1525   6.171   3.972   2.228
  209SOL    HW1 1526   6.163   3.879   2.264
  209SOL    HW2 1527   6.244   3.975   2.159
  210SOL     OW 1528   4.977   4.056   1.157
  210SOL    HW1 1529   5.050   3.990   1.173
  210SOL    HW2 1530   4.904   4.014   1.104
  211SOL     OW 1531   1.661   1.264   1.867
  211SOL    HW1 1532   1.613   1.217   1.941
  211SOL    HW2 1533   1.638   1.221   1.780
  212SOL     OW 1534   2.130   4.644   1.708
  212SOL    HW1 1535   2.034   4.623   1.687
  212SOL    HW2 1536   2.167   4.571   1.766
  213SOL     OW 1537   1.083   5.441   1.363
  213SOL    HW1 1538   1.150   5.501   1.407
  213SOL    HW2 1539   1.061   5.476   1.273
  214SOL     OW 1540   5.933   6.335   2.281
  214SOL    HW1 1541   5.981   6.353   2.195
  214SOL    HW2 1542   5.984   6.268   2.334
  215SOL     OW 1543   2.419   4.743   2.530
  215SOL    HW1 1544   2.345   4.683   2.561
  215SOL    HW2 1545   2.420   4.746   2.430
  216SOL     OW 1546   1.769   6.171   3.002
  216SOL    HW1 1547   1.812   6.094   3.050
  216SOL    HW2 1548   1.671   6.152   2.991
  217SOL     OW 1549   0.182   4.656   4.928
  217SOL    HW1 1550   0.219   4.612   5.010
  217SOL    HW2 1551   0.258   4.688   4.870
  218SOL     OW 1552   3.317   2.373   5.910
  218SOL    HW1 1553   3.277   2.429   5.982
  218SOL    HW2 1554   3.379   2.306   5.949
  219SOL     OW 1555   5.280   1.981   1.278
  219SOL    HW1 1556   5.236   2.005   1.192
  219SOL    HW2 1557   5.287   1.882   1.286
  220SOL     OW 1558   2.150   6.881   0.642
  220SOL    HW1 1559   2.184   6.790   0.617
  220SOL    HW2 1560   2.187   6.949   0.579
  221SOL     OW 1561   4.785   4.640   2.158
  221SOL    HW1 1562   4.695   4.607   2.130
  221SOL    HW2 1563   4.777   4.734   2.191
  222SOL     OW 1564   1.129   4.387   6.239
  222SOL    HW1 1565   1.196   4.402   6.167
  222SOL    HW2 1566   1.165   4.320   6.304
  223SOL     OW 1567   6.357   2.066   5.447
  223SOL    HW1 1568   6.371   2.128   5.524
  223SOL    HW2 1569   6.440   2.060   5.393
  224SOL     OW 1570   3.523   2.939   5.587
  224SOL    HW1 1571   3.428   2.910   5.579
  224SOL    HW2 1572   3.561   2.954   5.496
  225SOL     OW 1573   4.486   6.099   6.039
  225SOL    HW1 1574   4.540   6.117   5.957
  225SOL    HW2 1575   4.475   6.184   6.091
  226SOL     OW 1576   1.847   2.350   0.092
  226SOL    HW1 1577   1.771   2.287   0.102
  226SOL    HW2 1578   1.855   2.378   7.016
  227SOL     OW 1579   1.556   3.904   1.280
  227SOL    HW1 1580   1.632   3.843   1.303
  227SOL    HW2 1581   1.565   3.989   1.333
  228SOL     OW 1582   0.642   0.522   2.391
  228SOL    HW1 1583   0.714   0.479   2.445
  228SOL    HW2 1584   0.666   0.519   2.294
  229SOL     OW 1585   4.049   0.720   6.082
  229SOL    HW1 1586   4.100   0.720   6.169
  229SOL    HW2 1587   4.101   0.667   6.014
  230SOL     OW 1588   5.758   3.729   6.005
  230SOL    HW1 1589   5.776   3.817   5.959
  230SOL    HW2 1590   5.845   3.682   6.021
  231SOL     OW 1591   4.765   1.654   0.492
  231SOL    HW1 1592   4.806   1.733   0.447
  231SOL    HW2 1593   4.835   1.607   0.546
  232SOL     OW 1594   1.176   2.763   5.077
  232SOL    HW1 1595   1.198   2.845   5.024
  232SOL    HW2 1596   1.120   2.788   5.156
  233SOL     OW 1597   3.384   1.849   3.605
  233SOL    HW1 1598   3.317   1.789   3.648
  233SOL    HW2 1599   3.377   1.941   3.644
  234SOL     OW 1600   5.345   6.456   0.319
  234SOL    HW1 1601   5.436   6.463   0.280
  234SOL    HW2 1602   5.282   6.518   0.271
  235SOL     OW 1603   5.143   3.483   2.566
  235SOL    HW1 1604   5.052   3.445   2.582
  235SOL    HW2 1605   5.140   3.582   2.581
  236SOL     OW 1606   3.753   3.384   5.820
  236SOL    HW1 1607   3.728   3.320   5.748
  236SOL    HW2 1608   3.820   3.449   5.785
  237SOL     OW 1609   6.099   3.301   3.216
  237SOL    HW1 1610   6.173   3.276   3.278
  237SOL    HW2 1611   6.015   3.317   3.268
  238SOL     OW 1612   6.240   1.939   0.023
  238SOL    HW1 1613   6.184   1.897   0.094
  238SOL    HW2 1614   6.185   2.007   6.993
  239SOL     OW 1615   1.796   3.124   0.330
  239SOL    HW1 1616   1.830   3.031   0.320
  239SOL    HW2 1617   1.761   3.156   0.242
  240SOL     OW 1618   5.195   3.393   4.437
  240SOL    HW1 1619   5.119   3.445   4.478
  240SOL    HW2 1620   5.192   3.404   4.338
  241SOL     OW 1621   2.101   2.699   3.913
  241SOL    HW1 1622   2.192   2.719   3.948
  241SOL    HW2 1623   2.032   2.741   3.973
  242SOL     OW 1624   3.889   3.540   2.233
  242SOL    HW1 1625   3.936   3.582   2.310
  242SOL    HW2 1626   3.950   3.536   2.154
  243SOL     OW 1627   4.560   3.341   6.574
  243SOL    HW1 1628   4.529   3.414   6.634
  243SOL    HW2 1629   4.521   3.253   6.603
  244SOL     OW 1630   4.979   3.448   4.841
  244SOL    HW1 1631   4.959   3.352   4.862
  244SOL    HW2 1632   4.933   3.507   4.907
  245SOL     OW 1633   3.128   0.923   3.147
  245SOL    HW1 1634   3.169   0.995   3.203
  245SOL    HW2 1635   3.170   0.924   3.056
  246SOL     OW 1636   0.058   1.373   2.170
  246SOL    HW1 1637   6.992   1.416   2.142
  246SOL    HW2 1638   0.101   1.427   2.242
  247SOL     OW 1639   2.472   0.734   1.963
  247SOL    HW1 1640   2.398   0.742   1.896
  247SOL    HW2 1641   2.470   0.643   2.004
  248SOL     OW 1642   3.396   3.610   1.429
  248SOL    HW1 1643   3.307   3.641   1.462
  248SOL    HW2 1644   3.387   3.520   1.388
  249SOL     OW 1645   4.917   6.244   5.854
  249SOL    HW1 1646   4.988   6.286   5.796
  249SOL    HW2 1647   4.898   6.304   5.932
  250SOL     OW 1648   4.422   2.524   0.168
  250SOL    HW1 1649   4.435   2.534   0.070
  250SOL    HW2 1650   4.343   2.578   0.197
  251SOL     OW 1651   4.602   5.151   4.815
  251SOL    HW1 1652   4.513   5.106   4.815
  251SOL    HW2 1653   4.674   5.082   4.818
  252SOL     OW 1654   6.339   6.062   5.233
  252SOL    HW1 1655   6.354   5.992   5.163
  252SOL    HW2 1656   6.252   6.044   5.279
  253SOL     OW 1657   4.477   5.864   5.703
  253SOL    HW1 1658   4.477   5.827   5.796
  253SOL    HW2 1659   4.559   5.833   5.655
  254SOL     OW 1660   6.472   2.585   5.506
  254SOL    HW1 1661   6.376   2.578   5.532
  254SOL    HW2 1662   6.517   2.651   5.567
  255SOL     OW 1663   1.676   4.962   6.488
  255SOL    HW1 1664   1.752   5.020   6.459
  255SOL    HW2 1665   1.699   4.918   6.575
  256SOL     OW 1666   4.843   2.353   5.591
  256SOL    HW1 1667   4.885   2.375   5.680
  256SOL    HW2 1668   4.744   2.344   5.602
  257SOL     OW 1669   4.974   6.325   2.476
  257SOL    HW1 1670   4.977   6.264   2.397
  257SOL    HW2 1671   5.064   6.367   2.488
  258SOL     OW 1672   1.890   3.216   6.142
  258SOL    HW1 1673   1.969   3.215   6.081
  258SOL    HW2 1674   1.858   3.123   6.158
  259SOL     OW 1675   3.183   0.713   4.118
  259SOL    HW1 1676   3.262   0.752   4.165
  259SOL    HW2 1677   3.115   0.785   4.100
  260SOL     OW 1678   3.521   5.918   3.317
  260SOL    HW1 1679   3.574   5.835   3.300
  260SOL    HW2 1680   3.524   5.977   3.235
  261SOL     OW 1681   3.672   4.591   6.857
  261SOL    HW1 1682   3.745   4.619   6.795
  261SOL    HW2 1683   3.686   4.633   6.947
  262SOL     OW 1684   1.071   3.388   6.454
  262SOL    HW1 1685   0.979   3.350   6.444
  262SOL    HW2 1686   1.138   3.318   6.429
  263SOL     OW 1687   2.216   0.315   3.551
  263SOL    HW1 1688   2.169   0.392   3.594
  263SOL    HW2 1689   2.312   0.313   3.580
  264SOL     OW 1690   6.344   3.058   6.216
  264SOL    HW1 1691   6.418   3.103   6.266
  264SOL    HW2 1692   6.378   2.974   6.175
  265SOL     OW 1693   6.963   0.265   2.979
  265SOL    HW1 1694   6.941   0.255   3.076
  265SOL    HW2 1695   6.897   0.213   2.924
  266SOL     OW 1696   3.410   0.386   5.988
  266SOL    HW1 1697   3.458   0.426   5.910
  266SOL    HW2 1698   3.333   0.445   6.012
  267SOL     OW 1699   2.301   0.003   2.518
  267SOL    HW1 1700   2.234   6.949   2.515
  267SOL    HW2 1701   2.370   7.008   2.448
  268SOL     OW 1702   4.259   2.628   0.482
  268SOL    HW1 1703   4.341   2.582   0.517
  268SOL    HW2 1704   4.204   2.661   0.559
  269SOL     OW 1705   5.233   2.035   0.181
  269SOL    HW1 1706   5.257   1.940   0.162
  269SOL    HW2 1707   5.204   2.080   0.097
  270SOL     OW 1708   5.193   1.545   0.481
  270SOL    HW1 1709   5.109   1.593   0.505
  270SOL    HW2 1710   5.209   1.471   0.547
  271SOL     OW 1711   6.924   5.036   6.165
  271SOL    HW1 1712   6.926   4.960   6.229
  271SOL    HW2 1713   6.834   5.041   6.121
  272SOL     OW 1714   3.009   6.015   3.018
  272SOL    HW1 1715   2.928   6.072   3.028
  272SOL    HW2 1716   2.983   5.918   3.024
  273SOL     OW 1717   1.414   5.649   6.109
  273SOL    HW1 1718   1.500   5.641   6.059
  273SOL    HW2 1719   1.422   5.720   6.179
  274SOL     OW 1720   4.648   1.883   3.699
  274SOL    HW1 1721   4.743   1.888   3.729
  274SOL    HW2 1722   4.613   1.976   3.685
  275SOL     OW 1723   5.599   0.653   1.280
  275SOL    HW1 1724   5.501   0.634   1.287
  275SOL    HW2 1725   5.621   0.677   1.185
  276SOL     OW 1726   0.385   6.768   3.929
  276SOL    HW1 1727   0.476   6.732   3.951
  276SOL    HW2 1728   0.383   6.801   3.835
  277SOL     OW 1729   2.334   4.706   1.187
  277SOL    HW1 1730   2.240   4.678   1.205
  277SOL    HW2 1731   2.357   4.785   1.244
  278SOL     OW 1732   0.944   3.251   3.867
  278SOL    HW1 1733   1.041   3.243   3.846
  278SOL    HW2 1734   0.930   3.240   3.966
  279SOL     OW 1735   6.371   1.981   3.575
  279SOL    HW1 1736   6.427   2.056   3.612
  279SOL    HW2 1737   6.372   1.904   3.639
  280SOL     OW 1738   1.868   5.369   2.528
  280SOL    HW1 1739   1.827   5.402   2.443
  280SOL    HW2 1740   1.854   5.438   2.600
  281SOL     OW 1741   2.468   4.464   1.101
  281SOL    HW1 1742   2.429   4.556   1.105
  281SOL    HW2 1743   2.475   4.434   1.006
  282SOL     OW 1744   1.661   1.404   4.896
  282SOL    HW1 1745   1.580   1.442   4.942
  282SOL    HW2 1746   1.701   1.333   4.954
  283SOL     OW 1747   2.743   2.768   6.946
  283SOL    HW1 1748   2.750   2.801   6.852
  283SOL    HW2 1749   2.695   2.680   6.946
  284SOL     OW 1750   0.799   4.180   3.876
  284SOL    HW1 1751   0.701   4.197   3.886
  284SOL    HW2 1752   0.828   4.204   3.784
  285SOL     OW 1753   5.110   3.926   4.099
  285SOL    HW1 1754   5.097   4.014   4.145
  285SOL    HW2 1755   5.179   3.936   4.027
  286SOL     OW 1756   2.632   3.994   1.124
  286SOL    HW1 1757   2.670   4.069   1.178
  286SOL    HW2 1758   2.592   3.926   1.185
  287SOL     OW 1759   0.766   3.238   0.050
  287SOL    HW1 1760   0.722   3.173   7.008
  287SOL    HW2 1761   0.722   3.234   0.140
  288SOL     OW 1762   5.250   3.122   2.044
  288SOL    HW1 1763   5.212   3.213   2.064
  288SOL    HW2 1764   5.334   3.132   1.990
  289SOL     OW 1765   3.775   5.899   0.126
  289SOL    HW1 1766   3.695   5.959   0.121
  289SOL    HW2 1767   3.795   5.863   0.035
  290SOL     OW 1768   1.595   0.722   4.717
  290SOL    HW1 1769   1.657   0.655   4.759
  290SOL    HW2 1770   1.528   0.673   4.661
  291SOL     OW 1771   6.707   1.101   2.751
  291SOL    HW1 1772   6.705   1.045   2.668
  291SOL    HW2 1773   6.761   1.056   2.821
  292SOL     OW 1774   3.537   6.793   3.706
  292SOL    HW1 1775   3.452   6.782   3.758
  292SOL    HW2 1776   3.591   6.867   3.746
  293SOL     OW 1777   3.489   5.243   2.875
  293SOL    HW1 1778   3.491   5.155   2.922
  293SOL    HW2 1779   3.396   5.263   2.844
  294SOL     OW 1780   4.666   0.461   0.569
  294SOL    HW1 1781   4.592   0.496   0.511
  294SOL    HW2 1782   4.750   0.511   0.550
  295SOL     OW 1783   6.189   0.562   4.439
  295SOL    HW1 1784   6.213   0.546   4.343
  295SOL    HW2 1785   6.108   0.508   4.462
  296SOL     OW 1786   2.735   2.082   3.182
  296SOL    HW1 1787   2.666   2.151   3.160
  296SOL    HW2 1788   2.691   2.006   3.231
  297SOL     OW 1789   1.299   5.109   2.083
  297SOL    HW1 1790   1.364   5.181   2.105
  297SOL    HW2 1791   1.303   5.087   1.986
  298SOL     OW 1792   6.532   5.165   0.537
  298SOL    HW1 1793   6.494   5.221   0.464
  298SOL    HW2 1794   6.508   5.206   0.626
  299SOL     OW 1795   5.481   2.939   3.629
  299SOL    HW1 1796   5.510   2.984   3.714
  299SOL    HW2 1797   5.557   2.941   3.564
  300SOL     OW 1798   5.940   0.108   1.470
  300SOL    HW1 1799   5.881   0.186   1.492
  300SOL    HW2 1800   6.036   0.137   1.473
  301SOL     OW 1801   5.039   3.095   5.863
  301SOL    HW1 1802   5.129   3.063   5.832
  301SOL    HW2 1803   4.972   3.022   5.849
  302SOL     OW 1804   1.072   5.472   5.032
  302SOL    HW1 1805   1.157   5.494   4.984
  302SOL    HW2 1806   1.048   5.377   5.014
  303SOL     OW 1807   6.354   0.318   3.272
  303SOL    HW1 1808   6.342   0.223   3.245
  303SOL    HW2 1809   6.300   0.377   3.211
  304SOL     OW 1810   4.026   0.651   4.504
  304SOL    HW1 1811   4.043   0.633   4.601
  304SOL    HW2 1812   4.057   0.743   4.481
  305SOL     OW 1813   1.847   4.026   0.832
  305SOL    HW1 1814   1.904   3.958   0.785
  305SOL    HW2 1815   1.792   4.075   0.765
  306SOL     OW 1816   1.872   0.572   3.241
  306SOL    HW1 1817   1.862   0.672   3.234
  306SOL    HW2 1818   1.799   0.528   3.189
  307SOL     OW 1819   3.082   0.207   1.028
  307SOL    HW1 1820   3.075   0.148   1.109
  307SOL    HW2 1821   3.174   0.201   0.990
  308SOL     OW 1822   0.881   4.976   4.223
  308SOL    HW1 1823   0.788   4.954   4.252
  308SOL    HW2 1824   0.937   4.893   4.226
  309SOL     OW 1825   3.758   4.794   5.287
  309SOL    HW1 1826   3.745   4.859   5.362
  309SOL    HW2 1827   3.693   4.718   5.298
  310SOL     OW 1828   1.283   5.994   6.666
  310SOL    HW1 1829   1.378   5.966   6.655
  310SOL    HW2 1830   1.262   6.005   6.763
  311SOL     OW 1831   6.828   0.523   1.361
  311SOL    HW1 1832   6.822   0.430   1.325
  311SOL    HW2 1833   6.873   0.582   1.295
  312SOL     OW 1834   3.928   1.425   6.491
  312SOL    HW1 1835   3.922   1.393   6.586
  312SOL    HW2 1836   3.990   1.366   6.439
  313SOL     OW 1837   6.784   4.680   1.441
  313SOL    HW1 1838   6.807   4.658   1.536
  313SOL    HW2 1839   6.692   4.646   1.420
  314SOL     OW 1840   3.574   5.984   2.311
  314SOL    HW1 1841   3.603   5.967   2.217
  314SOL    HW2 1842   3.567   6.083   2.326
  315SOL     OW 1843   0.487   4.226   3.205
  315SOL    HW1 1844   0.498   4.205   3.302
  315SOL    HW2 1845   0.446   4.148   3.158
  316SOL     OW 1846   2.270   3.024   3.911
  316SOL    HW1 1847   2.292   3.023   3.813
  316SOL    HW2 1848   2.310   2.944   3.955
  317SOL     OW 1849   6.871   2.014   1.018
  317SOL    HW1 1850   6.910   2.104   1.039
  317SOL    HW2 1851   6.895   1.989   0.925
  318SOL     OW 1852   2.502   4.325   0.810
  318SOL    HW1 1853   2.455   4.339   0.723
  318SOL    HW2 1854   2.485   4.232   0.842
  319SOL     OW 1855   0.556   1.546   6.238
  319SOL    HW1 1856   0.614   1.491   6.300
  319SOL    HW2 1857   0.613   1.585   6.166
  320SOL     OW 1858   5.907   3.183   2.458
  320SOL    HW1 1859   5.908   3.263   2.398
  320SOL    HW2 1860   5.900   3.212   2.553
  321SOL     OW 1861   1.890   1.243   2.071
  321SOL    HW1 1862   1.857   1.244   1.976
  321SOL    HW2 1863   1.982   1.204   2.074
  322SOL     OW 1864   3.691   3.237   5.589
  322SOL    HW1 1865   3.609   3.182   5.572
  322SOL    HW2 1866   3.772   3.188   5.556
  323SOL     OW 1867   1.625   4.036   2.335
  323SOL    HW1 1868   1.724   4.040   2.326
  323SOL    HW2 1869   1.582   4.051   2.245
  324SOL     OW 1870   0.288   2.570   4.150
  324SOL    HW1 1871   0.382   2.536   4.149
  324SOL    HW2 1872   0.247   2.559   4.059
  325SOL     OW 1873   1.990   1.907   2.697
  325SOL    HW1 1874   1.902   1.860   2.705
  325SOL    HW2 1875   2.024   1.898   2.603
  326SOL     OW 1876   2.100   4.411   4.676
  326SOL    HW1 1877   2.168   4.352   4.718
  326SOL    HW2 1878   2.091   4.495   4.729
  327SOL     OW 1879   6.011   3.849   6.313
  327SOL    HW1 1880   6.086   3.893   6.362
  327SOL    HW2 1881   5.926   3.898   6.331
  328SOL     OW 1882   3.252   5.829   3.264
  328SOL    HW1 1883   3.292   5.754   3.211
  328SOL    HW2 1884   3.325   5.891   3.294
  329SOL     OW 1885   3.577   4.201   1.711
  329SOL    HW1 1886   3.488   4.178   1.671
  329SOL    HW2 1887   3.583   4.161   1.803
  330SOL     OW 1888   2.639   2.548   1.551
  330SOL    HW1 1889   2.712   2.568   1.616
  330SOL    HW2 1890   2.597   2.460   1.574
  331SOL     OW 1891   6.801   3.966   5.718
  331SOL    HW1 1892   6.830   3.952   5.624
  331SOL    HW2 1893   6.810   3.879   5.768
  332SOL     OW 1894   4.006   1.844   3.367
  332SOL    HW1 1895   3.985   1.766   3.308
  332SOL    HW2 1896   3.926   1.866   3.422
  333SOL     OW 1897   4.383   6.432   0.952
  333SOL    HW1 1898   4.328   6.515   0.946
  333SOL    HW2 1899   4.464   6.442   0.895
  334SOL     OW 1900   5.217   0.215   3.037
  334SOL    HW1 1901   5.233   0.210   2.938
  334SOL    HW2 1902   5.156   0.142   3.065
  335SOL     OW 1903   3.349   0.450   2.152
  335SOL    HW1 1904   3.322   0.374   2.212
  335SOL    HW2 1905   3.409   0.512   2.203
  336SOL     OW 1906   3.426   1.087   4.897
  336SOL    HW1 1907   3.427   1.118   4.992
  336SOL    HW2 1908   3.495   1.016   4.884
  337SOL     OW 1909   1.379   4.202   2.358
  337SOL    HW1 1910   1.344   4.146   2.283
  337SOL    HW2 1911   1.310   4.208   2.431
  338SOL     OW 1912   2.244   2.771   0.910
  338SOL    HW1 1913   2.264   2.681   0.873
  338SOL    HW2 1914   2.265   2.772   1.008
  339SOL     OW 1915   4.781   0.635   3.112
  339SOL    HW1 1916   4.752   0.629   3.208
  339SOL    HW2 1917   4.701   0.649   3.054
  340SOL     OW 1918   5.422   3.936   4.361
  340SOL    HW1 1919   5.392   3.857   4.308
  340SOL    HW2 1920   5.470   3.906   4.443
  341SOL     OW 1921   4.363   4.616   5.579
  341SOL    HW1 1922   4.430   4.614   5.505
  341SOL    HW2 1923   4.290   4.551   5.560
  342SOL     OW 1924   5.675   3.099   0.872
  342SOL    HW1 1925   5.771   3.109   0.898
  342SOL    HW2 1926   5.641   3.185   0.835
  343SOL     OW 1927   2.512   0.612   2.465
  343SOL    HW1 1928   2.450   0.686   2.491
  343SOL    HW2 1929   2.563   0.581   2.546
  344SOL     OW 1930   4.104   6.946   0.498
  344SOL    HW1 1931   4.072   7.002   0.422
  344SOL    HW2 1932   4.203   6.933   0.491
  345SOL     OW 1933   1.092   0.785   5.347
  345SOL    HW1 1934   1.003   0.764   5.306
  345SOL    HW2 1935   1.161   0.725   5.308
  346SOL     OW 1936   2.245   0.656   4.984
  346SOL    HW1 1937   2.210   0.741   4.944
  346SOL    HW2 1938   2.181   0.623   5.054
  347SOL     OW 1939   5.481   5.895   5.649
  347SOL    HW1 1940   5.564   5.947   5.667
  347SOL    HW2 1941   5.487   5.807   5.695
  348SOL     OW 1942   2.874   0.018   3.817
  348SOL    HW1 1943   2.858   0.116   3.816
  348SOL    HW2 1944   2.843   7.000   3.905
  349SOL     OW 1945   2.539   5.319   1.974
  349SOL    HW1 1946   2.520   5.412   1.942
  349SOL    HW2 1947   2.628   5.289   1.940
  350SOL     OW 1948   5.188   3.471   1.600
  350SOL    HW1 1949   5.202   3.454   1.697
  350SOL    HW2 1950   5.107   3.529   1.588
  351SOL     OW 1951   3.042   1.521   0.500
  351SOL    HW1 1952   3.079   1.582   0.570
  351SOL    HW2 1953   3.082   1.545   0.411
  352SOL     OW 1954   2.828   1.478   6.654
  352SOL    HW1 1955   2.828   1.535   6.572
  352SOL    HW2 1956   2.761   1.405   6.644
  353SOL     OW 1957   2.492   6.813   1.385
  353SOL    HW1 1958   2.460   6.789   1.477
  353SOL    HW2 1959   2.491   6.913   1.375
  354SOL     OW 1960   5.693   0.154   2.418
  354SOL    HW1 1961   5.609   0.107   2.445
  354SOL    HW2 1962   5.700   0.241   2.467
  355SOL     OW 1963   1.122   0.883   2.441
  355SOL    HW1 1964   1.034   0.918   2.473
  355SOL    HW2 1965   1.111   0.791   2.405
  356SOL     OW 1966   2.993   0.339   2.954
  356SOL    HW1 1967   3.044   0.323   3.038
  356SOL    HW2 1968   3.017   0.429   2.918
  357SOL     OW 1969   1.348   4.773   4.189
  357SOL    HW1 1970   1.375   4.763   4.094
  357SOL    HW2 1971   1.268   4.834   4.195
  358SOL     OW 1972   4.915   1.017   3.425
  358SOL    HW1 1973   4.976   0.941   3.405
  358SOL    HW2 1974   4.860   0.995   3.506
  359SOL     OW 1975   0.625   1.665   0.631
  359SOL    HW1 1976   0.656   1.662   0.536
  359SOL    HW2 1977   0.547   1.604   0.643
  360SOL     OW 1978   5.332   6.993   6.525
  360SOL    HW1 1979   5.378   6.915   6.568
  360SOL    HW2 1980   5.291   6.963   6.438
  361SOL     OW 1981   2.898   0.482   2.051
  361SOL    HW1 1982   2.838   0.556   2.022
  361SOL    HW2 1983   2.882   0.462   2.148
  362SOL     OW 1984   2.668   3.421   0.173
  362SOL    HW1 1985   2.761   3.400   0.145
  362SOL    HW2 1986   2.652   3.520   0.167
  363SOL     OW 1987   4.683   4.835   4.151
  363SOL    HW1 1988   4.586   4.813   4.156
  363SOL    HW2 1989   4.696   4.919   4.098
  364SOL     OW 1990   2.806   5.896   6.195
  364SOL    HW1 1991   2.904   5.894   6.173
  364SOL    HW2 1992   2.790   5.841   6.277
  365SOL     OW 1993   5.061   6.232   3.241
  365SOL    HW1 1994   5.138   6.188   3.196
  365SOL    HW2 1995   4.983   6.235   3.179
  366SOL     OW 1996   4.960   1.560   0.661
  366SOL    HW1 1997   4.964   1.465   0.691
  366SOL    HW2 1998   4.983   1.621   0.737
  367SOL     OW 1999   6.889   2.516   2.497
  367SOL    HW1 2000   6.879   2.607   2.458
  367SOL    HW2 2001   6.802   2.488   2.538
  368SOL     OW 2002   6.816   5.094   4.830
  368SOL    HW1 2003   6.898   5.111   4.775
  368SOL    HW2 2004   6.734   5.102   4.772
  369SOL     OW 2005   1.227   4.071   2.189
  369SOL    HW1 2006   1.145   4.128   2.180
  369SOL    HW2 2007   1.260   4.045   2.098
  370SOL     OW 2008   4.043   1.870   6.697
  370SOL    HW1 2009   4.083   1.950   6.652
  370SOL    HW2 2010   3.986   1.821   6.631
  371SOL     OW 2011   3.295   2.348   6.689
  371SOL    HW1 2012   3.349   2.421   6.731
  371SOL    HW2 2013   3.332   2.260   6.717
  372SOL     OW 2014   2.181   5.537   0.013
  372SOL    HW1 2015   2.085   5.508   0.012
  372SOL    HW2 2016   2.233   5.481   6.968
  373SOL     OW 2017   6.314   0.049   6.585
  373SOL    HW1 2018   6.391   7.007   6.603
  373SOL    HW2 2019   6.259   0.012   6.510
  374SOL     OW 2020   4.770   0.650   1.012
  374SOL    HW1 2021   4.707   0.582   0.975
  374SOL    HW2 2022   4.814   0.699   0.936
  375SOL     OW 2023   6.872   3.711   1.966
  375SOL    HW1 2024   6.899   3.621   1.930
  375SOL    HW2 2025   6.804   3.752   1.905
  376SOL     OW 2026   2.342   4.162   5.332
  376SOL    HW1 2027   2.410   4.236   5.330
  376SOL    HW2 2028   2.367   4.093   5.264
  377SOL     OW 2029   4.730   0.937   3.629
  377SOL    HW1 2030   4.661   0.993   3.583
  377SOL    HW2 2031   4.685   0.866   3.682
  378SOL     OW 2032   6.061   2.128   5.752
  378SOL    HW1 2033   5.996   2.129   5.828
  378SOL    HW2 2034   6.045   2.047   5.695
  379SOL     OW 2035   6.313   2.607   0.737
  379SOL    HW1 2036   6.351   2.564   0.819
  379SOL    HW2 2037   6.321   2.707   0.746
  380SOL     OW 2038   6.874   2.142   0.242
  380SOL    HW1 2039   6.900   2.237   0.261
  380SOL    HW2 2040   6.785   2.123   0.284
  381SOL     OW 2041   4.660   4.785   6.988
  381SOL    HW1 2042   4.601   4.778   0.049
  381SOL    HW2 2043   4.743   4.834   7.012
  382SOL     OW 2044   1.995   5.448   6.669
  382SOL    HW1 2045   1.982   5.360   6.623
  382SOL    HW2 2046   1.906   5.487   6.693
  383SOL     OW 2047   5.642   1.910   0.186
  383SOL    HW1 2048   5.605   1.998   0.156
  383SOL    HW2 2049   5.642   1.846   0.109
  384SOL     OW 2050   1.343   5.275   4.337
  384SOL    HW1 2051   1.313   5.343   4.270
  384SOL    HW2 2052   1.434   5.241   4.311
  385SOL     OW 2053   4.761   4.488   1.076
  385SOL    HW1 2054   4.859   4.476   1.059
  385SOL    HW2 2055   4.715   4.503   0.989
  386SOL     OW 2056   2.975   6.008   4.401
  386SOL    HW1 2057   3.022   5.924   4.375
  386SOL    HW2 2058   2.932   5.996   4.491
  387SOL     OW 2059   0.554   0.314   5.540
  387SOL    HW1 2060   0.579   0.285   5.448
  387SOL    HW2 2061   0.575   0.241   5.605
  388SOL     OW 2062   0.455   2.402   4.517
  388SOL    HW1 2063   0.482   2.325   4.461
  388SOL    HW2 2064   0.371   2.442   4.481
  389SOL     OW 2065   4.973   4.035   2.626
  389SOL    HW1 2066   4.882   4.076   2.628
  389SOL    HW2 2067   4.992   4.000   2.534
  390SOL     OW 2068   3.271   2.765   0.034
  390SOL    HW1 2069   3.174   2.790   0.043
  390SOL    HW2 2070   3.283   2.707   6.973
  391SOL     OW 2071   4.017   3.895   3.474
  391SOL    HW1 2072   3.969   3.912   3.560
  391SOL    HW2 2073   4.037   3.983   3.430
  392SOL     OW 2074   1.921   3.077   2.019
  392SOL    HW1 2075   1.949   2.986   2.049
  392SOL    HW2 2076   1.985   3.145   2.057
  393SOL     OW 2077   1.171   6.208   1.097
  393SOL    HW1 2078   1.099   6.198   1.028
  393SOL    HW2 2079   1.246   6.145   1.075
  394SOL     OW 2080   5.909   2.145   5.977
  394SOL    HW1 2081   5.970   2.223   5.989
  394SOL    HW2 2082   5.820   2.166   6.018
  395SOL     OW 2083   6.821   4.917   6.606
  395SOL    HW1 2084   6.903   4.916   6.663
  395SOL    HW2 2085   6.847   4.914   6.509
  396SOL     OW 2086   0.390   1.027   1.590
  396SOL    HW1 2087   0.329   1.038   1.669
  396SOL    HW2 2088   0.337   1.036   1.506
  397SOL     OW 2089   4.856   1.960   5.003
  397SOL    HW1 2090   4.910   1.945   4.920
  397SOL    HW2 2091   4.885   2.045   5.047
  398SOL     OW 2092   6.922   1.610   3.272
  398SOL    HW1 2093   6.894   1.551   3.348
  398SOL    HW2 2094   0.001   1.628   3.278
  399SOL     OW 2095   5.953   5.500   4.837
  399SOL    HW1 2096   5.911   5.448   4.911
  399SOL    HW2 2097   5.974   5.438   4.761
  400SOL     OW 2098   6.635   6.132   3.471
  400SOL    HW1 2099   6.712   6.128   3.407
  400SOL    HW2 2100   6.591   6.042   3.475
  401SOL     OW 2101   1.119   5.766   4.139
  401SOL    HW1 2102   1.061   5.687   4.121
  401SOL    HW2 2103   1.105   5.797   4.233
  402SOL     OW 2104   6.034   1.150   4.538
  402SOL    HW1 2105   5.995   1.231   4.496
  402SOL    HW2 2106   6.093   1.103   4.473
  403SOL     OW 2107   2.528   1.716   5.123
  403SOL    HW1 2108   2.438   1.726   5.082
  403SOL    HW2 2109   2.519   1.672   5.213
  404SOL     OW 2110   3.452   5.792   3.554
  404SOL    HW1 2111   3.487   5.857   3.487
  404SOL    HW2 2112   3.496   5.808   3.642
  405SOL     OW 2113   3.361   4.916   3.798
  405SOL    HW1 2114   3.454   4.922   3.763
  405SOL    HW2 2115   3.296   4.921   3.722
  406SOL     OW 2116   0.954   0.577   0.449
  406SOL    HW1 2117   1.049   0.547   0.455
  406SOL    HW2 2118   0.895   0.497   0.436
  407SOL     OW 2119   2.159   4.021   3.983
  407SOL    HW1 2120   2.083   4.064   3.933
  407SOL    HW2 2121   2.176   3.930   3.945
  408SOL     OW 2122   2.984   2.066   1.583
  408SOL    HW1 2123   3.036   2.003   1.526
  408SOL    HW2 2124   3.023   2.158   1.576
  409SOL     OW 2125   0.230   2.042   2.217
  409SOL    HW1 2126   0.301   2.110   2.232
  409SOL    HW2 2127   0.160   2.050   2.288
  410SOL     OW 2128   1.604   3.358   1.978
  410SOL    HW1 2129   1.602   3.263   1.946
  410SOL    HW2 2130   1.691   3.376   2.023
  411SOL     OW 2131   0.068   1.226   1.943
  411SOL    HW1 2132   6.992   1.196   1.938
  411SOL    HW2 2133   0.083   1.276   2.028
  412SOL     OW 2134   2.680   4.613   3.225
  412SOL    HW1 2135   2.728   4.594   3.139
  412SOL    HW2 2136   2.584   4.587   3.216
  413SOL     OW 2137   6.643   4.701   2.903
  413SOL    HW1 2138   6.650   4.793   2.865
  413SOL    HW2 2139   6.556   4.660   2.874
  414SOL     OW 2140   2.081   6.882   2.408
  414SOL    HW1 2141   2.015   6.942   2.362
  414SOL    HW2 2142   2.032   6.822   2.472
  415SOL     OW 2143   5.862   2.919   1.502
  415SOL    HW1 2144   5.781   2.923   1.443
  415SOL    HW2 2145   5.839   2.953   1.593
  416SOL     OW 2146   6.228   3.419   6.882
  416SOL    HW1 2147   6.164   3.495   6.892
  416SOL    HW2 2148   6.316   3.445   6.922
  417SOL     OW 2149   2.674   1.807   6.126
  417SOL    HW1 2150   2.662   1.836   6.031
  417SOL    HW2 2151   2.736   1.871   6.173
  418SOL     OW 2152   4.374   5.225   6.251
  418SOL    HW1 2153   4.394   5.284   6.173
  418SOL    HW2 2154   4.286   5.181   6.238
  419SOL     OW 2155   5.547   0.019   0.277
  419SOL    HW1 2156   5.451   0.026   0.250
  419SOL    HW2 2157   5.597   6.984   0.211
  420SOL     OW 2158   3.113   6.422   0.695
  420SOL    HW1 2159   3.166   6.337   0.700
  420SOL    HW2 2160   3.017   6.402   0.714
  421SOL     OW 2161   5.445   4.573   3.348
  421SOL    HW1 2162   5.466   4.670   3.334
  421SOL    HW2 2163   5.389   4.541   3.271
  422SOL     OW 2164   3.899   1.442   2.368
  422SOL    HW1 2165   3.949   1.528   2.358
  422SOL    HW2 2166   3.801   1.461   2.377
  423SOL     OW 2167   2.644   0.758   6.349
  423SOL    HW1 2168   2.611   0.818   6.422
  423SOL    HW2 2169   2.613   0.794   6.261
  424SOL     OW 2170   1.968   4.818   4.052
  424SOL    HW1 2171   2.011   4.760   3.983
  424SOL    HW2 2172   2.034   4.884   4.086
  425SOL     OW 2173   3.454   1.208   6.702
  425SOL    HW1 2174   3.528   1.141   6.700
  425SOL    HW2 2175   3.388   1.186   6.631
  426SOL     OW 2176   2.309   2.711   3.268
  426SOL    HW1 2177   2.224   2.679   3.226
  426SOL    HW2 2178   2.305   2.810   3.282
  427SOL     OW 2179   4.841   0.994   4.562
  427SOL    HW1 2180   4.765   1.059   4.554
  427SOL    HW2 2181   4.835   0.926   4.488
  428SOL     OW 2182   2.240   1.533   6.097
  428SOL    HW1 2183   2.258   1.544   5.999
  428SOL    HW2 2184   2.174   1.460   6.111
  429SOL     OW 2185   6.875   0.196   3.658
  429SOL    HW1 2186   6.859   0.240   3.747
  429SOL    HW2 2187   6.958   0.234   3.617
  430SOL     OW 2188   1.691   0.913   3.759
  430SOL    HW1 2189   1.734   0.824   3.748
  430SOL    HW2 2190   1.601   0.902   3.801
  431SOL     OW 2191   2.645   0.971   1.821
  431SOL    HW1 2192   2.618   1.005   1.731
  431SOL    HW2 2193   2.581   0.900   1.851
  432SOL     OW 2194   6.178   1.540   1.966
  432SOL    HW1 2195   6.174   1.536   1.866
  432SOL    HW2 2196   6.111   1.477   2.004
  433SOL     OW 2197   1.472   3.162   6.995
  433SOL    HW1 2198   1.379   3.184   0.005
  433SOL    HW2 2199   1.503   3.232   6.931
  434SOL     OW 2200   3.759   6.059   2.690
  434SOL    HW1 2201   3.805   6.062   2.779
  434SOL    HW2 2202   3.815   6.008   2.626
  435SOL     OW 2203   2.439   2.250   6.744
  435SOL    HW1 2204   2.423   2.313   6.820
  435SOL    HW2 2205   2.503   2.178   6.774
  436SOL     OW 2206   5.644   6.180   2.443
  436SOL    HW1 2207   5.622   6.116   2.370
  436SOL    HW2 2208   5.638   6.274   2.408
  437SOL     OW 2209   6.753   1.610   6.064
  437SOL    HW1 2210   6.838   1.559   6.070
  437SOL    HW2 2211   6.677   1.552   6.094
  438SOL     OW 2212   1.073   3.426   1.623
  438SOL    HW1 2213   1.060   3.449   1.527
  438SOL    HW2 2214   1.004   3.359   1.651
  439SOL     OW 2215   0.969   1.184   6.295
  439SOL    HW1 2216   0.984   1.174   6.393
  439SOL    HW2 2217   1.057   1.182   6.248
  440SOL     OW 2218   3.290   1.777   1.602
  440SOL    HW1 2219   3.383   1.772   1.565
  440SOL    HW2 2220   3.266   1.872   1.620
  441SOL     OW 2221   1.404   4.459   2.606
  441SOL    HW1 2222   1.332   4.401   2.567
  441SOL    HW2 2223   1.491   4.438   2.561
  442SOL     OW 2224   3.164   3.131   4.654
  442SOL    HW1 2225   3.183   3.219   4.610
  442SOL    HW2 2226   3.243   3.071   4.645
  443SOL     OW 2227   5.205   2.890   2.211
  443SOL    HW1 2228   5.195   2.805   2.159
  443SOL    HW2 2229   5.187   2.968   2.151
  444SOL     OW 2230   3.928   2.020   1.606
  444SOL    HW1 2231   3.935   2.120   1.601
  444SOL    HW2 2232   3.997   1.985   1.668
  445SOL     OW 2233   2.216   6.067   4.044
  445SOL    HW1 2234   2.184   6.158   4.017
  445SOL    HW2 2235   2.212   6.058   4.143
  446SOL     OW 2236   6.718   0.349   0.052
  446SOL    HW1 2237   6.763   0.387   0.132
  446SOL    HW2 2238   6.639   0.407   0.028
  447SOL     OW 2239   6.297   3.328   0.401
  447SOL    HW1 2240   6.271   3.386   0.478
  447SOL    HW2 2241   6.215   3.307   0.347
  448SOL     OW 2242   3.500   0.031   4.714
  448SOL    HW1 2243   3.589   0.015   4.671
  448SOL    HW2 2244   3.485   0.130   4.723
  449SOL     OW 2245   0.959   4.590   4.779
  449SOL    HW1 2246   0.970   4.612   4.876
  449SOL    HW2 2247   1.021   4.516   4.754
  450SOL     OW 2248   6.703   3.715   4.007
  450SOL    HW1 2249   6.798   3.686   3.993
  450SOL    HW2 2250   6.670   3.679   4.094
  451SOL     OW 2251   2.823   1.181   6.480
  451SOL    HW1 2252   2.739   1.209   6.526
  451SOL    HW2 2253   2.812   1.190   6.381
  452SOL     OW 2254   4.569   4.898   0.711
  452SOL    HW1 2255   4.586   4.980   0.656
  452SOL    HW2 2256   4.498   4.917   0.779
  453SOL     OW 2257   4.545   1.066   0.274
  453SOL    HW1 2258   4.551   0.993   0.206
  453SOL    HW2 2259   4.625   1.125   0.267
  454SOL     OW 2260   0.343   2.670   3.729
  454SOL    HW1 2261   0.290   2.591   3.762
  454SOL    HW2 2262   0.292   2.754   3.748
  455SOL     OW 2263   6.057   5.583   0.134
  455SOL    HW1 2264   6.007   5.665   0.105
  455SOL    HW2 2265   5.997   5.525   0.190
  456SOL     OW 2266   1.235   1.153   2.944
  456SOL    HW1 2267   1.257   1.102   3.027
  456SOL    HW2 2268   1.149   1.202   2.957
  457SOL     OW 2269   3.092   5.789   0.519
  457SOL    HW1 2270   3.171   5.849   0.518
  457SOL    HW2 2271   3.059   5.778   0.613
  458SOL     OW 2272   3.396   1.035   4.409
  458SOL    HW1 2273   3.334   1.105   4.445
  458SOL    HW2 2274   3.485   1.043   4.454
  459SOL     OW 2275   3.514   1.297   3.810
  459SOL    HW1 2276   3.608   1.283   3.779
  459SOL    HW2 2277   3.514   1.323   3.906
  460SOL     OW 2278   0.840   1.617   6.353
  460SOL    HW1 2279   0.870   1.675   6.278
  460SOL    HW2 2280   0.901   1.628   6.432
  461SOL     OW 2281   0.787   0.006   4.549
  461SOL    HW1 2282   0.770   6.928   4.534
  461SOL    HW2 2283   0.737   0.036   4.631
  462SOL     OW 2284   3.664   4.201   5.362
  462SOL    HW1 2285   3.668   4.223   5.265
  462SOL    HW2 2286   3.585   4.143   5.380
  463SOL     OW 2287   5.534   6.051   3.128
  463SOL    HW1 2288   5.632   6.052   3.107
  463SOL    HW2 2289   5.515   6.114   3.203
  464SOL     OW 2290   4.726   5.973   4.790
  464SOL    HW1 2291   4.789   6.050   4.803
  464SOL    HW2 2292   4.762   5.912   4.719
  465SOL     OW 2293   0.374   5.351   0.911
  465SOL    HW1 2294   0.275   5.349   0.896
  465SOL    HW2 2295   0.407   5.445   0.904
  466SOL     OW 2296   3.957   4.808   3.917
  466SOL    HW1 2297   3.896   4.778   3.844
  466SOL    HW2 2298   3.908   4.870   3.979
  467SOL     OW 2299   6.458   7.013   0.497
  467SOL    HW1 2300   6.367   6.973   0.484
  467SOL    HW2 2301   6.516   6.948   0.546
  468SOL     OW 2302   2.399   6.723   6.510
  468SOL    HW1 2303   2.466   6.717   6.585
  468SOL    HW2 2304   2.307   6.733   6.549
  469SOL     OW 2305   4.162   5.065   5.194
  469SOL    HW1 2306   4.070   5.047   5.159
  469SOL    HW2 2307   4.229   5.029   5.129
  470SOL     OW 2308   2.709   4.958   2.163
  470SOL    HW1 2309   2.733   4.946   2.067
  470SOL    HW2 2310   2.701   4.869   2.208
  471SOL     OW 2311   1.793   2.611   4.275
  471SOL    HW1 2312   1.860   2.591   4.347
  471SOL    HW2 2313   1.770   2.527   4.226
  472SOL     OW 2314   4.371   3.873   6.284
  472SOL    HW1 2315   4.400   3.969   6.287
  472SOL    HW2 2316   4.279   3.864   6.321
  473SOL     OW 2317   5.653   3.850   2.133
  473SOL    HW1 2318   5.703   3.914   2.192
  473SOL    HW2 2319   5.600   3.787   2.189
  474SOL     OW 2320   4.660   5.337   3.862
  474SOL    HW1 2321   4.752   5.299   3.854
  474SOL    HW2 2322   4.593   5.267   3.840
  475SOL     OW 2323   4.775   1.440   0.861
  475SOL    HW1 2324   4.783   1.540   0.860
  475SOL    HW2 2325   4.781   1.407   0.955
  476SOL     OW 2326   0.903   2.770   0.171
  476SOL    HW1 2327   0.926   2.783   0.267
  476SOL    HW2 2328   0.982   2.732   0.123
  477SOL     OW 2329   5.711   5.988   4.446
  477SOL    HW1 2330   5.626   5.935   4.438
  477SOL    HW2 2331   5.758   5.964   4.531
  478SOL     OW 2332   6.414   5.101   1.581
  478SOL    HW1 2333   6.436   5.007   1.607
  478SOL    HW2 2334   6.497   5.150   1.557
  479SOL     OW 2335   3.606   3.511   2.725
  479SOL    HW1 2336   3.519   3.537   2.682
  479SOL    HW2 2337   3.631   3.419   2.696
  480SOL     OW 2338   6.611   0.253   1.158
  480SOL    HW1 2339   6.708   0.231   1.166
  480SOL    HW2 2340   6.571   0.262   1.249
  481SOL     OW 2341   5.608   6.452   0.254
  481SOL    HW1 2342   5.666   6.438   0.334
  481SOL    HW2 2343   5.623   6.378   0.188
  482SOL     OW 2344   4.187   5.307   2.504
  482SOL    HW1 2345   4.237   5.365   2.568
  482SOL    HW2 2346   4.137   5.236   2.555
  483SOL     OW 2347   6.219   2.641   5.090
  483SOL    HW1 2348   6.241   2.558   5.142
  483SOL    HW2 2349   6.124   2.665   5.106
  484SOL     OW 2350   2.880   5.435   4.381
  484SOL    HW1 2351   2.943   5.474   4.314
  484SOL    HW2 2352   2.882   5.335   4.375
  485SOL     OW 2353   5.197   2.731   0.873
  485SOL    HW1 2354   5.170   2.724   0.969
  485SOL    HW2 2355   5.271   2.666   0.854
  486SOL     OW 2356   6.282   6.232   5.528
  486SOL    HW1 2357   6.270   6.282   5.442
  486SOL    HW2 2358   6.250   6.138   5.517
  487SOL     OW 2359   6.155   1.446   0.080
  487SOL    HW1 2360   6.180   1.457   7.004
  487SOL    HW2 2361   6.140   1.535   0.121
  488SOL     OW 2362   1.725   6.290   3.917
  488SOL    HW1 2363   1.725   6.190   3.909
  488SOL    HW2 2364   1.679   6.329   3.837
  489SOL     OW 2365   2.591   4.267   5.284
  489SOL    HW1 2366   2.648   4.216   5.349
  489SOL    HW2 2367   2.646   4.339   5.242
  490SOL     OW 2368   0.722   3.715   4.782
  490SOL    HW1 2369   0.770   3.679   4.862
  490SOL    HW2 2370   0.772   3.794   4.747
  491SOL     OW 2371   6.448   3.388   1.774
  491SOL    HW1 2372   6.491   3.390   1.864
  491SOL    HW2 2373   6.372   3.323   1.775
  492SOL     OW 2374   1.533   1.856   6.295
  492SOL    HW1 2375   1.630   1.833   6.301
  492SOL    HW2 2376   1.513   1.933   6.356
  493SOL     OW 2377   1.628   5.814   3.991
  493SOL    HW1 2378   1.530   5.831   3.977
  493SOL    HW2 2379   1.641   5.724   4.034
  494SOL     OW 2380   2.814   6.920   2.300
  494SOL    HW1 2381   2.872   6.839   2.305
  494SOL    HW2 2382   2.858   6.995   2.350
  495SOL     OW 2383   3.566   4.587   6.050
  495SOL    HW1 2384   3.515   4.523   5.993
  495SOL    HW2 2385   3.503   4.655   6.087
  496SOL     OW 2386   4.927   0.303   2.897
  496SOL    HW1 2387   4.992   0.289   2.971
  496SOL    HW2 2388   4.879   0.217   2.877
  497SOL     OW 2389   4.415   2.927   0.981
  497SOL    HW1 2390   4.470   2.844   0.986
  497SOL    HW2 2391   4.337   2.920   1.043
  498SOL     OW 2392   0.774   6.898   0.714
  498SOL    HW1 2393   0.685   6.857   0.695
  498SOL    HW2 2394   0.801   6.959   0.640
  499SOL     OW 2395   2.738   6.705   6.295
  499SOL    HW1 2396   2.640   6.697   6.279
  499SOL    HW2 2397   2.766   6.637   6.363
  500SOL     OW 2398   6.410   1.563   5.922
  500SOL    HW1 2399   6.436   1.592   5.830
  500SOL    HW2 2400   6.405   1.643   5.982
  501SOL     OW 2401   2.133   1.808   5.087
  501SOL    HW1 2402   2.077   1.804   5.004
  501SOL    HW2 2403   2.145   1.904   5.114
  502SOL     OW 2404   3.492   2.933   6.990
  502SOL    HW1 2405   3.434   2.860   0.007
  502SOL    HW2 2406   3.544   2.975   0.045
  503SOL     OW 2407   3.791   5.497   1.459
  503SOL    HW1 2408   3.785   5.454   1.369
  503SOL    HW2 2409   3.713   5.468   1.515
  504SOL     OW 2410   6.244   0.397   6.538
  504SOL    HW1 2411   6.228   0.334   6.614
  504SOL    HW2 2412   6.306   0.354   6.471
  505SOL     OW 2413   0.478   3.998   5.378
  505SOL    HW1 2414   0.447   3.903   5.376
  505SOL    HW2 2415   0.529   4.015   5.462
  506SOL     OW 2416   3.079   6.129   2.179
  506SOL    HW1 2417   3.162   6.110   2.230
  506SOL    HW2 2418   3.064   6.057   2.111
  507SOL     OW 2419   2.022   0.346   3.923
  507SOL    HW1 2420   1.928   0.379   3.932
  507SOL    HW2 2421   2.067   0.393   3.848
  508SOL     OW 2422   0.431   4.992   2.856
  508SOL    HW1 2423   0.484   4.978   2.940
  508SOL    HW2 2424   0.492   4.986   2.777
  509SOL     OW 2425   4.526   0.435   5.963
  509SOL    HW1 2426   4.548   0.530   5.941
  509SOL    HW2 2427   4.546   0.418   6.059
  510SOL     OW 2428   6.405   4.504   0.180
  510SOL    HW1 2429   6.407   4.540   0.087
  510SOL    HW2 2430   6.397   4.405   0.178
  511SOL     OW 2431   6.579   2.285   0.859
  511SOL    HW1 2432   6.647   2.322   0.921
  511SOL    HW2 2433   6.607   2.300   0.764
  512SOL     OW 2434   1.761   1.583   5.157
  512SOL    HW1 2435   1.775   1.626   5.068
  512SOL    HW2 2436   1.671   1.539   5.159
  513SOL     OW 2437   5.757   5.556   2.197
  513SOL    HW1 2438   5.675   5.610   2.181
  513SOL    HW2 2439   5.740   5.461   2.173
  514SOL     OW 2440   4.947   1.335   5.031
  514SOL    HW1 2441   4.938   1.432   5.008
  514SOL    HW2 2442   4.879   1.311   5.100
  515SOL     OW 2443   2.961   0.184   6.538
  515SOL    HW1 2444   2.927   0.147   6.451
  515SOL    HW2 2445   2.889   0.178   6.607
  516SOL     OW 2446   0.892   5.794   2.851
  516SOL    HW1 2447   0.793   5.782   2.851
  516SOL    HW2 2448   0.937   5.705   2.859
  517SOL     OW 2449   3.401   4.943   0.296
  517SOL    HW1 2450   3.336   4.938   0.372
  517SOL    HW2 2451   3.494   4.943   0.331
  518SOL     OW 2452   2.052   0.042   3.641
  518SOL    HW1 2453   2.084   0.040   3.546
  518SOL    HW2 2454   2.122   0.084   3.699
  519SOL     OW 2455   0.233   6.676   2.848
  519SOL    HW1 2456   0.286   6.606   2.895
  519SOL    HW2 2457   0.293   6.723   2.782
  520SOL     OW 2458   3.717   5.219   0.606
  520SOL    HW1 2459   3.806   5.264   0.596
  520SOL    HW2 2460   3.663   5.232   0.522
  521SOL     OW 2461   0.142   6.864   4.977
  521SOL    HW1 2462   0.082   6.933   4.939
  521SOL    HW2 2463   0.088   6.795   5.026
  522SOL     OW 2464   3.151   5.356   5.918
  522SOL    HW1 2465   3.081   5.295   5.955
  522SOL    HW2 2466   3.205   5.395   5.993
  523SOL     OW 2467   1.761   6.852   6.450
  523SOL    HW1 2468   1.729   6.820   6.361
  523SOL    HW2 2469   1.686   6.847   6.516
  524SOL     OW 2470   6.661   1.838   1.613
  524SOL    HW1 2471   6.575   1.788   1.604
  524SOL    HW2 2472   6.726   1.805   1.544
  525SOL     OW 2473   0.020   3.402   3.619
  525SOL    HW1 2474   0.068   3.317   3.600
  525SOL    HW2 2475   0.084   3.479   3.615
  526SOL     OW 2476   4.259   5.851   4.867
  526SOL    HW1 2477   4.290   5.945   4.854
  526SOL    HW2 2478   4.221   5.841   4.959
  527SOL     OW 2479   6.779   1.825   0.340
  527SOL    HW1 2480   6.802   1.788   0.430
  527SOL    HW2 2481   6.858   1.872   0.301
  528SOL     OW 2482   6.841   1.825   3.399
  528SOL    HW1 2483   6.879   1.777   3.320
  528SOL    HW2 2484   6.810   1.758   3.466
  529SOL     OW 2485   0.771   1.636   5.785
  529SOL    HW1 2486   0.759   1.537   5.782
  529SOL    HW2 2487   0.857   1.661   5.740
  530SOL     OW 2488   3.496   4.462   1.654
  530SOL    HW1 2489   3.518   4.380   1.706
  530SOL    HW2 2490   3.531   4.542   1.703
  531SOL     OW 2491   0.081   1.292   5.767
  531SOL    HW1 2492   0.009   1.355   5.796
  531SOL    HW2 2493   0.096   1.303   5.668
  532SOL     OW 2494   3.388   0.820   6.545
  532SOL    HW1 2495   3.324   0.743   6.536
  532SOL    HW2 2496   3.481   0.786   6.534
  533SOL     OW 2497   3.182   7.004   4.693
  533SOL    HW1 2498   3.258   6.958   4.740
  533SOL    HW2 2499   3.194   0.083   4.697
  534SOL     OW 2500   1.952   4.273   0.816
  534SOL    HW1 2501   1.978   4.329   0.894
  534SOL    HW2 2502   1.923   4.183   0.848
  535SOL     OW 2503   5.070   4.161   3.574
  535SOL    HW1 2504   5.030   4.190   3.487
  535SOL    HW2 2505   5.037   4.221   3.647
  536SOL     OW 2506   6.549   0.389   0.959
  536SOL    HW1 2507   6.476   0.456   0.974
  536SOL    HW2 2508   6.566   0.338   1.044
  537SOL     OW 2509   3.476   2.095   2.541
  537SOL    HW1 2510   3.378   2.111   2.526
  537SOL    HW2 2511   3.519   2.069   2.455
  538SOL     OW 2512   4.224   5.478   6.613
  538SOL    HW1 2513   4.163   5.414   6.660
  538SOL    HW2 2514   4.203   5.479   6.515
  539SOL     OW 2515   3.164   6.798   6.773
  539SOL    HW1 2516   3.215   6.869   6.724
  539SOL    HW2 2517   3.201   6.789   6.866
  540SOL     OW 2518   1.716   1.820   5.625
  540SOL    HW1 2519   1.647   1.822   5.697
  540SOL    HW2 2520   1.678   1.859   5.541
  541SOL     OW 2521   5.983   5.615   1.637
  541SOL    HW1 2522   5.903   5.675   1.644
  541SOL    HW2 2523   6.010   5.606   1.541
  542SOL     OW 2524   4.164   5.892   5.813
  542SOL    HW1 2525   4.202   5.901   5.721
  542SOL    HW2 2526   4.208   5.816   5.861
  543SOL     OW 2527   6.895   2.119   4.897
  543SOL    HW1 2528   6.898   2.134   4.996
  543SOL    HW2 2529   6.804   2.087   4.872
  544SOL     OW 2530   0.665   2.088   1.116
  544SOL    HW1 2531   0.673   2.052   1.209
  544SOL    HW2 2532   0.717   2.030   1.053
  545SOL     OW 2533   6.932   4.761   0.678
  545SOL    HW1 2534   6.911   4.846   0.726
  545SOL    HW2 2535   0.007   4.734   0.697
  546SOL     OW 2536   6.643   5.929   2.484
  546SOL    HW1 2537   6.665   6.002   2.420
  546SOL    HW2 2538   6.653   5.963   2.578
  547SOL     OW 2539   3.376   6.244   0.108
  547SOL    HW1 2540   3.374   6.342   0.124
  547SOL    HW2 2541   3.284   6.206   0.117
  548SOL     OW 2542   4.056   3.426   6.055
  548SOL    HW1 2543   3.986   3.364   6.090
  548SOL    HW2 2544   4.088   3.485   6.129
  549SOL     OW 2545   4.785   2.999   4.039
  549SOL    HW1 2546   4.780   3.007   3.939
  549SOL    HW2 2547   4.756   2.907   4.066
  550SOL     OW 2548   6.882   5.917   4.197
  550SOL    HW1 2549   6.890   5.993   4.133
  550SOL    HW2 2550   6.973   5.879   4.215
  551SOL     OW 2551   5.372   0.891   6.882
  551SOL    HW1 2552   5.415   0.802   6.895
  551SOL    HW2 2553   5.425   0.946   6.818
  552SOL     OW 2554   1.247   0.475   3.861
  552SOL    HW1 2555   1.342   0.445   3.867
  552SOL    HW2 2556   1.223   0.492   3.765
  553SOL     OW 2557   4.364   2.839   5.916
  553SOL    HW1 2558   4.333   2.851   5.822
  553SOL    HW2 2559   4.325   2.754   5.953
  554SOL     OW 2560   6.832   4.791   0.448
  554SOL    HW1 2561   6.795   4.700   0.431
  554SOL    HW2 2562   6.877   4.792   0.537
  555SOL     OW 2563   4.200   5.106   5.900
  555SOL    HW1 2564   4.149   5.031   5.858
  555SOL    HW2 2565   4.135   5.171   5.941
  556SOL     OW 2566   5.520   5.753   3.281
  556SOL    HW1 2567   5.507   5.840   3.234
  556SOL    HW2 2568   5.618   5.732   3.285
  557SOL     OW 2569   6.916   3.779   0.447
  557SOL    HW1 2570   6.921   3.823   0.537
  557SOL    HW2 2571   6.929   3.681   0.457
  558SOL     OW 2572   3.716   3.782   1.806
  558SOL    HW1 2573   3.656   3.764   1.884
  558SOL    HW2 2574   3.661   3.790   1.723
  559SOL     OW 2575   5.966   1.375   6.042
  559SOL    HW1 2576   6.033   1.443   6.015
  559SOL    HW2 2577   5.990   1.336   6.131
  560SOL     OW 2578   1.984   2.267   2.777
  560SOL    HW1 2579   2.067   2.213   2.759
  560SOL    HW2 2580   1.958   2.257   2.873
  561SOL     OW 2581   6.459   3.865   0.710
  561SOL    HW1 2582   6.523   3.788   0.711
  561SOL    HW2 2583   6.409   3.865   0.624
  562SOL     OW 2584   2.905   6.223   2.651
  562SOL    HW1 2585   2.893   6.315   2.688
  562SOL    HW2 2586   2.843   6.211   2.573
  563SOL     OW 2587   0.882   0.754   4.247
  563SOL    HW1 2588   0.886   0.849   4.215
  563SOL    HW2 2589   0.808   0.743   4.313
  564SOL     OW 2590   5.967   2.551   5.831
  564SOL    HW1 2591   5.950   2.529   5.735
  564SOL    HW2 2592   5.898   2.616   5.862
  565SOL     OW 2593   3.340   3.244   3.435
  565SOL    HW1 2594   3.242   3.231   3.451
  565SOL    HW2 2595   3.388   3.157   3.449
  566SOL     OW 2596   0.930   2.736   3.446
  566SOL    HW1 2597   0.851   2.769   3.395
  566SOL    HW2 2598   0.958   2.647   3.409
  567SOL     OW 2599   1.650   2.819   5.297
  567SOL    HW1 2600   1.660   2.895   5.233
  567SOL    HW2 2601   1.726   2.756   5.286
  568SOL     OW 2602   0.977   0.047   6.733
  568SOL    HW1 2603   0.902   0.078   6.792
  568SOL    HW2 2604   0.990   0.113   6.659
  569SOL     OW 2605   5.264   3.457   5.063
  569SOL    HW1 2606   5.242   3.472   4.967
  569SOL    HW2 2607   5.228   3.533   5.118
  570SOL     OW 2608   2.737   0.442   5.312
  570SOL    HW1 2609   2.805   0.457   5.241
  570SOL    HW2 2610   2.680   0.363   5.288
  571SOL     OW 2611   2.416   4.416   2.366
  571SOL    HW1 2612   2.381   4.322   2.368
  571SOL    HW2 2613   2.342   4.479   2.391
  572SOL     OW 2614   2.471   1.553   4.722
  572SOL    HW1 2615   2.442   1.490   4.794
  572SOL    HW2 2616   2.532   1.622   4.760
  573SOL     OW 2617   0.613   6.962   6.205
  573SOL    HW1 2618   0.526   6.916   6.182
  573SOL    HW2 2619   0.615   6.981   6.303
  574SOL     OW 2620   2.728   0.930   6.042
  574SOL    HW1 2621   2.683   0.852   6.086
  574SOL    HW2 2622   2.817   0.945   6.084
  575SOL     OW 2623   3.837   3.988   0.034
  575SOL    HW1 2624   3.842   4.002   0.132
  575SOL    HW2 2625   3.881   4.064   7.006
  576SOL     OW 2626   6.749   0.767   3.934
  576SOL    HW1 2627   6.649   0.764   3.941
  576SOL    HW2 2628   6.788   0.691   3.986
  577SOL     OW 2629   6.428   0.508   1.693
  577SOL    HW1 2630   6.519   0.489   1.656
  577SOL    HW2 2631   6.434   0.580   1.762
  578SOL     OW 2632   4.198   6.768   0.770
  578SOL    HW1 2633   4.157   6.858   0.777
  578SOL    HW2 2634   4.204   6.727   0.862
  579SOL     OW 2635   0.736   4.057   2.194
  579SOL    HW1 2636   0.669   3.984   2.189
  579SOL    HW2 2637   0.775   4.073   2.103
  580SOL     OW 2638   4.821   4.752   4.832
  580SOL    HW1 2639   4.804   4.739   4.929
  580SOL    HW2 2640   4.734   4.745   4.782
  581SOL     OW 2641   2.582   1.939   4.173
  581SOL    HW1 2642   2.651   1.919   4.242
  581SOL    HW2 2643   2.626   1.958   4.086
  582SOL     OW 2644   6.449   4.788   5.356
  582SOL    HW1 2645   6.404   4.872   5.387
  582SOL    HW2 2646   6.511   4.755   5.427
  583SOL     OW 2647   2.932   6.007   5.383
  583SOL    HW1 2648   2.973   5.986   5.471
  583SOL    HW2 2649   2.949   6.103   5.360
  584SOL     OW 2650   3.772   0.444   5.050
  584SOL    HW1 2651   3.790   0.497   5.133
  584SOL    HW2 2652   3.789   0.501   4.970
  585SOL     OW 2653   3.755   6.456   1.463
  585SOL    HW1 2654   3.660   6.426   1.452
  585SOL    HW2 2655   3.779   6.457   1.560
  586SOL     OW 2656   3.411   6.415   0.953
  586SOL    HW1 2657   3.398   6.402   1.051
  586SOL    HW2 2658   3.446   6.508   0.936
  587SOL     OW 2659   5.701   0.864   3.249
  587SOL    HW1 2660   5.704   0.901   3.156
  587SOL    HW2 2661   5.775   0.799   3.262
  588SOL     OW 2662   2.264   4.066   2.659
  588SOL    HW1 2663   2.326   4.145   2.660
  588SOL    HW2 2664   2.225   4.053   2.750
  589SOL     OW 2665   3.697   4.904   5.552
  589SOL    HW1 2666   3.743   4.973   5.609
  589SOL    HW2 2667   3.749   4.819   5.555
  590SOL     OW 2668   2.125   0.764   6.477
  590SOL    HW1 2669   2.062   0.841   6.481
  590SOL    HW2 2670   2.078   0.684   6.438
  591SOL     OW 2671   2.869   0.324   3.770
  591SOL    HW1 2672   2.960   0.358   3.793
  591SOL    HW2 2673   2.844   0.353   3.678
  592SOL     OW 2674   4.992   1.735   4.331
  592SOL    HW1 2675   4.965   1.831   4.319
  592SOL    HW2 2676   5.081   1.731   4.376
  593SOL     OW 2677   1.290   6.489   0.243
  593SOL    HW1 2678   1.249   6.508   0.332
  593SOL    HW2 2679   1.224   6.513   0.171
  594SOL     OW 2680   2.530   1.078   4.828
  594SOL    HW1 2681   2.461   1.119   4.888
  594SOL    HW2 2682   2.488   1.005   4.774
  595SOL     OW 2683   5.959   4.267   2.390
  595SOL    HW1 2684   6.001   4.357   2.400
  595SOL    HW2 2685   5.877   4.262   2.447
  596SOL     OW 2686   6.741   4.935   5.416
  596SOL    HW1 2687   6.788   4.941   5.504
  596SOL    HW2 2688   6.752   4.844   5.377
  597SOL     OW 2689   3.698   1.094   6.968
  597SOL    HW1 2690   3.690   1.117   6.871
  597SOL    HW2 2691   3.678   0.997   6.982
  598SOL     OW 2692   3.101   3.098   2.121
  598SOL    HW1 2693   3.165   3.125   2.049
  598SOL    HW2 2694   3.138   3.018   2.169
  599SOL     OW 2695   1.770   5.290   1.671
  599SOL    HW1 2696   1.720   5.376   1.669
  599SOL    HW2 2697   1.811   5.273   1.581
  600SOL     OW 2698   0.718   3.597   5.637
  600SOL    HW1 2699   0.791   3.530   5.637
  600SOL    HW2 2700   0.655   3.577   5.562
  601SOL     OW 2701   6.744   0.099   5.660
  601SOL    HW1 2702   6.669   0.131   5.603
  601SOL    HW2 2703   6.773   0.172   5.721
  602SOL     OW 2704   0.338   0.886   3.356
  602SOL    HW1 2705   0.317   0.977   3.320
  602SOL    HW2 2706   0.317   0.817   3.287
  603SOL     OW 2707   1.325   1.154   3.905
  603SOL    HW1 2708   1.350   1.246   3.875
  603SOL    HW2 2709   1.338   1.090   3.829
  604SOL     OW 2710   5.583   2.032   1.220
  604SOL    HW1 2711   5.637   1.974   1.159
  604SOL    HW2 2712   5.486   2.009   1.211
  605SOL     OW 2713   5.765   6.426   1.803
  605SOL    HW1 2714   5.722   6.516   1.793
  605SOL    HW2 2715   5.861   6.438   1.830
  606SOL     OW 2716   2.451   6.784   5.569
  606SOL    HW1 2717   2.353   6.784   5.554
  606SOL    HW2 2718   2.490   6.698   5.537
  607SOL     OW 2719   1.644   3.412   6.145
  607SOL    HW1 2720   1.702   3.337   6.177
  607SOL    HW2 2721   1.591   3.382   6.065
  608SOL     OW 2722   2.501   1.153   6.810
  608SOL    HW1 2723   2.421   1.203   6.777
  608SOL    HW2 2724   2.473   1.089   6.882
  609SOL     OW 2725   4.060   3.162   2.667
  609SOL    HW1 2726   3.985   3.108   2.704
  609SOL    HW2 2727   4.026   3.252   2.639
  610SOL     OW 2728   5.515   2.981   2.240
  610SOL    HW1 2729   5.545   2.992   2.334
  610SOL    HW2 2730   5.423   2.941   2.238
  611SOL     OW 2731   4.167   1.243   2.081
  611SOL    HW1 2732   4.229   1.289   2.018
  611SOL    HW2 2733   4.074   1.242   2.043
  612SOL     OW 2734   4.227   5.705   4.292
  612SOL    HW1 2735   4.265   5.795   4.271
  612SOL    HW2 2736   4.127   5.711   4.297
  613SOL     OW 2737   3.670   6.147   6.572
  613SOL    HW1 2738   3.715   6.081   6.511
  613SOL    HW2 2739   3.738   6.211   6.608
  614SOL     OW 2740   3.551   6.446   5.949
  614SOL    HW1 2741   3.516   6.353   5.955
  614SOL    HW2 2742   3.541   6.479   5.855
  615SOL     OW 2743   0.039   5.214   4.145
  615SOL    HW1 2744   0.013   5.206   4.049
  615SOL    HW2 2745   6.976   5.217   4.201
  616SOL     OW 2746   6.452   3.106   3.858
  616SOL    HW1 2747   6.486   3.061   3.775
  616SOL    HW2 2748   6.421   3.036   3.923
  617SOL     OW 2749   2.614   0.337   6.037
  617SOL    HW1 2750   2.615   0.268   6.110
  617SOL    HW2 2751   2.699   0.390   6.040
  618SOL     OW 2752   2.354   0.450   2.744
  618SOL    HW1 2753   2.452   0.448   2.720
  618SOL    HW2 2754   2.344   0.478   2.839
  619SOL     OW 2755   1.424   2.713   0.085
  619SOL    HW1 2756   1.458   2.620   0.099
  619SOL    HW2 2757   1.500   2.778   0.094
  620SOL     OW 2758   5.231   3.547   1.023
  620SOL    HW1 2759   5.148   3.580   0.979
  620SOL    HW2 2760   5.208   3.471   1.084
  621SOL     OW 2761   6.932   5.836   0.981
  621SOL    HW1 2762   6.895   5.749   1.015
  621SOL    HW2 2763   0.012   5.830   0.975
  622SOL     OW 2764   1.194   1.375   6.654
  622SOL    HW1 2765   1.172   1.343   6.562
  622SOL    HW2 2766   1.251   1.457   6.648
  623SOL     OW 2767   5.983   5.877   5.196
  623SOL    HW1 2768   5.924   5.820   5.253
  623SOL    HW2 2769   5.985   5.842   5.103
  624SOL     OW 2770   6.806   1.693   1.409
  624SOL    HW1 2771   6.851   1.605   1.394
  624SOL    HW2 2772   6.761   1.722   1.324
  625SOL     OW 2773   1.670   1.113   1.607
  625SOL    HW1 2774   1.697   1.093   1.513
  625SOL    HW2 2775   1.593   1.054   1.633
  626SOL     OW 2776   4.218   5.540   5.485
  626SOL    HW1 2777   4.216   5.548   5.385
  626SOL    HW2 2778   4.299   5.487   5.512
  627SOL     OW 2779   4.257   5.319   6.979
  627SOL    HW1 2780   4.177   5.281   0.007
  627SOL    HW2 2781   4.272   5.268   6.894
  628SOL     OW 2782   4.925   3.496   4.034
  628SOL    HW1 2783   4.895   3.431   4.104
  628SOL    HW2 2784   4.921   3.452   3.944
  629SOL     OW 2785   0.919   6.979   1.410
  629SOL    HW1 2786   0.917   6.933   1.498
  629SOL    HW2 2787   0.826   6.990   1.376
  630SOL     OW 2788   2.775   1.771   2.279
  630SOL    HW1 2789   2.868   1.742   2.301
  630SOL    HW2 2790   2.762   1.865   2.307
  631SOL     OW 2791   2.501   1.407   4.325
  631SOL    HW1 2792   2.426   1.446   4.379
  631SOL    HW2 2793   2.544   1.478   4.270
  632SOL     OW 2794   3.132   1.084   0.594
  632SOL    HW1 2795   3.086   1.015   0.650
  632SOL    HW2 2796   3.140   1.050   0.500
  633SOL     OW 2797   2.210   0.582   4.508
  633SOL    HW1 2798   2.246   0.610   4.419
  633SOL    HW2 2799   2.124   0.630   4.527
  634SOL     OW 2800   2.816   5.494   2.126
  634SOL    HW1 2801   2.861   5.409   2.154
  634SOL    HW2 2802   2.743   5.516   2.191
  635SOL     OW 2803   2.981   0.435   1.747
  635SOL    HW1 2804   2.918   0.369   1.705
  635SOL    HW2 2805   2.938   0.477   1.826
  636SOL     OW 2806   4.828   5.090   6.380
  636SOL    HW1 2807   4.849   5.004   6.334
  636SOL    HW2 2808   4.728   5.103   6.383
  637SOL     OW 2809   6.084   4.292   6.483
  637SOL    HW1 2810   6.143   4.313   6.405
  637SOL    HW2 2811   5.989   4.311   6.459
  638SOL     OW 2812   5.621   1.616   3.487
  638SOL    HW1 2813   5.710   1.649   3.457
  638SOL    HW2 2814   5.631   1.525   3.529
  639SOL     OW 2815   3.886   3.367   1.463
  639SOL    HW1 2816   3.900   3.339   1.558
  639SOL    HW2 2817   3.907   3.464   1.454
  640SOL     OW 2818   3.318   2.665   5.291
  640SOL    HW1 2819   3.250   2.601   5.255
  640SOL    HW2 2820   3.389   2.615   5.340
  641SOL     OW 2821   0.487   0.514   4.984
  641SOL    HW1 2822   0.524   0.604   5.004
  641SOL    HW2 2823   0.436   0.480   5.064
  642SOL     OW 2824   0.845   5.122   6.195
  642SOL    HW1 2825   0.759   5.155   6.234
  642SOL    HW2 2826   0.891   5.198   6.148
  643SOL     OW 2827   5.341   0.043   4.536
  643SOL    HW1 2828   5.319   0.018   4.442
  643SOL    HW2 2829   5.300   0.132   4.558
  644SOL     OW 2830   3.382   5.893   1.839
  644SOL    HW1 2831   3.312   5.941   1.786
  644SOL    HW2 2832   3.351   5.800   1.857
  645SOL     OW 2833   0.827   3.091   3.195
  645SOL    HW1 2834   0.897   3.144   3.243
  645SOL    HW2 2835   0.812   3.131   3.104
  646SOL     OW 2836   1.805   3.296   4.277
  646SOL    HW1 2837   1.869   3.255   4.212
  646SOL    HW2 2838   1.853   3.315   4.363
  647SOL     OW 2839   5.493   5.368   1.014
  647SOL    HW1 2840   5.570   5.378   1.078
  647SOL    HW2 2841   5.407   5.373   1.064
  648SOL     OW 2842   4.321   2.312   3.971
  648SOL    HW1 2843   4.291   2.329   3.878
  648SOL    HW2 2844   4.390   2.239   3.972
  649SOL     OW 2845   4.179   4.349   1.298
  649SOL    HW1 2846   4.130   4.325   1.214
  649SOL    HW2 2847   4.162   4.279   1.367
  650SOL     OW 2848   5.627   5.509   0.432
  650SOL    HW1 2849   5.560   5.436   0.423
  650SOL    HW2 2850   5.694   5.502   0.358
  651SOL     OW 2851   1.122   5.280   6.721
  651SOL    HW1 2852   1.039   5.328   6.749
  651SOL    HW2 2853   1.192   5.347   6.695
  652SOL     OW 2854   4.901   2.821   1.402
  652SOL    HW1 2855   4.914   2.869   1.315
  652SOL    HW2 2856   4.815   2.849   1.444
  653SOL     OW 2857   3.448   5.610   2.484
  653SOL    HW1 2858   3.482   5.700   2.514
  653SOL    HW2 2859   3.525   5.546   2.477
  654SOL     OW 2860   6.879   4.571   0.064
  654SOL    HW1 2861   6.975   4.574   0.036
  654SOL    HW2 2862   6.823   4.612   7.012
  655SOL     OW 2863   1.883   1.248   0.475
  655SOL    HW1 2864   1.982   1.232   0.477
  655SOL    HW2 2865   1.856   1.279   0.384
  656SOL     OW 2866   2.059   6.310   1.055
  656SOL    HW1 2867   1.981   6.344   1.106
  656SOL    HW2 2868   2.027   6.254   0.978
  657SOL     OW 2869   3.784   0.522   6.183
  657SOL    HW1 2870   3.705   0.478   6.224
  657SOL    HW2 2871   3.796   0.490   6.089
  658SOL     OW 2872   4.069   5.555   0.331
  658SOL    HW1 2873   3.986   5.608   0.314
  658SOL    HW2 2874   4.143   5.591   0.273
  659SOL     OW 2875   3.385   0.717   6.137
  659SOL    HW1 2876   3.384   0.740   6.040
  659SOL    HW2 2877   3.293   0.726   6.175
  660SOL     OW 2878   2.891   6.267   3.535
  660SOL    HW1 2879   2.887   6.320   3.620
  660SOL    HW2 2880   2.946   6.185   3.549
  661SOL     OW 2881   0.451   5.022   3.154
  661SOL    HW1 2882   0.543   4.989   3.174
  661SOL    HW2 2883   0.435   5.109   3.202
  662SOL     OW 2884   3.721   2.207   0.011
  662SOL    HW1 2885   3.812   2.247   0.026
  662SOL    HW2 2886   3.658   2.278   6.999
  663SOL     OW 2887   1.568   3.704   4.873
  663SOL    HW1 2888   1.636   3.761   4.826
  663SOL    HW2 2889   1.583   3.608   4.850
  664SOL     OW 2890   5.328   0.293   5.980
  664SOL    HW1 2891   5.413   0.240   5.980
  664SOL    HW2 2892   5.267   0.258   5.909
  665SOL     OW 2893   1.889   4.014   2.214
  665SOL    HW1 2894   1.971   3.987   2.265
  665SOL    HW2 2895   1.900   3.991   2.118
  666SOL     OW 2896   4.135   0.864   3.005
  666SOL    HW1 2897   4.049   0.885   3.051
  666SOL    HW2 2898   4.119   0.796   2.934
  667SOL     OW 2899   6.184   0.005   0.888
  667SOL    HW1 2900   6.096   6.987   0.919
  667SOL    HW2 2901   6.239   0.030   0.968
  668SOL     OW 2902   4.978   3.585   6.611
  668SOL    HW1 2903   4.949   3.498   6.649
  668SOL    HW2 2904   5.010   3.645   6.684
  669SOL     OW 2905   5.929   0.742   3.338
  669SOL    HW1 2906   5.953   0.680   3.412
  669SOL    HW2 2907   6.012   0.777   3.295
  670SOL     OW 2908   4.102   1.732   2.042
  670SOL    HW1 2909   4.121   1.660   2.109
  670SOL    HW2 2910   4.007   1.724   2.011
  671SOL     OW 2911   1.100   5.649   2.093
  671SOL    HW1 2912   1.004   5.632   2.116
  671SOL    HW2 2913   1.130   5.582   2.024
  672SOL     OW 2914   0.176   0.341   1.362
  672SOL    HW1 2915   0.117   0.306   1.289
  672SOL    HW2 2916   0.261   0.376   1.323
  673SOL     OW 2917   6.376   6.697   6.435
  673SOL    HW1 2918   6.397   6.743   6.522
  673SOL    HW2 2919   6.371   6.598   6.451
  674SOL     OW 2920   4.481   6.920   4.278
  674SOL    HW1 2921   4.537   6.911   4.361
  674SOL    HW2 2922   4.384   6.924   4.303
  675SOL     OW 2923   0.547   5.072   2.259
  675SOL    HW1 2924   0.505   5.105   2.344
  675SOL    HW2 2925   0.504   5.115   2.181
  676SOL     OW 2926   2.299   5.841   6.782
  676SOL    HW1 2927   2.320   5.862   6.686
  676SOL    HW2 2928   2.346   5.756   6.808
  677SOL     OW 2929   5.073   0.865   1.010
  677SOL    HW1 2930   4.992   0.846   1.065
  677SOL    HW2 2931   5.155   0.857   1.067
  678SOL     OW 2932   0.307   5.298   4.160
  678SOL    HW1 2933   0.218   5.254   4.146
  678SOL    HW2 2934   0.293   5.395   4.182
  679SOL     OW 2935   5.468   0.733   6.224
  679SOL    HW1 2936   5.388   0.748   6.283
  679SOL    HW2 2937   5.440   0.681   6.143
  680SOL     OW 2938   6.153   0.414   3.787
  680SOL    HW1 2939   6.199   0.341   3.837
  680SOL    HW2 2940   6.207   0.437   3.705
  681SOL     OW 2941   4.744   4.722   3.057
  681SOL    HW1 2942   4.708   4.680   3.141
  681SOL    HW2 2943   4.826   4.673   3.029
  682SOL     OW 2944   6.257   2.187   3.463
  682SOL    HW1 2945   6.300   2.100   3.486
  682SOL    HW2 2946   6.309   2.262   3.504
  683SOL     OW 2947   3.276   5.614   0.167
  683SOL    HW1 2948   3.370   5.592   0.191
  683SOL    HW2 2949   3.241   5.548   0.101
  684SOL     OW 2950   5.458   2.417   6.274
  684SOL    HW1 2951   5.363   2.402   6.244
  684SOL    HW2 2952   5.497   2.494   6.224
  685SOL     OW 2953   3.244   6.742   3.366
  685SOL    HW1 2954   3.200   6.691   3.292
  685SOL    HW2 2955   3.233   6.693   3.452
  686SOL     OW 2956   2.426   0.405   5.340
  686SOL    HW1 2957   2.419   0.472   5.414
  686SOL    HW2 2958   2.420   0.453   5.252
  687SOL     OW 2959   0.377   1.380   4.785
  687SOL    HW1 2960   0.411   1.300   4.835
  687SOL    HW2 2961   0.393   1.462   4.839
  688SOL     OW 2962   4.788   3.616   6.426
  688SOL    HW1 2963   4.827   3.645   6.339
  688SOL    HW2 2964   4.862   3.595   6.491
  689SOL     OW 2965   2.206   6.108   0.184
  689SOL    HW1 2966   2.107   6.104   0.200
  689SOL    HW2 2967   2.250   6.029   0.225
  690SOL     OW 2968   5.829   3.669   4.027
  690SOL    HW1 2969   5.889   3.638   3.953
  690SOL    HW2 2970   5.847   3.614   4.109
  691SOL     OW 2971   5.585   0.369   2.977
  691SOL    HW1 2972   5.532   0.307   3.035
  691SOL    HW2 2973   5.532   0.451   2.959
  692SOL     OW 2974   1.451   6.837   3.678
  692SOL    HW1 2975   1.399   6.916   3.710
  692SOL    HW2 2976   1.489   6.857   3.588
  693SOL     OW 2977   6.201   4.304   1.826
  693SOL    HW1 2978   6.128   4.360   1.787
  693SOL    HW2 2979   6.198   4.213   1.785
  694SOL     OW 2980   4.025   4.810   4.445
  694SOL    HW1 2981   4.098   4.763   4.495
  694SOL    HW2 2982   3.952   4.836   4.508
  695SOL     OW 2983   4.678   0.341   4.008
  695SOL    HW1 2984   4.729   0.386   4.081
  695SOL    HW2 2985   4.634   0.259   4.043
  696SOL     OW 2986   6.730   4.409   2.119
  696SOL    HW1 2987   6.712   4.501   2.155
  696SOL    HW2 2988   6.827   4.388   2.130
  697SOL     OW 2989   0.469   6.529   2.943
  697SOL    HW1 2990   0.512   6.613   2.909
  697SOL    HW2 2991   0.463   6.532   3.042
  698SOL     OW 2992   6.132   6.668   6.017
  698SOL    HW1 2993   6.118   6.684   5.920
  698SOL    HW2 2994   6.087   6.740   6.070
  699SOL     OW 2995   4.189   2.931   0.812
  699SOL    HW1 2996   4.270   2.936   0.870
  699SOL    HW2 2997   4.107   2.942   0.868
  700SOL     OW 2998   3.559   6.551   5.397
  700SOL    HW1 2999   3.567   6.644   5.432
  700SOL    HW2 3000   3.472   6.511   5.428
  701SOL     OW 3001   4.267   4.328   1.674
  701SOL    HW1 3002   4.264   4.264   1.598
  701SOL    HW2 3003   4.346   4.307   1.733
  702SOL     OW 3004   3.241   0.936   5.145
  702SOL    HW1 3005   3.227   0.997   5.222
  702SOL    HW2 3006   3.194   0.972   5.064
  703SOL     OW 3007   4.034   2.909   0.454
  703SOL    HW1 3008   4.026   2.849   0.375
  703SOL    HW2 3009   3.943   2.938   0.484
  704SOL     OW 3010   3.635   1.408   0.447
  704SOL    HW1 3011   3.617   1.402   0.545
  704SOL    HW2 3012   3.719   1.462   0.432
  705SOL     OW 3013   6.709   6.742   5.981
  705SOL    HW1 3014   6.611   6.725   5.969
  705SOL    HW2 3015   6.741   6.694   6.063
  706SOL     OW 3016   3.540   0.686   5.062
  706SOL    HW1 3017   3.471   0.615   5.079
  706SOL    HW2 3018   3.631   0.644   5.060
  707SOL     OW 3019   3.800   4.890   4.563
  707SOL    HW1 3020   3.764   4.959   4.626
  707SOL    HW2 3021   3.760   4.903   4.473
  708SOL     OW 3022   2.966   5.867   4.033
  708SOL    HW1 3023   3.063   5.860   4.055
  708SOL    HW2 3024   2.928   5.775   4.020
  709SOL     OW 3025   1.774   6.763   1.927
  709SOL    HW1 3026   1.810   6.761   1.834
  709SOL    HW2 3027   1.689   6.817   1.928
  710SOL     OW 3028   4.785   3.001   2.952
  710SOL    HW1 3029   4.878   2.967   2.967
  710SOL    HW2 3030   4.720   2.927   2.969
  711SOL     OW 3031   6.475   1.190   0.515
  711SOL    HW1 3032   6.552   1.202   0.577
  711SOL    HW2 3033   6.470   1.095   0.486
  712SOL     OW 3034   4.951   4.572   6.736
  712SOL    HW1 3035   5.040   4.588   6.779
  712SOL    HW2 3036   4.945   4.476   6.709
  713SOL     OW 3037   2.565   2.804   5.492
  713SOL    HW1 3038   2.516   2.820   5.578
  713SOL    HW2 3039   2.574   2.891   5.442
  714SOL     OW 3040   4.055   6.676   2.785
  714SOL    HW1 3041   4.117   6.635   2.717
  714SOL    HW2 3042   4.036   6.771   2.759
  715SOL     OW 3043   6.290   4.011   6.135
  715SOL    HW1 3044   6.319   3.916   6.140
  715SOL    HW2 3045   6.318   4.059   6.218
  716SOL     OW 3046   3.267   1.080   3.345
  716SOL    HW1 3047   3.333   1.015   3.381
  716SOL    HW2 3048   3.177   1.063   3.386
  717SOL     OW 3049   5.462   4.533   3.712
  717SOL    HW1 3050   5.432   4.445   3.750
  717SOL    HW2 3051   5.527   4.518   3.639
  718SOL     OW 3052   6.914   2.182   5.481
  718SOL    HW1 3053   6.966   2.171   5.565
  718SOL    HW2 3054   6.908   2.279   5.457
  719SOL     OW 3055   4.439   5.558   2.281
  719SOL    HW1 3056   4.531   5.577   2.315
  719SOL    HW2 3057   4.419   5.461   2.293
  720SOL     OW 3058   2.976   1.463   1.043
  720SOL    HW1 3059   3.006   1.557   1.061
  720SOL    HW2 3060   2.952   1.418   1.129
  721SOL     OW 3061   0.019   2.665   2.817
  721SOL    HW1 3062   0.088   2.699   2.753
  721SOL    HW2 3063   6.947   2.686   2.782
  722SOL     OW 3064   5.551   5.830   2.447
  722SOL    HW1 3065   5.513   5.861   2.534
  722SOL    HW2 3066   5.490   5.856   2.373
  723SOL     OW 3067   2.081   0.329   4.690
  723SOL    HW1 3068   2.077   0.247   4.632
  723SOL    HW2 3069   2.067   0.410   4.633
  724SOL     OW 3070   1.603   2.420   4.705
  724SOL    HW1 3071   1.679   2.405   4.768
  724SOL    HW2 3072   1.564   2.331   4.678
  725SOL     OW 3073   1.767   3.774   3.476
  725SOL    HW1 3074   1.687   3.790   3.417
  725SOL    HW2 3075   1.753   3.690   3.528
  726SOL     OW 3076   2.132   2.963   0.039
  726SOL    HW1 3077   2.034   2.941   0.035
  726SOL    HW2 3078   2.182   2.886   0.077
  727SOL     OW 3079   3.737   5.175   5.291
  727SOL    HW1 3080   3.709   5.154   5.198
  727SOL    HW2 3081   3.662   5.155   5.354
  728SOL     OW 3082   6.233   3.556   3.338
  728SOL    HW1 3083   6.272   3.484   3.395
  728SOL    HW2 3084   6.205   3.517   3.250
  729SOL     OW 3085   0.206   4.690   0.726
  729SOL    HW1 3086   0.298   4.712   0.756
  729SOL    HW2 3087   0.210   4.633   0.643
  730SOL     OW 3088   3.373   0.979   3.601
  730SOL    HW1 3089   3.431   0.964   3.521
  730SOL    HW2 3090   3.372   1.077   3.622
  731SOL     OW 3091   5.003   4.463   4.880
  731SOL    HW1 3092   5.049   4.383   4.841
  731SOL    HW2 3093   4.935   4.433   4.947
  732SOL     OW 3094   5.087   0.480   4.560
  732SOL    HW1 3095   5.057   0.465   4.466
  732SOL    HW2 3096   5.013   0.456   4.623
  733SOL     OW 3097   0.574   5.140   4.514
  733SOL    HW1 3098   0.485   5.167   4.477
  733SOL    HW2 3099   0.623   5.086   4.446
  734SOL     OW 3100   6.585   5.630   3.154
  734SOL    HW1 3101   6.534   5.597   3.075
  734SOL    HW2 3102   6.603   5.553   3.216
  735SOL     OW 3103   5.055   0.546   2.803
  735SOL    HW1 3104   5.010   0.471   2.851
  735SOL    HW2 3105   5.090   0.514   2.715
  736SOL     OW 3106   1.788   1.172   3.101
  736SOL    HW1 3107   1.796   1.080   3.062
  736SOL    HW2 3108   1.692   1.195   3.113
  737SOL     OW 3109   3.575   1.644   6.616
  737SOL    HW1 3110   3.479   1.663   6.595
  737SOL    HW2 3111   3.583   1.556   6.663
  738SOL     OW 3112   1.428   5.389   0.678
  738SOL    HW1 3113   1.462   5.342   0.759
  738SOL    HW2 3114   1.366   5.463   0.706
  739SOL     OW 3115   1.805   0.928   2.503
  739SOL    HW1 3116   1.800   0.947   2.601
  739SOL    HW2 3117   1.856   0.844   2.488
  740SOL     OW 3118   4.635   2.623   2.682
  740SOL    HW1 3119   4.639   2.723   2.678
  740SOL    HW2 3120   4.716   2.584   2.638
  741SOL     OW 3121   3.508   1.003   2.618
  741SOL    HW1 3122   3.429   1.045   2.661
  741SOL    HW2 3123   3.480   0.923   2.566
  742SOL     OW 3124   2.267   0.508   2.311
  742SOL    HW1 3125   2.353   0.509   2.361
  742SOL    HW2 3126   2.239   0.602   2.290
  743SOL     OW 3127   0.030   6.496   2.764
  743SOL    HW1 3128   0.015   6.437   2.844
  743SOL    HW2 3129   0.098   6.565   2.787
  744SOL     OW 3130   5.700   1.225   0.875
  744SOL    HW1 3131   5.784   1.277   0.860
  744SOL    HW2 3132   5.674   1.231   0.972
  745SOL     OW 3133   0.646   6.517   5.724
  745SOL    HW1 3134   0.596   6.571   5.792
  745SOL    HW2 3135   0.652   6.422   5.756
  746SOL     OW 3136   6.395   5.476   6.027
  746SOL    HW1 3137   6.449   5.408   6.077
  746SOL    HW2 3138   6.451   5.513   5.952
  747SOL     OW 3139   3.319   4.884   2.313
  747SOL    HW1 3140   3.235   4.855   2.358
  747SOL    HW2 3141   3.304   4.887   2.214
  748SOL     OW 3142   6.565   5.307   3.134
  748SOL    HW1 3143   6.478   5.279   3.092
  748SOL    HW2 3144   6.560   5.293   3.233
  749SOL     OW 3145   4.814   4.335   5.031
  749SOL    HW1 3146   4.738   4.393   5.000
  749SOL    HW2 3147   4.803   4.317   5.129
  750SOL     OW 3148   2.835   2.041   2.878
  750SOL    HW1 3149   2.739   2.023   2.857
  750SOL    HW2 3150   2.894   1.985   2.820
  751SOL     OW 3151   4.446   0.407   0.365
  751SOL    HW1 3152   4.356   0.448   0.381
  751SOL    HW2 3153   4.436   0.307   0.360
  752SOL     OW 3154   3.104   3.245   3.946
  752SOL    HW1 3155   3.111   3.174   4.016
  752SOL    HW2 3156   3.169   3.226   3.872
  753SOL     OW 3157   2.978   3.869   3.803
  753SOL    HW1 3158   2.987   3.887   3.705
  753SOL    HW2 3159   3.039   3.929   3.854
  754SOL     OW 3160   4.236   0.571   5.940
  754SOL    HW1 3161   4.242   0.514   6.022
  754SOL    HW2 3162   4.312   0.636   5.938
  755SOL     OW 3163   5.072   4.495   5.266
  755SOL    HW1 3164   5.090   4.587   5.301
  755SOL    HW2 3165   4.983   4.493   5.220
  756SOL     OW 3166   3.107   5.868   6.097
  756SOL    HW1 3167   3.162   5.927   6.037
  756SOL    HW2 3168   3.103   5.776   6.058
  757SOL     OW 3169   0.565   0.187   1.591
  757SOL    HW1 3170   0.609   0.211   1.505
  757SOL    HW2 3171   0.471   0.159   1.573
  758SOL     OW 3172   3.730   1.212   5.719
  758SOL    HW1 3173   3.630   1.218   5.727
  758SOL    HW2 3174   3.759   1.259   5.635
  759SOL     OW 3175   0.128   2.359   3.594
  759SOL    HW1 3176   0.068   2.431   3.560
  759SOL    HW2 3177   0.223   2.391   3.592
  760SOL     OW 3178   6.818   6.113   4.413
  760SOL    HW1 3179   6.759   6.179   4.459
  760SOL    HW2 3180   6.780   6.091   4.323
  761SOL     OW 3181   4.783   4.550   5.958
  761SOL    HW1 3182   4.766   4.620   5.888
  761SOL    HW2 3183   4.846   4.587   6.027
  762SOL     OW 3184   3.984   6.039   3.545
  762SOL    HW1 3185   3.961   5.986   3.627
  762SOL    HW2 3186   3.911   6.029   3.477
  763SOL     OW 3187   5.517   1.196   0.259
  763SOL    HW1 3188   5.597   1.236   0.304
  763SOL    HW2 3189   5.508   1.234   0.167
  764SOL     OW 3190   4.889   6.278   4.294
  764SOL    HW1 3191   4.880   6.321   4.204
  764SOL    HW2 3192   4.891   6.178   4.283
  765SOL     OW 3193   5.331   6.248   6.958
  765SOL    HW1 3194   5.272   6.271   0.015
  765SOL    HW2 3195   5.334   6.326   6.894
  766SOL     OW 3196   3.003   1.518   4.103
  766SOL    HW1 3197   3.089   1.569   4.106
  766SOL    HW2 3198   2.995   1.471   4.015
  767SOL     OW 3199   6.499   6.762   3.583
  767SOL    HW1 3200   6.432   6.709   3.530
  767SOL    HW2 3201   6.584   6.769   3.532
  768SOL     OW 3202   3.016   5.675   1.059
  768SOL    HW1 3203   2.997   5.588   1.105
  768SOL    HW2 3204   3.106   5.709   1.088
  769SOL     OW 3205   3.592   2.067   5.628
  769SOL    HW1 3206   3.676   2.084   5.680
  769SOL    HW2 3207   3.555   2.155   5.596
  770SOL     OW 3208   0.433   4.485   5.778
  770SOL    HW1 3209   0.465   4.559   5.719
  770SOL    HW2 3210   0.338   4.461   5.754
  771SOL     OW 3211   1.748   5.133   2.600
  771SOL    HW1 3212   1.675   5.117   2.534
  771SOL    HW2 3213   1.797   5.216   2.575
  772SOL     OW 3214   6.043   4.621   0.311
  772SOL    HW1 3215   6.027   4.642   0.214
  772SOL    HW2 3216   6.097   4.694   0.353
  773SOL     OW 3217   1.356   4.699   3.555
  773SOL    HW1 3218   1.310   4.787   3.540
  773SOL    HW2 3219   1.435   4.714   3.616
  774SOL     OW 3220   1.996   2.751   3.387
  774SOL    HW1 3221   1.898   2.735   3.394
  774SOL    HW2 3222   2.042   2.666   3.365
  775SOL     OW 3223   0.862   5.038   2.697
  775SOL    HW1 3224   0.918   5.121   2.696
  775SOL    HW2 3225   0.909   4.966   2.748
  776SOL     OW 3226   2.030   4.372   0.353
  776SOL    HW1 3227   1.998   4.281   0.326
  776SOL    HW2 3228   1.988   4.441   0.294
  777SOL     OW 3229   1.478   2.987   6.713
  777SOL    HW1 3230   1.433   3.049   6.777
  777SOL    HW2 3231   1.413   2.916   6.684
  778SOL     OW 3232   3.546   6.042   0.130
  778SOL    HW1 3233   3.475   6.109   0.109
  778SOL    HW2 3234   3.600   6.074   0.209
  779SOL     OW 3235   6.042   2.410   3.704
  779SOL    HW1 3236   6.066   2.339   3.770
  779SOL    HW2 3237   5.958   2.384   3.656
  780SOL     OW 3238   6.297   2.127   5.156
  780SOL    HW1 3239   6.213   2.074   5.165
  780SOL    HW2 3240   6.366   2.090   5.219
  781SOL     OW 3241   6.675   5.092   6.757
  781SOL    HW1 3242   6.719   5.034   6.688
  781SOL    HW2 3243   6.716   5.074   6.846
  782SOL     OW 3244   1.993   3.956   5.481
  782SOL    HW1 3245   2.045   3.935   5.399
  782SOL    HW2 3246   1.922   4.023   5.460
  783SOL     OW 3247   0.182   5.154   5.602
  783SOL    HW1 3248   0.140   5.237   5.564
  783SOL    HW2 3249   0.110   5.087   5.621
  784SOL     OW 3250   1.126   6.133   5.842
  784SOL    HW1 3251   1.077   6.048   5.822
  784SOL    HW2 3252   1.189   6.153   5.768
  785SOL     OW 3253   0.629   0.101   3.827
  785SOL    HW1 3254   0.571   0.126   3.750
  785SOL    HW2 3255   0.596   0.146   3.910
  786SOL     OW 3256   6.440   2.101   4.877
  786SOL    HW1 3257   6.408   2.085   4.971
  786SOL    HW2 3258   6.384   2.171   4.834
  787SOL     OW 3259   2.062   6.454   0.743
  787SOL    HW1 3260   2.138   6.459   0.807
  787SOL    HW2 3261   1.999   6.530   0.759
  788SOL     OW 3262   2.020   3.143   2.411
  788SOL    HW1 3263   2.007   3.242   2.413
  788SOL    HW2 3264   1.938   3.097   2.446
  789SOL     OW 3265   3.289   5.639   1.930
  789SOL    HW1 3266   3.202   5.656   1.976
  789SOL    HW2 3267   3.287   5.549   1.887
  790SOL     OW 3268   6.783   3.414   2.971
  790SOL    HW1 3269   6.690   3.421   3.006
  790SOL    HW2 3270   6.847   3.407   3.048
  791SOL     OW 3271   3.927   0.445   3.986
  791SOL    HW1 3272   3.854   0.514   3.984
  791SOL    HW2 3273   3.948   0.422   4.081
  792SOL     OW 3274   3.185   0.592   0.597
  792SOL    HW1 3275   3.228   0.550   0.677
  792SOL    HW2 3276   3.233   0.677   0.574
  793SOL     OW 3277   2.231   5.582   4.673
  793SOL    HW1 3278   2.251   5.675   4.641
  793SOL    HW2 3279   2.132   5.570   4.682
  794SOL     OW 3280   3.682   3.027   1.931
  794SOL    HW1 3281   3.656   3.048   2.026
  794SOL    HW2 3282   3.622   3.077   1.868
  795SOL     OW 3283   3.825   6.530   5.971
  795SOL    HW1 3284   3.886   6.451   5.975
  795SOL    HW2 3285   3.737   6.506   6.013
  796SOL     OW 3286   0.970   2.316   6.507
  796SOL    HW1 3287   1.026   2.234   6.494
  796SOL    HW2 3288   1.028   2.392   6.536
  797SOL     OW 3289   3.019   6.824   0.119
  797SOL    HW1 3290   2.963   6.741   0.127
  797SOL    HW2 3291   2.973   6.890   0.059
  798SOL     OW 3292   5.453   4.353   1.944
  798SOL    HW1 3293   5.371   4.318   1.990
  798SOL    HW2 3294   5.438   4.353   1.846
  799SOL     OW 3295   3.292   3.368   4.581
  799SOL    HW1 3296   3.383   3.333   4.604
  799SOL    HW2 3297   3.298   3.431   4.504
  800SOL     OW 3298   5.133   3.053   3.215
  800SOL    HW1 3299   5.036   3.072   3.231
  800SOL    HW2 3300   5.143   2.995   3.134
  801SOL     OW 3301   1.915   4.613   0.208
  801SOL    HW1 3302   1.877   4.693   0.256
  801SOL    HW2 3303   1.846   4.540   0.207
  802SOL     OW 3304   3.883   2.578   5.790
  802SOL    HW1 3305   3.978   2.578   5.758
  802SOL    HW2 3306   3.834   2.655   5.750
  803SOL     OW 3307   3.515   2.055   3.418
  803SOL    HW1 3308   3.496   2.058   3.320
  803SOL    HW2 3309   3.477   1.971   3.457
  804SOL     OW 3310   4.360   6.995   2.819
  804SOL    HW1 3311   4.339   6.969   2.725
  804SOL    HW2 3312   4.291   0.039   2.852
  805SOL     OW 3313   3.683   1.633   3.749
  805SOL    HW1 3314   3.679   1.556   3.685
  805SOL    HW2 3315   3.722   1.713   3.704
  806SOL     OW 3316   4.511   6.355   5.793
  806SOL    HW1 3317   4.428   6.350   5.737
  806SOL    HW2 3318   4.554   6.265   5.796
  807SOL     OW 3319   1.263   6.508   6.071
  807SOL    HW1 3320   1.225   6.522   6.163
  807SOL    HW2 3321   1.192   6.473   6.010
  808SOL     OW 3322   4.996   2.109   5.483
  808SOL    HW1 3323   5.087   2.068   5.492
  808SOL    HW2 3324   4.971   2.153   5.568
  809SOL     OW 3325   2.573   6.214   4.694
  809SOL    HW1 3326   2.558   6.268   4.777
  809SOL    HW2 3327   2.553   6.118   4.713
  810SOL     OW 3328   3.175   3.664   6.313
  810SOL    HW1 3329   3.150   3.616   6.229
  810SOL    HW2 3330   3.271   3.693   6.307
  811SOL     OW 3331   5.857   4.937   5.803
  811SOL    HW1 3332   5.858   4.905   5.898
  811SOL    HW2 3333   5.878   5.035   5.800
  812SOL     OW 3334   1.533   2.044   0.359
  812SOL    HW1 3335   1.611   2.106   0.351
  812SOL    HW2 3336   1.520   1.996   0.272
  813SOL     OW 3337   2.686   1.507   4.997
  813SOL    HW1 3338   2.616   1.577   5.011
  813SOL    HW2 3339   2.776   1.544   5.020
  814SOL     OW 3340   0.927   4.599   1.565
  814SOL    HW1 3341   0.939   4.691   1.529
  814SOL    HW2 3342   0.934   4.600   1.665
  815SOL     OW 3343   4.239   0.499   4.138
  815SOL    HW1 3344   4.269   0.440   4.064
  815SOL    HW2 3345   4.229   0.593   4.104
  816SOL     OW 3346   4.555   3.672   6.632
  816SOL    HW1 3347   4.603   3.642   6.549
  816SOL    HW2 3348   4.591   3.760   6.661
  817SOL     OW 3349   6.738   5.416   0.638
  817SOL    HW1 3350   6.678   5.397   0.716
  817SOL    HW2 3351   6.732   5.341   0.572
  818SOL     OW 3352   6.682   1.017   5.158
  818SOL    HW1 3353   6.592   0.975   5.145
  818SOL    HW2 3354   6.670   1.113   5.181
  819SOL     OW 3355   5.559   3.716   1.658
  819SOL    HW1 3356   5.472   3.751   1.695
  819SOL    HW2 3357   5.631   3.784   1.674
  820SOL     OW 3358   2.093   1.812   5.414
  820SOL    HW1 3359   2.002   1.778   5.392
  820SOL    HW2 3360   2.154   1.735   5.433
  821SOL     OW 3361   4.781   3.967   6.479
  821SOL    HW1 3362   4.752   3.928   6.392
  821SOL    HW2 3363   4.706   3.961   6.545
  822SOL     OW 3364   0.113   4.001   3.060
  822SOL    HW1 3365   0.168   4.045   2.988
  822SOL    HW2 3366   0.039   3.949   3.018
  823SOL     OW 3367   1.706   2.854   4.389
  823SOL    HW1 3368   1.760   2.775   4.363
  823SOL    HW2 3369   1.626   2.824   4.442
  824SOL     OW 3370   5.075   0.794   6.103
  824SOL    HW1 3371   5.050   0.886   6.134
  824SOL    HW2 3372   5.118   0.800   6.013
  825SOL     OW 3373   6.299   6.451   1.571
  825SOL    HW1 3374   6.381   6.437   1.517
  825SOL    HW2 3375   6.301   6.391   1.651
  826SOL     OW 3376   3.388   1.871   0.243
  826SOL    HW1 3377   3.381   1.970   0.256
  826SOL    HW2 3378   3.480   1.847   0.213
  827SOL     OW 3379   3.604   3.200   5.073
  827SOL    HW1 3380   3.612   3.102   5.055
  827SOL    HW2 3381   3.516   3.233   5.041
  828SOL     OW 3382   0.381   6.109   6.098
  828SOL    HW1 3383   0.318   6.149   6.164
  828SOL    HW2 3384   0.330   6.070   6.022
  829SOL     OW 3385   3.741   2.932   1.534
  829SOL    HW1 3386   3.724   3.030   1.525
  829SOL    HW2 3387   3.838   2.913   1.515
  830SOL     OW 3388   0.512   3.661   5.797
  830SOL    HW1 3389   0.584   3.653   5.728
  830SOL    HW2 3390   0.543   3.620   5.883
  831SOL     OW 3391   5.723   2.016   3.287
  831SOL    HW1 3392   5.750   2.111   3.270
  831SOL    HW2 3393   5.778   1.955   3.230
  832SOL     OW 3394   3.129   2.103   4.856
  832SOL    HW1 3395   3.128   2.156   4.941
  832SOL    HW2 3396   3.082   2.154   4.784
  833SOL     OW 3397   3.405   3.111   6.418
  833SOL    HW1 3398   3.325   3.087   6.472
  833SOL    HW2 3399   3.460   3.178   6.467
  834SOL     OW 3400   6.345   3.335   1.355
  834SOL    HW1 3401   6.355   3.289   1.266
  834SOL    HW2 3402   6.258   3.307   1.397
  835SOL     OW 3403   6.521   6.490   4.997
  835SOL    HW1 3404   6.551   6.465   4.904
  835SOL    HW2 3405   6.431   6.451   5.014
  836SOL     OW 3406   6.466   0.286   3.647
  836SOL    HW1 3407   6.510   0.197   3.634
  836SOL    HW2 3408   6.493   0.324   3.735
  837SOL     OW 3409   0.535   7.006   6.533
  837SOL    HW1 3410   0.466   6.944   6.495
  837SOL    HW2 3411   0.558   6.976   6.626
  838SOL     OW 3412   1.020   6.023   3.034
  838SOL    HW1 3413   1.006   6.010   2.935
  838SOL    HW2 3414   0.941   5.988   3.083
  839SOL     OW 3415   1.802   1.946   0.192
  839SOL    HW1 3416   1.869   1.899   0.134
  839SOL    HW2 3417   1.841   1.962   0.282
  840SOL     OW 3418   5.054   5.213   0.538
  840SOL    HW1 3419   5.135   5.155   0.532
  840SOL    HW2 3420   5.010   5.219   0.449
  841SOL     OW 3421   2.675   4.605   6.702
  841SOL    HW1 3422   2.748   4.624   6.768
  841SOL    HW2 3423   2.716   4.584   6.613
  842SOL     OW 3424   3.820   5.742   0.946
  842SOL    HW1 3425   3.850   5.781   1.033
  842SOL    HW2 3426   3.888   5.764   0.876
  843SOL     OW 3427   1.799   6.716   2.194
  843SOL    HW1 3428   1.816   6.738   2.098
  843SOL    HW2 3429   1.800   6.800   2.248
  844SOL     OW 3430   0.002   6.732   1.265
  844SOL    HW1 3431   6.976   6.804   1.212
  844SOL    HW2 3432   0.054   6.774   1.339
  845SOL     OW 3433   4.126   1.430   1.779
  845SOL    HW1 3434   4.200   1.393   1.836
  845SOL    HW2 3435   4.161   1.509   1.728
  846SOL     OW 3436   1.310   0.450   1.268
  846SOL    HW1 3437   1.391   0.508   1.280
  846SOL    HW2 3438   1.324   0.363   1.316
  847SOL     OW 3439   2.795   2.949   1.667
  847SOL    HW1 3440   2.894   2.948   1.682
  847SOL    HW2 3441   2.758   2.859   1.687
  848SOL     OW 3442   6.241   6.101   0.884
  848SOL    HW1 3443   6.167   6.111   0.818
  848SOL    HW2 3444   6.224   6.020   0.941
  849SOL     OW 3445   5.497   3.377   6.245
  849SOL    HW1 3446   5.551   3.305   6.201
  849SOL    HW2 3447   5.406   3.380   6.204
  850SOL     OW 3448   2.334   0.975   4.233
  850SOL    HW1 3449   2.300   1.027   4.311
  850SOL    HW2 3450   2.357   0.882   4.261
  851SOL     OW 3451   4.693   2.825   6.292
  851SOL    HW1 3452   4.730   2.785   6.375
  851SOL    HW2 3453   4.641   2.907   6.314
  852SOL     OW 3454   0.500   4.630   1.193
  852SOL    HW1 3455   0.557   4.552   1.168
  852SOL    HW2 3456   0.525   4.662   1.285
  853SOL     OW 3457   3.748   2.754   0.478
  853SOL    HW1 3458   3.708   2.738   0.568
  853SOL    HW2 3459   3.725   2.847   0.448
  854SOL     OW 3460   6.777   0.901   6.184
  854SOL    HW1 3461   6.835   0.880   6.263
  854SOL    HW2 3462   6.810   0.851   6.104
  855SOL     OW 3463   4.306   2.119   6.463
  855SOL    HW1 3464   4.207   2.116   6.476
  855SOL    HW2 3465   4.351   2.129   6.551
  856SOL     OW 3466   1.208   5.799   1.418
  856SOL    HW1 3467   1.285   5.764   1.365
  856SOL    HW2 3468   1.123   5.760   1.383
  857SOL     OW 3469   6.808   6.585   5.307
  857SOL    HW1 3470   6.725   6.531   5.322
  857SOL    HW2 3471   6.844   6.615   5.396
  858SOL     OW 3472   2.893   4.383   0.564
  858SOL    HW1 3473   2.817   4.322   0.542
  858SOL    HW2 3474   2.889   4.464   0.504
  859SOL     OW 3475   4.650   6.122   5.801
  859SOL    HW1 3476   4.741   6.159   5.782
  859SOL    HW2 3477   4.646   6.027   5.770
  860SOL     OW 3478   4.289   2.997   0.206
  860SOL    HW1 3479   4.334   3.014   0.294
  860SOL    HW2 3480   4.340   3.043   0.133
  861SOL     OW 3481   0.826   5.415   2.538
  861SOL    HW1 3482   0.849   5.499   2.588
  861SOL    HW2 3483   0.884   5.409   2.457
  862SOL     OW 3484   0.872   4.601   4.462
  862SOL    HW1 3485   0.902   4.682   4.512
  862SOL    HW2 3486   0.851   4.528   4.527
  863SOL     OW 3487   4.980   0.382   1.451
  863SOL    HW1 3488   4.925   0.348   1.374
  863SOL    HW2 3489   4.950   0.339   1.535
  864SOL     OW 3490   5.888   3.526   3.571
  864SOL    HW1 3491   5.843   3.612   3.549
  864SOL    HW2 3492   5.891   3.468   3.489
  865SOL     OW 3493   2.057   4.602   4.879
  865SOL    HW1 3494   2.156   4.612   4.869
  865SOL    HW2 3495   2.037   4.528   4.943
  866SOL     OW 3496   3.606   6.651   0.932
  866SOL    HW1 3497   3.565   6.686   1.016
  866SOL    HW2 3498   3.704   6.636   0.946
  867SOL     OW 3499   5.984   3.670   4.617
  867SOL    HW1 3500   5.981   3.571   4.601
  867SOL    HW2 3501   5.926   3.693   4.695
  868SOL     OW 3502   0.332   1.725   1.861
  868SOL    HW1 3503   0.422   1.697   1.828
  868SOL    HW2 3504   0.277   1.644   1.881
  869SOL     OW 3505   0.943   2.786   2.050
  869SOL    HW1 3506   1.024   2.830   2.011
  869SOL    HW2 3507   0.901   2.726   1.982
  870SOL     OW 3508   3.826   4.740   1.765
  870SOL    HW1 3509   3.738   4.705   1.797
  870SOL    HW2 3510   3.858   4.685   1.688
  871SOL     OW 3511   4.902   1.871   3.804
  871SOL    HW1 3512   4.952   1.858   3.718
  871SOL    HW2 3513   4.904   1.787   3.857
  872SOL     OW 3514   2.053   2.541   5.999
  872SOL    HW1 3515   1.999   2.469   5.957
  872SOL    HW2 3516   2.034   2.545   6.097
  873SOL     OW 3517   3.910   1.133   6.084
  873SOL    HW1 3518   3.942   1.196   6.013
  873SOL    HW2 3519   3.855   1.061   6.041
  874SOL     OW 3520   5.592   3.810   2.892
  874SOL    HW1 3521   5.661   3.744   2.861
  874SOL    HW2 3522   5.543   3.845   2.812
  875SOL     OW 3523   5.184   5.082   2.306
  875SOL    HW1 3524   5.201   5.175   2.339
  875SOL    HW2 3525   5.143   5.028   2.379
  876SOL     OW 3526   6.374   1.741   6.115
  876SOL    HW1 3527   6.443   1.770   6.181
  876SOL    HW2 3528   6.318   1.668   6.155
  877SOL     OW 3529   1.143   3.315   6.145
  877SOL    HW1 3530   1.061   3.363   6.114
  877SOL    HW2 3531   1.177   3.255   6.073
  878SOL     OW 3532   4.248   6.424   4.681
  878SOL    HW1 3533   4.273   6.394   4.773
  878SOL    HW2 3534   4.310   6.497   4.652
  879SOL     OW 3535   5.996   6.992   6.133
  879SOL    HW1 3536   6.023   0.010   6.044
  879SOL    HW2 3537   5.911   6.941   6.124
  880SOL     OW 3538   3.577   2.957   3.159
  880SOL    HW1 3539   3.667   2.945   3.201
  880SOL    HW2 3540   3.574   2.907   3.072
  881SOL     OW 3541   5.047   2.217   0.420
  881SOL    HW1 3542   5.100   2.133   0.416
  881SOL    HW2 3543   5.042   2.258   0.329
  882SOL     OW 3544   1.749   2.377   4.148
  882SOL    HW1 3545   1.774   2.293   4.196
  882SOL    HW2 3546   1.738   2.358   4.051
  883SOL     OW 3547   2.453   6.580   3.175
  883SOL    HW1 3548   2.413   6.668   3.203
  883SOL    HW2 3549   2.552   6.588   3.175
  884SOL     OW 3550   2.623   3.248   5.868
  884SOL    HW1 3551   2.586   3.230   5.959
  884SOL    HW2 3552   2.554   3.296   5.814
  885SOL     OW 3553   4.280   3.369   6.805
  885SOL    HW1 3554   4.180   3.377   6.814
  885SOL    HW2 3555   4.324   3.411   6.884
  886SOL     OW 3556   3.476   1.442   6.355
  886SOL    HW1 3557   3.491   1.343   6.367
  886SOL    HW2 3558   3.429   1.478   6.435
  887SOL     OW 3559   3.803   0.836   5.634
  887SOL    HW1 3560   3.717   0.813   5.679
  887SOL    HW2 3561   3.796   0.926   5.591
  888SOL     OW 3562   0.062   6.752   1.890
  888SOL    HW1 3563   0.013   6.821   1.838
  888SOL    HW2 3564   0.118   6.797   1.960
  889SOL     OW 3565   0.571   4.202   1.336
  889SOL    HW1 3566   0.558   4.111   1.297
  889SOL    HW2 3567   0.602   4.194   1.430
  890SOL     OW 3568   2.763   6.377   4.533
  890SOL    HW1 3569   2.704   6.325   4.595
  890SOL    HW2 3570   2.858   6.370   4.564
  891SOL     OW 3571   4.466   4.719   2.222
  891SOL    HW1 3572   4.510   4.808   2.236
  891SOL    HW2 3573   4.422   4.690   2.307
  892SOL     OW 3574   2.432   4.089   0.953
  892SOL    HW1 3575   2.502   4.042   1.006
  892SOL    HW2 3576   2.353   4.109   1.012
  893SOL     OW 3577   1.431   5.388   2.303
  893SOL    HW1 3578   1.376   5.318   2.348
  893SOL    HW2 3579   1.381   5.475   2.304
  894SOL     OW 3580   1.454   4.309   0.940
  894SOL    HW1 3581   1.548   4.319   0.973
  894SOL    HW2 3582   1.440   4.217   0.905
  895SOL     OW 3583   6.532   5.949   5.512
  895SOL    HW1 3584   6.559   6.029   5.458
  895SOL    HW2 3585   6.600   5.932   5.583
  896SOL     OW 3586   6.921   0.765   5.972
  896SOL    HW1 3587   6.878   0.685   5.930
  896SOL    HW2 3588   6.994   0.734   6.034
  897SOL     OW 3589   5.921   1.055   0.618
  897SOL    HW1 3590   5.896   1.148   0.642
  897SOL    HW2 3591   5.850   0.992   0.649
  898SOL     OW 3592   4.023   1.798   3.792
  898SOL    HW1 3593   4.010   1.838   3.882
  898SOL    HW2 3594   3.937   1.804   3.740
  899SOL     OW 3595   6.521   6.888   6.615
  899SOL    HW1 3596   6.591   6.871   6.546
  899SOL    HW2 3597   6.522   6.814   6.682
  900SOL     OW 3598   5.010   4.681   6.079
  900SOL    HW1 3599   5.070   4.714   6.006
  900SOL    HW2 3600   5.051   4.601   6.122
  901SOL     OW 3601   1.133   0.629   2.350
  901SOL    HW1 3602   1.228   0.608   2.327
  901SOL    HW2 3603   1.073   0.601   2.275
  902SOL     OW 3604   0.113   2.974   2.686
  902SOL    HW1 3605   0.053   2.945   2.612
  902SOL    HW2 3606   0.181   2.902   2.704
  903SOL     OW 3607   6.053   1.342   0.374
  903SOL    HW1 3608   6.077   1.267   0.312
  903SOL    HW2 3609   6.087   1.428   0.337
  904SOL     OW 3610   3.098   1.113   3.685
  904SOL    HW1 3611   3.152   1.197   3.682
  904SOL    HW2 3612   3.067   1.089   3.593
  905SOL     OW 3613   5.115   2.469   6.404
  905SOL    HW1 3614   5.108   2.467   6.304
  905SOL    HW2 3615   5.203   2.508   6.430
  906SOL     OW 3616   6.092   3.055   1.248
  906SOL    HW1 3617   5.994   3.035   1.246
  906SOL    HW2 3618   6.132   3.032   1.159
  907SOL     OW 3619   5.962   4.939   0.424
  907SOL    HW1 3620   5.957   5.000   0.344
  907SOL    HW2 3621   6.041   4.878   0.415
  908SOL     OW 3622   0.976   3.989   3.479
  908SOL    HW1 3623   0.987   4.031   3.569
  908SOL    HW2 3624   1.042   3.915   3.468
  909SOL     OW 3625   5.028   4.460   5.685
  909SOL    HW1 3626   5.110   4.470   5.629
  909SOL    HW2 3627   5.054   4.421   5.773
  910SOL     OW 3628   3.280   4.716   0.211
  910SOL    HW1 3629   3.326   4.645   0.265
  910SOL    HW2 3630   3.310   4.806   0.243
  911SOL     OW 3631   1.163   4.422   5.804
  911SOL    HW1 3632   1.209   4.457   5.886
  911SOL    HW2 3633   1.231   4.410   5.731
  912SOL     OW 3634   5.569   1.623   4.939
  912SOL    HW1 3635   5.602   1.540   4.982
  912SOL    HW2 3636   5.469   1.624   4.939
  913SOL     OW 3637   5.886   5.660   3.632
  913SOL    HW1 3638   5.951   5.584   3.623
  913SOL    HW2 3639   5.931   5.745   3.604
  914SOL     OW 3640   2.484   6.318   4.940
  914SOL    HW1 3641   2.525   6.262   5.011
  914SOL    HW2 3642   2.530   6.407   4.937
  915SOL     OW 3643   5.428   4.874   2.495
  915SOL    HW1 3644   5.459   4.812   2.423
  915SOL    HW2 3645   5.329   4.866   2.505
  916SOL     OW 3646   1.218   4.233   2.919
  916SOL    HW1 3647   1.240   4.227   3.016
  916SOL    HW2 3648   1.179   4.145   2.889
  917SOL     OW 3649   0.431   6.708   6.970
  917SOL    HW1 3650   0.362   6.721   6.899
  917SOL    HW2 3651   0.400   6.752   0.035
  918SOL     OW 3652   3.480   5.681   6.090
  918SOL    HW1 3653   3.474   5.739   6.171
  918SOL    HW2 3654   3.448   5.731   6.010
  919SOL     OW 3655   4.335   0.184   5.832
  919SOL    HW1 3656   4.251   0.153   5.785
  919SOL    HW2 3657   4.313   0.211   5.925
  920SOL     OW 3658   3.125   4.464   1.355
  920SOL    HW1 3659   3.087   4.374   1.334
  920SOL    HW2 3660   3.225   4.461   1.348
  921SOL     OW 3661   5.063   5.976   5.273
  921SOL    HW1 3662   5.117   5.892   5.265
  921SOL    HW2 3663   5.096   6.043   5.207
  922SOL     OW 3664   3.128   3.969   2.704
  922SOL    HW1 3665   3.117   4.034   2.628
  922SOL    HW2 3666   3.151   3.879   2.667
  923SOL     OW 3667   2.561   3.995   5.550
  923SOL    HW1 3668   2.466   4.015   5.572
  923SOL    HW2 3669   2.566   3.958   5.457
  924SOL     OW 3670   0.765   2.569   0.979
  924SOL    HW1 3671   0.719   2.518   0.906
  924SOL    HW2 3672   0.733   2.664   0.979
  925SOL     OW 3673   1.004   1.483   0.074
  925SOL    HW1 3674   0.988   1.575   0.040
  925SOL    HW2 3675   0.919   1.430   0.069
  926SOL     OW 3676   1.853   2.296   1.034
  926SOL    HW1 3677   1.825   2.263   1.124
  926SOL    HW2 3678   1.773   2.304   0.975
  927SOL     OW 3679   0.723   3.894   5.280
  927SOL    HW1 3680   0.663   3.964   5.320
  927SOL    HW2 3681   0.754   3.832   5.352
  928SOL     OW 3682   2.997   5.169   6.089
  928SOL    HW1 3683   3.023   5.104   6.160
  928SOL    HW2 3684   2.934   5.237   6.127
  929SOL     OW 3685   2.079   2.546   4.720
  929SOL    HW1 3686   2.082   2.539   4.820
  929SOL    HW2 3687   2.082   2.643   4.694
  930SOL     OW 3688   5.904   5.757   5.456
  930SOL    HW1 3689   5.904   5.755   5.556
  930SOL    HW2 3690   5.995   5.732   5.422
  931SOL     OW 3691   6.057   0.274   2.793
  931SOL    HW1 3692   6.081   0.208   2.864
  931SOL    HW2 3693   6.110   0.358   2.807
  932SOL     OW 3694   4.237   7.012   3.357
  932SOL    HW1 3695   4.186   6.983   3.438
  932SOL    HW2 3696   4.317   0.046   3.385
  933SOL     OW 3697   0.870   5.851   2.039
  933SOL    HW1 3698   0.833   5.758   2.048
  933SOL    HW2 3699   0.911   5.861   1.948
  934SOL     OW 3700   1.748   2.954   1.016
  934SOL    HW1 3701   1.776   3.040   1.058
  934SOL    HW2 3702   1.735   2.884   1.086
  935SOL     OW 3703   5.326   3.061   5.804
  935SOL    HW1 3704   5.336   3.155   5.771
  935SOL    HW2 3705   5.397   3.003   5.762
  936SOL     OW 3706   1.206   1.245   6.076
  936SOL    HW1 3707   1.231   1.155   6.040
  936SOL    HW2 3708   1.214   1.313   6.003
  937SOL     OW 3709   3.375   1.855   6.275
  937SOL    HW1 3710   3.348   1.759   6.276
  937SOL    HW2 3711   3.423   1.875   6.189
  938SOL     OW 3712   5.139   6.762   4.641
  938SOL    HW1 3713   5.164   6.815   4.721
  938SOL    HW2 3714   5.221   6.743   4.586
  939SOL     OW 3715   1.439   0.186   4.705
  939SOL    HW1 3716   1.521   0.170   4.758
  939SOL    HW2 3717   1.463   0.198   4.608
  940SOL     OW 3718   1.874   5.047   0.655
  940SOL    HW1 3719   1.793   4.992   0.636
  940SOL    HW2 3720   1.954   4.987   0.665
  941SOL     OW 3721   3.883   6.836   1.300
  941SOL    HW1 3722   3.951   6.774   1.339
  941SOL    HW2 3723   3.811   6.852   1.367
  942SOL     OW 3724   0.098   4.968   0.145
  942SOL    HW1 3725   0.086   5.054   0.194
  942SOL    HW2 3726   0.071   4.892   0.204
  943SOL     OW 3727   3.335   6.819   1.291
  943SOL    HW1 3728   3.318   6.889   1.360
  943SOL    HW2 3729   3.286   6.843   1.207
  944SOL     OW 3730   6.299   5.651   3.763
  944SOL    HW1 3731   6.221   5.703   3.798
  944SOL    HW2 3732   6.281   5.553   3.772
  945SOL     OW 3733   0.264   4.868   6.547
  945SOL    HW1 3734   0.286   4.965   6.543
  945SOL    HW2 3735   0.260   4.831   6.454
  946SOL     OW 3736   6.103   1.802   4.136
  946SOL    HW1 3737   6.073   1.736   4.205
  946SOL    HW2 3738   6.148   1.879   4.181
  947SOL     OW 3739   3.264   4.003   2.950
  947SOL    HW1 3740   3.196   3.993   3.023
  947SOL    HW2 3741   3.218   4.020   2.863
  948SOL     OW 3742   4.075   2.182   3.805
  948SOL    HW1 3743   4.110   2.262   3.755
  948SOL    HW2 3744   4.116   2.099   3.767
  949SOL     OW 3745   1.728   0.306   5.507
  949SOL    HW1 3746   1.649   0.359   5.539
  949SOL    HW2 3747   1.732   0.220   5.557
  950SOL     OW 3748   6.491   0.307   1.402
  950SOL    HW1 3749   6.552   0.332   1.478
  950SOL    HW2 3750   6.398   0.295   1.437
  951SOL     OW 3751   1.144   0.190   2.419
  951SOL    HW1 3752   1.072   0.122   2.432
  951SOL    HW2 3753   1.133   0.263   2.486
  952SOL     OW 3754   3.391   1.669   2.957
  952SOL    HW1 3755   3.418   1.624   2.871
  952SOL    HW2 3756   3.293   1.687   2.956
  953SOL     OW 3757   0.438   6.059   5.203
  953SOL    HW1 3758   0.491   6.072   5.119
  953SOL    HW2 3759   0.341   6.065   5.182
  954SOL     OW 3760   4.475   6.654   2.625
  954SOL    HW1 3761   4.442   6.595   2.552
  954SOL    HW2 3762   4.526   6.599   2.692
  955SOL     OW 3763   3.264   4.189   1.080
  955SOL    HW1 3764   3.301   4.282   1.070
  955SOL    HW2 3765   3.331   4.131   1.126
  956SOL     OW 3766   3.482   0.038   0.699
  956SOL    HW1 3767   3.579   0.017   0.704
  956SOL    HW2 3768   3.445   0.005   0.612
  957SOL     OW 3769   6.392   0.099   3.113
  957SOL    HW1 3770   6.430   0.162   3.045
  957SOL    HW2 3771   6.465   0.042   3.150
  958SOL     OW 3772   5.371   5.320   2.000
  958SOL    HW1 3773   5.417   5.369   1.926
  958SOL    HW2 3774   5.276   5.302   1.974
  959SOL     OW 3775   5.234   5.988   1.835
  959SOL    HW1 3776   5.309   6.027   1.888
  959SOL    HW2 3777   5.270   5.917   1.774
  960SOL     OW 3778   0.961   6.784   6.513
  960SOL    HW1 3779   1.047   6.735   6.513
  960SOL    HW2 3780   0.971   6.869   6.460
  961SOL     OW 3781   4.472   1.147   4.002
  961SOL    HW1 3782   4.435   1.209   3.932
  961SOL    HW2 3783   4.408   1.143   4.079
  962SOL     OW 3784   6.991   0.855   4.850
  962SOL    HW1 3785   6.935   0.932   4.883
  962SOL    HW2 3786   6.955   0.769   4.886
  963SOL     OW 3787   5.838   2.430   1.459
  963SOL    HW1 3788   5.802   2.522   1.447
  963SOL    HW2 3789   5.845   2.386   1.369
  964SOL     OW 3790   3.754   6.244   4.755
  964SOL    HW1 3791   3.699   6.239   4.839
  964SOL    HW2 3792   3.848   6.219   4.775
  965SOL     OW 3793   5.114   1.392   4.401
  965SOL    HW1 3794   5.064   1.369   4.484
  965SOL    HW2 3795   5.171   1.473   4.417
  966SOL     OW 3796   5.234   1.315   3.062
  966SOL    HW1 3797   5.178   1.304   3.143
  966SOL    HW2 3798   5.192   1.383   3.001
  967SOL     OW 3799   4.494   5.497   5.783
  967SOL    HW1 3800   4.524   5.574   5.840
  967SOL    HW2 3801   4.442   5.433   5.839
  968SOL     OW 3802   4.191   6.954   1.535
  968SOL    HW1 3803   4.283   6.992   1.546
  968SOL    HW2 3804   4.168   6.951   1.437
  969SOL     OW 3805   3.190   3.426   6.895
  969SOL    HW1 3806   3.281   3.459   6.920
  969SOL    HW2 3807   3.167   3.458   6.803
  970SOL     OW 3808   4.138   6.000   5.468
  970SOL    HW1 3809   4.059   5.972   5.414
  970SOL    HW2 3810   4.205   5.925   5.469
  971SOL     OW 3811   4.892   3.616   3.659
  971SOL    HW1 3812   4.931   3.528   3.685
  971SOL    HW2 3813   4.877   3.619   3.560
  972SOL     OW 3814   0.910   1.285   0.884
  972SOL    HW1 3815   1.003   1.257   0.861
  972SOL    HW2 3816   0.888   1.369   0.835
  973SOL     OW 3817   6.682   2.672   5.270
  973SOL    HW1 3818   6.754   2.703   5.208
  973SOL    HW2 3819   6.603   2.732   5.262
  974SOL     OW 3820   1.559   3.271   1.581
  974SOL    HW1 3821   1.578   3.182   1.624
  974SOL    HW2 3822   1.486   3.317   1.631
  975SOL     OW 3823   3.335   0.695   2.517
  975SOL    HW1 3824   3.350   0.744   2.432
  975SOL    HW2 3825   3.378   0.605   2.512
  976SOL     OW 3826   0.400   3.394   3.596
  976SOL    HW1 3827   0.480   3.449   3.619
  976SOL    HW2 3828   0.388   3.322   3.664
  977SOL     OW 3829   6.837   1.513   2.146
  977SOL    HW1 3830   6.812   1.534   2.241
  977SOL    HW2 3831   6.761   1.537   2.086
  978SOL     OW 3832   5.670   2.043   0.744
  978SOL    HW1 3833   5.766   2.038   0.770
  978SOL    HW2 3834   5.617   2.082   0.819
  979SOL     OW 3835   0.308   5.159   6.571
  979SOL    HW1 3836   0.384   5.203   6.618
  979SOL    HW2 3837   0.225   5.166   6.626
  980SOL     OW 3838   5.305   1.847   4.209
  980SOL    HW1 3839   5.244   1.864   4.131
  980SOL    HW2 3840   5.384   1.907   4.203
  981SOL     OW 3841   0.475   5.643   6.051
  981SOL    HW1 3842   0.409   5.573   6.023
  981SOL    HW2 3843   0.528   5.673   5.971
  982SOL     OW 3844   0.064   0.607   6.443
  982SOL    HW1 3845   0.060   0.624   6.541
  982SOL    HW2 3846   0.033   0.514   6.424
  983SOL     OW 3847   0.126   3.916   2.095
  983SOL    HW1 3848   0.158   3.829   2.058
  983SOL    HW2 3849   0.031   3.931   2.069
  984SOL     OW 3850   0.532   4.113   4.488
  984SOL    HW1 3851   0.486   4.188   4.440
  984SOL    HW2 3852   0.512   4.119   4.586
  985SOL     OW 3853   5.201   4.819   5.953
  985SOL    HW1 3854   5.212   4.886   6.026
  985SOL    HW2 3855   5.285   4.765   5.945
  986SOL     OW 3856   3.631   5.463   1.770
  986SOL    HW1 3857   3.559   5.394   1.772
  986SOL    HW2 3858   3.609   5.532   1.701
  987SOL     OW 3859   4.381   5.013   4.147
  987SOL    HW1 3860   4.357   4.916   4.150
  987SOL    HW2 3861   4.315   5.061   4.089
  988SOL     OW 3862   3.152   4.726   1.781
  988SOL    HW1 3863   3.137   4.632   1.749
  988SOL    HW2 3864   3.083   4.786   1.741
  989SOL     OW 3865   0.713   2.018   1.384
  989SOL    HW1 3866   0.772   1.956   1.435
  989SOL    HW2 3867   0.618   1.987   1.392
  990SOL     OW 3868   3.252   0.147   5.061
  990SOL    HW1 3869   3.190   0.198   5.120
  990SOL    HW2 3870   3.238   0.175   4.966
  991SOL     OW 3871   1.413   6.316   4.194
  991SOL    HW1 3872   1.425   6.326   4.293
  991SOL    HW2 3873   1.418   6.405   4.150
  992SOL     OW 3874   6.564   3.419   1.513
  992SOL    HW1 3875   6.490   3.421   1.446
  992SOL    HW2 3876   6.526   3.418   1.605
  993SOL     OW 3877   2.014   4.799   0.046
  993SOL    HW1 3878   1.953   4.733   0.090
  993SOL    HW2 3879   2.108   4.785   0.078
  994SOL     OW 3880   2.538   6.564   1.628
  994SOL    HW1 3881   2.466   6.632   1.637
  994SOL    HW2 3882   2.498   6.473   1.617
  995SOL     OW 3883   5.532   4.253   4.967
  995SOL    HW1 3884   5.486   4.273   5.054
  995SOL    HW2 3885   5.481   4.183   4.918
  996SOL     OW 3886   3.963   6.681   5.373
  996SOL    HW1 3887   3.902   6.607   5.347
  996SOL    HW2 3888   3.949   6.759   5.312
  997SOL     OW 3889   1.118   6.311   3.280
  997SOL    HW1 3890   1.143   6.347   3.370
  997SOL    HW2 3891   1.118   6.385   3.213
  998SOL     OW 3892   4.645   0.000   6.868
  998SOL    HW1 3893   4.646   0.058   6.787
  998SOL    HW2 3894   4.597   0.047   6.943
  999SOL     OW 3895   6.096   2.992   2.338
  999SOL    HW1 3896   6.186   3.027   2.311
  999SOL    HW2 3897   6.060   3.046   2.413
 1000SOL     OW 3898   5.956   1.498   2.352
 1000SOL    HW1 3899   6.034   1.547   2.314
 1000SOL    HW2 3900   5.886   1.486   2.282
 1001SOL     OW 3901   2.657   0.145   3.238
 1001SOL    HW1 3902   2.650   0.145   3.337
 1001SOL    HW2 3903   2.725   0.212   3.209
 1002SOL     OW 3904   4.690   2.586   0.271
 1002SOL    HW1 3905   4.720   2.490   0.276
 1002SOL    HW2 3906   4.607   2.591   0.216
 1003SOL     OW 3907   1.533   1.823   4.014
 1003SOL    HW1 3908   1.474   1.899   4.041
 1003SOL    HW2 3909   1.628   1.854   4.009
 1004SOL     OW 3910   4.212   1.653   4.894
 1004SOL    HW1 3911   4.159   1.650   4.809
 1004SOL    HW2 3912   4.192   1.572   4.949
 1005SOL     OW 3913   0.576   5.720   1.911
 1005SOL    HW1 3914   0.637   5.653   1.955
 1005SOL    HW2 3915   0.501   5.671   1.866
 1006SOL     OW 3916   1.961   3.883   1.965
 1006SOL    HW1 3917   1.882   3.846   1.917
 1006SOL    HW2 3918   2.043   3.830   1.943
 1007SOL     OW 3919   4.699   0.665   6.271
 1007SOL    HW1 3920   4.791   0.636   6.296
 1007SOL    HW2 3921   4.682   0.758   6.305
 1008SOL     OW 3922   0.313   4.328   4.266
 1008SOL    HW1 3923   0.355   4.347   4.177
 1008SOL    HW2 3924   0.220   4.295   4.254
 1009SOL     OW 3925   6.415   6.000   6.720
 1009SOL    HW1 3926   6.330   6.011   6.771
 1009SOL    HW2 3927   6.395   5.988   6.623
 1010SOL     OW 3928   3.247   3.974   0.207
 1010SOL    HW1 3929   3.170   4.037   0.201
 1010SOL    HW2 3930   3.214   3.882   0.228
 1011SOL     OW 3931   6.582   5.154   2.423
 1011SOL    HW1 3932   6.504   5.217   2.414
 1011SOL    HW2 3933   6.637   5.180   2.502
 1012SOL     OW 3934   5.266   6.120   3.065
 1012SOL    HW1 3935   5.339   6.053   3.077
 1012SOL    HW2 3936   5.294   6.187   2.997
 1013SOL     OW 3937   0.610   1.212   5.993
 1013SOL    HW1 3938   0.543   1.284   6.011
 1013SOL    HW2 3939   0.591   1.133   6.051
 1014SOL     OW 3940   0.687   4.424   4.543
 1014SOL    HW1 3941   0.689   4.341   4.598
 1014SOL    HW2 3942   0.592   4.448   4.523
 1015SOL     OW 3943   3.024   6.061   6.535
 1015SOL    HW1 3944   3.062   5.971   6.556
 1015SOL    HW2 3945   3.035   6.082   6.438
 1016SOL     OW 3946   6.998   4.419   0.506
 1016SOL    HW1 3947   6.943   4.428   0.423
 1016SOL    HW2 3948   0.061   4.474   0.497
 1017SOL     OW 3949   1.357   0.336   1.674
 1017SOL    HW1 3950   1.370   0.405   1.604
 1017SOL    HW2 3951   1.352   0.380   1.764
 1018SOL     OW 3952   5.654   5.750   6.566
 1018SOL    HW1 3953   5.621   5.665   6.523
 1018SOL    HW2 3954   5.737   5.780   6.519
 1019SOL     OW 3955   6.580   3.585   2.191
 1019SOL    HW1 3956   6.647   3.653   2.160
 1019SOL    HW2 3957   6.603   3.554   2.283
 1020SOL     OW 3958   5.279   1.433   1.257
 1020SOL    HW1 3959   5.364   1.421   1.205
 1020SOL    HW2 3960   5.228   1.347   1.257
 1021SOL     OW 3961   1.119   6.899   0.842
 1021SOL    HW1 3962   1.058   6.821   0.828
 1021SOL    HW2 3963   1.133   6.913   0.940
 1022SOL     OW 3964   1.697   5.179   6.260
 1022SOL    HW1 3965   1.685   5.113   6.186
 1022SOL    HW2 3966   1.783   5.161   6.308
 1023SOL     OW 3967   0.963   2.383   2.323
 1023SOL    HW1 3968   0.961   2.483   2.324
 1023SOL    HW2 3969   0.904   2.349   2.250
 1024SOL     OW 3970   1.785   3.058   4.694
 1024SOL    HW1 3971   1.835   3.051   4.608
 1024SOL    HW2 3972   1.763   2.967   4.728
 1025SOL     OW 3973   4.227   4.425   0.785
 1025SOL    HW1 3974   4.200   4.486   0.860
 1025SOL    HW2 3975   4.305   4.465   0.736
 1026SOL     OW 3976   3.512   2.757   1.545
 1026SOL    HW1 3977   3.531   2.670   1.498
 1026SOL    HW2 3978   3.596   2.811   1.550
 1027SOL     OW 3979   6.220   0.527   0.547
 1027SOL    HW1 3980   6.254   0.439   0.581
 1027SOL    HW2 3981   6.120   0.526   0.544
 1028SOL     OW 3982   0.790   5.630   3.782
 1028SOL    HW1 3983   0.778   5.595   3.689
 1028SOL    HW2 3984   0.887   5.635   3.804
 1029SOL     OW 3985   0.913   0.557   4.796
 1029SOL    HW1 3986   0.982   0.508   4.743
 1029SOL    HW2 3987   0.866   0.493   4.857
 1030SOL     OW 3988   4.484   3.402   0.748
 1030SOL    HW1 3989   4.496   3.451   0.835
 1030SOL    HW2 3990   4.407   3.339   0.756
 1031SOL     OW 3991   4.231   2.739   0.232
 1031SOL    HW1 3992   4.275   2.827   0.218
 1031SOL    HW2 3993   4.235   2.715   0.329
 1032SOL     OW 3994   1.169   1.359   1.103
 1032SOL    HW1 3995   1.263   1.386   1.080
 1032SOL    HW2 3996   1.119   1.439   1.137
 1033SOL     OW 3997   6.250   0.139   1.754
 1033SOL    HW1 3998   6.175   0.108   1.813
 1033SOL    HW2 3999   6.325   0.172   1.811
 1034SOL     OW 4000   1.896   0.421   5.057
 1034SOL    HW1 4001   1.826   0.407   5.127
 1034SOL    HW2 4002   1.952   0.499   5.081
 1035SOL     OW 4003   1.523   6.863   6.892
 1035SOL    HW1 4004   1.577   6.904   6.965
 1035SOL    HW2 4005   1.496   6.933   6.827
 1036SOL     OW 4006   5.432   1.437   2.807
 1036SOL    HW1 4007   5.441   1.349   2.854
 1036SOL    HW2 4008   5.510   1.495   2.829
 1037SOL     OW 4009   0.661   4.128   2.770
 1037SOL    HW1 4010   0.743   4.181   2.748
 1037SOL    HW2 4011   0.664   4.101   2.866
 1038SOL     OW 4012   1.422   6.323   6.500
 1038SOL    HW1 4013   1.498   6.259   6.505
 1038SOL    HW2 4014   1.385   6.323   6.406
 1039SOL     OW 4015   2.960   3.880   2.981
 1039SOL    HW1 4016   2.981   3.783   2.970
 1039SOL    HW2 4017   2.901   3.910   2.906
 1040SOL     OW 4018   4.221   1.682   2.826
 1040SOL    HW1 4019   4.280   1.762   2.815
 1040SOL    HW2 4020   4.267   1.614   2.884
 1041SOL     OW 4021   6.991   0.335   6.672
 1041SOL    HW1 4022   6.993   0.303   6.577
 1041SOL    HW2 4023   0.063   0.326   6.712
 1042SOL     OW 4024   5.536   3.104   4.074
 1042SOL    HW1 4025   5.517   3.202   4.070
 1042SOL    HW2 4026   5.507   3.068   4.163
 1043SOL     OW 4027   2.095   2.298   3.750
 1043SOL    HW1 4028   2.147   2.352   3.684
 1043SOL    HW2 4029   2.114   2.333   3.842
 1044SOL     OW 4030   4.862   4.247   2.226
 1044SOL    HW1 4031   4.765   4.266   2.244
 1044SOL    HW2 4032   4.878   4.247   2.128
 1045SOL     OW 4033   1.906   0.026   2.651
 1045SOL    HW1 4034   1.844   6.983   2.605
 1045SOL    HW2 4035   1.906   0.114   2.603
 1046SOL     OW 4036   3.661   2.298   0.792
 1046SOL    HW1 4037   3.739   2.352   0.759
 1046SOL    HW2 4038   3.628   2.338   0.877
 1047SOL     OW 4039   4.284   0.995   4.235
 1047SOL    HW1 4040   4.204   1.051   4.256
 1047SOL    HW2 4041   4.255   0.906   4.200
 1048SOL     OW 4042   6.657   6.968   1.870
 1048SOL    HW1 4043   6.643   6.879   1.911
 1048SOL    HW2 4044   6.739   7.011   1.908
 1049SOL     OW 4045   3.559   6.732   0.591
 1049SOL    HW1 4046   3.613   6.656   0.627
 1049SOL    HW2 4047   3.478   6.746   0.649
 1050SOL     OW 4048   2.790   1.604   4.571
 1050SOL    HW1 4049   2.827   1.619   4.479
 1050SOL    HW2 4050   2.784   1.506   4.589
 1051SOL     OW 4051   1.757   2.277   6.159
 1051SOL    HW1 4052   1.673   2.249   6.113
 1051SOL    HW2 4053   1.784   2.208   6.226
 1052SOL     OW 4054   4.401   2.584   6.234
 1052SOL    HW1 4055   4.498   2.561   6.236
 1052SOL    HW2 4056   4.347   2.503   6.256
 1053SOL     OW 4057   4.615   2.639   4.910
 1053SOL    HW1 4058   4.613   2.668   5.006
 1053SOL    HW2 4059   4.561   2.556   4.899
 1054SOL     OW 4060   5.375   5.407   6.753
 1054SOL    HW1 4061   5.398   5.319   6.795
 1054SOL    HW2 4062   5.352   5.473   6.825
 1055SOL     OW 4063   5.410   5.687   6.244
 1055SOL    HW1 4064   5.408   5.667   6.146
 1055SOL    HW2 4065   5.489   5.642   6.285
 1056SOL     OW 4066   3.452   3.248   0.050
 1056SOL    HW1 4067   3.489   3.339   0.070
 1056SOL    HW2 4068   3.386   3.224   0.121
 1057SOL     OW 4069   2.902   3.749   6.649
 1057SOL    HW1 4070   2.989   3.775   6.607
 1057SOL    HW2 4071   2.863   3.672   6.599
 1058SOL     OW 4072   2.986   1.847   1.916
 1058SOL    HW1 4073   2.952   1.847   1.822
 1058SOL    HW2 4074   2.962   1.934   1.960
 1059SOL     OW 4075   2.072   6.421   2.802
 1059SOL    HW1 4076   2.131   6.465   2.735
 1059SOL    HW2 4077   2.110   6.331   2.826
 1060SOL     OW 4078   6.388   6.762   4.968
 1060SOL    HW1 4079   6.417   6.825   5.041
 1060SOL    HW2 4080   6.447   6.682   4.968
 1061SOL     OW 4081   0.279   4.058   6.290
 1061SOL    HW1 4082   0.217   4.085   6.216
 1061SOL    HW2 4083   0.302   3.961   6.281
 1062SOL     OW 4084   4.005   4.934   5.771
 1062SOL    HW1 4085   3.920   4.987   5.778
 1062SOL    HW2 4086   4.035   4.931   5.676
 1063SOL     OW 4087   3.154   5.935   3.616
 1063SOL    HW1 4088   3.067   5.962   3.656
 1063SOL    HW2 4089   3.140   5.863   3.549
 1064SOL     OW 4090   0.995   4.024   0.119
 1064SOL    HW1 4091   1.024   4.058   0.209
 1064SOL    HW2 4092   0.980   4.102   0.058
 1065SOL     OW 4093   5.822   1.222   5.685
 1065SOL    HW1 4094   5.797   1.276   5.765
 1065SOL    HW2 4095   5.760   1.243   5.609
 1066SOL     OW 4096   4.648   6.338   1.125
 1066SOL    HW1 4097   4.741   6.367   1.148
 1066SOL    HW2 4098   4.597   6.319   1.209
 1067SOL     OW 4099   4.035   1.121   0.762
 1067SOL    HW1 4100   4.040   1.139   0.664
 1067SOL    HW2 4101   4.039   1.207   0.813
 1068SOL     OW 4102   6.087   2.498   2.619
 1068SOL    HW1 4103   6.105   2.415   2.671
 1068SOL    HW2 4104   6.085   2.577   2.681
 1069SOL     OW 4105   0.577   1.333   2.961
 1069SOL    HW1 4106   0.628   1.363   3.042
 1069SOL    HW2 4107   0.546   1.239   2.974
 1070SOL     OW 4108   1.240   0.408   1.947
 1070SOL    HW1 4109   1.264   0.500   1.975
 1070SOL    HW2 4110   1.243   0.346   2.026
 1071SOL     OW 4111   1.248   3.072   5.641
 1071SOL    HW1 4112   1.219   3.145   5.703
 1071SOL    HW2 4113   1.169   3.040   5.588
 1072SOL     OW 4114   2.180   1.447   1.630
 1072SOL    HW1 4115   2.236   1.379   1.677
 1072SOL    HW2 4116   2.236   1.526   1.605
 1073SOL     OW 4117   5.251   1.861   2.723
 1073SOL    HW1 4118   5.238   1.768   2.758
 1073SOL    HW2 4119   5.302   1.857   2.637
 1074SOL     OW 4120   3.294   6.226   1.544
 1074SOL    HW1 4121   3.323   6.303   1.602
 1074SOL    HW2 4122   3.373   6.170   1.521
 1075SOL     OW 4123   6.839   3.991   4.676
 1075SOL    HW1 4124   6.902   4.003   4.752
 1075SOL    HW2 4125   6.747   3.972   4.711
 1076SOL     OW 4126   2.584   4.622   5.608
 1076SOL    HW1 4127   2.491   4.620   5.573
 1076SOL    HW2 4128   2.643   4.564   5.551
 1077SOL     OW 4129   6.552   6.777   0.631
 1077SOL    HW1 4130   6.477   6.711   0.627
 1077SOL    HW2 4131   6.596   6.772   0.721
 1078SOL     OW 4132   5.924   6.933   3.734
 1078SOL    HW1 4133   5.850   6.925   3.668
 1078SOL    HW2 4134   5.919   6.859   3.801
 1079SOL     OW 4135   1.063   5.230   1.184
 1079SOL    HW1 4136   0.981   5.225   1.127
 1079SOL    HW2 4137   1.039   5.268   1.273
 1080SOL     OW 4138   5.034   6.368   0.413
 1080SOL    HW1 4139   4.992   6.297   0.356
 1080SOL    HW2 4140   5.068   6.441   0.353
 1081SOL     OW 4141   6.718   6.988   3.352
 1081SOL    HW1 4142   6.653   6.958   3.283
 1081SOL    HW2 4143   6.794   6.923   3.359
 1082SOL     OW 4144   4.644   6.509   7.007
 1082SOL    HW1 4145   4.563   6.465   0.026
 1082SOL    HW2 4146   4.618   6.596   6.966
 1083SOL     OW 4147   6.497   3.882   2.337
 1083SOL    HW1 4148   6.412   3.828   2.341
 1083SOL    HW2 4149   6.554   3.847   2.263
 1084SOL     OW 4150   4.169   0.023   5.238
 1084SOL    HW1 4151   4.257   0.071   5.231
 1084SOL    HW2 4152   4.095   0.089   5.234
 1085SOL     OW 4153   2.195   3.184   4.427
 1085SOL    HW1 4154   2.218   3.265   4.481
 1085SOL    HW2 4155   2.133   3.210   4.353
 1086SOL     OW 4156   4.946   4.342   2.793
 1086SOL    HW1 4157   4.917   4.255   2.752
 1086SOL    HW2 4158   5.046   4.347   2.792
 1087SOL     OW 4159   3.314   0.328   5.663
 1087SOL    HW1 4160   3.354   0.359   5.576
 1087SOL    HW2 4161   3.372   0.256   5.701
 1088SOL     OW 4162   6.211   5.653   4.483
 1088SOL    HW1 4163   6.128   5.697   4.447
 1088SOL    HW2 4164   6.280   5.649   4.411
 1089SOL     OW 4165   6.217   4.821   4.709
 1089SOL    HW1 4166   6.176   4.814   4.619
 1089SOL    HW2 4167   6.159   4.774   4.776
 1090SOL     OW 4168   6.069   2.884   4.771
 1090SOL    HW1 4169   6.114   2.942   4.839
 1090SOL    HW2 4170   5.971   2.901   4.773
 1091SOL     OW 4171   2.011   3.334   3.679
 1091SOL    HW1 4172   1.925   3.344   3.630
 1091SOL    HW2 4173   2.058   3.252   3.645
 1092SOL     OW 4174   0.865   5.894   0.249
 1092SOL    HW1 4175   0.817   5.871   0.164
 1092SOL    HW2 4176   0.935   5.825   0.266
 1093SOL     OW 4177   1.812   0.212   2.973
 1093SOL    HW1 4178   1.895   0.232   3.025
 1093SOL    HW2 4179   1.811   0.265   2.889
 1094SOL     OW 4180   0.422   0.174   3.654
 1094SOL    HW1 4181   0.459   0.253   3.605
 1094SOL    HW2 4182   0.341   0.201   3.705
 1095SOL     OW 4183   6.688   5.012   0.952
 1095SOL    HW1 4184   6.597   5.055   0.948
 1095SOL    HW2 4185   6.725   5.020   1.044
 1096SOL     OW 4186   1.908   6.064   2.043
 1096SOL    HW1 4187   1.926   6.076   2.141
 1096SOL    HW2 4188   1.988   6.093   1.991
 1097SOL     OW 4189   3.349   5.220   4.619
 1097SOL    HW1 4190   3.361   5.292   4.688
 1097SOL    HW2 4191   3.256   5.185   4.624
 1098SOL     OW 4192   0.235   4.038   0.432
 1098SOL    HW1 4193   0.149   4.075   0.468
 1098SOL    HW2 4194   0.262   4.089   0.351
 1099SOL     OW 4195   5.597   6.968   6.826
 1099SOL    HW1 4196   5.547   0.035   6.829
 1099SOL    HW2 4197   5.673   6.976   6.761
 1100SOL     OW 4198   4.900   0.677   4.027
 1100SOL    HW1 4199   4.914   0.660   3.930
 1100SOL    HW2 4200   4.871   0.772   4.040
 1101SOL     OW 4201   5.015   2.642   0.077
 1101SOL    HW1 4202   5.047   2.605   0.164
 1101SOL    HW2 4203   4.954   2.720   0.094
 1102SOL     OW 4204   4.136   1.202   4.725
 1102SOL    HW1 4205   4.226   1.242   4.706
 1102SOL    HW2 4206   4.146   1.102   4.733
 1103SOL     OW 4207   3.074   6.213   0.437
 1103SOL    HW1 4208   3.157   6.176   0.479
 1103SOL    HW2 4209   3.053   6.161   0.354
 1104SOL     OW 4210   6.289   1.294   3.849
 1104SOL    HW1 4211   6.249   1.240   3.775
 1104SOL    HW2 4212   6.371   1.248   3.884
 1105SOL     OW 4213   4.693   0.226   5.489
 1105SOL    HW1 4214   4.750   0.240   5.408
 1105SOL    HW2 4215   4.666   0.129   5.493
 1106SOL     OW 4216   6.421   1.428   2.223
 1106SOL    HW1 4217   6.363   1.370   2.280
 1106SOL    HW2 4218   6.517   1.405   2.238
 1107SOL     OW 4219   1.398   2.376   6.811
 1107SOL    HW1 4220   1.386   2.326   6.725
 1107SOL    HW2 4221   1.459   2.454   6.795
 1108SOL     OW 4222   2.652   1.538   2.196
 1108SOL    HW1 4223   2.685   1.620   2.243
 1108SOL    HW2 4224   2.610   1.564   2.109
 1109SOL     OW 4225   5.033   1.578   5.422
 1109SOL    HW1 4226   5.119   1.595   5.470
 1109SOL    HW2 4227   5.018   1.480   5.414
 1110SOL     OW 4228   1.649   0.415   1.911
 1110SOL    HW1 4229   1.712   0.372   1.975
 1110SOL    HW2 4230   1.600   0.489   1.957
 1111SOL     OW 4231   4.818   3.671   6.151
 1111SOL    HW1 4232   4.768   3.599   6.104
 1111SOL    HW2 4233   4.913   3.672   6.120
 1112SOL     OW 4234   5.870   0.528   2.770
 1112SOL    HW1 4235   5.925   0.464   2.717
 1112SOL    HW2 4236   5.889   0.516   2.867
 1113SOL     OW 4237   0.778   1.392   2.787
 1113SOL    HW1 4238   0.726   1.376   2.871
 1113SOL    HW2 4239   0.760   1.318   2.723
 1114SOL     OW 4240   3.684   3.215   4.348
 1114SOL    HW1 4241   3.749   3.140   4.361
 1114SOL    HW2 4242   3.735   3.301   4.339
 1115SOL     OW 4243   1.963   5.624   6.085
 1115SOL    HW1 4244   1.953   5.524   6.091
 1115SOL    HW2 4245   2.006   5.658   6.169
 1116SOL     OW 4246   4.570   6.951   0.297
 1116SOL    HW1 4247   4.569   6.986   0.203
 1116SOL    HW2 4248   4.625   6.867   0.300
 1117SOL     OW 4249   2.132   2.497   1.667
 1117SOL    HW1 4250   2.230   2.486   1.680
 1117SOL    HW2 4251   2.086   2.411   1.686
 1118SOL     OW 4252   4.376   6.825   0.049
 1118SOL    HW1 4253   4.386   6.925   0.052
 1118SOL    HW2 4254   4.443   6.788   7.005
 1119SOL     OW 4255   3.136   6.152   3.858
 1119SOL    HW1 4256   3.084   6.082   3.809
 1119SOL    HW2 4257   3.148   6.123   3.953
 1120SOL     OW 4258   0.662   3.520   1.700
 1120SOL    HW1 4259   0.734   3.506   1.633
 1120SOL    HW2 4260   0.691   3.484   1.789
 1121SOL     OW 4261   5.659   4.429   5.983
 1121SOL    HW1 4262   5.577   4.373   5.992
 1121SOL    HW2 4263   5.686   4.464   6.073
 1122SOL     OW 4264   6.153   0.738   2.404
 1122SOL    HW1 4265   6.180   0.643   2.386
 1122SOL    HW2 4266   6.111   0.744   2.495
 1123SOL     OW 4267   3.477   2.070   4.942
 1123SOL    HW1 4268   3.440   2.106   5.027
 1123SOL    HW2 4269   3.510   2.145   4.885
 1124SOL     OW 4270   2.703   2.395   3.651
 1124SOL    HW1 4271   2.801   2.385   3.669
 1124SOL    HW2 4272   2.651   2.364   3.730
 1125SOL     OW 4273   1.262   3.135   3.746
 1125SOL    HW1 4274   1.338   3.090   3.794
 1125SOL    HW2 4275   1.285   3.146   3.649
 1126SOL     OW 4276   4.755   4.709   3.530
 1126SOL    HW1 4277   4.735   4.651   3.609
 1126SOL    HW2 4278   4.713   4.799   3.543
 1127SOL     OW 4279   5.378   0.171   0.760
 1127SOL    HW1 4280   5.371   0.253   0.702
 1127SOL    HW2 4281   5.403   0.093   0.704
 1128SOL     OW 4282   3.070   1.630   4.760
 1128SOL    HW1 4283   3.028   1.671   4.679
 1128SOL    HW2 4284   3.115   1.544   4.735
 1129SOL     OW 4285   1.270   0.517   0.188
 1129SOL    HW1 4286   1.265   0.581   0.112
 1129SOL    HW2 4287   1.220   0.554   0.266
 1130SOL     OW 4288   2.225   5.556   0.761
 1130SOL    HW1 4289   2.242   5.515   0.850
 1130SOL    HW2 4290   2.311   5.584   0.719
 1131SOL     OW 4291   1.477   5.605   3.584
 1131SOL    HW1 4292   1.514   5.697   3.567
 1131SOL    HW2 4293   1.524   5.564   3.662
 1132SOL     OW 4294   1.320   2.559   3.204
 1132SOL    HW1 4295   1.337   2.657   3.192
 1132SOL    HW2 4296   1.408   2.511   3.212
 1133SOL     OW 4297   1.252   6.045   6.957
 1133SOL    HW1 4298   1.192   6.048   0.018
 1133SOL    HW2 4299   1.337   6.095   6.977
 1134SOL     OW 4300   4.132   5.450   0.910
 1134SOL    HW1 4301   4.154   5.461   1.006
 1134SOL    HW2 4302   4.107   5.538   0.870
 1135SOL     OW 4303   2.095   6.551   3.033
 1135SOL    HW1 4304   2.160   6.502   3.091
 1135SOL    HW2 4305   2.075   6.496   2.952
 1136SOL     OW 4306   1.805   5.095   3.011
 1136SOL    HW1 4307   1.886   5.041   2.987
 1136SOL    HW2 4308   1.833   5.174   3.066
 1137SOL     OW 4309   1.186   5.015   4.216
 1137SOL    HW1 4310   1.100   4.980   4.254
 1137SOL    HW2 4311   1.203   5.107   4.251
 1138SOL     OW 4312   2.553   4.599   4.265
 1138SOL    HW1 4313   2.578   4.578   4.170
 1138SOL    HW2 4314   2.592   4.688   4.290
 1139SOL     OW 4315   3.577   5.807   4.776
 1139SOL    HW1 4316   3.614   5.881   4.721
 1139SOL    HW2 4317   3.527   5.743   4.717
 1140SOL     OW 4318   2.058   3.025   1.031
 1140SOL    HW1 4319   1.976   3.080   1.049
 1140SOL    HW2 4320   2.117   3.026   1.112
 1141SOL     OW 4321   6.156   4.869   5.687
 1141SOL    HW1 4322   6.106   4.925   5.621
 1141SOL    HW2 4323   6.100   4.790   5.713
 1142SOL     OW 4324   0.642   6.157   2.844
 1142SOL    HW1 4325   0.669   6.106   2.762
 1142SOL    HW2 4326   0.718   6.216   2.872
 1143SOL     OW 4327   0.042   3.914   1.766
 1143SOL    HW1 4328   7.010   3.959   1.838
 1143SOL    HW2 4329   0.008   3.945   1.677
 1144SOL     OW 4330   5.496   4.811   6.936
 1144SOL    HW1 4331   5.464   4.804   6.842
 1144SOL    HW2 4332   5.443   4.750   6.995
 1145SOL     OW 4333   5.710   0.312   1.178
 1145SOL    HW1 4334   5.625   0.301   1.230
 1145SOL    HW2 4335   5.691   0.304   1.080
 1146SOL     OW 4336   1.589   0.428   1.368
 1146SOL    HW1 4337   1.577   0.527   1.375
 1146SOL    HW2 4338   1.643   0.396   1.445
 1147SOL     OW 4339   1.188   6.103   0.509
 1147SOL    HW1 4340   1.201   6.010   0.545
 1147SOL    HW2 4341   1.177   6.098   0.409
 1148SOL     OW 4342   3.865   5.737   1.743
 1148SOL    HW1 4343   3.782   5.782   1.709
 1148SOL    HW2 4344   3.842   5.684   1.824
 1149SOL     OW 4345   6.146   2.224   2.075
 1149SOL    HW1 4346   6.100   2.251   2.159
 1149SOL    HW2 4347   6.114   2.280   1.999
 1150SOL     OW 4348   1.050   1.583   1.212
 1150SOL    HW1 4349   0.957   1.565   1.180
 1150SOL    HW2 4350   1.076   1.676   1.188
 1151SOL     OW 4351   5.715   5.591   4.429
 1151SOL    HW1 4352   5.742   5.643   4.510
 1151SOL    HW2 4353   5.760   5.502   4.430
 1152SOL     OW 4354   3.188   6.278   5.674
 1152SOL    HW1 4355   3.169   6.299   5.770
 1152SOL    HW2 4356   3.280   6.239   5.665
 1153SOL     OW 4357   5.279   0.132   1.025
 1153SOL    HW1 4358   5.304   0.133   0.928
 1153SOL    HW2 4359   5.350   0.087   1.078
 1154SOL     OW 4360   1.837   3.199   1.129
 1154SOL    HW1 4361   1.746   3.212   1.167
 1154SOL    HW2 4362   1.882   3.288   1.120
 1155SOL     OW 4363   3.657   5.675   3.773
 1155SOL    HW1 4364   3.671   5.660   3.871
 1155SOL    HW2 4365   3.643   5.773   3.756
 1156SOL     OW 4366   2.823   0.425   1.400
 1156SOL    HW1 4367   2.841   0.523   1.392
 1156SOL    HW2 4368   2.868   0.376   1.326
 1157SOL     OW 4369   2.243   2.150   0.627
 1157SOL    HW1 4370   2.312   2.188   0.688
 1157SOL    HW2 4371   2.195   2.075   0.673
 1158SOL     OW 4372   5.307   4.762   4.021
 1158SOL    HW1 4373   5.287   4.846   4.070
 1158SOL    HW2 4374   5.406   4.754   4.008
 1159SOL     OW 4375   5.300   4.817   0.629
 1159SOL    HW1 4376   5.231   4.888   0.615
 1159SOL    HW2 4377   5.371   4.826   0.559
 1160SOL     OW 4378   4.226   2.195   1.163
 1160SOL    HW1 4379   4.298   2.148   1.215
 1160SOL    HW2 4380   4.153   2.223   1.226
 1161SOL     OW 4381   0.442   4.371   1.024
 1161SOL    HW1 4382   0.353   4.406   1.053
 1161SOL    HW2 4383   0.429   4.287   0.971
 1162SOL     OW 4384   2.223   3.026   4.800
 1162SOL    HW1 4385   2.293   3.011   4.730
 1162SOL    HW2 4386   2.255   2.990   4.888
 1163SOL     OW 4387   4.438   1.376   2.172
 1163SOL    HW1 4388   4.416   1.351   2.077
 1163SOL    HW2 4389   4.373   1.445   2.203
 1164SOL     OW 4390   3.910   2.056   6.197
 1164SOL    HW1 4391   4.004   2.057   6.163
 1164SOL    HW2 4392   3.900   2.125   6.269
 1165SOL     OW 4393   4.193   0.194   2.784
 1165SOL    HW1 4394   4.158   0.250   2.860
 1165SOL    HW2 4395   4.271   0.241   2.742
 1166SOL     OW 4396   3.922   3.740   6.957
 1166SOL    HW1 4397   3.988   3.756   6.884
 1166SOL    HW2 4398   3.901   3.826   7.003
 1167SOL     OW 4399   5.227   3.915   3.640
 1167SOL    HW1 4400   5.169   3.995   3.624
 1167SOL    HW2 4401   5.220   3.852   3.562
 1168SOL     OW 4402   0.067   6.974   0.408
 1168SOL    HW1 4403   0.092   0.018   0.481
 1168SOL    HW2 4404   7.004   6.924   0.435
 1169SOL     OW 4405   4.935   1.843   5.525
 1169SOL    HW1 4406   4.955   1.932   5.485
 1169SOL    HW2 4407   4.944   1.772   5.454
 1170SOL     OW 4408   5.153   4.172   3.010
 1170SOL    HW1 4409   5.057   4.145   3.006
 1170SOL    HW2 4410   5.206   4.101   3.056
 1171SOL     OW 4411   6.863   6.051   0.820
 1171SOL    HW1 4412   6.927   6.127   0.813
 1171SOL    HW2 4413   6.907   5.975   0.869
 1172SOL     OW 4414   5.647   2.758   6.762
 1172SOL    HW1 4415   5.740   2.753   6.800
 1172SOL    HW2 4416   5.581   2.745   6.835
 1173SOL     OW 4417   4.695   3.015   1.506
 1173SOL    HW1 4418   4.771   3.013   1.571
 1173SOL    HW2 4419   4.617   2.966   1.544
 1174SOL     OW 4420   2.660   5.359   6.948
 1174SOL    HW1 4421   2.656   5.391   6.853
 1174SOL    HW2 4422   2.635   5.433   7.010
 1175SOL     OW 4423   2.980   3.804   4.123
 1175SOL    HW1 4424   2.959   3.882   4.064
 1175SOL    HW2 4425   3.051   3.748   4.081
 1176SOL     OW 4426   5.601   3.575   0.031
 1176SOL    HW1 4427   5.608   3.476   0.045
 1176SOL    HW2 4428   5.508   3.598   0.003
 1177SOL     OW 4429   1.201   0.609   4.421
 1177SOL    HW1 4430   1.159   0.518   4.422
 1177SOL    HW2 4431   1.140   0.675   4.465
 1178SOL     OW 4432   4.033   6.582   6.598
 1178SOL    HW1 4433   3.979   6.595   6.514
 1178SOL    HW2 4434   4.124   6.550   6.573
 1179SOL     OW 4435   0.173   5.966   1.168
 1179SOL    HW1 4436   0.254   6.023   1.182
 1179SOL    HW2 4437   0.195   5.870   1.186
 1180SOL     OW 4438   3.741   6.523   0.667
 1180SOL    HW1 4439   3.732   6.549   0.763
 1180SOL    HW2 4440   3.838   6.505   0.646
 1181SOL     OW 4441   6.201   6.258   6.088
 1181SOL    HW1 4442   6.185   6.349   6.126
 1181SOL    HW2 4443   6.285   6.259   6.034
 1182SOL     OW 4444   5.136   3.692   4.253
 1182SOL    HW1 4445   5.060   3.628   4.267
 1182SOL    HW2 4446   5.102   3.775   4.209
 1183SOL     OW 4447   1.349   4.175   0.230
 1183SOL    HW1 4448   1.400   4.234   0.166
 1183SOL    HW2 4449   1.394   4.177   0.319
 1184SOL     OW 4450   0.444   1.618   4.900
 1184SOL    HW1 4451   0.526   1.591   4.950
 1184SOL    HW2 4452   0.383   1.670   4.960
 1185SOL     OW 4453   6.818   1.797   6.599
 1185SOL    HW1 4454   6.755   1.871   6.623
 1185SOL    HW2 4455   6.821   1.787   6.500
 1186SOL     OW 4456   4.702   6.445   3.720
 1186SOL    HW1 4457   4.660   6.512   3.782
 1186SOL    HW2 4458   4.800   6.460   3.716
 1187SOL     OW 4459   6.012   1.986   6.792
 1187SOL    HW1 4460   5.927   1.977   6.741
 1187SOL    HW2 4461   6.059   2.070   6.764
 1188SOL     OW 4462   4.395   1.897   6.114
 1188SOL    HW1 4463   4.405   1.799   6.095
 1188SOL    HW2 4464   4.433   1.917   6.204
 1189SOL     OW 4465   6.046   3.872   3.724
 1189SOL    HW1 4466   5.948   3.883   3.736
 1189SOL    HW2 4467   6.091   3.961   3.735
 1190SOL     OW 4468   2.266   1.160   3.792
 1190SOL    HW1 4469   2.179   1.204   3.769
 1190SOL    HW2 4470   2.313   1.215   3.861
 1191SOL     OW 4471   3.343   0.446   2.646
 1191SOL    HW1 4472   3.287   0.392   2.709
 1191SOL    HW2 4473   3.414   0.388   2.607
 1192SOL     OW 4474   5.865   5.403   4.270
 1192SOL    HW1 4475   5.940   5.449   4.222
 1192SOL    HW2 4476   5.820   5.339   4.208
 1193SOL     OW 4477   6.590   6.087   4.195
 1193SOL    HW1 4478   6.650   6.159   4.160
 1193SOL    HW2 4479   6.496   6.104   4.165
 1194SOL     OW 4480   3.635   0.417   1.147
 1194SOL    HW1 4481   3.640   0.485   1.220
 1194SOL    HW2 4482   3.726   0.378   1.132
 1195SOL     OW 4483   5.282   3.228   3.006
 1195SOL    HW1 4484   5.236   3.197   2.923
 1195SOL    HW2 4485   5.279   3.328   3.010
 1196SOL     OW 4486   6.979   6.367   5.191
 1196SOL    HW1 4487   0.042   6.374   5.136
 1196SOL    HW2 4488   6.956   6.457   5.229
 1197SOL     OW 4489   2.858   6.511   6.454
 1197SOL    HW1 4490   2.930   6.556   6.508
 1197SOL    HW2 4491   2.803   6.454   6.514
 1198SOL     OW 4492   1.248   2.627   0.612
 1198SOL    HW1 4493   1.241   2.664   0.520
 1198SOL    HW2 4494   1.169   2.657   0.666
 1199SOL     OW 4495   5.594   4.547   3.002
 1199SOL    HW1 4496   5.520   4.611   2.985
 1199SOL    HW2 4497   5.568   4.483   3.074
 1200SOL     OW 4498   3.232   3.949   1.967
 1200SOL    HW1 4499   3.198   3.863   2.003
 1200SOL    HW2 4500   3.155   4.007   1.941
 1201SOL     OW 4501   1.427   2.438   5.203
 1201SOL    HW1 4502   1.458   2.525   5.163
 1201SOL    HW2 4503   1.336   2.450   5.242
 1202SOL     OW 4504   0.736   6.497   4.845
 1202SOL    HW1 4505   0.702   6.444   4.767
 1202SOL    HW2 4506   0.780   6.435   4.910
 1203SOL     OW 4507   4.387   5.464   5.035
 1203SOL    HW1 4508   4.481   5.432   5.050
 1203SOL    HW2 4509   4.387   5.564   5.031
 1204SOL     OW 4510   2.116   0.609   2.672
 1204SOL    HW1 4511   2.171   0.526   2.661
 1204SOL    HW2 4512   2.088   0.618   2.767
 1205SOL     OW 4513   6.114   3.472   2.472
 1205SOL    HW1 4514   6.032   3.523   2.498
 1205SOL    HW2 4515   6.105   3.439   2.378
 1206SOL     OW 4516   3.147   3.028   4.107
 1206SOL    HW1 4517   3.126   3.026   4.205
 1206SOL    HW2 4518   3.224   2.968   4.088
 1207SOL     OW 4519   1.244   5.966   3.547
 1207SOL    HW1 4520   1.218   6.037   3.612
 1207SOL    HW2 4521   1.289   6.008   3.468
 1208SOL     OW 4522   3.606   2.334   6.603
 1208SOL    HW1 4523   3.592   2.351   6.506
 1208SOL    HW2 4524   3.589   2.237   6.623
 1209SOL     OW 4525   4.222   6.790   5.134
 1209SOL    HW1 4526   4.265   6.838   5.057
 1209SOL    HW2 4527   4.161   6.853   5.182
 1210SOL     OW 4528   2.400   0.955   3.319
 1210SOL    HW1 4529   2.433   1.047   3.295
 1210SOL    HW2 4530   2.339   0.961   3.398
 1211SOL     OW 4531   0.938   2.926   0.866
 1211SOL    HW1 4532   0.932   3.020   0.832
 1211SOL    HW2 4533   0.973   2.927   0.960
 1212SOL     OW 4534   0.668   6.637   0.400
 1212SOL    HW1 4535   0.672   6.540   0.375
 1212SOL    HW2 4536   0.760   6.676   0.393
 1213SOL     OW 4537   6.298   2.771   2.533
 1213SOL    HW1 4538   6.380   2.828   2.525
 1213SOL    HW2 4539   6.265   2.772   2.627
 1214SOL     OW 4540   0.912   2.679   2.319
 1214SOL    HW1 4541   0.930   2.720   2.230
 1214SOL    HW2 4542   0.833   2.724   2.361
 1215SOL     OW 4543   2.308   5.509   2.946
 1215SOL    HW1 4544   2.328   5.580   3.013
 1215SOL    HW2 4545   2.283   5.552   2.859
 1216SOL     OW 4546   3.934   6.912   1.981
 1216SOL    HW1 4547   4.004   6.883   1.915
 1216SOL    HW2 4548   3.870   6.975   1.936
 1217SOL     OW 4549   2.788   4.134   0.019
 1217SOL    HW1 4550   2.717   4.160   0.084
 1217SOL    HW2 4551   2.783   4.194   6.959
 1218SOL     OW 4552   2.724   5.205   4.287
 1218SOL    HW1 4553   2.689   5.118   4.253
 1218SOL    HW2 4554   2.699   5.278   4.224
 1219SOL     OW 4555   3.338   5.386   1.765
 1219SOL    HW1 4556   3.247   5.382   1.724
 1219SOL    HW2 4557   3.362   5.296   1.801
 1220SOL     OW 4558   0.798   5.136   1.948
 1220SOL    HW1 4559   0.894   5.124   1.923
 1220SOL    HW2 4560   0.771   5.066   2.014
 1221SOL     OW 4561   4.649   4.341   6.763
 1221SOL    HW1 4562   4.718   4.297   6.707
 1221SOL    HW2 4563   4.673   4.437   6.777
 1222SOL     OW 4564   6.812   1.375   6.615
 1222SOL    HW1 4565   6.891   1.334   6.570
 1222SOL    HW2 4566   6.780   1.314   6.687
 1223SOL     OW 4567   4.365   5.797   1.101
 1223SOL    HW1 4568   4.381   5.749   1.187
 1223SOL    HW2 4569   4.328   5.733   1.034
 1224SOL     OW 4570   3.057   1.480   1.450
 1224SOL    HW1 4571   3.139   1.461   1.503
 1224SOL    HW2 4572   3.001   1.548   1.498
 1225SOL     OW 4573   3.820   4.606   5.856
 1225SOL    HW1 4574   3.728   4.569   5.867
 1225SOL    HW2 4575   3.831   4.640   5.763
 1226SOL     OW 4576   2.296   5.417   0.997
 1226SOL    HW1 4577   2.203   5.399   1.030
 1226SOL    HW2 4578   2.361   5.382   1.064
 1227SOL     OW 4579   1.334   4.425   5.614
 1227SOL    HW1 4580   1.370   4.358   5.548
 1227SOL    HW2 4581   1.348   4.517   5.577
 1228SOL     OW 4582   3.485   2.065   0.480
 1228SOL    HW1 4583   3.583   2.073   0.462
 1228SOL    HW2 4584   3.467   2.092   0.575
 1229SOL     OW 4585   2.757   3.865   0.003
 1229SOL    HW1 4586   2.727   3.817   0.085
 1229SOL    HW2 4587   2.797   3.953   0.029
 1230SOL     OW 4588   4.297   0.333   3.376
 1230SOL    HW1 4589   4.217   0.329   3.316
 1230SOL    HW2 4590   4.374   0.287   3.333
 1231SOL     OW 4591   0.600   3.250   3.293
 1231SOL    HW1 4592   0.518   3.213   3.251
 1231SOL    HW2 4593   0.681   3.207   3.251
 1232SOL     OW 4594   2.084   1.518   2.381
 1232SOL    HW1 4595   2.051   1.510   2.287
 1232SOL    HW2 4596   2.010   1.549   2.441
 1233SOL     OW 4597   1.059   2.399   4.412
 1233SOL    HW1 4598   1.154   2.420   4.391
 1233SOL    HW2 4599   1.033   2.443   4.498
 1234SOL     OW 4600   6.750   4.514   4.569
 1234SOL    HW1 4601   6.678   4.503   4.636
 1234SOL    HW2 4602   6.827   4.563   4.610
 1235SOL     OW 4603   0.137   4.874   3.488
 1235SOL    HW1 4604   0.118   4.965   3.452
 1235SOL    HW2 4605   0.098   4.805   3.426
 1236SOL     OW 4606   5.830   0.626   6.778
 1236SOL    HW1 4607   5.809   0.604   6.874
 1236SOL    HW2 4608   5.897   0.560   6.743
 1237SOL     OW 4609   2.237   4.106   6.584
 1237SOL    HW1 4610   2.269   4.156   6.504
 1237SOL    HW2 4611   2.263   4.156   6.667
 1238SOL     OW 4612   2.226   1.248   1.426
 1238SOL    HW1 4613   2.326   1.250   1.425
 1238SOL    HW2 4614   2.192   1.319   1.488
 1239SOL     OW 4615   0.885   0.593   5.476
 1239SOL    HW1 4616   0.978   0.564   5.494
 1239SOL    HW2 4617   0.856   0.560   5.386
 1240SOL     OW 4618   6.073   5.249   0.802
 1240SOL    HW1 4619   6.037   5.340   0.781
 1240SOL    HW2 4620   6.001   5.181   0.794
 1241SOL     OW 4621   0.735   1.826   4.492
 1241SOL    HW1 4622   0.667   1.784   4.433
 1241SOL    HW2 4623   0.691   1.893   4.552
 1242SOL     OW 4624   2.017   2.041   6.575
 1242SOL    HW1 4625   2.095   2.103   6.565
 1242SOL    HW2 4626   2.022   1.996   6.664
 1243SOL     OW 4627   3.385   5.145   5.200
 1243SOL    HW1 4628   3.287   5.135   5.216
 1243SOL    HW2 4629   3.435   5.120   5.283
 1244SOL     OW 4630   1.168   1.603   3.208
 1244SOL    HW1 4631   1.178   1.665   3.286
 1244SOL    HW2 4632   1.108   1.644   3.140
 1245SOL     OW 4633   3.578   2.886   4.963
 1245SOL    HW1 4634   3.498   2.940   4.989
 1245SOL    HW2 4635   3.572   2.865   4.865
 1246SOL     OW 4636   1.255   6.666   1.718
 1246SOL    HW1 4637   1.333   6.671   1.656
 1246SOL    HW2 4638   1.225   6.571   1.726
 1247SOL     OW 4639   0.675   6.433   6.549
 1247SOL    HW1 4640   0.592   6.385   6.521
 1247SOL    HW2 4641   0.719   6.473   6.469
 1248SOL     OW 4642   2.222   0.055   4.145
 1248SOL    HW1 4643   2.267   0.082   4.230
 1248SOL    HW2 4644   2.124   0.073   4.152
 1249SOL     OW 4645   6.321   2.991   3.445
 1249SOL    HW1 4646   6.239   2.983   3.501
 1249SOL    HW2 4647   6.345   2.902   3.409
 1250SOL     OW 4648   6.454   3.711   4.657
 1250SOL    HW1 4649   6.483   3.615   4.662
 1250SOL    HW2 4650   6.471   3.747   4.565
 1251SOL     OW 4651   3.108   0.962   0.002
 1251SOL    HW1 4652   3.149   0.989   6.935
 1251SOL    HW2 4653   3.076   1.042   0.051
 1252SOL     OW 4654   3.734   3.964   0.339
 1252SOL    HW1 4655   3.666   3.911   0.288
 1252SOL    HW2 4656   3.691   4.044   0.380
 1253SOL     OW 4657   5.098   1.807   3.165
 1253SOL    HW1 4658   5.135   1.715   3.150
 1253SOL    HW2 4659   5.062   1.842   3.078
 1254SOL     OW 4660   5.493   0.915   3.768
 1254SOL    HW1 4661   5.487   0.917   3.668
 1254SOL    HW2 4662   5.410   0.955   3.808
 1255SOL     OW 4663   5.753   0.462   1.414
 1255SOL    HW1 4664   5.774   0.412   1.329
 1255SOL    HW2 4665   5.707   0.547   1.392
 1256SOL     OW 4666   5.613   3.201   3.489
 1256SOL    HW1 4667   5.645   3.248   3.571
 1256SOL    HW2 4668   5.666   3.117   3.476
 1257SOL     OW 4669   6.134   1.757   4.520
 1257SOL    HW1 4670   6.155   1.855   4.529
 1257SOL    HW2 4671   6.038   1.746   4.497
 1258SOL     OW 4672   0.212   4.937   3.974
 1258SOL    HW1 4673   0.152   5.016   3.977
 1258SOL    HW2 4674   0.307   4.968   3.961
 1259SOL     OW 4675   5.715   2.445   4.829
 1259SOL    HW1 4676   5.771   2.520   4.794
 1259SOL    HW2 4677   5.671   2.474   4.914
 1260SOL     OW 4678   0.778   1.551   4.621
 1260SOL    HW1 4679   0.789   1.583   4.715
 1260SOL    HW2 4680   0.683   1.566   4.591
 1261SOL     OW 4681   6.898   2.890   1.418
 1261SOL    HW1 4682   6.884   2.986   1.396
 1261SOL    HW2 4683   6.817   2.838   1.392
 1262SOL     OW 4684   5.123   5.798   1.633
 1262SOL    HW1 4685   5.044   5.850   1.601
 1262SOL    HW2 4686   5.176   5.766   1.554
 1263SOL     OW 4687   1.123   2.232   2.703
 1263SOL    HW1 4688   1.216   2.259   2.678
 1263SOL    HW2 4689   1.124   2.140   2.743
 1264SOL     OW 4690   1.460   3.116   5.425
 1264SOL    HW1 4691   1.391   3.157   5.484
 1264SOL    HW2 4692   1.452   3.016   5.428
 1265SOL     OW 4693   6.551   0.922   6.326
 1265SOL    HW1 4694   6.613   0.887   6.256
 1265SOL    HW2 4695   6.549   1.022   6.321
 1266SOL     OW 4696   3.774   1.914   5.987
 1266SOL    HW1 4697   3.818   1.980   6.046
 1266SOL    HW2 4698   3.843   1.854   5.946
 1267SOL     OW 4699   3.310   1.151   2.347
 1267SOL    HW1 4700   3.368   1.098   2.285
 1267SOL    HW2 4701   3.220   1.108   2.354
 1268SOL     OW 4702   4.299   2.186   5.241
 1268SOL    HW1 4703   4.212   2.148   5.273
 1268SOL    HW2 4704   4.366   2.112   5.231
 1269SOL     OW 4705   5.465   2.283   3.429
 1269SOL    HW1 4706   5.553   2.307   3.470
 1269SOL    HW2 4707   5.475   2.279   3.330
 1270SOL     OW 4708   6.093   5.485   3.600
 1270SOL    HW1 4709   6.121   5.404   3.650
 1270SOL    HW2 4710   6.172   5.525   3.554
 1271SOL     OW 4711   1.296   0.032   1.947
 1271SOL    HW1 4712   1.268   6.971   1.999
 1271SOL    HW2 4713   1.234   0.045   1.870
 1272SOL     OW 4714   6.111   2.036   1.231
 1272SOL    HW1 4715   6.108   1.946   1.273
 1272SOL    HW2 4716   6.185   2.090   1.273
 1273SOL     OW 4717   2.088   4.310   5.266
 1273SOL    HW1 4718   2.031   4.310   5.348
 1273SOL    HW2 4719   2.154   4.235   5.270
 1274SOL     OW 4720   0.083   4.510   4.520
 1274SOL    HW1 4721   0.016   4.553   4.580
 1274SOL    HW2 4722   0.058   4.414   4.505
 1275SOL     OW 4723   1.974   1.373   2.739
 1275SOL    HW1 4724   2.073   1.387   2.735
 1275SOL    HW2 4725   1.935   1.427   2.813
 1276SOL     OW 4726   5.773   3.935   3.817
 1276SOL    HW1 4727   5.679   3.937   3.851
 1276SOL    HW2 4728   5.828   4.002   3.866
 1277SOL     OW 4729   1.295   6.262   6.254
 1277SOL    HW1 4730   1.369   6.215   6.206
 1277SOL    HW2 4731   1.208   6.244   6.208
 1278SOL     OW 4732   0.002   6.268   2.509
 1278SOL    HW1 4733   0.027   6.221   2.425
 1278SOL    HW2 4734   7.017   6.203   2.584
 1279SOL     OW 4735   3.211   2.736   0.710
 1279SOL    HW1 4736   3.125   2.733   0.658
 1279SOL    HW2 4737   3.193   2.770   0.802
 1280SOL     OW 4738   2.985   2.178   3.189
 1280SOL    HW1 4739   3.004   2.205   3.095
 1280SOL    HW2 4740   2.892   2.139   3.194
 1281SOL     OW 4741   5.773   5.754   5.710
 1281SOL    HW1 4742   5.824   5.706   5.781
 1281SOL    HW2 4743   5.690   5.703   5.688
 1282SOL     OW 4744   0.635   2.439   1.312
 1282SOL    HW1 4745   0.589   2.405   1.230
 1282SOL    HW2 4746   0.685   2.364   1.355
 1283SOL     OW 4747   1.432   0.437   4.821
 1283SOL    HW1 4748   1.442   0.341   4.793
 1283SOL    HW2 4749   1.477   0.450   4.910
 1284SOL     OW 4750   4.187   2.276   1.692
 1284SOL    HW1 4751   4.101   2.248   1.736
 1284SOL    HW2 4752   4.252   2.305   1.763
 1285SOL     OW 4753   3.887   1.539   4.356
 1285SOL    HW1 4754   3.839   1.605   4.414
 1285SOL    HW2 4755   3.975   1.577   4.328
 1286SOL     OW 4756   5.058   0.854   2.140
 1286SOL    HW1 4757   5.024   0.866   2.234
 1286SOL    HW2 4758   4.988   0.884   2.076
 1287SOL     OW 4759   5.897   4.895   6.836
 1287SOL    HW1 4760   5.875   4.974   6.779
 1287SOL    HW2 4761   5.841   4.896   6.919
 1288SOL     OW 4762   4.842   4.785   5.688
 1288SOL    HW1 4763   4.758   4.732   5.700
 1288SOL    HW2 4764   4.920   4.731   5.716
 1289SOL     OW 4765   1.375   6.699   1.129
 1289SOL    HW1 4766   1.445   6.771   1.128
 1289SOL    HW2 4767   1.284   6.741   1.126
 1290SOL     OW 4768   1.336   6.635   4.384
 1290SOL    HW1 4769   1.386   6.718   4.410
 1290SOL    HW2 4770   1.358   6.612   4.289
 1291SOL     OW 4771   5.016   6.096   3.670
 1291SOL    HW1 4772   4.927   6.090   3.716
 1291SOL    HW2 4773   5.004   6.075   3.573
 1292SOL     OW 4774   0.143   6.725   2.501
 1292SOL    HW1 4775   0.067   6.782   2.472
 1292SOL    HW2 4776   0.203   6.776   2.561
 1293SOL     OW 4777   4.678   6.891   1.258
 1293SOL    HW1 4778   4.633   6.807   1.288
 1293SOL    HW2 4779   4.769   6.869   1.222
 1294SOL     OW 4780   2.263   4.665   5.193
 1294SOL    HW1 4781   2.271   4.640   5.289
 1294SOL    HW2 4782   2.325   4.608   5.138
 1295SOL     OW 4783   0.247   4.509   0.464
 1295SOL    HW1 4784   0.290   4.512   0.374
 1295SOL    HW2 4785   0.295   4.443   0.522
 1296SOL     OW 4786   3.843   0.879   5.980
 1296SOL    HW1 4787   3.804   0.816   5.912
 1296SOL    HW2 4788   3.907   0.829   6.038
 1297SOL     OW 4789   5.832   6.587   0.042
 1297SOL    HW1 4790   5.830   6.592   0.141
 1297SOL    HW2 4791   5.744   6.552   0.008
 1298SOL     OW 4792   4.831   6.874   2.883
 1298SOL    HW1 4793   4.823   6.774   2.875
 1298SOL    HW2 4794   4.863   6.912   2.796
 1299SOL     OW 4795   1.196   5.009   4.871
 1299SOL    HW1 4796   1.188   4.964   4.782
 1299SOL    HW2 4797   1.236   4.945   4.937
 1300SOL     OW 4798   1.285   5.392   0.389
 1300SOL    HW1 4799   1.244   5.459   0.451
 1300SOL    HW2 4800   1.237   5.395   0.301
 1301SOL     OW 4801   6.284   1.964   6.702
 1301SOL    HW1 4802   6.335   1.880   6.718
 1301SOL    HW2 4803   6.186   1.946   6.709
 1302SOL     OW 4804   6.752   6.918   4.977
 1302SOL    HW1 4805   6.726   6.993   5.037
 1302SOL    HW2 4806   6.737   6.831   5.024
 1303SOL     OW 4807   2.476   6.260   1.478
 1303SOL    HW1 4808   2.407   6.317   1.522
 1303SOL    HW2 4809   2.493   6.294   1.386
 1304SOL     OW 4810   6.944   1.054   0.143
 1304SOL    HW1 4811   0.016   1.041   0.183
 1304SOL    HW2 4812   6.944   1.019   0.050
 1305SOL     OW 4813   3.456   4.222   6.185
 1305SOL    HW1 4814   3.544   4.186   6.213
 1305SOL    HW2 4815   3.462   4.259   6.092
 1306SOL     OW 4816   2.309   6.520   4.238
 1306SOL    HW1 4817   2.328   6.489   4.145
 1306SOL    HW2 4818   2.231   6.470   4.275
 1307SOL     OW 4819   2.135   3.676   3.188
 1307SOL    HW1 4820   2.091   3.721   3.266
 1307SOL    HW2 4821   2.130   3.736   3.108
 1308SOL     OW 4822   1.111   3.554   5.500
 1308SOL    HW1 4823   1.061   3.626   5.548
 1308SOL    HW2 4824   1.186   3.594   5.447
 1309SOL     OW 4825   5.971   3.876   0.088
 1309SOL    HW1 4826   5.889   3.831   0.121
 1309SOL    HW2 4827   5.998   3.837   7.019
 1310SOL     OW 4828   2.485   2.303   3.503
 1310SOL    HW1 4829   2.398   2.349   3.525
 1310SOL    HW2 4830   2.557   2.336   3.563
 1311SOL     OW 4831   6.385   5.378   6.982
 1311SOL    HW1 4832   6.348   5.405   0.051
 1311SOL    HW2 4833   6.387   5.458   6.921
 1312SOL     OW 4834   2.430   1.634   6.845
 1312SOL    HW1 4835   2.401   1.720   6.802
 1312SOL    HW2 4836   2.529   1.634   6.856
 1313SOL     OW 4837   4.894   5.111   3.046
 1313SOL    HW1 4838   4.824   5.060   2.997
 1313SOL    HW2 4839   4.937   5.053   3.115
 1314SOL     OW 4840   3.185   1.714   3.798
 1314SOL    HW1 4841   3.137   1.654   3.861
 1314SOL    HW2 4842   3.282   1.720   3.824
 1315SOL     OW 4843   5.431   0.424   3.598
 1315SOL    HW1 4844   5.354   0.386   3.649
 1315SOL    HW2 4845   5.458   0.511   3.639
 1316SOL     OW 4846   5.106   0.294   6.412
 1316SOL    HW1 4847   5.068   0.334   6.329
 1316SOL    HW2 4848   5.039   0.231   6.452
 1317SOL     OW 4849   3.936   3.053   4.036
 1317SOL    HW1 4850   3.867   3.116   4.000
 1317SOL    HW2 4851   3.995   3.102   4.099
 1318SOL     OW 4852   1.675   1.161   0.129
 1318SOL    HW1 4853   1.722   1.075   0.107
 1318SOL    HW2 4854   1.743   1.234   0.139
 1319SOL     OW 4855   6.591   1.720   0.156
 1319SOL    HW1 4856   6.525   1.706   0.230
 1319SOL    HW2 4857   6.675   1.759   0.193
 1320SOL     OW 4858   2.861   2.774   5.642
 1320SOL    HW1 4859   2.907   2.851   5.686
 1320SOL    HW2 4860   2.764   2.796   5.630
 1321SOL     OW 4861   0.146   2.283   1.654
 1321SOL    HW1 4862   0.138   2.382   1.642
 1321SOL    HW2 4863   0.224   2.249   1.602
 1322SOL     OW 4864   1.857   2.851   0.348
 1322SOL    HW1 4865   1.938   2.853   0.407
 1322SOL    HW2 4866   1.877   2.798   0.265
 1323SOL     OW 4867   4.492   0.832   1.271
 1323SOL    HW1 4868   4.476   0.928   1.293
 1323SOL    HW2 4869   4.590   0.815   1.268
 1324SOL     OW 4870   2.523   3.704   5.920
 1324SOL    HW1 4871   2.543   3.698   5.823
 1324SOL    HW2 4872   2.431   3.741   5.933
 1325SOL     OW 4873   4.464   5.147   4.357
 1325SOL    HW1 4874   4.422   5.114   4.273
 1325SOL    HW2 4875   4.412   5.114   4.436
 1326SOL     OW 4876   3.878   1.698   5.220
 1326SOL    HW1 4877   3.906   1.724   5.127
 1326SOL    HW2 4878   3.919   1.761   5.286
 1327SOL     OW 4879   4.620   5.576   1.860
 1327SOL    HW1 4880   4.540   5.614   1.814
 1327SOL    HW2 4881   4.693   5.561   1.793
 1328SOL     OW 4882   1.065   2.535   5.301
 1328SOL    HW1 4883   1.099   2.580   5.218
 1328SOL    HW2 4884   0.983   2.581   5.334
 1329SOL     OW 4885   1.570   2.647   4.507
 1329SOL    HW1 4886   1.581   2.616   4.601
 1329SOL    HW2 4887   1.625   2.591   4.446
 1330SOL     OW 4888   6.362   3.083   2.358
 1330SOL    HW1 4889   6.401   3.086   2.266
 1330SOL    HW2 4890   6.428   3.042   2.421
 1331SOL     OW 4891   3.988   1.765   2.968
 1331SOL    HW1 4892   4.066   1.739   2.911
 1331SOL    HW2 4893   3.925   1.688   2.976
 1332SOL     OW 4894   2.352   6.565   6.858
 1332SOL    HW1 4895   2.312   6.518   6.779
 1332SOL    HW2 4896   2.320   6.522   6.942
 1333SOL     OW 4897   3.384   3.491   2.537
 1333SOL    HW1 4898   3.428   3.561   2.482
 1333SOL    HW2 4899   3.300   3.460   2.492
 1334SOL     OW 4900   0.632   4.212   1.625
 1334SOL    HW1 4901   0.666   4.155   1.699
 1334SOL    HW2 4902   0.568   4.280   1.661
 1335SOL     OW 4903   7.014   3.461   3.234
 1335SOL    HW1 4904   7.019   3.373   3.187
 1335SOL    HW2 4905   0.059   3.461   3.311
 1336SOL     OW 4906   2.099   6.269   5.713
 1336SOL    HW1 4907   2.093   6.233   5.806
 1336SOL    HW2 4908   2.021   6.236   5.660
 1337SOL     OW 4909   6.758   6.948   1.411
 1337SOL    HW1 4910   6.796   0.002   1.466
 1337SOL    HW2 4911   6.728   6.874   1.471
 1338SOL     OW 4912   0.863   4.147   4.921
 1338SOL    HW1 4913   0.886   4.224   4.980
 1338SOL    HW2 4914   0.778   4.104   4.953
 1339SOL     OW 4915   5.330   1.294   6.682
 1339SOL    HW1 4916   5.375   1.315   6.595
 1339SOL    HW2 4917   5.376   1.218   6.726
 1340SOL     OW 4918   2.608   2.710   0.809
 1340SOL    HW1 4919   2.563   2.643   0.869
 1340SOL    HW2 4920   2.562   2.798   0.817
 1341SOL     OW 4921   6.177   5.992   6.912
 1341SOL    HW1 4922   6.124   6.068   6.874
 1341SOL    HW2 4923   6.137   5.964   6.999
 1342SOL     OW 4924   1.584   5.917   1.234
 1342SOL    HW1 4925   1.617   5.885   1.322
 1342SOL    HW2 4926   1.660   5.954   1.181
 1343SOL     OW 4927   5.203   5.873   2.778
 1343SOL    HW1 4928   5.137   5.847   2.849
 1343SOL    HW2 4929   5.186   5.968   2.751
 1344SOL     OW 4930   1.566   0.649   3.329
 1344SOL    HW1 4931   1.544   0.656   3.232
 1344SOL    HW2 4932   1.569   0.741   3.369
 1345SOL     OW 4933   0.785   6.555   5.195
 1345SOL    HW1 4934   0.694   6.566   5.236
 1345SOL    HW2 4935   0.852   6.605   5.249
 1346SOL     OW 4936   3.601   5.940   3.761
 1346SOL    HW1 4937   3.568   6.034   3.766
 1346SOL    HW2 4938   3.697   5.938   3.789
 1347SOL     OW 4939   0.180   0.889   6.016
 1347SOL    HW1 4940   0.105   0.955   6.019
 1347SOL    HW2 4941   0.178   0.833   6.099
 1348SOL     OW 4942   1.637   6.914   4.724
 1348SOL    HW1 4943   1.696   6.961   4.658
 1348SOL    HW2 4944   1.631   6.968   4.808
 1349SOL     OW 4945   4.888   3.777   4.082
 1349SOL    HW1 4946   4.981   3.816   4.086
 1349SOL    HW2 4947   4.894   3.678   4.068
 1350SOL     OW 4948   5.468   4.496   6.819
 1350SOL    HW1 4949   5.547   4.558   6.820
 1350SOL    HW2 4950   5.458   4.455   6.910
 1351SOL     OW 4951   6.710   3.741   0.062
 1351SOL    HW1 4952   6.640   3.808   0.086
 1351SOL    HW2 4953   6.798   3.769   0.099
 1352SOL     OW 4954   6.912   0.994   4.013
 1352SOL    HW1 4955   6.911   0.896   4.036
 1352SOL    HW2 4956   6.831   1.017   3.960
 1353SOL     OW 4957   6.663   3.350   6.188
 1353SOL    HW1 4958   6.664   3.255   6.157
 1353SOL    HW2 4959   6.641   3.353   6.286
 1354SOL     OW 4960   4.954   4.862   3.250
 1354SOL    HW1 4961   4.870   4.847   3.199
 1354SOL    HW2 4962   4.969   4.785   3.313
 1355SOL     OW 4963   3.671   3.674   3.944
 1355SOL    HW1 4964   3.729   3.603   3.984
 1355SOL    HW2 4965   3.685   3.677   3.845
 1356SOL     OW 4966   3.156   3.015   6.864
 1356SOL    HW1 4967   3.124   3.064   6.783
 1356SOL    HW2 4968   3.253   2.995   6.854
 1357SOL     OW 4969   0.262   3.378   4.933
 1357SOL    HW1 4970   0.321   3.329   4.868
 1357SOL    HW2 4971   0.319   3.418   5.005
 1358SOL     OW 4972   2.239   6.437   6.011
 1358SOL    HW1 4973   2.305   6.506   5.981
 1358SOL    HW2 4974   2.226   6.443   6.110
 1359SOL     OW 4975   6.045   5.037   0.090
 1359SOL    HW1 4976   6.031   4.948   0.047
 1359SOL    HW2 4977   5.964   5.094   0.075
 1360SOL     OW 4978   2.328   1.972   6.354
 1360SOL    HW1 4979   2.403   1.924   6.400
 1360SOL    HW2 4980   2.353   2.068   6.339
 1361SOL     OW 4981   5.849   5.007   4.837
 1361SOL    HW1 4982   5.816   5.086   4.785
 1361SOL    HW2 4983   5.789   4.928   4.820
 1362SOL     OW 4984   3.038   3.994   4.375
 1362SOL    HW1 4985   2.972   4.041   4.316
 1362SOL    HW2 4986   3.010   3.899   4.388
 1363SOL     OW 4987   6.866   6.563   3.571
 1363SOL    HW1 4988   6.898   6.652   3.539
 1363SOL    HW2 4989   6.940   6.496   3.561
 1364SOL     OW 4990   3.357   4.288   0.137
 1364SOL    HW1 4991   3.358   4.238   0.224
 1364SOL    HW2 4992   3.361   4.386   0.155
 1365SOL     OW 4993   5.340   2.235   5.790
 1365SOL    HW1 4994   5.434   2.262   5.769
 1365SOL    HW2 4995   5.341   2.156   5.852
 1366SOL     OW 4996   1.568   1.181   4.532
 1366SOL    HW1 4997   1.539   1.086   4.527
 1366SOL    HW2 4998   1.528   1.224   4.613
 1367SOL     OW 4999   2.549   1.297   1.889
 1367SOL    HW1 5000   2.623   1.292   1.821
 1367SOL    HW2 5001   2.530   1.392   1.911
 1368SOL     OW 5002   0.047   0.914   3.158
 1368SOL    HW1 5003   0.075   0.818   3.156
 1368SOL    HW2 5004   0.014   0.938   3.249
 1369SOL     OW 5005   0.428   6.879   2.712
 1369SOL    HW1 5006   0.451   6.930   2.796
 1369SOL    HW2 5007   0.512   6.855   2.664
 1370SOL     OW 5008   0.836   1.045   2.794
 1370SOL    HW1 5009   0.842   1.025   2.892
 1370SOL    HW2 5010   0.749   1.090   2.774
 1371SOL     OW 5011   1.744   0.055   5.133
 1371SOL    HW1 5012   1.819   0.012   5.082
 1371SOL    HW2 5013   1.734   0.009   5.221
 1372SOL     OW 5014   3.117   1.904   1.381
 1372SOL    HW1 5015   3.215   1.916   1.367
 1372SOL    HW2 5016   3.071   1.896   1.293
 1373SOL     OW 5017   1.276   5.581   6.402
 1373SOL    HW1 5018   1.359   5.604   6.352
 1373SOL    HW2 5019   1.297   5.515   6.474
 1374SOL     OW 5020   5.600   3.576   4.384
 1374SOL    HW1 5021   5.548   3.609   4.305
 1374SOL    HW2 5022   5.591   3.642   4.459
 1375SOL     OW 5023   0.921   4.497   3.719
 1375SOL    HW1 5024   0.852   4.513   3.648
 1375SOL    HW2 5025   0.918   4.572   3.786
 1376SOL     OW 5026   5.373   0.311   2.495
 1376SOL    HW1 5027   5.402   0.294   2.589
 1376SOL    HW2 5028   5.361   0.224   2.447
 1377SOL     OW 5029   0.214   4.113   5.438
 1377SOL    HW1 5030   0.188   4.174   5.363
 1377SOL    HW2 5031   0.302   4.070   5.417
 1378SOL     OW 5032   1.815   1.881   0.610
 1378SOL    HW1 5033   1.868   1.942   0.552
 1378SOL    HW2 5034   1.814   1.789   0.570
 1379SOL     OW 5035   4.376   5.086   1.616
 1379SOL    HW1 5036   4.305   5.132   1.563
 1379SOL    HW2 5037   4.395   5.138   1.699
 1380SOL     OW 5038   6.346   5.249   2.980
 1380SOL    HW1 5039   6.357   5.232   2.882
 1380SOL    HW2 5040   6.258   5.212   3.010
 1381SOL     OW 5041   3.824   6.900   2.424
 1381SOL    HW1 5042   3.898   6.896   2.492
 1381SOL    HW2 5043   3.788   6.808   2.408
 1382SOL     OW 5044   6.610   4.215   0.372
 1382SOL    HW1 5045   6.544   4.148   0.407
 1382SOL    HW2 5046   6.699   4.171   0.360
 1383SOL     OW 5047   3.746   7.016   0.694
 1383SOL    HW1 5048   3.790   6.945   0.750
 1383SOL    HW2 5049   3.756   6.992   0.598
 1384SOL     OW 5050   0.984   1.236   2.531
 1384SOL    HW1 5051   1.003   1.324   2.576
 1384SOL    HW2 5052   0.959   1.168   2.600
 1385SOL     OW 5053   4.957   3.455   4.560
 1385SOL    HW1 5054   4.950   3.450   4.659
 1385SOL    HW2 5055   4.906   3.379   4.519
 1386SOL     OW 5056   2.482   2.594   3.105
 1386SOL    HW1 5057   2.540   2.520   3.139
 1386SOL    HW2 5058   2.424   2.627   3.180
 1387SOL     OW 5059   3.692   0.890   4.567
 1387SOL    HW1 5060   3.675   0.982   4.601
 1387SOL    HW2 5061   3.696   0.892   4.467
 1388SOL     OW 5062   4.987   2.495   3.656
 1388SOL    HW1 5063   5.040   2.443   3.590
 1388SOL    HW2 5064   4.926   2.433   3.706
 1389SOL     OW 5065   6.987   1.176   4.796
 1389SOL    HW1 5066   6.917   1.138   4.856
 1389SOL    HW2 5067   6.992   1.275   4.808
 1390SOL     OW 5068   5.646   2.397   2.410
 1390SOL    HW1 5069   5.658   2.337   2.331
 1390SOL    HW2 5070   5.735   2.421   2.448
 1391SOL     OW 5071   5.960   1.034   5.377
 1391SOL    HW1 5072   5.928   0.941   5.359
 1391SOL    HW2 5073   5.882   1.093   5.400
 1392SOL     OW 5074   2.842   6.800   5.084
 1392SOL    HW1 5075   2.828   6.718   5.027
 1392SOL    HW2 5076   2.812   6.881   5.033
 1393SOL     OW 5077   4.545   6.746   6.877
 1393SOL    HW1 5078   4.505   6.726   6.787
 1393SOL    HW2 5079   4.622   6.809   6.865
 1394SOL     OW 5080   4.084   1.144   5.288
 1394SOL    HW1 5081   4.062   1.236   5.258
 1394SOL    HW2 5082   4.032   1.122   5.370
 1395SOL     OW 5083   0.921   4.964   2.391
 1395SOL    HW1 5084   1.010   4.947   2.433
 1395SOL    HW2 5085   0.862   5.012   2.456
 1396SOL     OW 5086   1.648   1.789   3.082
 1396SOL    HW1 5087   1.747   1.800   3.077
 1396SOL    HW2 5088   1.625   1.692   3.085
 1397SOL     OW 5089   2.338   5.323   5.629
 1397SOL    HW1 5090   2.396   5.304   5.550
 1397SOL    HW2 5091   2.280   5.244   5.647
 1398SOL     OW 5092   3.062   6.842   6.308
 1398SOL    HW1 5093   3.020   6.753   6.289
 1398SOL    HW2 5094   2.995   6.915   6.296
 1399SOL     OW 5095   3.735   0.122   0.178
 1399SOL    HW1 5096   3.795   0.043   0.171
 1399SOL    HW2 5097   3.641   0.092   0.191
 1400SOL     OW 5098   0.364   2.295   5.993
 1400SOL    HW1 5099   0.404   2.245   6.071
 1400SOL    HW2 5100   0.396   2.254   5.908
 1401SOL     OW 5101   4.351   6.710   2.968
 1401SOL    HW1 5102   4.280   6.779   2.978
 1401SOL    HW2 5103   4.411   6.735   2.892
 1402SOL     OW 5104   5.230   3.746   2.611
 1402SOL    HW1 5105   5.203   3.827   2.559
 1402SOL    HW2 5106   5.330   3.745   2.620
 1403SOL     OW 5107   2.881   2.711   6.592
 1403SOL    HW1 5108   2.970   2.680   6.559
 1403SOL    HW2 5109   2.814   2.638   6.580
 1404SOL     OW 5110   4.032   5.763   6.912
 1404SOL    HW1 5111   4.021   5.862   6.919
 1404SOL    HW2 5112   4.093   5.742   6.836
 1405SOL     OW 5113   0.988   4.985   6.920
 1405SOL    HW1 5114   1.081   5.001   6.955
 1405SOL    HW2 5115   0.983   5.010   6.824
 1406SOL     OW 5116   1.725   2.237   0.396
 1406SOL    HW1 5117   1.682   2.324   0.372
 1406SOL    HW2 5118   1.783   2.250   0.476
 1407SOL     OW 5119   6.426   2.949   1.447
 1407SOL    HW1 5120   6.458   2.931   1.540
 1407SOL    HW2 5121   6.356   2.882   1.422
 1408SOL     OW 5122   5.962   5.954   1.340
 1408SOL    HW1 5123   5.958   5.965   1.439
 1408SOL    HW2 5124   6.020   6.025   1.300
 1409SOL     OW 5125   5.635   2.294   5.825
 1409SOL    HW1 5126   5.652   2.202   5.788
 1409SOL    HW2 5127   5.678   2.302   5.915
 1410SOL     OW 5128   3.627   0.552   0.784
 1410SOL    HW1 5129   3.579   0.557   0.697
 1410SOL    HW2 5130   3.586   0.482   0.842
 1411SOL     OW 5131   3.219   0.039   0.119
 1411SOL    HW1 5132   3.134   0.089   0.134
 1411SOL    HW2 5133   3.262   0.073   0.035
 1412SOL     OW 5134   1.465   1.127   6.148
 1412SOL    HW1 5135   1.545   1.142   6.206
 1412SOL    HW2 5136   1.464   1.195   6.075
 1413SOL     OW 5137   1.802   1.596   4.698
 1413SOL    HW1 5138   1.771   1.512   4.742
 1413SOL    HW2 5139   1.880   1.575   4.639
 1414SOL     OW 5140   0.384   5.314   2.726
 1414SOL    HW1 5141   0.484   5.306   2.717
 1414SOL    HW2 5142   0.351   5.241   2.786
 1415SOL     OW 5143   3.236   1.756   5.267
 1415SOL    HW1 5144   3.273   1.747   5.360
 1415SOL    HW2 5145   3.278   1.688   5.208
 1416SOL     OW 5146   4.081   0.546   5.119
 1416SOL    HW1 5147   4.030   0.483   5.177
 1416SOL    HW2 5148   4.043   0.638   5.128
 1417SOL     OW 5149   3.756   3.701   4.260
 1417SOL    HW1 5150   3.704   3.712   4.344
 1417SOL    HW2 5151   3.730   3.773   4.195
 1418SOL     OW 5152   2.987   3.840   5.714
 1418SOL    HW1 5153   3.085   3.826   5.700
 1418SOL    HW2 5154   2.961   3.804   5.804
 1419SOL     OW 5155   0.275   5.351   1.679
 1419SOL    HW1 5156   0.182   5.326   1.702
 1419SOL    HW2 5157   0.339   5.294   1.730
 1420SOL     OW 5158   2.363   6.699   3.846
 1420SOL    HW1 5159   2.311   6.779   3.875
 1420SOL    HW2 5160   2.461   6.720   3.850
 1421SOL     OW 5161   1.577   4.870   1.308
 1421SOL    HW1 5162   1.505   4.804   1.289
 1421SOL    HW2 5163   1.597   4.923   1.226
 1422SOL     OW 5164   1.453   3.346   6.815
 1422SOL    HW1 5165   1.356   3.346   6.794
 1422SOL    HW2 5166   1.503   3.394   6.743
 1423SOL     OW 5167   4.815   0.909   5.104
 1423SOL    HW1 5168   4.774   0.932   5.193
 1423SOL    HW2 5169   4.904   0.955   5.096
 1424SOL     OW 5170   6.242   4.166   1.412
 1424SOL    HW1 5171   6.147   4.194   1.424
 1424SOL    HW2 5172   6.249   4.102   1.336
 1425SOL     OW 5173   5.760   0.197   2.863
 1425SOL    HW1 5174   5.835   0.250   2.822
 1425SOL    HW2 5175   5.690   0.259   2.898
 1426SOL     OW 5176   3.613   0.839   0.871
 1426SOL    HW1 5177   3.608   0.814   0.968
 1426SOL    HW2 5178   3.621   0.757   0.815
 1427SOL     OW 5179   1.212   0.347   3.604
 1427SOL    HW1 5180   1.148   0.424   3.592
 1427SOL    HW2 5181   1.299   0.370   3.560
 1428SOL     OW 5182   2.288   4.260   3.835
 1428SOL    HW1 5183   2.283   4.168   3.875
 1428SOL    HW2 5184   2.249   4.326   3.899
 1429SOL     OW 5185   5.651   0.718   1.002
 1429SOL    HW1 5186   5.745   0.686   1.010
 1429SOL    HW2 5187   5.650   0.815   0.975
 1430SOL     OW 5188   2.209   4.047   4.562
 1430SOL    HW1 5189   2.193   3.983   4.637
 1430SOL    HW2 5190   2.192   4.001   4.475
 1431SOL     OW 5191   3.599   1.735   0.678
 1431SOL    HW1 5192   3.513   1.758   0.633
 1431SOL    HW2 5193   3.666   1.706   0.610
 1432SOL     OW 5194   2.891   0.118   2.513
 1432SOL    HW1 5195   2.792   0.130   2.508
 1432SOL    HW2 5196   2.936   0.206   2.503
 1433SOL     OW 5197   3.778   1.840   3.604
 1433SOL    HW1 5198   3.740   1.824   3.513
 1433SOL    HW2 5199   3.728   1.914   3.648
 1434SOL     OW 5200   6.411   3.241   1.113
 1434SOL    HW1 5201   6.446   3.178   1.182
 1434SOL    HW2 5202   6.461   3.228   1.027
 1435SOL     OW 5203   6.691   5.959   3.877
 1435SOL    HW1 5204   6.696   6.056   3.852
 1435SOL    HW2 5205   6.601   5.940   3.916
 1436SOL     OW 5206   6.024   0.553   6.548
 1436SOL    HW1 5207   6.091   0.479   6.560
 1436SOL    HW2 5208   6.069   0.641   6.562
 1437SOL     OW 5209   3.867   0.802   0.576
 1437SOL    HW1 5210   3.930   0.788   0.652
 1437SOL    HW2 5211   3.909   0.768   0.491
 1438SOL     OW 5212   2.665   6.697   3.759
 1438SOL    HW1 5213   2.763   6.705   3.743
 1438SOL    HW2 5214   2.615   6.716   3.675
 1439SOL     OW 5215   6.821   5.482   4.423
 1439SOL    HW1 5216   6.790   5.522   4.337
 1439SOL    HW2 5217   6.742   5.453   4.477
 1440SOL     OW 5218   3.598   3.066   2.203
 1440SOL    HW1 5219   3.593   2.985   2.261
 1440SOL    HW2 5220   3.645   3.139   2.253
 1441SOL     OW 5221   0.113   2.273   6.615
 1441SOL    HW1 5222   0.153   2.181   6.616
 1441SOL    HW2 5223   0.175   2.336   6.569
 1442SOL     OW 5224   5.447   5.930   0.107
 1442SOL    HW1 5225   5.350   5.955   0.108
 1442SOL    HW2 5226   5.492   5.973   0.029
 1443SOL     OW 5227   2.254   2.936   4.532
 1443SOL    HW1 5228   2.255   3.029   4.496
 1443SOL    HW2 5229   2.186   2.882   4.482
 1444SOL     OW 5230   4.514   6.607   4.918
 1444SOL    HW1 5231   4.569   6.655   4.987
 1444SOL    HW2 5232   4.424   6.588   4.955
 1445SOL     OW 5233   6.692   2.782   6.634
 1445SOL    HW1 5234   6.645   2.870   6.640
 1445SOL    HW2 5235   6.755   2.772   6.710
 1446SOL     OW 5236   2.839   6.075   2.349
 1446SOL    HW1 5237   2.923   6.100   2.301
 1446SOL    HW2 5238   2.851   5.985   2.391
 1447SOL     OW 5239   6.496   0.972   4.790
 1447SOL    HW1 5240   6.398   0.988   4.805
 1447SOL    HW2 5241   6.509   0.885   4.744
 1448SOL     OW 5242   5.164   1.660   1.072
 1448SOL    HW1 5243   5.162   1.562   1.057
 1448SOL    HW2 5244   5.120   1.707   0.996
 1449SOL     OW 5245   4.838   5.854   7.000
 1449SOL    HW1 5246   4.887   5.881   6.917
 1449SOL    HW2 5247   4.739   5.862   6.984
 1450SOL     OW 5248   5.522   1.524   4.347
 1450SOL    HW1 5249   5.509   1.538   4.249
 1450SOL    HW2 5250   5.588   1.450   4.362
 1451SOL     OW 5251   0.025   6.536   2.338
 1451SOL    HW1 5252   0.028   6.449   2.388
 1451SOL    HW2 5253   0.078   6.605   2.387
 1452SOL     OW 5254   1.595   0.164   6.373
 1452SOL    HW1 5255   1.528   0.091   6.380
 1452SOL    HW2 5256   1.681   0.134   6.414
 1453SOL     OW 5257   6.140   4.502   3.948
 1453SOL    HW1 5258   6.235   4.484   3.970
 1453SOL    HW2 5259   6.132   4.535   3.854
 1454SOL     OW 5260   6.289   4.551   1.593
 1454SOL    HW1 5261   6.197   4.513   1.603
 1454SOL    HW2 5262   6.283   4.641   1.549
 1455SOL     OW 5263   2.092   1.598   1.881
 1455SOL    HW1 5264   2.169   1.567   1.825
 1455SOL    HW2 5265   2.018   1.629   1.821
 1456SOL     OW 5266   5.364   4.892   5.129
 1456SOL    HW1 5267   5.450   4.942   5.115
 1456SOL    HW2 5268   5.377   4.796   5.104
 1457SOL     OW 5269   2.296   1.843   4.714
 1457SOL    HW1 5270   2.248   1.834   4.626
 1457SOL    HW2 5271   2.369   1.911   4.705
 1458SOL     OW 5272   6.222   5.434   6.683
 1458SOL    HW1 5273   6.182   5.510   6.632
 1458SOL    HW2 5274   6.274   5.470   6.760
 1459SOL     OW 5275   3.578   6.708   1.216
 1459SOL    HW1 5276   3.657   6.757   1.254
 1459SOL    HW2 5277   3.494   6.751   1.248
 1460SOL     OW 5278   0.746   1.391   6.736
 1460SOL    HW1 5279   0.653   1.357   6.722
 1460SOL    HW2 5280   0.761   1.405   6.834
 1461SOL     OW 5281   5.021   3.916   2.388
 1461SOL    HW1 5282   4.949   3.927   2.320
 1461SOL    HW2 5283   5.095   3.861   2.350
 1462SOL     OW 5284   5.702   0.451   5.161
 1462SOL    HW1 5285   5.719   0.371   5.218
 1462SOL    HW2 5286   5.770   0.522   5.182
 1463SOL     OW 5287   0.597   2.815   5.612
 1463SOL    HW1 5288   0.591   2.715   5.604
 1463SOL    HW2 5289   0.531   2.857   5.551
 1464SOL     OW 5290   0.536   0.623   1.285
 1464SOL    HW1 5291   0.544   0.708   1.337
 1464SOL    HW2 5292   0.628   0.585   1.269
 1465SOL     OW 5293   2.064   0.858   3.749
 1465SOL    HW1 5294   2.090   0.883   3.842
 1465SOL    HW2 5295   1.984   0.798   3.752
 1466SOL     OW 5296   5.972   6.024   4.631
 1466SOL    HW1 5297   6.039   5.975   4.686
 1466SOL    HW2 5298   6.011   6.047   4.542
 1467SOL     OW 5299   0.868   4.436   4.229
 1467SOL    HW1 5300   0.880   4.488   4.314
 1467SOL    HW2 5301   0.845   4.341   4.251
 1468SOL     OW 5302   4.787   0.004   2.597
 1468SOL    HW1 5303   4.887   0.007   2.590
 1468SOL    HW2 5304   4.747   0.067   2.530
 1469SOL     OW 5305   6.607   0.125   2.269
 1469SOL    HW1 5306   6.674   0.053   2.253
 1469SOL    HW2 5307   6.653   0.207   2.304
 1470SOL     OW 5308   6.663   0.770   2.002
 1470SOL    HW1 5309   6.569   0.753   1.971
 1470SOL    HW2 5310   6.725   0.705   1.959
 1471SOL     OW 5311   6.591   1.154   1.005
 1471SOL    HW1 5312   6.624   1.153   1.099
 1471SOL    HW2 5313   6.600   1.247   0.968
 1472SOL     OW 5314   4.681   4.982   4.464
 1472SOL    HW1 5315   4.639   4.892   4.456
 1472SOL    HW2 5316   4.626   5.049   4.414
 1473SOL     OW 5317   0.802   3.499   3.952
 1473SOL    HW1 5318   0.706   3.477   3.969
 1473SOL    HW2 5319   0.845   3.425   3.900
 1474SOL     OW 5320   4.696   6.081   2.240
 1474SOL    HW1 5321   4.770   6.143   2.213
 1474SOL    HW2 5322   4.721   5.987   2.218
 1475SOL     OW 5323   6.898   6.839   2.900
 1475SOL    HW1 5324   6.852   6.793   2.825
 1475SOL    HW2 5325   6.959   6.909   2.863
 1476SOL     OW 5326   0.761   1.956   0.692
 1476SOL    HW1 5327   0.752   2.053   0.669
 1476SOL    HW2 5328   0.789   1.905   0.610
 1477SOL     OW 5329   2.607   6.468   4.229
 1477SOL    HW1 5330   2.669   6.513   4.294
 1477SOL    HW2 5331   2.513   6.495   4.249
 1478SOL     OW 5332   6.982   4.221   1.016
 1478SOL    HW1 5333   6.977   4.140   1.075
 1478SOL    HW2 5334   6.900   4.277   1.030
 1479SOL     OW 5335   1.400   4.926   0.169
 1479SOL    HW1 5336   1.429   4.835   0.142
 1479SOL    HW2 5337   1.353   4.970   0.093
 1480SOL     OW 5338   3.462   0.450   6.931
 1480SOL    HW1 5339   3.381   0.393   6.919
 1480SOL    HW2 5340   3.468   0.480   0.007
 1481SOL     OW 5341   0.170   2.733   0.969
 1481SOL    HW1 5342   0.229   2.783   1.032
 1481SOL    HW2 5343   0.075   2.745   0.996
 1482SOL     OW 5344   6.048   0.458   5.792
 1482SOL    HW1 5345   6.099   0.387   5.840
 1482SOL    HW2 5346   6.011   0.523   5.858
 1483SOL     OW 5347   0.269   1.995   0.778
 1483SOL    HW1 5348   0.213   1.922   0.818
 1483SOL    HW2 5349   0.210   2.059   0.729
 1484SOL     OW 5350   5.373   6.956   3.164
 1484SOL    HW1 5351   5.440   0.007   3.184
 1484SOL    HW2 5352   5.308   6.990   3.095
 1485SOL     OW 5353   5.524   4.185   4.619
 1485SOL    HW1 5354   5.605   4.243   4.608
 1485SOL    HW2 5355   5.462   4.199   4.542
 1486SOL     OW 5356   5.115   2.936   1.848
 1486SOL    HW1 5357   5.177   2.999   1.895
 1486SOL    HW2 5358   5.161   2.897   1.769
 1487SOL     OW 5359   0.362   6.912   5.858
 1487SOL    HW1 5360   0.326   6.889   5.768
 1487SOL    HW2 5361   0.450   6.957   5.849
 1488SOL     OW 5362   4.555   2.158   3.708
 1488SOL    HW1 5363   4.522   2.180   3.800
 1488SOL    HW2 5364   4.491   2.195   3.640
 1489SOL     OW 5365   3.600   5.460   4.663
 1489SOL    HW1 5366   3.633   5.366   4.662
 1489SOL    HW2 5367   3.576   5.488   4.570
 1490SOL     OW 5368   2.902   2.892   0.773
 1490SOL    HW1 5369   2.910   2.831   0.694
 1490SOL    HW2 5370   2.863   2.842   0.850
 1491SOL     OW 5371   1.714   1.552   3.804
 1491SOL    HW1 5372   1.748   1.477   3.748
 1491SOL    HW2 5373   1.711   1.524   3.900
 1492SOL     OW 5374   6.879   2.196   1.682
 1492SOL    HW1 5375   6.891   2.295   1.686
 1492SOL    HW2 5376   6.966   2.152   1.660
 1493SOL     OW 5377   6.787   3.455   4.901
 1493SOL    HW1 5378   6.767   3.552   4.913
 1493SOL    HW2 5379   6.743   3.403   4.975
 1494SOL     OW 5380   5.749   2.051   4.082
 1494SOL    HW1 5381   5.663   2.085   4.045
 1494SOL    HW2 5382   5.776   2.107   4.161
 1495SOL     OW 5383   1.446   4.122   1.462
 1495SOL    HW1 5384   1.362   4.084   1.499
 1495SOL    HW2 5385   1.525   4.077   1.505
 1496SOL     OW 5386   7.017   0.045   2.779
 1496SOL    HW1 5387   0.077   0.087   2.735
 1496SOL    HW2 5388   6.936   0.062   2.722
 1497SOL     OW 5389   5.455   4.229   6.007
 1497SOL    HW1 5390   5.434   4.133   5.985
 1497SOL    HW2 5391   5.428   4.287   5.930
 1498SOL     OW 5392   2.930   5.489   6.382
 1498SOL    HW1 5393   3.005   5.555   6.391
 1498SOL    HW2 5394   2.943   5.415   6.448
 1499SOL     OW 5395   1.484   4.078   3.888
 1499SOL    HW1 5396   1.442   4.067   3.978
 1499SOL    HW2 5397   1.542   4.160   3.888
 1500SOL     OW 5398   3.937   5.946   5.280
 1500SOL    HW1 5399   3.934   5.853   5.244
 1500SOL    HW2 5400   3.858   5.997   5.248
 1501SOL     OW 5401   3.679   1.407   1.621
 1501SOL    HW1 5402   3.620   1.344   1.671
 1501SOL    HW2 5403   3.634   1.437   1.538
 1502SOL     OW 5404   6.707   0.452   6.691
 1502SOL    HW1 5405   6.638   0.417   6.627
 1502SOL    HW2 5406   6.785   0.388   6.693
 1503SOL     OW 5407   3.637   3.543   5.182
 1503SOL    HW1 5408   3.657   3.462   5.237
 1503SOL    HW2 5409   3.709   3.611   5.195
 1504SOL     OW 5410   2.992   0.657   3.488
 1504SOL    HW1 5411   3.048   0.706   3.555
 1504SOL    HW2 5412   2.899   0.647   3.524
 1505SOL     OW 5413   6.021   5.949   3.193
 1505SOL    HW1 5414   6.110   5.949   3.237
 1505SOL    HW2 5415   6.009   6.034   3.141
 1506SOL     OW 5416   6.735   0.355   3.843
 1506SOL    HW1 5417   6.825   0.394   3.827
 1506SOL    HW2 5418   6.681   0.418   3.898
 1507SOL     OW 5419   2.345   1.851   6.725
 1507SOL    HW1 5420   2.414   1.918   6.752
 1507SOL    HW2 5421   2.366   1.817   6.633
 1508SOL     OW 5422   4.022   6.266   0.825
 1508SOL    HW1 5423   4.043   6.276   0.922
 1508SOL    HW2 5424   4.066   6.183   0.790
 1509SOL     OW 5425   5.204   2.313   6.167
 1509SOL    HW1 5426   5.139   2.237   6.161
 1509SOL    HW2 5427   5.206   2.362   6.080
 1510SOL     OW 5428   6.853   1.977   2.558
 1510SOL    HW1 5429   6.798   1.944   2.481
 1510SOL    HW2 5430   6.861   1.904   2.626
 1511SOL     OW 5431   6.919   2.431   0.631
 1511SOL    HW1 5432   6.916   2.519   0.584
 1511SOL    HW2 5433   6.837   2.378   0.606
 1512SOL     OW 5434   0.329   0.475   3.039
 1512SOL    HW1 5435   0.388   0.437   3.111
 1512SOL    HW2 5436   0.362   0.444   2.950
 1513SOL     OW 5437   2.624   0.475   2.702
 1513SOL    HW1 5438   2.635   0.545   2.773
 1513SOL    HW2 5439   2.672   0.391   2.731
 1514SOL     OW 5440   4.356   0.405   5.660
 1514SOL    HW1 5441   4.314   0.477   5.716
 1514SOL    HW2 5442   4.377   0.326   5.717
 1515SOL     OW 5443   5.199   5.751   5.261
 1515SOL    HW1 5444   5.153   5.664   5.245
 1515SOL    HW2 5445   5.284   5.735   5.312
 1516SOL     OW 5446   6.474   2.068   2.697
 1516SOL    HW1 5447   6.444   2.041   2.605
 1516SOL    HW2 5448   6.540   2.002   2.731
 1517SOL     OW 5449   2.822   5.238   1.848
 1517SOL    HW1 5450   2.849   5.334   1.841
 1517SOL    HW2 5451   2.890   5.188   1.902
 1518SOL     OW 5452   1.083   4.865   0.635
 1518SOL    HW1 5453   1.033   4.935   0.583
 1518SOL    HW2 5454   1.022   4.788   0.655
 1519SOL     OW 5455   1.056   4.283   1.325
 1519SOL    HW1 5456   0.997   4.363   1.313
 1519SOL    HW2 5457   1.043   4.221   1.247
 1520SOL     OW 5458   1.826   4.054   2.798
 1520SOL    HW1 5459   1.797   3.975   2.853
 1520SOL    HW2 5460   1.799   4.039   2.703
 1521SOL     OW 5461   1.988   5.820   5.416
 1521SOL    HW1 5462   1.936   5.833   5.501
 1521SOL    HW2 5463   2.002   5.723   5.399
 1522SOL     OW 5464   1.434   1.963   6.020
 1522SOL    HW1 5465   1.373   2.042   6.024
 1522SOL    HW2 5466   1.502   1.970   6.093
 1523SOL     OW 5467   5.058   1.312   0.414
 1523SOL    HW1 5468   5.099   1.401   0.394
 1523SOL    HW2 5469   5.074   1.289   0.510
 1524SOL     OW 5470   1.211   1.954   1.736
 1524SOL    HW1 5471   1.226   2.050   1.712
 1524SOL    HW2 5472   1.281   1.925   1.802
 1525SOL     OW 5473   4.544   2.095   5.486
 1525SOL    HW1 5474   4.608   2.128   5.416
 1525SOL    HW2 5475   4.541   2.160   5.561
 1526SOL     OW 5476   5.786   2.522   0.994
 1526SOL    HW1 5477   5.885   2.530   0.981
 1526SOL    HW2 5478   5.741   2.514   0.904
 1527SOL     OW 5479   1.673   0.247   4.839
 1527SOL    HW1 5480   1.674   0.250   4.939
 1527SOL    HW2 5481   1.766   0.233   4.805
 1528SOL     OW 5482   5.230   5.740   3.304
 1528SOL    HW1 5483   5.328   5.719   3.303
 1528SOL    HW2 5484   5.177   5.655   3.306
 1529SOL     OW 5485   0.848   6.343   5.560
 1529SOL    HW1 5486   0.842   6.246   5.586
 1529SOL    HW2 5487   0.759   6.374   5.526
 1530SOL     OW 5488   3.618   6.961   1.353
 1530SOL    HW1 5489   3.631   0.003   1.276
 1530SOL    HW2 5490   3.536   6.988   1.404
 1531SOL     OW 5491   5.415   1.452   6.455
 1531SOL    HW1 5492   5.432   1.541   6.499
 1531SOL    HW2 5493   5.489   1.433   6.391
 1532SOL     OW 5494   2.734   1.104   4.985
 1532SOL    HW1 5495   2.824   1.130   4.952
 1532SOL    HW2 5496   2.670   1.101   4.908
 1533SOL     OW 5497   4.166   2.922   1.143
 1533SOL    HW1 5498   4.172   2.828   1.176
 1533SOL    HW2 5499   4.070   2.948   1.134
 1534SOL     OW 5500   5.721   0.630   0.349
 1534SOL    HW1 5501   5.645   0.664   0.405
 1534SOL    HW2 5502   5.689   0.551   0.296
 1535SOL     OW 5503   4.533   4.499   4.466
 1535SOL    HW1 5504   4.589   4.443   4.527
 1535SOL    HW2 5505   4.499   4.443   4.390
 1536SOL     OW 5506   2.654   6.116   2.854
 1536SOL    HW1 5507   2.699   6.108   2.943
 1536SOL    HW2 5508   2.602   6.202   2.851
 1537SOL     OW 5509   1.524   5.497   4.678
 1537SOL    HW1 5510   1.449   5.462   4.622
 1537SOL    HW2 5511   1.611   5.486   4.630
 1538SOL     OW 5512   3.658   6.351   0.467
 1538SOL    HW1 5513   3.679   6.429   0.526
 1538SOL    HW2 5514   3.562   6.326   0.477
 1539SOL     OW 5515   1.949   6.858   1.536
 1539SOL    HW1 5516   2.026   6.807   1.574
 1539SOL    HW2 5517   1.863   6.815   1.563
 1540SOL     OW 5518   6.360   1.093   6.020
 1540SOL    HW1 5519   6.438   1.155   6.017
 1540SOL    HW2 5520   6.281   1.137   5.977
 1541SOL     OW 5521   5.128   1.805   2.139
 1541SOL    HW1 5522   5.189   1.884   2.131
 1541SOL    HW2 5523   5.045   1.832   2.187
 1542SOL     OW 5524   0.199   4.982   1.057
 1542SOL    HW1 5525   0.125   5.031   1.011
 1542SOL    HW2 5526   0.262   5.047   1.098
 1543SOL     OW 5527   3.528   3.160   2.795
 1543SOL    HW1 5528   3.568   3.200   2.712
 1543SOL    HW2 5529   3.575   3.196   2.875
 1544SOL     OW 5530   3.388   3.269   1.470
 1544SOL    HW1 5531   3.344   3.180   1.457
 1544SOL    HW2 5532   3.324   3.331   1.516
 1545SOL     OW 5533   0.776   6.061   5.925
 1545SOL    HW1 5534   0.820   6.068   5.836
 1545SOL    HW2 5535   0.799   5.974   5.968
 1546SOL     OW 5536   6.950   6.391   0.994
 1546SOL    HW1 5537   6.937   6.437   1.082
 1546SOL    HW2 5538   6.972   6.459   0.924
 1547SOL     OW 5539   2.502   6.610   0.667
 1547SOL    HW1 5540   2.406   6.592   0.644
 1547SOL    HW2 5541   2.506   6.668   0.748
 1548SOL     OW 5542   6.110   4.191   3.175
 1548SOL    HW1 5543   6.065   4.247   3.106
 1548SOL    HW2 5544   6.042   4.152   3.237
 1549SOL     OW 5545   5.956   1.968   1.650
 1549SOL    HW1 5546   5.915   1.950   1.560
 1549SOL    HW2 5547   5.991   1.883   1.688
 1550SOL     OW 5548   2.713   4.695   2.275
 1550SOL    HW1 5549   2.732   4.633   2.351
 1550SOL    HW2 5550   2.767   4.668   2.195
 1551SOL     OW 5551   1.204   1.767   2.146
 1551SOL    HW1 5552   1.252   1.737   2.064
 1551SOL    HW2 5553   1.140   1.696   2.176
 1552SOL     OW 5554   1.584   6.372   2.295
 1552SOL    HW1 5555   1.512   6.427   2.253
 1552SOL    HW2 5556   1.620   6.307   2.228
 1553SOL     OW 5557   6.005   1.724   5.462
 1553SOL    HW1 5558   6.091   1.768   5.441
 1553SOL    HW2 5559   5.931   1.791   5.462
 1554SOL     OW 5560   2.525   3.225   0.034
 1554SOL    HW1 5561   2.564   3.294   0.095
 1554SOL    HW2 5562   2.582   3.143   0.036
 1555SOL     OW 5563   4.256   1.173   1.308
 1555SOL    HW1 5564   4.171   1.182   1.360
 1555SOL    HW2 5565   4.235   1.159   1.212
 1556SOL     OW 5566   2.531   2.181   0.255
 1556SOL    HW1 5567   2.554   2.253   0.321
 1556SOL    HW2 5568   2.456   2.126   0.291
 1557SOL     OW 5569   2.462   2.144   1.120
 1557SOL    HW1 5570   2.546   2.149   1.067
 1557SOL    HW2 5571   2.401   2.219   1.094
 1558SOL     OW 5572   4.846   1.680   0.102
 1558SOL    HW1 5573   4.765   1.738   0.097
 1558SOL    HW2 5574   4.913   1.722   0.164
 1559SOL     OW 5575   2.510   5.873   4.041
 1559SOL    HW1 5576   2.584   5.806   4.028
 1559SOL    HW2 5577   2.429   5.844   3.990
 1560SOL     OW 5578   5.013   3.240   1.541
 1560SOL    HW1 5579   5.086   3.300   1.572
 1560SOL    HW2 5580   4.961   3.208   1.620
 1561SOL     OW 5581   5.858   6.739   1.257
 1561SOL    HW1 5582   5.934   6.684   1.293
 1561SOL    HW2 5583   5.825   6.697   1.172
 1562SOL     OW 5584   2.604   6.912   3.160
 1562SOL    HW1 5585   2.540   6.906   3.084
 1562SOL    HW2 5586   2.628   7.008   3.175
 1563SOL     OW 5587   2.242   4.616   4.088
 1563SOL    HW1 5588   2.188   4.631   4.170
 1563SOL    HW2 5589   2.214   4.530   4.045
 1564SOL     OW 5590   2.257   1.984   2.986
 1564SOL    HW1 5591   2.203   1.900   2.972
 1564SOL    HW2 5592   2.277   2.025   2.897
 1565SOL     OW 5593   6.003   2.060   5.442
 1565SOL    HW1 5594   5.993   2.007   5.357
 1565SOL    HW2 5595   6.079   2.124   5.432
 1566SOL     OW 5596   1.068   3.228   3.280
 1566SOL    HW1 5597   1.073   3.132   3.309
 1566SOL    HW2 5598   1.139   3.246   3.212
 1567SOL     OW 5599   5.560   1.303   3.964
 1567SOL    HW1 5600   5.631   1.354   4.012
 1567SOL    HW2 5601   5.598   1.263   3.881
 1568SOL     OW 5602   2.136   4.944   0.627
 1568SOL    HW1 5603   2.096   4.853   0.637
 1568SOL    HW2 5604   2.219   4.950   0.683
 1569SOL     OW 5605   2.200   1.218   2.155
 1569SOL    HW1 5606   2.269   1.261   2.097
 1569SOL    HW2 5607   2.232   1.216   2.250
 1570SOL     OW 5608   2.469   6.025   5.783
 1570SOL    HW1 5609   2.519   6.023   5.869
 1570SOL    HW2 5610   2.534   6.028   5.707
 1571SOL     OW 5611   1.765   1.823   4.302
 1571SOL    HW1 5612   1.771   1.804   4.400
 1571SOL    HW2 5613   1.676   1.794   4.268
 1572SOL     OW 5614   2.569   5.540   3.841
 1572SOL    HW1 5615   2.607   5.595   3.916
 1572SOL    HW2 5616   2.630   5.463   3.823
 1573SOL     OW 5617   5.766   5.867   6.854
 1573SOL    HW1 5618   5.703   5.934   6.892
 1573SOL    HW2 5619   5.727   5.826   6.772
 1574SOL     OW 5620   0.652   2.472   3.569
 1574SOL    HW1 5621   0.662   2.451   3.472
 1574SOL    HW2 5622   0.722   2.423   3.621
 1575SOL     OW 5623   6.662   2.288   0.605
 1575SOL    HW1 5624   6.640   2.196   0.573
 1575SOL    HW2 5625   6.660   2.352   0.528
 1576SOL     OW 5626   0.964   6.326   2.699
 1576SOL    HW1 5627   1.006   6.235   2.708
 1576SOL    HW2 5628   0.999   6.370   2.617
 1577SOL     OW 5629   4.683   5.497   4.265
 1577SOL    HW1 5630   4.630   5.416   4.238
 1577SOL    HW2 5631   4.639   5.541   4.343
 1578SOL     OW 5632   5.546   1.573   2.167
 1578SOL    HW1 5633   5.603   1.609   2.240
 1578SOL    HW2 5634   5.452   1.563   2.200
 1579SOL     OW 5635   1.848   3.920   2.536
 1579SOL    HW1 5636   1.807   3.890   2.450
 1579SOL    HW2 5637   1.946   3.901   2.533
 1580SOL     OW 5638   3.431   3.111   4.325
 1580SOL    HW1 5639   3.349   3.160   4.293
 1580SOL    HW2 5640   3.498   3.177   4.359
 1581SOL     OW 5641   5.325   3.860   5.105
 1581SOL    HW1 5642   5.405   3.875   5.048
 1581SOL    HW2 5643   5.244   3.899   5.061
 1582SOL     OW 5644   3.894   6.656   4.124
 1582SOL    HW1 5645   3.911   6.662   4.223
 1582SOL    HW2 5646   3.888   6.560   4.097
 1583SOL     OW 5647   0.100   5.060   4.438
 1583SOL    HW1 5648   0.193   5.095   4.448
 1583SOL    HW2 5649   0.103   4.971   4.392
 1584SOL     OW 5650   0.464   4.602   0.716
 1584SOL    HW1 5651   0.436   4.515   0.676
 1584SOL    HW2 5652   0.457   4.598   0.815
 1585SOL     OW 5653   4.047   6.424   4.492
 1585SOL    HW1 5654   4.048   6.345   4.431
 1585SOL    HW2 5655   4.139   6.437   4.531
 1586SOL     OW 5656   2.762   6.100   3.109
 1586SOL    HW1 5657   2.701   6.173   3.141
 1586SOL    HW2 5658   2.753   6.020   3.168
 1587SOL     OW 5659   4.127   0.739   0.026
 1587SOL    HW1 5660   4.088   0.795   6.973
 1587SOL    HW2 5661   4.116   0.642   0.003
 1588SOL     OW 5662   6.452   1.498   4.021
 1588SOL    HW1 5663   6.429   1.402   4.006
 1588SOL    HW2 5664   6.369   1.554   4.012
 1589SOL     OW 5665   0.095   1.004   3.650
 1589SOL    HW1 5666   0.113   1.053   3.735
 1589SOL    HW2 5667   0.052   0.916   3.671
 1590SOL     OW 5668   5.519   6.791   3.881
 1590SOL    HW1 5669   5.502   6.723   3.952
 1590SOL    HW2 5670   5.614   6.785   3.851
 1591SOL     OW 5671   6.596   4.909   0.615
 1591SOL    HW1 5672   6.686   4.878   0.584
 1591SOL    HW2 5673   6.576   4.999   0.577
 1592SOL     OW 5674   6.794   4.468   4.133
 1592SOL    HW1 5675   6.831   4.400   4.195
 1592SOL    HW2 5676   6.779   4.427   4.043
 1593SOL     OW 5677   4.214   4.997   1.032
 1593SOL    HW1 5678   4.298   4.944   1.029
 1593SOL    HW2 5679   4.213   5.064   0.957
 1594SOL     OW 5680   5.631   1.129   2.888
 1594SOL    HW1 5681   5.532   1.118   2.880
 1594SOL    HW2 5682   5.651   1.193   2.962
 1595SOL     OW 5683   6.884   3.891   0.703
 1595SOL    HW1 5684   6.814   3.847   0.759
 1595SOL    HW2 5685   6.875   3.991   0.711
 1596SOL     OW 5686   5.432   4.429   4.675
 1596SOL    HW1 5687   5.455   4.335   4.698
 1596SOL    HW2 5688   5.516   4.481   4.657
 1597SOL     OW 5689   4.199   6.623   1.023
 1597SOL    HW1 5690   4.278   6.654   1.076
 1597SOL    HW2 5691   4.171   6.532   1.055
 1598SOL     OW 5692   0.803   5.811   6.000
 1598SOL    HW1 5693   0.806   5.779   6.094
 1598SOL    HW2 5694   0.736   5.758   5.948
 1599SOL     OW 5695   5.284   5.328   3.916
 1599SOL    HW1 5696   5.366   5.282   3.882
 1599SOL    HW2 5697   5.263   5.407   3.858
 1600SOL     OW 5698   5.154   1.193   1.359
 1600SOL    HW1 5699   5.202   1.132   1.423
 1600SOL    HW2 5700   5.073   1.146   1.323
 1601SOL     OW 5701   5.980   0.754   5.345
 1601SOL    HW1 5702   6.031   0.674   5.375
 1601SOL    HW2 5703   5.933   0.735   5.259
 1602SOL     OW 5704   3.666   6.161   3.161
 1602SOL    HW1 5705   3.600   6.221   3.206
 1602SOL    HW2 5706   3.759   6.191   3.182
 1603SOL     OW 5707   2.992   5.564   1.448
 1603SOL    HW1 5708   3.009   5.523   1.537
 1603SOL    HW2 5709   2.893   5.581   1.438
 1604SOL     OW 5710   4.520   5.410   1.564
 1604SOL    HW1 5711   4.591   5.342   1.584
 1604SOL    HW2 5712   4.528   5.486   1.629
 1605SOL     OW 5713   3.771   4.728   0.034
 1605SOL    HW1 5714   3.676   4.761   0.031
 1605SOL    HW2 5715   3.798   4.715   0.129
 1606SOL     OW 5716   4.910   5.448   4.831
 1606SOL    HW1 5717   4.976   5.505   4.882
 1606SOL    HW2 5718   4.827   5.501   4.814
 1607SOL     OW 5719   4.485   4.489   4.186
 1607SOL    HW1 5720   4.550   4.413   4.175
 1607SOL    HW2 5721   4.413   4.481   4.116
 1608SOL     OW 5722   6.333   3.346   2.910
 1608SOL    HW1 5723   6.316   3.413   2.837
 1608SOL    HW2 5724   6.256   3.283   2.916
 1609SOL     OW 5725   1.211   0.160   0.763
 1609SOL    HW1 5726   1.204   0.063   0.786
 1609SOL    HW2 5727   1.270   0.171   0.683
 1610SOL     OW 5728   5.385   5.286   0.782
 1610SOL    HW1 5729   5.368   5.370   0.732
 1610SOL    HW2 5730   5.424   5.308   0.872
 1611SOL     OW 5731   0.810   4.644   0.086
 1611SOL    HW1 5732   0.734   4.638   0.022
 1611SOL    HW2 5733   0.806   4.731   0.136
 1612SOL     OW 5734   5.383   0.495   2.179
 1612SOL    HW1 5735   5.342   0.414   2.219
 1612SOL    HW2 5736   5.470   0.470   2.134
 1613SOL     OW 5737   6.604   6.262   2.817
 1613SOL    HW1 5738   6.701   6.283   2.828
 1613SOL    HW2 5739   6.566   6.319   2.744
 1614SOL     OW 5740   6.154   1.235   5.911
 1614SOL    HW1 5741   6.173   1.300   5.837
 1614SOL    HW2 5742   6.065   1.254   5.951
 1615SOL     OW 5743   6.392   3.447   5.820
 1615SOL    HW1 5744   6.307   3.471   5.772
 1615SOL    HW2 5745   6.391   3.350   5.844
 1616SOL     OW 5746   1.792   1.113   3.410
 1616SOL    HW1 5747   1.748   1.202   3.396
 1616SOL    HW2 5748   1.849   1.092   3.330
 1617SOL     OW 5749   7.014   6.428   4.318
 1617SOL    HW1 5750   0.004   6.392   4.410
 1617SOL    HW2 5751   0.084   6.432   4.274
 1618SOL     OW 5752   3.239   5.318   2.848
 1618SOL    HW1 5753   3.163   5.366   2.804
 1618SOL    HW2 5754   3.227   5.322   2.948
 1619SOL     OW 5755   1.249   4.043   6.197
 1619SOL    HW1 5756   1.250   4.130   6.245
 1619SOL    HW2 5757   1.344   4.015   6.177
 1620SOL     OW 5758   2.987   6.973   4.495
 1620SOL    HW1 5759   2.899   7.016   4.519
 1620SOL    HW2 5760   3.055   6.994   4.565
 1621SOL     OW 5761   5.291   5.048   0.815
 1621SOL    HW1 5762   5.205   5.010   0.781
 1621SOL    HW2 5763   5.303   5.141   0.780
 1622SOL     OW 5764   6.521   3.368   3.949
 1622SOL    HW1 5765   6.618   3.365   3.972
 1622SOL    HW2 5766   6.482   3.276   3.954
 1623SOL     OW 5767   0.454   2.327   4.086
 1623SOL    HW1 5768   0.357   2.307   4.067
 1623SOL    HW2 5769   0.510   2.296   4.010
 1624SOL     OW 5770   4.494   3.063   0.026
 1624SOL    HW1 5771   4.520   3.097   6.955
 1624SOL    HW2 5772   4.555   3.101   0.095
 1625SOL     OW 5773   0.972   6.390   0.311
 1625SOL    HW1 5774   0.969   6.370   0.213
 1625SOL    HW2 5775   0.969   6.489   0.325
 1626SOL     OW 5776   3.150   1.564   2.170
 1626SOL    HW1 5777   3.078   1.502   2.141
 1626SOL    HW2 5778   3.126   1.658   2.144
 1627SOL     OW 5779   4.448   0.714   5.832
 1627SOL    HW1 5780   4.490   0.734   5.743
 1627SOL    HW2 5781   4.456   0.794   5.891
 1628SOL     OW 5782   5.524   5.821   1.091
 1628SOL    HW1 5783   5.590   5.850   1.160
 1628SOL    HW2 5784   5.563   5.832   1.000
 1629SOL     OW 5785   1.664   6.209   2.085
 1629SOL    HW1 5786   1.702   6.299   2.064
 1629SOL    HW2 5787   1.732   6.139   2.064
 1630SOL     OW 5788   0.239   4.800   5.794
 1630SOL    HW1 5789   0.147   4.839   5.800
 1630SOL    HW2 5790   0.285   4.810   5.882
 1631SOL     OW 5791   4.984   4.305   6.671
 1631SOL    HW1 5792   5.005   4.210   6.649
 1631SOL    HW2 5793   4.915   4.339   6.607
 1632SOL     OW 5794   6.108   5.208   2.128
 1632SOL    HW1 5795   6.011   5.219   2.146
 1632SOL    HW2 5796   6.159   5.283   2.169
 1633SOL     OW 5797   6.720   4.094   5.155
 1633SOL    HW1 5798   6.623   4.079   5.175
 1633SOL    HW2 5799   6.736   4.191   5.138
 1634SOL     OW 5800   1.151   4.155   5.865
 1634SOL    HW1 5801   1.149   4.254   5.852
 1634SOL    HW2 5802   1.244   4.126   5.888
 1635SOL     OW 5803   2.765   1.439   3.916
 1635SOL    HW1 5804   2.713   1.356   3.935
 1635SOL    HW2 5805   2.787   1.486   4.001
 1636SOL     OW 5806   0.017   6.077   1.845
 1636SOL    HW1 5807   6.983   6.145   1.894
 1636SOL    HW2 5808   0.091   6.043   1.903
 1637SOL     OW 5809   1.410   1.181   1.306
 1637SOL    HW1 5810   1.330   1.139   1.262
 1637SOL    HW2 5811   1.386   1.212   1.397
 1638SOL     OW 5812   5.599   1.828   3.867
 1638SOL    HW1 5813   5.583   1.911   3.813
 1638SOL    HW2 5814   5.512   1.786   3.891
 1639SOL     OW 5815   4.927   1.971   1.178
 1639SOL    HW1 5816   5.010   1.992   1.126
 1639SOL    HW2 5817   4.864   2.048   1.172
 1640SOL     OW 5818   6.544   1.478   6.200
 1640SOL    HW1 5819   6.546   1.412   6.125
 1640SOL    HW2 5820   6.450   1.488   6.233
 1641SOL     OW 5821   6.299   1.159   2.567
 1641SOL    HW1 5822   6.272   1.239   2.514
 1641SOL    HW2 5823   6.291   1.077   2.510
 1642SOL     OW 5824   0.055   3.516   6.581
 1642SOL    HW1 5825   0.062   3.436   6.642
 1642SOL    HW2 5826   0.120   3.506   6.506
 1643SOL     OW 5827   2.585   5.424   4.108
 1643SOL    HW1 5828   2.582   5.336   4.061
 1643SOL    HW2 5829   2.509   5.431   4.172
 1644SOL     OW 5830   5.660   1.682   1.734
 1644SOL    HW1 5831   5.730   1.640   1.677
 1644SOL    HW2 5832   5.630   1.618   1.804
 1645SOL     OW 5833   2.508   1.260   3.969
 1645SOL    HW1 5834   2.524   1.185   4.033
 1645SOL    HW2 5835   2.428   1.312   3.998
 1646SOL     OW 5836   6.883   5.494   1.779
 1646SOL    HW1 5837   6.868   5.583   1.736
 1646SOL    HW2 5838   6.795   5.447   1.788
 1647SOL     OW 5839   6.854   3.904   5.443
 1647SOL    HW1 5840   6.863   3.910   5.344
 1647SOL    HW2 5841   6.942   3.880   5.484
 1648SOL     OW 5842   5.816   5.844   1.699
 1648SOL    HW1 5843   5.759   5.886   1.770
 1648SOL    HW2 5844   5.783   5.871   1.609
 1649SOL     OW 5845   3.731   0.736   3.504
 1649SOL    HW1 5846   3.824   0.775   3.503
 1649SOL    HW2 5847   3.664   0.810   3.508
 1650SOL     OW 5848   2.510   2.898   5.721
 1650SOL    HW1 5849   2.589   2.959   5.723
 1650SOL    HW2 5850   2.508   2.842   5.804
 1651SOL     OW 5851   1.871   2.093   4.691
 1651SOL    HW1 5852   1.905   2.140   4.610
 1651SOL    HW2 5853   1.784   2.134   4.720
 1652SOL     OW 5854   0.448   4.397   1.719
 1652SOL    HW1 5855   0.443   4.343   1.803
 1652SOL    HW2 5856   0.403   4.485   1.733
 1653SOL     OW 5857   5.631   4.024   1.353
 1653SOL    HW1 5858   5.666   4.092   1.288
 1653SOL    HW2 5859   5.658   4.050   1.446
 1654SOL     OW 5860   0.309   3.004   1.685
 1654SOL    HW1 5861   0.407   3.012   1.698
 1654SOL    HW2 5862   0.279   3.072   1.617
 1655SOL     OW 5863   6.487   0.581   5.863
 1655SOL    HW1 5864   6.458   0.535   5.946
 1655SOL    HW2 5865   6.456   0.676   5.865
 1656SOL     OW 5866   2.088   4.515   2.848
 1656SOL    HW1 5867   2.148   4.526   2.927
 1656SOL    HW2 5868   1.993   4.504   2.880
 1657SOL     OW 5869   0.429   1.783   6.357
 1657SOL    HW1 5870   0.521   1.815   6.383
 1657SOL    HW2 5871   0.436   1.692   6.317
 1658SOL     OW 5872   4.443   0.128   5.210
 1658SOL    HW1 5873   4.537   0.093   5.218
 1658SOL    HW2 5874   4.446   0.227   5.198
 1659SOL     OW 5875   2.597   0.931   6.584
 1659SOL    HW1 5876   2.656   0.902   6.660
 1659SOL    HW2 5877   2.647   0.995   6.526
 1660SOL     OW 5878   2.475   0.920   1.372
 1660SOL    HW1 5879   2.376   0.933   1.366
 1660SOL    HW2 5880   2.511   0.977   1.446
 1661SOL     OW 5881   4.417   4.992   3.283
 1661SOL    HW1 5882   4.362   4.918   3.244
 1661SOL    HW2 5883   4.395   5.078   3.239
 1662SOL     OW 5884   0.926   2.376   4.160
 1662SOL    HW1 5885   0.896   2.472   4.163
 1662SOL    HW2 5886   0.966   2.351   4.248
 1663SOL     OW 5887   6.752   3.742   1.248
 1663SOL    HW1 5888   6.687   3.760   1.175
 1663SOL    HW2 5889   6.757   3.644   1.266
 1664SOL     OW 5890   1.285   0.860   6.901
 1664SOL    HW1 5891   1.268   0.762   6.906
 1664SOL    HW2 5892   1.198   0.910   6.909
 1665SOL     OW 5893   1.528   3.661   0.480
 1665SOL    HW1 5894   1.618   3.692   0.451
 1665SOL    HW2 5895   1.537   3.572   0.525
 1666SOL     OW 5896   5.913   6.284   5.348
 1666SOL    HW1 5897   5.989   6.238   5.302
 1666SOL    HW2 5898   5.834   6.223   5.349
 1667SOL     OW 5899   6.582   5.698   0.920
 1667SOL    HW1 5900   6.606   5.703   0.823
 1667SOL    HW2 5901   6.577   5.791   0.957
 1668SOL     OW 5902   7.009   2.833   2.186
 1668SOL    HW1 5903   6.920   2.797   2.213
 1668SOL    HW2 5904   6.997   2.890   2.104
 1669SOL     OW 5905   6.346   3.063   5.229
 1669SOL    HW1 5906   6.348   3.116   5.314
 1669SOL    HW2 5907   6.368   2.968   5.249
 1670SOL     OW 5908   3.098   4.270   5.289
 1670SOL    HW1 5909   3.113   4.190   5.232
 1670SOL    HW2 5910   3.036   4.333   5.242
 1671SOL     OW 5911   5.679   2.510   0.386
 1671SOL    HW1 5912   5.662   2.412   0.382
 1671SOL    HW2 5913   5.678   2.548   0.294
 1672SOL     OW 5914   0.977   1.805   1.785
 1672SOL    HW1 5915   0.979   1.793   1.884
 1672SOL    HW2 5916   1.058   1.855   1.756
 1673SOL     OW 5917   0.824   0.744   6.120
 1673SOL    HW1 5918   0.879   0.661   6.130
 1673SOL    HW2 5919   0.770   0.758   6.204
 1674SOL     OW 5920   4.757   2.756   3.225
 1674SOL    HW1 5921   4.857   2.750   3.224
 1674SOL    HW2 5922   4.722   2.715   3.309
 1675SOL     OW 5923   4.862   0.881   1.961
 1675SOL    HW1 5924   4.928   0.868   1.887
 1675SOL    HW2 5925   4.812   0.966   1.947
 1676SOL     OW 5926   2.213   1.645   3.843
 1676SOL    HW1 5927   2.123   1.645   3.800
 1676SOL    HW2 5928   2.230   1.735   3.883
 1677SOL     OW 5929   2.930   3.184   1.719
 1677SOL    HW1 5930   2.887   3.246   1.785
 1677SOL    HW2 5931   3.025   3.169   1.745
 1678SOL     OW 5932   6.643   6.925   0.999
 1678SOL    HW1 5933   6.552   6.942   1.037
 1678SOL    HW2 5934   6.640   6.841   0.944
 1679SOL     OW 5935   6.433   2.172   6.802
 1679SOL    HW1 5936   6.519   2.131   6.833
 1679SOL    HW2 5937   6.366   2.100   6.786
 1680SOL     OW 5938   5.573   1.925   3.518
 1680SOL    HW1 5939   5.641   1.952   3.450
 1680SOL    HW2 5940   5.570   1.825   3.523
 1681SOL     OW 5941   4.410   6.744   4.052
 1681SOL    HW1 5942   4.450   6.813   4.113
 1681SOL    HW2 5943   4.329   6.782   4.008
 1682SOL     OW 5944   4.462   1.946   5.215
 1682SOL    HW1 5945   4.502   1.894   5.290
 1682SOL    HW2 5946   4.510   1.925   5.130
 1683SOL     OW 5947   1.078   4.221   3.681
 1683SOL    HW1 5948   1.111   4.279   3.756
 1683SOL    HW2 5949   1.047   4.279   3.606
 1684SOL     OW 5950   3.500   5.838   1.409
 1684SOL    HW1 5951   3.443   5.764   1.373
 1684SOL    HW2 5952   3.473   5.924   1.367
 1685SOL     OW 5953   6.943   1.948   5.801
 1685SOL    HW1 5954   6.850   1.938   5.764
 1685SOL    HW2 5955   7.009   1.921   5.731
 1686SOL     OW 5956   3.149   6.269   1.339
 1686SOL    HW1 5957   3.226   6.261   1.402
 1686SOL    HW2 5958   3.116   6.363   1.340
 1687SOL     OW 5959   4.744   4.339   0.055
 1687SOL    HW1 5960   4.821   4.279   0.030
 1687SOL    HW2 5961   4.676   4.339   7.001
 1688SOL     OW 5962   2.805   0.828   2.786
 1688SOL    HW1 5963   2.721   0.790   2.824
 1688SOL    HW2 5964   2.811   0.807   2.689
 1689SOL     OW 5965   4.368   1.119   2.216
 1689SOL    HW1 5966   4.376   1.212   2.251
 1689SOL    HW2 5967   4.304   1.117   2.139
 1690SOL     OW 5968   0.460   4.715   3.893
 1690SOL    HW1 5969   0.445   4.686   3.799
 1690SOL    HW2 5970   0.549   4.681   3.924
 1691SOL     OW 5971   4.696   2.885   5.255
 1691SOL    HW1 5972   4.687   2.975   5.297
 1691SOL    HW2 5973   4.792   2.869   5.230
 1692SOL     OW 5974   5.744   5.571   3.014
 1692SOL    HW1 5975   5.821   5.508   2.999
 1692SOL    HW2 5976   5.692   5.541   3.093
 1693SOL     OW 5977   5.420   0.577   5.984
 1693SOL    HW1 5978   5.381   0.492   5.948
 1693SOL    HW2 5979   5.405   0.651   5.919
 1694SOL     OW 5980   4.604   1.198   6.549
 1694SOL    HW1 5981   4.640   1.112   6.586
 1694SOL    HW2 5982   4.530   1.231   6.608
 1695SOL     OW 5983   5.667   1.199   5.464
 1695SOL    HW1 5984   5.631   1.289   5.487
 1695SOL    HW2 5985   5.633   1.171   5.374
 1696SOL     OW 5986   5.113   6.970   1.281
 1696SOL    HW1 5987   5.047   6.969   1.357
 1696SOL    HW2 5988   5.171   0.031   1.288
 1697SOL     OW 5989   3.976   4.127   1.717
 1697SOL    HW1 5990   3.928   4.214   1.703
 1697SOL    HW2 5991   3.930   4.076   1.790
 1698SOL     OW 5992   4.651   2.136   1.174
 1698SOL    HW1 5993   4.562   2.108   1.209
 1698SOL    HW2 5994   4.649   2.132   1.074
 1699SOL     OW 5995   1.777   0.278   0.885
 1699SOL    HW1 5996   1.709   0.326   0.938
 1699SOL    HW2 5997   1.856   0.337   0.870
 1700SOL     OW 5998   5.912   3.265   3.003
 1700SOL    HW1 5999   5.979   3.268   3.077
 1700SOL    HW2 6000   5.919   3.176   2.957
 1701SOL     OW 6001   1.261   5.764   5.002
 1701SOL    HW1 6002   1.353   5.786   5.035
 1701SOL    HW2 6003   1.264   5.680   4.948
 1702SOL     OW 6004   2.117   2.302   6.836
 1702SOL    HW1 6005   2.170   2.242   6.895
 1702SOL    HW2 6006   2.136   2.280   6.740
 1703SOL     OW 6007   1.649   1.745   2.045
 1703SOL    HW1 6008   1.711   1.820   2.070
 1703SOL    HW2 6009   1.703   1.665   2.019
 1704SOL     OW 6010   3.274   2.875   6.630
 1704SOL    HW1 6011   3.179   2.868   6.658
 1704SOL    HW2 6012   3.285   2.836   6.538
 1705SOL     OW 6013   5.912   3.122   0.982
 1705SOL    HW1 6014   5.952   3.213   0.997
 1705SOL    HW2 6015   5.881   3.084   1.069
 1706SOL     OW 6016   6.097   0.846   5.945
 1706SOL    HW1 6017   6.060   0.876   5.857
 1706SOL    HW2 6018   6.196   0.858   5.946
 1707SOL     OW 6019   2.832   1.297   2.459
 1707SOL    HW1 6020   2.871   1.354   2.387
 1707SOL    HW2 6021   2.755   1.245   2.424
 1708SOL     OW 6022   2.517   4.712   1.519
 1708SOL    HW1 6023   2.457   4.738   1.594
 1708SOL    HW2 6024   2.463   4.679   1.442
 1709SOL     OW 6025   5.846   5.196   2.209
 1709SOL    HW1 6026   5.847   5.235   2.301
 1709SOL    HW2 6027   5.792   5.111   2.209
 1710SOL     OW 6028   4.933   2.891   2.043
 1710SOL    HW1 6029   4.866   2.963   2.027
 1710SOL    HW2 6030   5.013   2.907   1.985
 1711SOL     OW 6031   4.003   5.276   0.242
 1711SOL    HW1 6032   4.054   5.357   0.270
 1711SOL    HW2 6033   4.014   5.204   0.311
 1712SOL     OW 6034   0.313   2.680   2.431
 1712SOL    HW1 6035   0.377   2.604   2.434
 1712SOL    HW2 6036   0.264   2.679   2.343
 1713SOL     OW 6037   2.712   1.458   2.849
 1713SOL    HW1 6038   2.660   1.494   2.771
 1713SOL    HW2 6039   2.651   1.446   2.927
 1714SOL     OW 6040   3.420   5.168   0.990
 1714SOL    HW1 6041   3.357   5.090   0.987
 1714SOL    HW2 6042   3.390   5.238   0.926
 1715SOL     OW 6043   1.355   5.576   0.901
 1715SOL    HW1 6044   1.425   5.640   0.933
 1715SOL    HW2 6045   1.385   5.482   0.916
 1716SOL     OW 6046   5.111   1.458   2.467
 1716SOL    HW1 6047   5.013   1.454   2.485
 1716SOL    HW2 6048   5.135   1.391   2.397
 1717SOL     OW 6049   3.714   0.014   4.245
 1717SOL    HW1 6050   3.745   7.010   4.153
 1717SOL    HW2 6051   3.748   0.104   4.270
 1718SOL     OW 6052   1.610   3.836   1.936
 1718SOL    HW1 6053   1.526   3.833   1.881
 1718SOL    HW2 6054   1.620   3.926   1.976
 1719SOL     OW 6055   1.549   5.139   3.158
 1719SOL    HW1 6056   1.621   5.086   3.113
 1719SOL    HW2 6057   1.535   5.225   3.109
 1720SOL     OW 6058   1.450   2.837   5.473
 1720SOL    HW1 6059   1.504   2.806   5.395
 1720SOL    HW2 6060   1.389   2.764   5.503
 1721SOL     OW 6061   2.123   2.273   0.194
 1721SOL    HW1 6062   2.167   2.224   0.270
 1721SOL    HW2 6063   2.024   2.273   0.208
 1722SOL     OW 6064   3.816   2.168   2.862
 1722SOL    HW1 6065   3.840   2.128   2.950
 1722SOL    HW2 6066   3.717   2.187   2.860
 1723SOL     OW 6067   6.379   5.459   1.516
 1723SOL    HW1 6068   6.379   5.521   1.437
 1723SOL    HW2 6069   6.319   5.381   1.498
 1724SOL     OW 6070   6.109   3.930   1.219
 1724SOL    HW1 6071   6.034   3.984   1.181
 1724SOL    HW2 6072   6.078   3.882   1.301
 1725SOL     OW 6073   1.689   6.599   4.268
 1725SOL    HW1 6074   1.722   6.523   4.211
 1725SOL    HW2 6075   1.745   6.680   4.251
 1726SOL     OW 6076   5.756   5.015   3.430
 1726SOL    HW1 6077   5.796   4.935   3.475
 1726SOL    HW2 6078   5.818   5.093   3.440
 1727SOL     OW 6079   2.893   3.402   3.841
 1727SOL    HW1 6080   2.819   3.336   3.836
 1727SOL    HW2 6081   2.975   3.358   3.876
 1728SOL     OW 6082   5.403   2.168   4.543
 1728SOL    HW1 6083   5.444   2.087   4.502
 1728SOL    HW2 6084   5.467   2.210   4.607
 1729SOL     OW 6085   1.580   3.383   2.561
 1729SOL    HW1 6086   1.565   3.451   2.489
 1729SOL    HW2 6087   1.499   3.325   2.571
 1730SOL     OW 6088   2.929   0.400   4.329
 1730SOL    HW1 6089   2.864   0.439   4.264
 1730SOL    HW2 6090   2.881   0.338   4.391
 1731SOL     OW 6091   6.522   5.289   2.720
 1731SOL    HW1 6092   6.483   5.371   2.762
 1731SOL    HW2 6093   6.620   5.300   2.709
 1732SOL     OW 6094   4.067   3.312   4.470
 1732SOL    HW1 6095   4.089   3.347   4.561
 1732SOL    HW2 6096   3.974   3.339   4.446
 1733SOL     OW 6097   1.080   1.972   6.948
 1733SOL    HW1 6098   1.072   1.976   6.848
 1733SOL    HW2 6099   1.170   2.007   6.976
 1734SOL     OW 6100   0.883   4.686   2.434
 1734SOL    HW1 6101   0.897   4.774   2.388
 1734SOL    HW2 6102   0.856   4.703   2.529
 1735SOL     OW 6103   3.348   5.764   5.836
 1735SOL    HW1 6104   3.377   5.773   5.741
 1735SOL    HW2 6105   3.248   5.761   5.840
 1736SOL     OW 6106   4.266   1.921   5.007
 1736SOL    HW1 6107   4.296   1.869   4.927
 1736SOL    HW2 6108   4.336   1.917   5.078
 1737SOL     OW 6109   1.910   0.429   0.109
 1737SOL    HW1 6110   1.851   0.389   0.178
 1737SOL    HW2 6111   1.932   0.524   0.135
 1738SOL     OW 6112   1.182   3.629   2.048
 1738SOL    HW1 6113   1.277   3.601   2.059
 1738SOL    HW2 6114   1.149   3.670   2.133
 1739SOL     OW 6115   4.485   5.923   3.129
 1739SOL    HW1 6116   4.404   5.980   3.117
 1739SOL    HW2 6117   4.553   5.947   3.059
 1740SOL     OW 6118   0.059   2.321   4.865
 1740SOL    HW1 6119   0.100   2.281   4.783
 1740SOL    HW2 6120   6.985   2.287   4.875
 1741SOL     OW 6121   1.683   2.358   4.429
 1741SOL    HW1 6122   1.698   2.269   4.385
 1741SOL    HW2 6123   1.646   2.344   4.520
 1742SOL     OW 6124   5.942   0.418   6.092
 1742SOL    HW1 6125   5.903   0.500   6.049
 1742SOL    HW2 6126   6.022   0.444   6.146
 1743SOL     OW 6127   0.842   1.984   2.421
 1743SOL    HW1 6128   0.787   2.003   2.340
 1743SOL    HW2 6129   0.846   2.066   2.478
 1744SOL     OW 6130   2.971   2.174   5.448
 1744SOL    HW1 6131   2.992   2.109   5.375
 1744SOL    HW2 6132   2.874   2.197   5.445
 1745SOL     OW 6133   5.809   0.029   0.911
 1745SOL    HW1 6134   5.734   0.083   0.950
 1745SOL    HW2 6135   5.833   0.066   0.821
 1746SOL     OW 6136   2.975   5.341   2.338
 1746SOL    HW1 6137   2.882   5.353   2.374
 1746SOL    HW2 6138   3.033   5.414   2.373
 1747SOL     OW 6139   2.741   6.825   1.878
 1747SOL    HW1 6140   2.799   6.865   1.949
 1747SOL    HW2 6141   2.681   6.895   1.841
 1748SOL     OW 6142   6.647   1.092   4.171
 1748SOL    HW1 6143   6.672   1.001   4.204
 1748SOL    HW2 6144   6.719   1.157   4.196
 1749SOL     OW 6145   6.312   5.602   2.268
 1749SOL    HW1 6146   6.371   5.617   2.188
 1749SOL    HW2 6147   6.221   5.575   2.237
 1750SOL     OW 6148   2.647   2.191   0.569
 1750SOL    HW1 6149   2.594   2.208   0.652
 1750SOL    HW2 6150   2.658   2.276   0.518
 1751SOL     OW 6151   6.566   4.178   4.196
 1751SOL    HW1 6152   6.591   4.260   4.248
 1751SOL    HW2 6153   6.647   4.119   4.186
 1752SOL     OW 6154   6.125   0.123   3.010
 1752SOL    HW1 6155   6.058   0.099   3.081
 1752SOL    HW2 6156   6.217   0.110   3.045
 1753SOL     OW 6157   0.045   1.577   1.003
 1753SOL    HW1 6158   0.092   1.536   1.081
 1753SOL    HW2 6159   6.973   1.606   1.031
 1754SOL     OW 6160   1.877   4.441   3.749
 1754SOL    HW1 6161   1.958   4.463   3.802
 1754SOL    HW2 6162   1.795   4.453   3.806
 1755SOL     OW 6163   4.952   0.049   5.184
 1755SOL    HW1 6164   4.978   7.005   5.111
 1755SOL    HW2 6165   5.024   0.051   5.254
 1756SOL     OW 6166   4.600   5.229   1.146
 1756SOL    HW1 6167   4.671   5.161   1.165
 1756SOL    HW2 6168   4.549   5.202   1.065
 1757SOL     OW 6169   3.129   5.087   5.271
 1757SOL    HW1 6170   3.099   5.097   5.366
 1757SOL    HW2 6171   3.065   5.028   5.222
 1758SOL     OW 6172   0.053   6.402   3.894
 1758SOL    HW1 6173   0.062   6.305   3.916
 1758SOL    HW2 6174   0.142   6.439   3.868
 1759SOL     OW 6175   1.672   5.619   6.047
 1759SOL    HW1 6176   1.709   5.692   5.990
 1759SOL    HW2 6177   1.731   5.538   6.041
 1760SOL     OW 6178   5.984   1.398   4.447
 1760SOL    HW1 6179   5.940   1.486   4.467
 1760SOL    HW2 6180   6.068   1.414   4.396
 1761SOL     OW 6181   4.671   2.291   4.237
 1761SOL    HW1 6182   4.734   2.317   4.310
 1761SOL    HW2 6183   4.717   2.227   4.174
 1762SOL     OW 6184   0.819   1.610   5.218
 1762SOL    HW1 6185   0.889   1.662   5.168
 1762SOL    HW2 6186   0.860   1.527   5.256
 1763SOL     OW 6187   1.150   5.190   4.499
 1763SOL    HW1 6188   1.067   5.210   4.446
 1763SOL    HW2 6189   1.229   5.193   4.438
 1764SOL     OW 6190   0.837   5.184   3.006
 1764SOL    HW1 6191   0.783   5.253   3.054
 1764SOL    HW2 6192   0.933   5.193   3.032
 1765SOL     OW 6193   5.247   4.094   2.576
 1765SOL    HW1 6194   5.168   4.060   2.627
 1765SOL    HW2 6195   5.216   4.140   2.493
 1766SOL     OW 6196   3.783   4.992   3.766
 1766SOL    HW1 6197   3.737   4.997   3.854
 1766SOL    HW2 6198   3.715   4.974   3.694
 1767SOL     OW 6199   2.605   4.972   1.748
 1767SOL    HW1 6200   2.680   4.919   1.788
 1767SOL    HW2 6201   2.523   4.915   1.744
 1768SOL     OW 6202   3.675   5.461   2.536
 1768SOL    HW1 6203   3.723   5.434   2.453
 1768SOL    HW2 6204   3.670   5.384   2.599
 1769SOL     OW 6205   5.060   0.079   0.272
 1769SOL    HW1 6206   5.095   0.149   0.210
 1769SOL    HW2 6207   5.079   0.107   0.367
 1770SOL     OW 6208   2.048   3.307   0.316
 1770SOL    HW1 6209   1.962   3.261   0.338
 1770SOL    HW2 6210   2.106   3.246   0.263
 1771SOL     OW 6211   1.599   2.945   6.322
 1771SOL    HW1 6212   1.680   2.918   6.269
 1771SOL    HW2 6213   1.618   3.029   6.372
 1772SOL     OW 6214   2.708   5.214   1.603
 1772SOL    HW1 6215   2.707   5.120   1.570
 1772SOL    HW2 6216   2.756   5.218   1.691
 1773SOL     OW 6217   1.963   5.812   4.475
 1773SOL    HW1 6218   1.924   5.834   4.564
 1773SOL    HW2 6219   1.971   5.712   4.466
 1774SOL     OW 6220   5.790   4.582   1.775
 1774SOL    HW1 6221   5.798   4.556   1.871
 1774SOL    HW2 6222   5.695   4.608   1.755
 1775SOL     OW 6223   1.668   6.526   0.995
 1775SOL    HW1 6224   1.663   6.625   1.003
 1775SOL    HW2 6225   1.688   6.501   0.900
 1776SOL     OW 6226   4.414   3.340   5.820
 1776SOL    HW1 6227   4.320   3.343   5.785
 1776SOL    HW2 6228   4.412   3.349   5.920
 1777SOL     OW 6229   4.679   4.672   6.450
 1777SOL    HW1 6230   4.597   4.727   6.434
 1777SOL    HW2 6231   4.729   4.661   6.365
 1778SOL     OW 6232   0.211   0.131   2.656
 1778SOL    HW1 6233   0.283   0.070   2.689
 1778SOL    HW2 6234   0.253   0.210   2.611
 1779SOL     OW 6235   6.709   6.674   5.086
 1779SOL    HW1 6236   6.646   6.601   5.060
 1779SOL    HW2 6237   6.755   6.650   5.172
 1780SOL     OW 6238   2.580   6.860   4.979
 1780SOL    HW1 6239   2.531   6.891   5.060
 1780SOL    HW2 6240   2.520   6.801   4.925
 1781SOL     OW 6241   3.835   1.310   5.458
 1781SOL    HW1 6242   3.783   1.307   5.372
 1781SOL    HW2 6243   3.887   1.395   5.462
 1782SOL     OW 6244   5.973   0.256   2.311
 1782SOL    HW1 6245   5.878   0.271   2.337
 1782SOL    HW2 6246   6.022   0.213   2.387
 1783SOL     OW 6247   1.104   2.960   6.672
 1783SOL    HW1 6248   1.055   3.001   6.749
 1783SOL    HW2 6249   1.121   3.029   6.602
 1784SOL     OW 6250   1.661   6.217   1.401
 1784SOL    HW1 6251   1.664   6.243   1.304
 1784SOL    HW2 6252   1.687   6.295   1.458
 1785SOL     OW 6253   2.370   5.095   5.444
 1785SOL    HW1 6254   2.431   5.030   5.488
 1785SOL    HW2 6255   2.404   5.116   5.352
 1786SOL     OW 6256   0.525   5.423   2.437
 1786SOL    HW1 6257   0.619   5.390   2.449
 1786SOL    HW2 6258   0.461   5.347   2.447
 1787SOL     OW 6259   2.717   1.489   6.202
 1787SOL    HW1 6260   2.715   1.390   6.212
 1787SOL    HW2 6261   2.655   1.531   6.268
 1788SOL     OW 6262   3.603   4.149   0.519
 1788SOL    HW1 6263   3.600   4.217   0.592
 1788SOL    HW2 6264   3.512   4.141   0.478
 1789SOL     OW 6265   6.144   3.375   3.648
 1789SOL    HW1 6266   6.137   3.343   3.742
 1789SOL    HW2 6267   6.075   3.446   3.632
 1790SOL     OW 6268   2.594   2.523   4.506
 1790SOL    HW1 6269   2.495   2.533   4.513
 1790SOL    HW2 6270   2.617   2.484   4.417
 1791SOL     OW 6271   6.633   0.413   3.111
 1791SOL    HW1 6272   6.616   0.353   3.033
 1791SOL    HW2 6273   6.636   0.359   3.195
 1792SOL     OW 6274   0.219   3.720   6.000
 1792SOL    HW1 6275   0.257   3.632   5.974
 1792SOL    HW2 6276   0.160   3.708   6.080
 1793SOL     OW 6277   0.786   2.326   5.124
 1793SOL    HW1 6278   0.787   2.414   5.076
 1793SOL    HW2 6279   0.823   2.255   5.064
 1794SOL     OW 6280   6.731   2.058   6.587
 1794SOL    HW1 6281   6.827   2.071   6.560
 1794SOL    HW2 6282   6.702   2.134   6.645
 1795SOL     OW 6283   6.027   3.648   1.025
 1795SOL    HW1 6284   5.985   3.684   0.941
 1795SOL    HW2 6285   6.124   3.670   1.026
 1796SOL     OW 6286   6.525   6.525   6.242
 1796SOL    HW1 6287   6.534   6.597   6.311
 1796SOL    HW2 6288   6.439   6.476   6.255
 1797SOL     OW 6289   2.900   6.136   5.676
 1797SOL    HW1 6290   2.842   6.163   5.599
 1797SOL    HW2 6291   2.932   6.218   5.723
 1798SOL     OW 6292   2.523   4.495   0.067
 1798SOL    HW1 6293   2.548   4.561   7.016
 1798SOL    HW2 6294   2.547   4.533   0.157
 1799SOL     OW 6295   3.702   1.774   1.730
 1799SOL    HW1 6296   3.801   1.782   1.725
 1799SOL    HW2 6297   3.662   1.864   1.750
 1800SOL     OW 6298   5.512   2.551   5.839
 1800SOL    HW1 6299   5.536   2.455   5.831
 1800SOL    HW2 6300   5.459   2.580   5.759
 1801SOL     OW 6301   0.893   2.234   2.544
 1801SOL    HW1 6302   0.982   2.200   2.576
 1801SOL    HW2 6303   0.907   2.292   2.463
 1802SOL     OW 6304   6.298   4.290   4.920
 1802SOL    HW1 6305   6.263   4.347   4.846
 1802SOL    HW2 6306   6.235   4.214   4.936
 1803SOL     OW 6307   5.959   6.533   3.522
 1803SOL    HW1 6308   5.934   6.573   3.434
 1803SOL    HW2 6309   5.976   6.435   3.511
 1804SOL     OW 6310   1.370   3.120   5.964
 1804SOL    HW1 6311   1.374   3.060   5.884
 1804SOL    HW2 6312   1.367   3.064   6.047
 1805SOL     OW 6313   6.708   5.054   5.988
 1805SOL    HW1 6314   6.723   4.965   5.946
 1805SOL    HW2 6315   6.647   5.109   5.930
 1806SOL     OW 6316   0.320   1.166   2.464
 1806SOL    HW1 6317   0.277   1.124   2.384
 1806SOL    HW2 6318   0.249   1.200   2.526
 1807SOL     OW 6319   6.760   2.804   2.361
 1807SOL    HW1 6320   6.728   2.855   2.441
 1807SOL    HW2 6321   6.684   2.787   2.299
 1808SOL     OW 6322   5.895   1.275   0.040
 1808SOL    HW1 6323   5.961   1.330   7.008
 1808SOL    HW2 6324   5.839   1.336   0.098
 1809SOL     OW 6325   4.430   0.656   4.898
 1809SOL    HW1 6326   4.498   0.730   4.905
 1809SOL    HW2 6327   4.415   0.635   4.801
 1810SOL     OW 6328   1.155   1.016   4.119
 1810SOL    HW1 6329   1.159   0.917   4.112
 1810SOL    HW2 6330   1.199   1.057   4.039
 1811SOL     OW 6331   3.064   5.361   1.646
 1811SOL    HW1 6332   3.027   5.369   1.738
 1811SOL    HW2 6333   2.992   5.333   1.583
 1812SOL     OW 6334   3.658   0.763   6.482
 1812SOL    HW1 6335   3.626   0.856   6.463
 1812SOL    HW2 6336   3.594   0.698   6.442
 1813SOL     OW 6337   5.422   3.523   1.461
 1813SOL    HW1 6338   5.487   3.561   1.527
 1813SOL    HW2 6339   5.336   3.501   1.508
 1814SOL     OW 6340   6.336   5.654   1.329
 1814SOL    HW1 6341   6.386   5.740   1.339
 1814SOL    HW2 6342   6.329   5.631   1.232
 1815SOL     OW 6343   6.177   5.865   1.098
 1815SOL    HW1 6344   6.092   5.880   1.048
 1815SOL    HW2 6345   6.205   5.770   1.090
 1816SOL     OW 6346   3.770   5.157   4.939
 1816SOL    HW1 6347   3.689   5.212   4.958
 1816SOL    HW2 6348   3.761   5.067   4.983
 1817SOL     OW 6349   6.380   2.940   4.482
 1817SOL    HW1 6350   6.419   2.930   4.573
 1817SOL    HW2 6351   6.447   2.911   4.413
 1818SOL     OW 6352   2.179   2.619   0.399
 1818SOL    HW1 6353   2.236   2.538   0.409
 1818SOL    HW2 6354   2.087   2.599   0.432
 1819SOL     OW 6355   0.813   3.163   0.648
 1819SOL    HW1 6356   0.902   3.152   0.692
 1819SOL    HW2 6357   0.741   3.161   0.718
 1820SOL     OW 6358   3.671   6.480   4.620
 1820SOL    HW1 6359   3.722   6.563   4.643
 1820SOL    HW2 6360   3.704   6.405   4.676
 1821SOL     OW 6361   4.327   1.253   2.591
 1821SOL    HW1 6362   4.261   1.270   2.518
 1821SOL    HW2 6363   4.293   1.178   2.649
 1822SOL     OW 6364   2.556   4.542   5.109
 1822SOL    HW1 6365   2.653   4.560   5.096
 1822SOL    HW2 6366   2.529   4.464   5.053
 1823SOL     OW 6367   4.776   0.175   4.421
 1823SOL    HW1 6368   4.741   0.083   4.439
 1823SOL    HW2 6369   4.863   0.168   4.371
 1824SOL     OW 6370   4.508   2.888   1.649
 1824SOL    HW1 6371   4.562   2.924   1.725
 1824SOL    HW2 6372   4.411   2.896   1.671
 1825SOL     OW 6373   1.477   3.671   0.221
 1825SOL    HW1 6374   1.488   3.648   0.317
 1825SOL    HW2 6375   1.456   3.769   0.213
 1826SOL     OW 6376   4.024   3.322   6.801
 1826SOL    HW1 6377   3.991   3.231   6.776
 1826SOL    HW2 6378   3.999   3.342   6.895
 1827SOL     OW 6379   5.095   4.348   0.661
 1827SOL    HW1 6380   5.124   4.442   0.678
 1827SOL    HW2 6381   5.044   4.314   0.741
 1828SOL     OW 6382   2.688   5.907   5.193
 1828SOL    HW1 6383   2.624   5.834   5.216
 1828SOL    HW2 6384   2.764   5.907   5.258
 1829SOL     OW 6385   2.315   6.425   2.620
 1829SOL    HW1 6386   2.320   6.432   2.520
 1829SOL    HW2 6387   2.318   6.329   2.646
 1830SOL     OW 6388   4.794   1.592   6.870
 1830SOL    HW1 6389   4.804   1.612   6.967
 1830SOL    HW2 6390   4.883   1.565   6.833
 1831SOL     OW 6391   3.210   3.719   6.673
 1831SOL    HW1 6392   3.282   3.740   6.606
 1831SOL    HW2 6393   3.234   3.758   6.762
 1832SOL     OW 6394   2.102   2.140   5.615
 1832SOL    HW1 6395   2.067   2.062   5.669
 1832SOL    HW2 6396   2.127   2.214   5.677
 1833SOL     OW 6397   5.520   1.558   0.171
 1833SOL    HW1 6398   5.532   1.483   0.106
 1833SOL    HW2 6399   5.461   1.628   0.130
 1834SOL     OW 6400   1.570   3.573   6.644
 1834SOL    HW1 6401   1.586   3.502   6.576
 1834SOL    HW2 6402   1.656   3.622   6.661
 1835SOL     OW 6403   6.119   0.528   6.247
 1835SOL    HW1 6404   6.096   0.625   6.237
 1835SOL    HW2 6405   6.142   0.508   6.342
 1836SOL     OW 6406   5.665   1.004   4.974
 1836SOL    HW1 6407   5.609   1.035   4.898
 1836SOL    HW2 6408   5.618   0.931   5.023
 1837SOL     OW 6409   1.365   1.903   1.354
 1837SOL    HW1 6410   1.393   1.813   1.319
 1837SOL    HW2 6411   1.286   1.891   1.414
 1838SOL     OW 6412   4.652   0.562   0.246
 1838SOL    HW1 6413   4.737   0.509   0.240
 1838SOL    HW2 6414   4.574   0.499   0.251
 1839SOL     OW 6415   0.186   2.306   6.987
 1839SOL    HW1 6416   0.221   2.229   6.933
 1839SOL    HW2 6417   0.184   2.280   0.064
 1840SOL     OW 6418   1.739   6.709   5.291
 1840SOL    HW1 6419   1.830   6.689   5.327
 1840SOL    HW2 6420   1.707   6.797   5.327
 1841SOL     OW 6421   2.009   0.299   1.575
 1841SOL    HW1 6422   1.947   0.220   1.570
 1841SOL    HW2 6423   2.084   0.286   1.510
 1842SOL     OW 6424   0.288   4.875   1.777
 1842SOL    HW1 6425   0.377   4.832   1.764
 1842SOL    HW2 6426   0.234   4.821   1.841
 1843SOL     OW 6427   3.718   0.457   6.788
 1843SOL    HW1 6428   3.741   0.390   6.858
 1843SOL    HW2 6429   3.621   0.482   6.796
 1844SOL     OW 6430   5.178   3.047   1.410
 1844SOL    HW1 6431   5.101   3.101   1.444
 1844SOL    HW2 6432   5.155   3.009   1.320
 1845SOL     OW 6433   0.343   2.673   4.613
 1845SOL    HW1 6434   0.318   2.642   4.705
 1845SOL    HW2 6435   0.279   2.634   4.547
 1846SOL     OW 6436   3.859   1.186   2.225
 1846SOL    HW1 6437   3.842   1.262   2.286
 1846SOL    HW2 6438   3.823   1.206   2.134
 1847SOL     OW 6439   2.800   5.776   6.938
 1847SOL    HW1 6440   2.759   5.863   6.964
 1847SOL    HW2 6441   2.831   5.781   6.843
 1848SOL     OW 6442   2.767   6.036   4.608
 1848SOL    HW1 6443   2.693   6.103   4.613
 1848SOL    HW2 6444   2.754   5.966   4.678
 1849SOL     OW 6445   4.849   2.968   2.428
 1849SOL    HW1 6446   4.845   2.887   2.369
 1849SOL    HW2 6447   4.851   2.940   2.523
 1850SOL     OW 6448   4.673   1.025   0.660
 1850SOL    HW1 6449   4.629   1.012   0.749
 1850SOL    HW2 6450   4.672   1.122   0.635
 1851SOL     OW 6451   1.931   4.801   3.579
 1851SOL    HW1 6452   2.020   4.810   3.535
 1851SOL    HW2 6453   1.877   4.731   3.532
 1852SOL     OW 6454   0.096   0.596   4.580
 1852SOL    HW1 6455   0.110   0.696   4.583
 1852SOL    HW2 6456   0.001   0.575   4.603
 1853SOL     OW 6457   0.753   1.966   4.904
 1853SOL    HW1 6458   0.742   1.870   4.877
 1853SOL    HW2 6459   0.713   1.979   4.995
 1854SOL     OW 6460   1.117   6.706   4.009
 1854SOL    HW1 6461   1.178   6.783   3.991
 1854SOL    HW2 6462   1.038   6.738   4.062
 1855SOL     OW 6463   6.383   1.456   5.136
 1855SOL    HW1 6464   6.445   1.426   5.064
 1855SOL    HW2 6465   6.435   1.503   5.207
 1856SOL     OW 6466   4.359   3.781   6.945
 1856SOL    HW1 6467   4.331   3.816   0.014
 1856SOL    HW2 6468   4.279   3.769   6.887
 1857SOL     OW 6469   4.766   1.247   6.850
 1857SOL    HW1 6470   4.748   1.201   6.763
 1857SOL    HW2 6471   4.681   1.284   6.886
 1858SOL     OW 6472   4.334   1.944   4.716
 1858SOL    HW1 6473   4.321   2.026   4.771
 1858SOL    HW2 6474   4.254   1.929   4.658
 1859SOL     OW 6475   6.570   5.870   3.278
 1859SOL    HW1 6476   6.567   5.790   3.218
 1859SOL    HW2 6477   6.580   5.840   3.373
 1860SOL     OW 6478   1.660   6.935   0.308
 1860SOL    HW1 6479   1.720   6.868   0.351
 1860SOL    HW2 6480   1.572   6.937   0.356
 1861SOL     OW 6481   6.144   0.102   5.153
 1861SOL    HW1 6482   6.195   0.186   5.172
 1861SOL    HW2 6483   6.057   0.124   5.109
 1862SOL     OW 6484   4.300   4.742   4.861
 1862SOL    HW1 6485   4.319   4.670   4.928
 1862SOL    HW2 6486   4.222   4.796   4.891
 1863SOL     OW 6487   6.787   1.047   0.666
 1863SOL    HW1 6488   6.792   0.950   0.642
 1863SOL    HW2 6489   6.800   1.057   0.765
 1864SOL     OW 6490   2.993   5.417   2.726
 1864SOL    HW1 6491   2.915   5.479   2.725
 1864SOL    HW2 6492   2.966   5.329   2.686
 1865SOL     OW 6493   5.851   2.493   6.229
 1865SOL    HW1 6494   5.930   2.469   6.172
 1865SOL    HW2 6495   5.810   2.577   6.194
 1866SOL     OW 6496   0.133   4.359   5.270
 1866SOL    HW1 6497   0.117   4.364   5.369
 1866SOL    HW2 6498   0.072   4.290   5.230
 1867SOL     OW 6499   1.412   6.975   0.428
 1867SOL    HW1 6500   1.378   0.035   0.476
 1867SOL    HW2 6501   1.359   6.961   0.344
 1868SOL     OW 6502   6.101   3.688   6.101
 1868SOL    HW1 6503   6.043   3.618   6.142
 1868SOL    HW2 6504   6.084   3.776   6.146
 1869SOL     OW 6505   4.494   1.402   5.237
 1869SOL    HW1 6506   4.525   1.470   5.170
 1869SOL    HW2 6507   4.452   1.325   5.189
 1870SOL     OW 6508   5.811   1.622   5.966
 1870SOL    HW1 6509   5.837   1.711   6.005
 1870SOL    HW2 6510   5.872   1.551   6.001
 1871SOL     OW 6511   2.801   4.292   6.769
 1871SOL    HW1 6512   2.782   4.376   6.718
 1871SOL    HW2 6513   2.894   4.261   6.747
 1872SOL     OW 6514   1.988   4.022   6.635
 1872SOL    HW1 6515   2.081   4.058   6.632
 1872SOL    HW2 6516   1.923   4.095   6.613
 1873SOL     OW 6517   5.511   0.966   2.170
 1873SOL    HW1 6518   5.445   1.040   2.186
 1873SOL    HW2 6519   5.485   0.886   2.224
 1874SOL     OW 6520   2.122   5.167   6.556
 1874SOL    HW1 6521   2.161   5.080   6.526
 1874SOL    HW2 6522   2.155   5.189   6.648
 1875SOL     OW 6523   1.057   6.292   2.153
 1875SOL    HW1 6524   1.037   6.368   2.091
 1875SOL    HW2 6525   1.062   6.207   2.101
 1876SOL     OW 6526   1.669   5.092   5.252
 1876SOL    HW1 6527   1.703   5.099   5.158
 1876SOL    HW2 6528   1.676   4.998   5.284
 1877SOL     OW 6529   7.020   1.422   3.828
 1877SOL    HW1 6530   0.031   1.437   3.734
 1877SOL    HW2 6531   0.060   1.356   3.873
 1878SOL     OW 6532   5.518   3.984   3.296
 1878SOL    HW1 6533   5.555   3.904   3.250
 1878SOL    HW2 6534   5.453   4.030   3.236
 1879SOL     OW 6535   3.838   6.471   5.020
 1879SOL    HW1 6536   3.838   6.473   5.120
 1879SOL    HW2 6537   3.763   6.413   4.987
 1880SOL     OW 6538   2.175   3.973   4.251
 1880SOL    HW1 6539   2.086   3.933   4.271
 1880SOL    HW2 6540   2.184   3.989   4.153
 1881SOL     OW 6541   3.049   2.214   2.905
 1881SOL    HW1 6542   3.013   2.122   2.889
 1881SOL    HW2 6543   2.980   2.282   2.877
 1882SOL     OW 6544   4.252   0.219   6.448
 1882SOL    HW1 6545   4.251   0.302   6.503
 1882SOL    HW2 6546   4.163   0.206   6.404
 1883SOL     OW 6547   2.109   3.740   2.770
 1883SOL    HW1 6548   2.136   3.792   2.850
 1883SOL    HW2 6549   2.108   3.800   2.690
 1884SOL     OW 6550   4.699   0.883   0.456
 1884SOL    HW1 6551   4.710   0.942   0.535
 1884SOL    HW2 6552   4.656   0.935   0.381
 1885SOL     OW 6553   6.967   2.039   1.430
 1885SOL    HW1 6554   6.963   1.986   1.514
 1885SOL    HW2 6555   0.024   2.007   1.374
 1886SOL     OW 6556   3.852   2.923   4.980
 1886SOL    HW1 6557   3.754   2.913   4.994
 1886SOL    HW2 6558   3.873   2.912   4.882
 1887SOL     OW 6559   0.524   5.959   5.574
 1887SOL    HW1 6560   0.616   5.921   5.584
 1887SOL    HW2 6561   0.468   5.897   5.518
 1888SOL     OW 6562   2.493   1.288   5.490
 1888SOL    HW1 6563   2.419   1.225   5.469
 1888SOL    HW2 6564   2.494   1.308   5.588
 1889SOL     OW 6565   3.640   3.777   6.902
 1889SOL    HW1 6566   3.724   3.742   6.943
 1889SOL    HW2 6567   3.630   3.874   6.923
 1890SOL     OW 6568   6.244   6.509   6.201
 1890SOL    HW1 6569   6.221   6.541   6.293
 1890SOL    HW2 6570   6.209   6.574   6.134
 1891SOL     OW 6571   5.050   3.467   0.112
 1891SOL    HW1 6572   5.149   3.457   0.111
 1891SOL    HW2 6573   5.009   3.386   0.154
 1892SOL     OW 6574   3.149   0.640   3.217
 1892SOL    HW1 6575   3.159   0.729   3.173
 1892SOL    HW2 6576   3.102   0.650   3.304
 1893SOL     OW 6577   2.707   2.510   6.651
 1893SOL    HW1 6578   2.666   2.433   6.602
 1893SOL    HW2 6579   2.699   2.496   6.749
 1894SOL     OW 6580   5.486   3.034   1.044
 1894SOL    HW1 6581   5.393   3.035   1.007
 1894SOL    HW2 6582   5.550   3.061   0.972
 1895SOL     OW 6583   4.311   6.123   3.176
 1895SOL    HW1 6584   4.268   6.177   3.248
 1895SOL    HW2 6585   4.312   6.176   3.091
 1896SOL     OW 6586   0.341   2.116   4.401
 1896SOL    HW1 6587   0.411   2.181   4.370
 1896SOL    HW2 6588   0.256   2.133   4.351
 1897SOL     OW 6589   5.056   5.397   3.426
 1897SOL    HW1 6590   5.100   5.385   3.337
 1897SOL    HW2 6591   5.110   5.351   3.496
 1898SOL     OW 6592   4.906   6.121   0.366
 1898SOL    HW1 6593   4.938   6.036   0.324
 1898SOL    HW2 6594   4.897   6.108   0.464
 1899SOL     OW 6595   2.058   3.203   4.183
 1899SOL    HW1 6596   2.081   3.108   4.206
 1899SOL    HW2 6597   2.056   3.213   4.083
 1900SOL     OW 6598   2.623   5.420   1.459
 1900SOL    HW1 6599   2.680   5.350   1.501
 1900SOL    HW2 6600   2.530   5.413   1.494
 1901SOL     OW 6601   0.468   1.699   0.162
 1901SOL    HW1 6602   0.396   1.767   0.147
 1901SOL    HW2 6603   0.446   1.616   0.112
 1902SOL     OW 6604   1.745   2.796   4.764
 1902SOL    HW1 6605   1.836   2.756   4.762
 1902SOL    HW2 6606   1.677   2.724   4.781
 1903SOL     OW 6607   6.947   6.097   3.984
 1903SOL    HW1 6608   0.026   6.086   3.975
 1903SOL    HW2 6609   6.900   6.037   3.918
 1904SOL     OW 6610   0.455   1.384   3.913
 1904SOL    HW1 6611   0.442   1.293   3.953
 1904SOL    HW2 6612   0.383   1.445   3.946
 1905SOL     OW 6613   5.790   3.033   6.187
 1905SOL    HW1 6614   5.877   3.081   6.170
 1905SOL    HW2 6615   5.796   2.983   6.273
 1906SOL     OW 6616   2.560   5.687   6.070
 1906SOL    HW1 6617   2.658   5.670   6.058
 1906SOL    HW2 6618   2.519   5.610   6.120
 1907SOL     OW 6619   4.478   0.623   2.763
 1907SOL    HW1 6620   4.536   0.543   2.776
 1907SOL    HW2 6621   4.492   0.661   2.672
 1908SOL     OW 6622   5.602   4.081   0.650
 1908SOL    HW1 6623   5.687   4.123   0.683
 1908SOL    HW2 6624   5.526   4.144   0.667
 1909SOL     OW 6625   4.938   5.157   4.291
 1909SOL    HW1 6626   4.953   5.079   4.352
 1909SOL    HW2 6627   4.886   5.227   4.340
 1910SOL     OW 6628   4.959   4.078   4.504
 1910SOL    HW1 6629   4.889   4.029   4.452
 1910SOL    HW2 6630   5.022   4.011   4.545
 1911SOL     OW 6631   0.651   2.519   5.687
 1911SOL    HW1 6632   0.693   2.428   5.694
 1911SOL    HW2 6633   0.656   2.565   5.775
 1912SOL     OW 6634   3.578   0.593   2.249
 1912SOL    HW1 6635   3.637   0.579   2.169
 1912SOL    HW2 6636   3.626   0.649   2.317
 1913SOL     OW 6637   2.895   3.653   6.909
 1913SOL    HW1 6638   2.893   3.681   6.813
 1913SOL    HW2 6639   2.840   3.717   6.963
 1914SOL     OW 6640   4.611   1.591   5.064
 1914SOL    HW1 6641   4.585   1.688   5.060
 1914SOL    HW2 6642   4.707   1.581   5.036
 1915SOL     OW 6643   2.642   6.536   4.935
 1915SOL    HW1 6644   2.729   6.544   4.886
 1915SOL    HW2 6645   2.582   6.611   4.908
 1916SOL     OW 6646   3.878   6.454   2.765
 1916SOL    HW1 6647   3.781   6.470   2.749
 1916SOL    HW2 6648   3.929   6.539   2.748
 1917SOL     OW 6649   3.750   3.928   3.366
 1917SOL    HW1 6650   3.710   3.990   3.435
 1917SOL    HW2 6651   3.828   3.880   3.407
 1918SOL     OW 6652   0.866   6.563   6.362
 1918SOL    HW1 6653   0.872   6.624   6.283
 1918SOL    HW2 6654   0.855   6.617   6.445
 1919SOL     OW 6655   5.253   0.885   1.703
 1919SOL    HW1 6656   5.267   0.917   1.796
 1919SOL    HW2 6657   5.156   0.866   1.688
 1920SOL     OW 6658   5.708   6.541   4.384
 1920SOL    HW1 6659   5.743   6.503   4.298
 1920SOL    HW2 6660   5.715   6.641   4.382
 1921SOL     OW 6661   2.174   6.943   0.248
 1921SOL    HW1 6662   2.269   6.917   0.261
 1921SOL    HW2 6663   2.165   0.022   0.256
 1922SOL     OW 6664   3.414   5.009   6.774
 1922SOL    HW1 6665   3.317   5.027   6.758
 1922SOL    HW2 6666   3.469   5.059   6.708
 1923SOL     OW 6667   1.688   2.816   1.507
 1923SOL    HW1 6668   1.734   2.792   1.593
 1923SOL    HW2 6669   1.740   2.779   1.430
 1924SOL     OW 6670   1.226   3.729   1.656
 1924SOL    HW1 6671   1.223   3.697   1.562
 1924SOL    HW2 6672   1.302   3.685   1.704
 1925SOL     OW 6673   2.922   4.810   0.041
 1925SOL    HW1 6674   2.965   4.893   0.076
 1925SOL    HW2 6675   2.959   4.730   0.088
 1926SOL     OW 6676   0.234   0.200   2.971
 1926SOL    HW1 6677   0.298   0.246   2.910
 1926SOL    HW2 6678   0.140   0.219   2.942
 1927SOL     OW 6679   5.523   3.062   1.334
 1927SOL    HW1 6680   5.448   3.081   1.398
 1927SOL    HW2 6681   5.489   3.063   1.241
 1928SOL     OW 6682   0.345   4.764   4.750
 1928SOL    HW1 6683   0.353   4.858   4.784
 1928SOL    HW2 6684   0.341   4.764   4.650
 1929SOL     OW 6685   1.759   4.673   3.188
 1929SOL    HW1 6686   1.849   4.716   3.192
 1929SOL    HW2 6687   1.768   4.582   3.149
 1930SOL     OW 6688   6.328   5.969   6.473
 1930SOL    HW1 6689   6.397   5.917   6.423
 1930SOL    HW2 6690   6.296   6.045   6.417
 1931SOL     OW 6691   2.404   2.660   3.560
 1931SOL    HW1 6692   2.449   2.650   3.471
 1931SOL    HW2 6693   2.366   2.752   3.568
 1932SOL     OW 6694   5.935   2.946   2.659
 1932SOL    HW1 6695   5.836   2.933   2.656
 1932SOL    HW2 6696   5.978   2.890   2.588
 1933SOL     OW 6697   2.056   5.337   0.367
 1933SOL    HW1 6698   1.970   5.288   0.354
 1933SOL    HW2 6699   2.120   5.279   0.418
 1934SOL     OW 6700   0.257   6.361   2.606
 1934SOL    HW1 6701   0.317   6.335   2.682
 1934SOL    HW2 6702   0.162   6.359   2.636
 1935SOL     OW 6703   0.873   1.701   2.329
 1935SOL    HW1 6704   0.780   1.662   2.329
 1935SOL    HW2 6705   0.869   1.798   2.352
 1936SOL     OW 6706   0.204   5.957   4.985
 1936SOL    HW1 6707   0.167   6.000   5.067
 1936SOL    HW2 6708   0.131   5.941   4.920
 1937SOL     OW 6709   5.052   1.901   3.579
 1937SOL    HW1 6710   5.093   1.976   3.528
 1937SOL    HW2 6711   5.123   1.837   3.609
 1938SOL     OW 6712   4.515   0.222   3.597
 1938SOL    HW1 6713   4.418   0.207   3.577
 1938SOL    HW2 6714   4.524   0.285   3.674
 1939SOL     OW 6715   2.580   1.149   4.247
 1939SOL    HW1 6716   2.565   1.248   4.257
 1939SOL    HW2 6717   2.492   1.102   4.254
 1940SOL     OW 6718   6.821   0.724   6.764
 1940SOL    HW1 6719   6.782   0.743   6.854
 1940SOL    HW2 6720   6.773   0.647   6.722
 1941SOL     OW 6721   4.528   4.917   2.691
 1941SOL    HW1 6722   4.482   5.005   2.688
 1941SOL    HW2 6723   4.618   4.924   2.647
 1942SOL     OW 6724   7.001   3.395   2.516
 1942SOL    HW1 6725   6.944   3.437   2.587
 1942SOL    HW2 6726   0.033   3.466   2.469
 1943SOL     OW 6727   3.660   5.294   3.675
 1943SOL    HW1 6728   3.631   5.200   3.654
 1943SOL    HW2 6729   3.602   5.359   3.625
 1944SOL     OW 6730   6.400   6.441   1.994
 1944SOL    HW1 6731   6.423   6.357   1.945
 1944SOL    HW2 6732   6.398   6.518   1.930
 1945SOL     OW 6733   3.459   5.245   2.435
 1945SOL    HW1 6734   3.511   5.234   2.350
 1945SOL    HW2 6735   3.494   5.181   2.504
 1946SOL     OW 6736   1.059   6.158   6.611
 1946SOL    HW1 6737   1.091   6.253   6.611
 1946SOL    HW2 6738   1.133   6.099   6.645
 1947SOL     OW 6739   4.388   1.317   3.792
 1947SOL    HW1 6740   4.370   1.397   3.849
 1947SOL    HW2 6741   4.473   1.331   3.740
 1948SOL     OW 6742   6.160   3.056   5.004
 1948SOL    HW1 6743   6.073   3.090   5.041
 1948SOL    HW2 6744   6.227   3.048   5.078
 1949SOL     OW 6745   4.764   3.873   0.018
 1949SOL    HW1 6746   4.810   3.789   7.011
 1949SOL    HW2 6747   4.684   3.851   0.074
 1950SOL     OW 6748   2.382   4.945   0.760
 1950SOL    HW1 6749   2.386   5.045   0.765
 1950SOL    HW2 6750   2.475   4.910   0.749
 1951SOL     OW 6751   5.522   2.931   6.564
 1951SOL    HW1 6752   5.568   2.885   6.640
 1951SOL    HW2 6753   5.483   2.863   6.502
 1952SOL     OW 6754   2.905   3.387   3.091
 1952SOL    HW1 6755   2.919   3.481   3.122
 1952SOL    HW2 6756   2.970   3.327   3.137
 1953SOL     OW 6757   0.955   2.137   4.944
 1953SOL    HW1 6758   0.901   2.053   4.940
 1953SOL    HW2 6759   0.934   2.195   4.865
 1954SOL     OW 6760   2.361   1.777   4.251
 1954SOL    HW1 6761   2.435   1.836   4.219
 1954SOL    HW2 6762   2.385   1.738   4.340
 1955SOL     OW 6763   6.421   5.581   2.951
 1955SOL    HW1 6764   6.485   5.622   2.886
 1955SOL    HW2 6765   6.365   5.513   2.904
 1956SOL     OW 6766   3.949   6.303   3.614
 1956SOL    HW1 6767   3.880   6.296   3.686
 1956SOL    HW2 6768   3.986   6.212   3.595
 1957SOL     OW 6769   2.300   6.156   5.587
 1957SOL    HW1 6770   2.231   6.206   5.640
 1957SOL    HW2 6771   2.345   6.089   5.646
 1958SOL     OW 6772   3.934   3.651   5.883
 1958SOL    HW1 6773   3.932   3.612   5.975
 1958SOL    HW2 6774   3.937   3.751   5.889
 1959SOL     OW 6775   3.414   0.077   0.950
 1959SOL    HW1 6776   3.368   7.019   0.993
 1959SOL    HW2 6777   3.443   0.051   0.857
 1960SOL     OW 6778   4.467   5.642   3.230
 1960SOL    HW1 6779   4.489   5.717   3.166
 1960SOL    HW2 6780   4.368   5.633   3.237
 1961SOL     OW 6781   5.997   5.433   5.284
 1961SOL    HW1 6782   5.960   5.440   5.191
 1961SOL    HW2 6783   5.949   5.361   5.334
 1962SOL     OW 6784   0.456   6.617   4.332
 1962SOL    HW1 6785   0.477   6.714   4.318
 1962SOL    HW2 6786   0.538   6.569   4.362
 1963SOL     OW 6787   2.528   1.658   3.864
 1963SOL    HW1 6788   2.542   1.566   3.829
 1963SOL    HW2 6789   2.431   1.683   3.857
 1964SOL     OW 6790   6.553   2.398   1.988
 1964SOL    HW1 6791   6.519   2.334   2.057
 1964SOL    HW2 6792   6.643   2.433   2.016
 1965SOL     OW 6793   1.491   6.324   3.270
 1965SOL    HW1 6794   1.587   6.329   3.296
 1965SOL    HW2 6795   1.464   6.408   3.223
 1966SOL     OW 6796   6.651   6.326   0.414
 1966SOL    HW1 6797   6.555   6.306   0.395
 1966SOL    HW2 6798   6.683   6.267   0.488
 1967SOL     OW 6799   6.738   2.617   4.849
 1967SOL    HW1 6800   6.689   2.672   4.781
 1967SOL    HW2 6801   6.825   2.661   4.870
 1968SOL     OW 6802   4.543   5.647   4.436
 1968SOL    HW1 6803   4.508   5.726   4.485
 1968SOL    HW2 6804   4.497   5.564   4.468
 1969SOL     OW 6805   6.000   0.825   1.221
 1969SOL    HW1 6806   6.092   0.786   1.210
 1969SOL    HW2 6807   5.994   0.911   1.171
 1970SOL     OW 6808   2.179   1.427   4.984
 1970SOL    HW1 6809   2.182   1.402   5.081
 1970SOL    HW2 6810   2.240   1.504   4.968
 1971SOL     OW 6811   0.247   1.607   5.677
 1971SOL    HW1 6812   0.307   1.566   5.746
 1971SOL    HW2 6813   0.180   1.539   5.647
 1972SOL     OW 6814   1.141   6.414   3.946
 1972SOL    HW1 6815   1.125   6.512   3.956
 1972SOL    HW2 6816   1.147   6.372   4.037
 1973SOL     OW 6817   3.832   2.773   0.166
 1973SOL    HW1 6818   3.877   2.780   0.078
 1973SOL    HW2 6819   3.781   2.687   0.170
 1974SOL     OW 6820   6.058   6.152   4.117
 1974SOL    HW1 6821   6.029   6.081   4.053
 1974SOL    HW2 6822   6.133   6.205   4.076
 1975SOL     OW 6823   2.409   0.191   3.954
 1975SOL    HW1 6824   2.320   0.170   3.994
 1975SOL    HW2 6825   2.481   0.169   4.020
 1976SOL     OW 6826   6.243   4.253   6.701
 1976SOL    HW1 6827   6.213   4.299   6.785
 1976SOL    HW2 6828   6.175   4.269   6.629
 1977SOL     OW 6829   3.077   2.047   5.230
 1977SOL    HW1 6830   3.093   2.131   5.177
 1977SOL    HW2 6831   3.159   1.991   5.228
 1978SOL     OW 6832   0.273   2.647   5.057
 1978SOL    HW1 6833   0.371   2.665   5.048
 1978SOL    HW2 6834   0.229   2.660   4.968
 1979SOL     OW 6835   6.571   4.190   2.266
 1979SOL    HW1 6836   6.528   4.109   2.306
 1979SOL    HW2 6837   6.660   4.167   2.228
 1980SOL     OW 6838   2.781   0.610   3.289
 1980SOL    HW1 6839   2.793   0.673   3.212
 1980SOL    HW2 6840   2.865   0.607   3.343
 1981SOL     OW 6841   5.433   3.225   2.479
 1981SOL    HW1 6842   5.437   3.299   2.547
 1981SOL    HW2 6843   5.517   3.170   2.485
 1982SOL     OW 6844   0.240   6.836   5.512
 1982SOL    HW1 6845   0.310   6.889   5.466
 1982SOL    HW2 6846   0.150   6.874   5.491
 1983SOL     OW 6847   0.938   4.899   1.605
 1983SOL    HW1 6848   0.985   4.857   1.527
 1983SOL    HW2 6849   0.977   4.863   1.690
 1984SOL     OW 6850   3.566   0.171   5.742
 1984SOL    HW1 6851   3.633   0.118   5.794
 1984SOL    HW2 6852   3.594   0.267   5.739
 1985SOL     OW 6853   1.109   5.304   2.119
 1985SOL    HW1 6854   1.158   5.225   2.155
 1985SOL    HW2 6855   1.108   5.301   2.019
 1986SOL     OW 6856   5.886   2.088   1.094
 1986SOL    HW1 6857   5.844   2.003   1.061
 1986SOL    HW2 6858   5.972   2.066   1.141
 1987SOL     OW 6859   1.778   3.132   0.619
 1987SOL    HW1 6860   1.800   3.137   0.522
 1987SOL    HW2 6861   1.847   3.182   0.672
 1988SOL     OW 6862   5.250   2.600   1.491
 1988SOL    HW1 6863   5.324   2.537   1.513
 1988SOL    HW2 6864   5.165   2.549   1.482
 1989SOL     OW 6865   2.563   2.349   3.221
 1989SOL    HW1 6866   2.516   2.274   3.174
 1989SOL    HW2 6867   2.580   2.323   3.316
 1990SOL     OW 6868   1.488   6.998   3.004
 1990SOL    HW1 6869   1.493   7.017   2.906
 1990SOL    HW2 6870   1.540   6.916   3.025
 1991SOL     OW 6871   5.414   5.447   2.391
 1991SOL    HW1 6872   5.445   5.400   2.308
 1991SOL    HW2 6873   5.473   5.526   2.408
 1992SOL     OW 6874   1.925   5.994   5.095
 1992SOL    HW1 6875   1.863   5.918   5.115
 1992SOL    HW2 6876   2.011   5.958   5.059
 1993SOL     OW 6877   3.412   3.208   4.005
 1993SOL    HW1 6878   3.370   3.250   4.086
 1993SOL    HW2 6879   3.378   3.114   3.995
 1994SOL     OW 6880   6.337   1.731   1.142
 1994SOL    HW1 6881   6.369   1.764   1.053
 1994SOL    HW2 6882   6.300   1.808   1.194
 1995SOL     OW 6883   4.250   2.822   1.670
 1995SOL    HW1 6884   4.158   2.819   1.709
 1995SOL    HW2 6885   4.300   2.740   1.697
 1996SOL     OW 6886   2.166   5.362   6.094
 1996SOL    HW1 6887   2.251   5.409   6.120
 1996SOL    HW2 6888   2.154   5.281   6.151
 1997SOL     OW 6889   5.772   6.199   4.727
 1997SOL    HW1 6890   5.808   6.255   4.802
 1997SOL    HW2 6891   5.848   6.156   4.678
 1998SOL     OW 6892   3.097   5.151   4.928
 1998SOL    HW1 6893   3.088   5.093   5.009
 1998SOL    HW2 6894   3.138   5.098   4.854
 1999SOL     OW 6895   3.513   1.033   2.169
 1999SOL    HW1 6896   3.499   1.003   2.075
 1999SOL    HW2 6897   3.608   1.016   2.196
 2000SOL     OW 6898   3.123   0.804   6.168
 2000SOL    HW1 6899   3.100   0.773   6.076
 2000SOL    HW2 6900   3.040   0.812   6.223
 2001SOL     OW 6901   1.909   3.317   0.070
 2001SOL    HW1 6902   1.945   3.274   7.006
 2001SOL    HW2 6903   1.984   3.361   0.119
 2002SOL     OW 6904   2.060   5.079   5.154
 2002SOL    HW1 6905   1.973   5.061   5.107
 2002SOL    HW2 6906   2.046   5.074   5.253
 2003SOL     OW 6907   6.356   4.071   3.514
 2003SOL    HW1 6908   6.304   4.089   3.431
 2003SOL    HW2 6909   6.318   3.991   3.560
 2004SOL     OW 6910   3.299   6.962   6.608
 2004SOL    HW1 6911   3.324   6.908   6.528
 2004SOL    HW2 6912   3.357   0.023   6.612
 2005SOL     OW 6913   2.654   6.946   5.499
 2005SOL    HW1 6914   2.678   6.997   5.582
 2005SOL    HW2 6915   2.574   6.888   5.517
 2006SOL     OW 6916   5.116   0.439   2.542
 2006SOL    HW1 6917   5.197   0.414   2.489
 2006SOL    HW2 6918   5.035   0.399   2.499
 2007SOL     OW 6919   6.766   5.308   0.220
 2007SOL    HW1 6920   6.767   5.223   0.169
 2007SOL    HW2 6921   6.788   5.384   0.159
 2008SOL     OW 6922   0.191   5.539   5.835
 2008SOL    HW1 6923   0.252   5.461   5.850
 2008SOL    HW2 6924   0.153   5.568   5.923
 2009SOL     OW 6925   1.211   0.280   0.059
 2009SOL    HW1 6926   1.255   0.356   0.108
 2009SOL    HW2 6927   1.112   0.288   0.067
 2010SOL     OW 6928   2.803   0.808   1.042
 2010SOL    HW1 6929   2.821   0.893   0.993
 2010SOL    HW2 6930   2.820   0.730   0.981
 2011SOL     OW 6931   0.218   1.736   4.999
 2011SOL    HW1 6932   0.211   1.771   4.906
 2011SOL    HW2 6933   0.175   1.645   5.004
 2012SOL     OW 6934   6.913   3.393   2.207
 2012SOL    HW1 6935   6.851   3.348   2.271
 2012SOL    HW2 6936   7.006   3.392   2.245
 2013SOL     OW 6937   3.504   2.271   1.668
 2013SOL    HW1 6938   3.554   2.268   1.754
 2013SOL    HW2 6939   3.568   2.272   1.591
 2014SOL     OW 6940   3.564   4.964   3.566
 2014SOL    HW1 6941   3.510   5.042   3.535
 2014SOL    HW2 6942   3.563   4.893   3.496
 2015SOL     OW 6943   2.881   5.207   6.852
 2015SOL    HW1 6944   2.855   5.110   6.853
 2015SOL    HW2 6945   2.809   5.261   6.895
 2016SOL     OW 6946   6.861   5.344   5.262
 2016SOL    HW1 6947   6.783   5.326   5.322
 2016SOL    HW2 6948   6.830   5.345   5.167
 2017SOL     OW 6949   2.058   4.857   1.473
 2017SOL    HW1 6950   2.142   4.900   1.510
 2017SOL    HW2 6951   2.006   4.817   1.549
 2018SOL     OW 6952   0.427   4.507   4.740
 2018SOL    HW1 6953   0.418   4.458   4.654
 2018SOL    HW2 6954   0.413   4.605   4.725
 2019SOL     OW 6955   5.790   0.744   2.628
 2019SOL    HW1 6956   5.820   0.664   2.680
 2019SOL    HW2 6957   5.744   0.714   2.544
 2020SOL     OW 6958   2.139   5.026   3.283
 2020SOL    HW1 6959   2.063   5.090   3.292
 2020SOL    HW2 6960   2.186   5.042   3.196
 2021SOL     OW 6961   1.539   6.381   1.720
 2021SOL    HW1 6962   1.621   6.328   1.701
 2021SOL    HW2 6963   1.501   6.353   1.809
 2022SOL     OW 6964   4.023   5.214   1.740
 2022SOL    HW1 6965   3.948   5.261   1.786
 2022SOL    HW2 6966   3.990   5.129   1.699
 2023SOL     OW 6967   0.186   2.727   6.109
 2023SOL    HW1 6968   0.232   2.686   6.030
 2023SOL    HW2 6969   0.102   2.677   6.128
 2024SOL     OW 6970   5.567   6.681   3.413
 2024SOL    HW1 6971   5.500   6.746   3.376
 2024SOL    HW2 6972   5.650   6.684   3.357
 2025SOL     OW 6973   6.460   0.911   1.062
 2025SOL    HW1 6974   6.507   0.896   1.149
 2025SOL    HW2 6975   6.497   0.992   1.017
 2026SOL     OW 6976   2.431   2.165   5.069
 2026SOL    HW1 6977   2.485   2.091   5.109
 2026SOL    HW2 6978   2.380   2.211   5.142
 2027SOL     OW 6979   6.358   6.873   2.015
 2027SOL    HW1 6980   6.259   6.878   2.027
 2027SOL    HW2 6981   6.399   6.961   2.041
 2028SOL     OW 6982   3.728   4.128   5.792
 2028SOL    HW1 6983   3.753   4.146   5.697
 2028SOL    HW2 6984   3.630   4.146   5.804
 2029SOL     OW 6985   2.255   0.536   0.081
 2029SOL    HW1 6986   2.188   0.527   0.007
 2029SOL    HW2 6987   2.303   0.623   0.072
 2030SOL     OW 6988   1.994   2.884   2.621
 2030SOL    HW1 6989   2.064   2.830   2.573
 2030SOL    HW2 6990   2.036   2.968   2.656
 2031SOL     OW 6991   6.130   6.872   2.318
 2031SOL    HW1 6992   6.109   6.885   2.222
 2031SOL    HW2 6993   6.227   6.890   2.334
 2032SOL     OW 6994   4.373   6.292   2.701
 2032SOL    HW1 6995   4.418   6.203   2.705
 2032SOL    HW2 6996   4.387   6.332   2.610
 2033SOL     OW 6997   0.439   4.786   0.025
 2033SOL    HW1 6998   0.440   4.755   6.950
 2033SOL    HW2 6999   0.413   4.883   0.028
 2034SOL     OW 7000   2.016   5.554   3.941
 2034SOL    HW1 7001   2.004   5.651   3.961
 2034SOL    HW2 7002   1.988   5.500   4.021
 2035SOL     OW 7003   0.584   0.815   3.003
 2035SOL    HW1 7004   0.677   0.785   2.980
 2035SOL    HW2 7005   0.554   0.769   3.086
 2036SOL     OW 7006   1.212   4.135   1.701
 2036SOL    HW1 7007   1.152   4.212   1.721
 2036SOL    HW2 7008   1.166   4.073   1.638
 2037SOL     OW 7009   0.784   2.912   5.932
 2037SOL    HW1 7010   0.817   2.890   5.841
 2037SOL    HW2 7011   0.692   2.877   5.944
 2038SOL     OW 7012   1.562   6.538   4.959
 2038SOL    HW1 7013   1.573   6.637   4.950
 2038SOL    HW2 7014   1.635   6.502   5.018
 2039SOL     OW 7015   1.082   5.173   1.847
 2039SOL    HW1 7016   1.149   5.099   1.851
 2039SOL    HW2 7017   1.062   5.196   1.752
 2040SOL     OW 7018   4.085   3.255   4.182
 2040SOL    HW1 7019   4.161   3.316   4.162
 2040SOL    HW2 7020   4.066   3.256   4.281
 2041SOL     OW 7021   5.158   3.090   0.363
 2041SOL    HW1 7022   5.094   3.015   0.351
 2041SOL    HW2 7023   5.229   3.064   0.428
 2042SOL     OW 7024   3.505   6.577   0.337
 2042SOL    HW1 7025   3.492   6.638   0.416
 2042SOL    HW2 7026   3.567   6.503   0.362
 2043SOL     OW 7027   4.681   5.110   2.504
 2043SOL    HW1 7028   4.601   5.145   2.552
 2043SOL    HW2 7029   4.763   5.129   2.557
 2044SOL     OW 7030   6.239   0.919   1.777
 2044SOL    HW1 7031   6.163   0.911   1.841
 2044SOL    HW2 7032   6.204   0.910   1.683
 2045SOL     OW 7033   3.551   6.784   5.546
 2045SOL    HW1 7034   3.575   6.837   5.627
 2045SOL    HW2 7035   3.508   6.843   5.478
 2046SOL     OW 7036   6.337   0.793   5.571
 2046SOL    HW1 7037   6.262   0.735   5.603
 2046SOL    HW2 7038   6.300   0.869   5.518
 2047SOL     OW 7039   5.330   3.490   0.148
 2047SOL    HW1 7040   5.376   3.477   0.236
 2047SOL    HW2 7041   5.336   3.406   0.095
 2048SOL     OW 7042   4.822   6.453   5.205
 2048SOL    HW1 7043   4.809   6.447   5.106
 2048SOL    HW2 7044   4.913   6.490   5.225
 2049SOL     OW 7045   5.421   5.882   6.647
 2049SOL    HW1 7046   5.449   5.829   6.567
 2049SOL    HW2 7047   5.402   5.820   6.723
 2050SOL     OW 7048   5.903   1.156   3.674
 2050SOL    HW1 7049   5.887   1.092   3.598
 2050SOL    HW2 7050   5.816   1.179   3.717
 2051SOL     OW 7051   3.306   5.985   1.185
 2051SOL    HW1 7052   3.226   5.999   1.243
 2051SOL    HW2 7053   3.290   5.907   1.124
 2052SOL     OW 7054   0.952   2.255   1.105
 2052SOL    HW1 7055   0.861   2.294   1.121
 2052SOL    HW2 7056   0.973   2.190   1.177
 2053SOL     OW 7057   5.428   0.735   0.309
 2053SOL    HW1 7058   5.411   0.827   0.276
 2053SOL    HW2 7059   5.473   0.681   0.237
 2054SOL     OW 7060   0.552   2.638   0.367
 2054SOL    HW1 7061   0.462   2.666   0.401
 2054SOL    HW2 7062   0.606   2.720   0.345
 2055SOL     OW 7063   6.116   1.063   4.034
 2055SOL    HW1 7064   6.081   1.157   4.032
 2055SOL    HW2 7065   6.099   1.024   4.125
 2056SOL     OW 7066   6.780   6.943   2.199
 2056SOL    HW1 7067   6.796   6.948   2.100
 2056SOL    HW2 7068   6.778   6.847   2.227
 2057SOL     OW 7069   5.094   3.136   4.050
 2057SOL    HW1 7070   5.090   3.098   3.957
 2057SOL    HW2 7071   5.094   3.062   4.117
 2058SOL     OW 7072   0.988   1.228   1.509
 2058SOL    HW1 7073   0.891   1.253   1.508
 2058SOL    HW2 7074   1.002   1.144   1.457
 2059SOL     OW 7075   1.655   0.238   0.167
 2059SOL    HW1 7076   1.700   0.244   0.256
 2059SOL    HW2 7077   1.660   0.143   0.134
 2060SOL     OW 7078   0.714   5.069   3.254
 2060SOL    HW1 7079   0.742   4.990   3.199
 2060SOL    HW2 7080   0.788   5.137   3.254
 2061SOL     OW 7081   1.447   0.335   0.341
 2061SOL    HW1 7082   1.373   0.383   0.294
 2061SOL    HW2 7083   1.519   0.311   0.275
 2062SOL     OW 7084   3.992   0.074   3.914
 2062SOL    HW1 7085   3.900   0.090   3.950
 2062SOL    HW2 7086   3.987   0.062   3.815
 2063SOL     OW 7087   2.508   3.105   1.120
 2063SOL    HW1 7088   2.539   3.183   1.175
 2063SOL    HW2 7089   2.509   3.022   1.177
 2064SOL     OW 7090   0.536   1.766   1.058
 2064SOL    HW1 7091   0.624   1.805   1.032
 2064SOL    HW2 7092   0.478   1.837   1.099
 2065SOL     OW 7093   0.255   3.153   3.257
 2065SOL    HW1 7094   0.317   3.101   3.315
 2065SOL    HW2 7095   0.241   3.244   3.295
 2066SOL     OW 7096   0.695   6.312   3.450
 2066SOL    HW1 7097   0.711   6.245   3.377
 2066SOL    HW2 7098   0.598   6.312   3.474
 2067SOL     OW 7099   0.106   0.401   0.921
 2067SOL    HW1 7100   0.151   0.490   0.916
 2067SOL    HW2 7101   0.011   0.410   0.888
 2068SOL     OW 7102   2.170   2.091   5.371
 2068SOL    HW1 7103   2.169   1.991   5.379
 2068SOL    HW2 7104   2.144   2.132   5.458
 2069SOL     OW 7105   1.995   2.110   1.946
 2069SOL    HW1 7106   1.962   2.109   1.852
 2069SOL    HW2 7107   2.019   2.203   1.973
 2070SOL     OW 7108   0.527   1.972   2.575
 2070SOL    HW1 7109   0.493   1.878   2.582
 2070SOL    HW2 7110   0.543   1.994   2.479
 2071SOL     OW 7111   2.786   5.909   5.811
 2071SOL    HW1 7112   2.855   5.981   5.809
 2071SOL    HW2 7113   2.722   5.927   5.886
 2072SOL     OW 7114   5.452   4.180   2.740
 2072SOL    HW1 7115   5.408   4.148   2.656
 2072SOL    HW2 7116   5.424   4.275   2.757
 2073SOL     OW 7117   3.414   6.834   4.856
 2073SOL    HW1 7118   3.446   6.923   4.824
 2073SOL    HW2 7119   3.447   6.762   4.794
 2074SOL     OW 7120   4.603   1.794   3.435
 2074SOL    HW1 7121   4.681   1.795   3.373
 2074SOL    HW2 7122   4.634   1.771   3.528
 2075SOL     OW 7123   3.749   2.729   6.500
 2075SOL    HW1 7124   3.801   2.813   6.514
 2075SOL    HW2 7125   3.674   2.725   6.565
 2076SOL     OW 7126   4.838   6.793   0.524
 2076SOL    HW1 7127   4.782   6.735   0.464
 2076SOL    HW2 7128   4.905   6.737   0.572
 2077SOL     OW 7129   3.665   1.386   5.240
 2077SOL    HW1 7130   3.631   1.318   5.175
 2077SOL    HW2 7131   3.659   1.477   5.198
 2078SOL     OW 7132   3.930   6.374   4.063
 2078SOL    HW1 7133   4.014   6.396   4.112
 2078SOL    HW2 7134   3.868   6.324   4.123
 2079SOL     OW 7135   5.376   7.011   3.831
 2079SOL    HW1 7136   5.422   6.922   3.827
 2079SOL    HW2 7137   5.395   0.034   3.920
 2080SOL     OW 7138   3.136   1.723   2.943
 2080SOL    HW1 7139   3.048   1.687   2.976
 2080SOL    HW2 7140   3.144   1.820   2.969
 2081SOL     OW 7141   1.225   5.709   3.496
 2081SOL    HW1 7142   1.320   5.680   3.497
 2081SOL    HW2 7143   1.220   5.809   3.499
 2082SOL     OW 7144   4.573   1.038   3.232
 2082SOL    HW1 7145   4.507   1.006   3.164
 2082SOL    HW2 7146   4.663   1.046   3.189
 2083SOL     OW 7147   3.942   4.779   6.025
 2083SOL    HW1 7148   3.991   4.831   5.956
 2083SOL    HW2 7149   3.870   4.724   5.982
 2084SOL     OW 7150   0.252   2.415   3.224
 2084SOL    HW1 7151   0.321   2.385   3.158
 2084SOL    HW2 7152   0.196   2.487   3.183
 2085SOL     OW 7153   5.791   6.920   0.460
 2085SOL    HW1 7154   5.881   6.878   0.456
 2085SOL    HW2 7155   5.774   6.956   0.552
 2086SOL     OW 7156   3.609   5.735   6.500
 2086SOL    HW1 7157   3.666   5.814   6.522
 2086SOL    HW2 7158   3.537   5.726   6.568
 2087SOL     OW 7159   6.092   5.777   2.733
 2087SOL    HW1 7160   6.141   5.805   2.815
 2087SOL    HW2 7161   6.004   5.738   2.759
 2088SOL     OW 7162   2.293   6.459   1.228
 2088SOL    HW1 7163   2.213   6.398   1.231
 2088SOL    HW2 7164   2.272   6.542   1.280
 2089SOL     OW 7165   2.412   0.832   6.762
 2089SOL    HW1 7166   2.486   0.854   6.699
 2089SOL    HW2 7167   2.365   0.916   6.789
 2090SOL     OW 7168   2.951   3.501   3.400
 2090SOL    HW1 7169   2.982   3.407   3.389
 2090SOL    HW2 7170   2.884   3.506   3.474
 2091SOL     OW 7171   2.437   3.947   1.293
 2091SOL    HW1 7172   2.462   4.008   1.367
 2091SOL    HW2 7173   2.340   3.924   1.299
 2092SOL     OW 7174   5.857   0.086   0.217
 2092SOL    HW1 7175   5.784   0.039   0.268
 2092SOL    HW2 7176   5.937   0.026   0.211
 2093SOL     OW 7177   1.428   1.431   1.831
 2093SOL    HW1 7178   1.508   1.376   1.852
 2093SOL    HW2 7179   1.406   1.421   1.733
 2094SOL     OW 7180   0.052   0.956   2.570
 2094SOL    HW1 7181   0.071   1.021   2.496
 2094SOL    HW2 7182   0.138   0.920   2.606
 2095SOL     OW 7183   6.206   4.321   5.257
 2095SOL    HW1 7184   6.227   4.256   5.330
 2095SOL    HW2 7185   6.289   4.340   5.205
 2096SOL     OW 7186   4.959   4.386   3.748
 2096SOL    HW1 7187   4.931   4.482   3.741
 2096SOL    HW2 7188   4.882   4.331   3.781
 2097SOL     OW 7189   6.890   3.500   5.491
 2097SOL    HW1 7190   6.910   3.561   5.415
 2097SOL    HW2 7191   6.814   3.440   5.467
 2098SOL     OW 7192   4.540   0.328   4.433
 2098SOL    HW1 7193   4.457   0.276   4.411
 2098SOL    HW2 7194   4.619   0.267   4.431
 2099SOL     OW 7195   2.616   1.590   4.140
 2099SOL    HW1 7196   2.693   1.650   4.161
 2099SOL    HW2 7197   2.574   1.618   4.054
 2100SOL     OW 7198   4.616   4.636   5.744
 2100SOL    HW1 7199   4.634   4.554   5.799
 2100SOL    HW2 7200   4.526   4.628   5.701
 2101SOL     OW 7201   5.762   0.103   1.799
 2101SOL    HW1 7202   5.735   0.155   1.718
 2101SOL    HW2 7203   5.693   0.116   1.871
 2102SOL     OW 7204   6.993   5.091   0.936
 2102SOL    HW1 7205   6.951   5.075   0.847
 2102SOL    HW2 7206   6.935   5.052   1.008
 2103SOL     OW 7207   3.482   3.757   6.527
 2103SOL    HW1 7208   3.500   3.681   6.589
 2103SOL    HW2 7209   3.566   3.811   6.515
 2104SOL     OW 7210   0.558   4.889   6.252
 2104SOL    HW1 7211   0.576   4.876   6.350
 2104SOL    HW2 7212   0.635   4.855   6.199
 2105SOL     OW 7213   4.968   6.188   2.229
 2105SOL    HW1 7214   4.976   6.266   2.167
 2105SOL    HW2 7215   5.032   6.117   2.202
 2106SOL     OW 7216   6.320   6.414   6.502
 2106SOL    HW1 7217   6.336   6.336   6.442
 2106SOL    HW2 7218   6.222   6.434   6.506
 2107SOL     OW 7219   2.611   5.087   6.900
 2107SOL    HW1 7220   2.618   5.067   6.803
 2107SOL    HW2 7221   2.608   5.186   6.914
 2108SOL     OW 7222   5.589   4.553   6.509
 2108SOL    HW1 7223   5.519   4.526   6.575
 2108SOL    HW2 7224   5.618   4.647   6.528
 2109SOL     OW 7225   5.519   5.768   2.878
 2109SOL    HW1 7226   5.521   5.833   2.803
 2109SOL    HW2 7227   5.613   5.744   2.904
 2110SOL     OW 7228   1.426   5.185   5.548
 2110SOL    HW1 7229   1.501   5.183   5.482
 2110SOL    HW2 7230   1.409   5.092   5.581
 2111SOL     OW 7231   1.683   1.747   6.591
 2111SOL    HW1 7232   1.761   1.710   6.642
 2111SOL    HW2 7233   1.690   1.846   6.588
 2112SOL     OW 7234   5.068   3.835   0.527
 2112SOL    HW1 7235   4.974   3.863   0.506
 2112SOL    HW2 7236   5.106   3.786   0.449
 2113SOL     OW 7237   6.536   1.218   3.960
 2113SOL    HW1 7238   6.566   1.170   4.042
 2113SOL    HW2 7239   6.616   1.244   3.905
 2114SOL     OW 7240   1.277   3.552   6.108
 2114SOL    HW1 7241   1.239   3.467   6.144
 2114SOL    HW2 7242   1.272   3.551   6.008
 2115SOL     OW 7243   3.945   4.979   1.650
 2115SOL    HW1 7244   4.030   4.948   1.608
 2115SOL    HW2 7245   3.889   4.900   1.674
 2116SOL     OW 7246   0.610   4.002   4.263
 2116SOL    HW1 7247   0.555   4.033   4.340
 2116SOL    HW2 7248   0.681   4.069   4.243
 2117SOL     OW 7249   5.938   5.653   5.914
 2117SOL    HW1 7250   5.928   5.597   5.996
 2117SOL    HW2 7251   6.032   5.647   5.880
 2118SOL     OW 7252   0.023   2.970   2.422
 2118SOL    HW1 7253   0.082   3.049   2.435
 2118SOL    HW2 7254   0.031   2.937   2.328
 2119SOL     OW 7255   4.131   6.842   6.942
 2119SOL    HW1 7256   4.220   6.824   6.984
 2119SOL    HW2 7257   4.085   6.755   6.923
 2120SOL     OW 7258   6.398   3.959   2.064
 2120SOL    HW1 7259   6.401   4.059   2.055
 2120SOL    HW2 7260   6.491   3.924   2.076
 2121SOL     OW 7261   0.647   3.747   4.320
 2121SOL    HW1 7262   0.736   3.742   4.365
 2121SOL    HW2 7263   0.628   3.841   4.293
 2122SOL     OW 7264   3.945   5.300   5.168
 2122SOL    HW1 7265   3.887   5.230   5.210
 2122SOL    HW2 7266   4.040   5.288   5.199
 2123SOL     OW 7267   3.942   6.287   3.240
 2123SOL    HW1 7268   3.906   6.360   3.299
 2123SOL    HW2 7269   4.001   6.227   3.294
 2124SOL     OW 7270   2.386   2.603   1.722
 2124SOL    HW1 7271   2.427   2.642   1.640
 2124SOL    HW2 7272   2.367   2.675   1.789
 2125SOL     OW 7273   5.013   5.928   6.799
 2125SOL    HW1 7274   4.997   5.955   6.704
 2125SOL    HW2 7275   5.111   5.912   6.813
 2126SOL     OW 7276   2.957   1.884   1.163
 2126SOL    HW1 7277   3.007   1.833   1.093
 2126SOL    HW2 7278   2.889   1.824   1.205
 2127SOL     OW 7279   5.586   2.410   4.357
 2127SOL    HW1 7280   5.670   2.370   4.320
 2127SOL    HW2 7281   5.516   2.412   4.286
 2128SOL     OW 7282   0.976   3.485   4.406
 2128SOL    HW1 7283   0.909   3.470   4.478
 2128SOL    HW2 7284   0.932   3.474   4.317
 2129SOL     OW 7285   4.481   2.429   4.913
 2129SOL    HW1 7286   4.511   2.374   4.991
 2129SOL    HW2 7287   4.382   2.442   4.918
 2130SOL     OW 7288   4.662   6.507   2.783
 2130SOL    HW1 7289   4.742   6.550   2.823
 2130SOL    HW2 7290   4.691   6.435   2.720
 2131SOL     OW 7291   4.918   1.858   6.547
 2131SOL    HW1 7292   4.957   1.778   6.501
 2131SOL    HW2 7293   4.939   1.854   6.645
 2132SOL     OW 7294   0.846   3.095   1.440
 2132SOL    HW1 7295   0.880   3.022   1.380
 2132SOL    HW2 7296   0.747   3.085   1.451
 2133SOL     OW 7297   2.309   4.391   6.054
 2133SOL    HW1 7298   2.253   4.443   6.118
 2133SOL    HW2 7299   2.405   4.396   6.081
 2134SOL     OW 7300   0.193   6.646   0.422
 2134SOL    HW1 7301   0.139   6.725   0.454
 2134SOL    HW2 7302   0.142   6.598   0.352
 2135SOL     OW 7303   6.304   5.328   5.568
 2135SOL    HW1 7304   6.310   5.365   5.475
 2135SOL    HW2 7305   6.383   5.269   5.585
 2136SOL     OW 7306   1.808   5.181   0.061
 2136SOL    HW1 7307   1.747   5.246   0.016
 2136SOL    HW2 7308   1.760   5.095   0.076
 2137SOL     OW 7309   1.559   6.402   3.640
 2137SOL    HW1 7310   1.589   6.492   3.672
 2137SOL    HW2 7311   1.478   6.374   3.691
 2138SOL     OW 7312   4.775   2.317   1.694
 2138SOL    HW1 7313   4.711   2.270   1.754
 2138SOL    HW2 7314   4.767   2.280   1.601
 2139SOL     OW 7315   2.583   6.014   5.525
 2139SOL    HW1 7316   2.522   5.987   5.450
 2139SOL    HW2 7317   2.668   5.962   5.520
 2140SOL     OW 7318   2.130   2.313   3.145
 2140SOL    HW1 7319   2.160   2.224   3.179
 2140SOL    HW2 7320   2.185   2.338   3.065
 2141SOL     OW 7321   6.756   3.194   2.789
 2141SOL    HW1 7322   6.668   3.178   2.743
 2141SOL    HW2 7323   6.760   3.289   2.820
 2142SOL     OW 7324   1.898   1.668   1.701
 2142SOL    HW1 7325   1.810   1.691   1.659
 2142SOL    HW2 7326   1.971   1.688   1.636
 2143SOL     OW 7327   6.665   5.314   5.870
 2143SOL    HW1 7328   6.637   5.409   5.851
 2143SOL    HW2 7329   6.756   5.313   5.910
 2144SOL     OW 7330   6.003   4.640   2.736
 2144SOL    HW1 7331   6.020   4.607   2.643
 2144SOL    HW2 7332   6.082   4.618   2.794
 2145SOL     OW 7333   3.551   0.876   3.201
 2145SOL    HW1 7334   3.567   0.795   3.257
 2145SOL    HW2 7335   3.501   0.850   3.119
 2146SOL     OW 7336   1.784   1.403   6.679
 2146SOL    HW1 7337   1.848   1.472   6.647
 2146SOL    HW2 7338   1.697   1.411   6.630
 2147SOL     OW 7339   5.778   0.243   5.323
 2147SOL    HW1 7340   5.810   0.149   5.318
 2147SOL    HW2 7341   5.805   0.283   5.410
 2148SOL     OW 7342   1.841   2.648   5.238
 2148SOL    HW1 7343   1.839   2.566   5.296
 2148SOL    HW2 7344   1.913   2.638   5.169
 2149SOL     OW 7345   0.096   6.559   0.205
 2149SOL    HW1 7346   0.053   6.502   0.134
 2149SOL    HW2 7347   0.125   6.646   0.165
 2150SOL     OW 7348   1.355   2.420   0.471
 2150SOL    HW1 7349   1.291   2.402   0.395
 2150SOL    HW2 7350   1.313   2.485   0.534
 2151SOL     OW 7351   0.898   5.480   6.811
 2151SOL    HW1 7352   0.816   5.494   6.865
 2151SOL    HW2 7353   0.878   5.497   6.715
 2152SOL     OW 7354   5.170   6.334   4.161
 2152SOL    HW1 7355   5.076   6.318   4.132
 2152SOL    HW2 7356   5.216   6.394   4.095
 2153SOL     OW 7357   4.752   0.102   3.533
 2153SOL    HW1 7358   4.662   0.143   3.547
 2153SOL    HW2 7359   4.762   0.021   3.591
 2154SOL     OW 7360   2.346   6.458   1.877
 2154SOL    HW1 7361   2.253   6.443   1.909
 2154SOL    HW2 7362   2.386   6.536   1.924
 2155SOL     OW 7363   5.190   0.666   0.454
 2155SOL    HW1 7364   5.264   0.698   0.395
 2155SOL    HW2 7365   5.139   0.745   0.488
 2156SOL     OW 7366   6.503   1.871   4.283
 2156SOL    HW1 7367   6.467   1.927   4.208
 2156SOL    HW2 7368   6.555   1.795   4.245
 2157SOL     OW 7369   4.151   5.894   3.276
 2157SOL    HW1 7370   4.205   5.955   3.218
 2157SOL    HW2 7371   4.109   5.946   3.350
 2158SOL     OW 7372   3.013   0.204   0.192
 2158SOL    HW1 7373   3.055   0.274   0.250
 2158SOL    HW2 7374   2.917   0.193   0.217
 2159SOL     OW 7375   0.844   2.278   5.770
 2159SOL    HW1 7376   0.839   2.268   5.869
 2159SOL    HW2 7377   0.882   2.195   5.729
 2160SOL     OW 7378   5.268   6.661   6.665
 2160SOL    HW1 7379   5.285   6.619   6.754
 2160SOL    HW2 7380   5.346   6.718   6.640
 2161SOL     OW 7381   1.397   3.564   6.987
 2161SOL    HW1 7382   1.418   3.607   0.055
 2161SOL    HW2 7383   1.410   3.465   6.994
 2162SOL     OW 7384   1.840   6.616   0.216
 2162SOL    HW1 7385   1.856   6.703   0.168
 2162SOL    HW2 7386   1.788   6.633   0.299
 2163SOL     OW 7387   0.612   3.025   4.117
 2163SOL    HW1 7388   0.590   2.937   4.076
 2163SOL    HW2 7389   0.702   3.021   4.161
 2164SOL     OW 7390   1.967   4.897   1.799
 2164SOL    HW1 7391   1.998   4.992   1.811
 2164SOL    HW2 7392   2.024   4.836   1.854
 2165SOL     OW 7393   6.329   2.178   5.709
 2165SOL    HW1 7394   6.230   2.195   5.711
 2165SOL    HW2 7395   6.347   2.084   5.739
 2166SOL     OW 7396   6.489   2.207   2.181
 2166SOL    HW1 7397   6.418   2.138   2.201
 2166SOL    HW2 7398   6.559   2.205   2.252
 2167SOL     OW 7399   1.603   2.223   2.982
 2167SOL    HW1 7400   1.570   2.318   2.982
 2167SOL    HW2 7401   1.699   2.221   3.010
 2168SOL     OW 7402   1.406   2.189   3.831
 2168SOL    HW1 7403   1.420   2.100   3.788
 2168SOL    HW2 7404   1.369   2.253   3.764
 2169SOL     OW 7405   6.194   6.945   0.605
 2169SOL    HW1 7406   6.148   6.859   0.582
 2169SOL    HW2 7407   6.223   6.942   0.701
 2170SOL     OW 7408   2.062   2.832   6.308
 2170SOL    HW1 7409   2.028   2.773   6.381
 2170SOL    HW2 7410   2.145   2.792   6.270
 2171SOL     OW 7411   5.975   6.845   1.565
 2171SOL    HW1 7412   6.070   6.818   1.579
 2171SOL    HW2 7413   5.970   6.944   1.552
 2172SOL     OW 7414   2.446   2.530   4.889
 2172SOL    HW1 7415   2.452   2.524   4.988
 2172SOL    HW2 7416   2.490   2.451   4.848
 2173SOL     OW 7417   4.220   0.809   4.996
 2173SOL    HW1 7418   4.238   0.874   5.070
 2173SOL    HW2 7419   4.306   0.772   4.963
 2174SOL     OW 7420   5.207   0.064   5.320
 2174SOL    HW1 7421   5.225   0.101   5.411
 2174SOL    HW2 7422   5.227   6.986   5.320
 2175SOL     OW 7423   3.037   2.615   5.793
 2175SOL    HW1 7424   3.104   2.688   5.805
 2175SOL    HW2 7425   2.970   2.642   5.724
 2176SOL     OW 7426   6.872   1.811   2.777
 2176SOL    HW1 7427   6.923   1.824   2.862
 2176SOL    HW2 7428   6.775   1.828   2.794
 2177SOL     OW 7429   0.752   0.399   4.963
 2177SOL    HW1 7430   0.740   0.302   4.942
 2177SOL    HW2 7431   0.664   0.445   4.959
 2178SOL     OW 7432   1.864   3.464   2.093
 2178SOL    HW1 7433   1.931   3.407   2.046
 2178SOL    HW2 7434   1.845   3.424   2.183
 2179SOL     OW 7435   1.427   4.102   6.602
 2179SOL    HW1 7436   1.517   4.058   6.595
 2179SOL    HW2 7437   1.413   4.134   6.695
 2180SOL     OW 7438   0.115   5.030   2.646
 2180SOL    HW1 7439   0.123   5.093   2.723
 2180SOL    HW2 7440   0.184   4.959   2.654
 2181SOL     OW 7441   4.255   4.772   3.157
 2181SOL    HW1 7442   4.198   4.736   3.083
 2181SOL    HW2 7443   4.350   4.743   3.143
 2182SOL     OW 7444   6.982   6.873   0.883
 2182SOL    HW1 7445   6.899   6.903   0.928
 2182SOL    HW2 7446   0.036   6.938   0.901
 2183SOL     OW 7447   3.909   2.890   6.949
 2183SOL    HW1 7448   3.988   2.945   6.975
 2183SOL    HW2 7449   3.856   2.939   6.880
 2184SOL     OW 7450   6.474   1.990   6.495
 2184SOL    HW1 7451   6.559   2.012   6.542
 2184SOL    HW2 7452   6.404   1.965   6.561
 2185SOL     OW 7453   0.191   1.376   6.578
 2185SOL    HW1 7454   0.141   1.312   6.519
 2185SOL    HW2 7455   0.265   1.418   6.527
 2186SOL     OW 7456   6.753   6.085   5.977
 2186SOL    HW1 7457   6.713   6.136   5.901
 2186SOL    HW2 7458   6.844   6.121   5.996
 2187SOL     OW 7459   6.040   3.747   1.393
 2187SOL    HW1 7460   5.981   3.682   1.346
 2187SOL    HW2 7461   6.045   3.724   1.491
 2188SOL     OW 7462   3.321   2.225   1.229
 2188SOL    HW1 7463   3.292   2.159   1.298
 2188SOL    HW2 7464   3.328   2.180   1.140
 2189SOL     OW 7465   2.398   0.941   2.164
 2189SOL    HW1 7466   2.436   1.031   2.146
 2189SOL    HW2 7467   2.449   0.871   2.114
 2190SOL     OW 7468   6.813   4.599   1.710
 2190SOL    HW1 7469   6.764   4.584   1.796
 2190SOL    HW2 7470   6.888   4.534   1.702
 2191SOL     OW 7471   3.618   0.080   6.362
 2191SOL    HW1 7472   3.645   0.014   6.292
 2191SOL    HW2 7473   3.586   0.164   6.319
 2192SOL     OW 7474   5.352   2.283   1.728
 2192SOL    HW1 7475   5.285   2.350   1.760
 2192SOL    HW2 7476   5.369   2.297   1.630
 2193SOL     OW 7477   1.725   0.160   6.097
 2193SOL    HW1 7478   1.724   0.156   6.197
 2193SOL    HW2 7479   1.819   0.151   6.064
 2194SOL     OW 7480   1.080   4.498   5.440
 2194SOL    HW1 7481   1.082   4.573   5.506
 2194SOL    HW2 7482   0.990   4.454   5.442
 2195SOL     OW 7483   0.602   4.314   5.432
 2195SOL    HW1 7484   0.601   4.226   5.480
 2195SOL    HW2 7485   0.531   4.373   5.470
 2196SOL     OW 7486   4.023   1.197   6.820
 2196SOL    HW1 7487   3.950   1.150   6.870
 2196SOL    HW2 7488   3.985   1.279   6.776
 2197SOL     OW 7489   3.893   5.024   6.685
 2197SOL    HW1 7490   3.894   4.942   6.741
 2197SOL    HW2 7491   3.828   5.012   6.609
 2198SOL     OW 7492   1.323   0.655   6.538
 2198SOL    HW1 7493   1.307   0.744   6.581
 2198SOL    HW2 7494   1.347   0.668   6.442
 2199SOL     OW 7495   4.720   6.202   3.523
 2199SOL    HW1 7496   4.816   6.215   3.500
 2199SOL    HW2 7497   4.690   6.275   3.585
 2200SOL     OW 7498   2.615   1.983   5.118
 2200SOL    HW1 7499   2.695   2.006   5.062
 2200SOL    HW2 7500   2.595   1.885   5.109
 2201SOL     OW 7501   5.846   3.510   4.242
 2201SOL    HW1 7502   5.844   3.430   4.182
 2201SOL    HW2 7503   5.755   3.528   4.278
 2202SOL     OW 7504   4.880   0.334   4.653
 2202SOL    HW1 7505   4.857   0.266   4.584
 2202SOL    HW2 7506   4.846   0.304   4.742
 2203SOL     OW 7507   1.976   5.989   1.175
 2203SOL    HW1 7508   1.896   6.031   1.132
 2203SOL    HW2 7509   2.039   5.957   1.104
 2204SOL     OW 7510   4.877   3.642   0.280
 2204SOL    HW1 7511   4.926   3.594   0.207
 2204SOL    HW2 7512   4.839   3.576   0.345
 2205SOL     OW 7513   5.248   5.461   1.166
 2205SOL    HW1 7514   5.176   5.398   1.135
 2205SOL    HW2 7515   5.285   5.428   1.253
 2206SOL     OW 7516   3.406   3.165   5.322
 2206SOL    HW1 7517   3.408   3.265   5.317
 2206SOL    HW2 7518   3.500   3.131   5.326
 2207SOL     OW 7519   4.682   4.673   1.244
 2207SOL    HW1 7520   4.682   4.626   1.333
 2207SOL    HW2 7521   4.699   4.607   1.171
 2208SOL     OW 7522   6.523   6.031   3.000
 2208SOL    HW1 7523   6.554   6.123   2.976
 2208SOL    HW2 7524   6.581   5.994   3.073
 2209SOL     OW 7525   2.549   5.643   3.584
 2209SOL    HW1 7526   2.575   5.586   3.662
 2209SOL    HW2 7527   2.600   5.614   3.503
 2210SOL     OW 7528   5.499   6.485   2.143
 2210SOL    HW1 7529   5.437   6.444   2.209
 2210SOL    HW2 7530   5.541   6.413   2.087
 2211SOL     OW 7531   1.723   0.848   1.244
 2211SOL    HW1 7532   1.648   0.823   1.184
 2211SOL    HW2 7533   1.708   0.941   1.279
 2212SOL     OW 7534   2.880   6.452   6.190
 2212SOL    HW1 7535   2.961   6.504   6.164
 2212SOL    HW2 7536   2.850   6.480   6.281
 2213SOL     OW 7537   3.618   1.877   4.244
 2213SOL    HW1 7538   3.667   1.932   4.311
 2213SOL    HW2 7539   3.553   1.818   4.291
 2214SOL     OW 7540   3.982   4.840   6.916
 2214SOL    HW1 7541   4.045   4.763   6.925
 2214SOL    HW2 7542   3.897   4.820   6.964
 2215SOL     OW 7543   6.965   5.349   6.546
 2215SOL    HW1 7544   6.943   5.272   6.486
 2215SOL    HW2 7545   6.988   5.429   6.491
 2216SOL     OW 7546   0.291   6.286   0.453
 2216SOL    HW1 7547   0.232   6.205   0.463
 2216SOL    HW2 7548   0.234   6.368   0.446
 2217SOL     OW 7549   4.124   1.359   4.056
 2217SOL    HW1 7550   4.125   1.289   3.984
 2217SOL    HW2 7551   4.065   1.435   4.028
 2218SOL     OW 7552   5.975   5.293   5.813
 2218SOL    HW1 7553   6.047   5.226   5.826
 2218SOL    HW2 7554   6.008   5.368   5.755
 2219SOL     OW 7555   5.156   2.234   0.667
 2219SOL    HW1 7556   5.113   2.257   0.579
 2219SOL    HW2 7557   5.093   2.255   0.741
 2220SOL     OW 7558   6.428   6.930   4.523
 2220SOL    HW1 7559   6.394   7.018   4.491
 2220SOL    HW2 7560   6.437   6.931   4.622
 2221SOL     OW 7561   4.987   0.031   3.314
 2221SOL    HW1 7562   4.936   0.022   3.400
 2221SOL    HW2 7563   5.067   0.088   3.328
 2222SOL     OW 7564   4.100   0.431   4.363
 2222SOL    HW1 7565   4.056   0.511   4.404
 2222SOL    HW2 7566   4.169   0.461   4.297
 2223SOL     OW 7567   0.722   0.202   5.820
 2223SOL    HW1 7568   0.626   0.217   5.841
 2223SOL    HW2 7569   0.765   0.290   5.798
 2224SOL     OW 7570   4.932   4.796   6.531
 2224SOL    HW1 7571   4.873   4.726   6.569
 2224SOL    HW2 7572   4.915   4.805   6.433
 2225SOL     OW 7573   6.870   0.574   0.714
 2225SOL    HW1 7574   6.953   0.629   0.725
 2225SOL    HW2 7575   6.791   0.635   0.713
 2226SOL     OW 7576   2.889   3.137   6.932
 2226SOL    HW1 7577   2.903   3.124   6.834
 2226SOL    HW2 7578   2.975   3.166   6.975
 2227SOL     OW 7579   4.380   1.733   1.432
 2227SOL    HW1 7580   4.423   1.660   1.379
 2227SOL    HW2 7581   4.448   1.775   1.493
 2228SOL     OW 7582   4.824   6.461   6.791
 2228SOL    HW1 7583   4.802   6.395   6.719
 2228SOL    HW2 7584   4.772   6.438   6.874
 2229SOL     OW 7585   3.628   2.973   4.186
 2229SOL    HW1 7586   3.704   2.952   4.247
 2229SOL    HW2 7587   3.575   3.048   4.224
 2230SOL     OW 7588   6.849   1.773   6.329
 2230SOL    HW1 7589   6.939   1.731   6.316
 2230SOL    HW2 7590   6.814   1.806   6.241
 2231SOL     OW 7591   0.762   6.761   5.787
 2231SOL    HW1 7592   0.705   6.747   5.706
 2231SOL    HW2 7593   0.833   6.690   5.789
 2232SOL     OW 7594   1.388   0.837   0.177
 2232SOL    HW1 7595   1.412   0.926   0.214
 2232SOL    HW2 7596   1.318   0.847   0.106
 2233SOL     OW 7597   3.077   5.798   0.811
 2233SOL    HW1 7598   2.993   5.748   0.834
 2233SOL    HW2 7599   3.147   5.779   0.880
 2234SOL     OW 7600   5.279   2.016   2.089
 2234SOL    HW1 7601   5.341   2.014   2.010
 2234SOL    HW2 7602   5.198   2.070   2.067
 2235SOL     OW 7603   1.731   1.953   3.744
 2235SOL    HW1 7604   1.640   1.928   3.711
 2235SOL    HW2 7605   1.732   1.947   3.844
 2236SOL     OW 7606   2.763   5.149   5.091
 2236SOL    HW1 7607   2.814   5.232   5.068
 2236SOL    HW2 7608   2.827   5.073   5.102
 2237SOL     OW 7609   6.060   6.990   6.400
 2237SOL    HW1 7610   6.054   6.996   6.300
 2237SOL    HW2 7611   5.976   0.007   6.440
 2238SOL     OW 7612   5.310   4.299   1.609
 2238SOL    HW1 7613   5.302   4.278   1.511
 2238SOL    HW2 7614   5.327   4.215   1.660
 2239SOL     OW 7615   3.393   0.146   3.020
 2239SOL    HW1 7616   3.382   0.051   2.992
 2239SOL    HW2 7617   3.357   0.206   2.948
 2240SOL     OW 7618   5.104   5.356   2.700
 2240SOL    HW1 7619   5.070   5.383   2.790
 2240SOL    HW2 7620   5.195   5.315   2.710
 2241SOL     OW 7621   1.498   2.000   3.134
 2241SOL    HW1 7622   1.532   1.906   3.124
 2241SOL    HW2 7623   1.546   2.060   3.070
 2242SOL     OW 7624   5.369   2.466   4.219
 2242SOL    HW1 7625   5.413   2.416   4.144
 2242SOL    HW2 7626   5.371   2.564   4.199
 2243SOL     OW 7627   2.405   0.398   0.258
 2243SOL    HW1 7628   2.461   0.332   0.209
 2243SOL    HW2 7629   2.361   0.460   0.193
 2244SOL     OW 7630   2.099   1.923   1.043
 2244SOL    HW1 7631   2.065   2.016   1.058
 2244SOL    HW2 7632   2.034   1.858   1.082
 2245SOL     OW 7633   6.805   1.243   0.254
 2245SOL    HW1 7634   6.848   1.164   0.211
 2245SOL    HW2 7635   6.799   1.228   0.353
 2246SOL     OW 7636   5.769   0.916   5.640
 2246SOL    HW1 7637   5.844   0.975   5.610
 2246SOL    HW2 7638   5.704   0.969   5.694
 2247SOL     OW 7639   3.929   3.364   1.747
 2247SOL    HW1 7640   3.837   3.390   1.776
 2247SOL    HW2 7641   3.996   3.423   1.792
 2248SOL     OW 7642   5.202   3.034   4.700
 2248SOL    HW1 7643   5.150   3.032   4.785
 2248SOL    HW2 7644   5.246   2.946   4.684
 2249SOL     OW 7645   2.366   6.065   3.785
 2249SOL    HW1 7646   2.336   6.155   3.753
 2249SOL    HW2 7647   2.342   6.055   3.882
 2250SOL     OW 7648   4.201   6.064   6.030
 2250SOL    HW1 7649   4.196   6.001   5.952
 2250SOL    HW2 7650   4.296   6.077   6.057
 2251SOL     OW 7651   3.706   6.690   4.897
 2251SOL    HW1 7652   3.689   6.772   4.952
 2251SOL    HW2 7653   3.776   6.634   4.941
 2252SOL     OW 7654   3.638   1.243   2.487
 2252SOL    HW1 7655   3.568   1.215   2.553
 2252SOL    HW2 7656   3.633   1.342   2.473
 2253SOL     OW 7657   1.229   2.656   1.786
 2253SOL    HW1 7658   1.302   2.663   1.719
 2253SOL    HW2 7659   1.163   2.586   1.758
 2254SOL     OW 7660   3.414   2.909   2.611
 2254SOL    HW1 7661   3.453   2.998   2.634
 2254SOL    HW2 7662   3.380   2.866   2.695
 2255SOL     OW 7663   1.762   1.556   6.404
 2255SOL    HW1 7664   1.861   1.574   6.400
 2255SOL    HW2 7665   1.718   1.625   6.460
 2256SOL     OW 7666   4.672   0.113   1.397
 2256SOL    HW1 7667   4.704   0.181   1.331
 2256SOL    HW2 7668   4.677   0.022   1.358
 2257SOL     OW 7669   0.573   0.901   6.267
 2257SOL    HW1 7670   0.545   0.906   6.171
 2257SOL    HW2 7671   0.566   0.807   6.299
 2258SOL     OW 7672   2.006   0.305   3.376
 2258SOL    HW1 7673   2.087   0.308   3.436
 2258SOL    HW2 7674   1.961   0.217   3.386
 2259SOL     OW 7675   5.924   0.140   4.943
 2259SOL    HW1 7676   5.883   0.222   4.902
 2259SOL    HW2 7677   6.018   0.131   4.910
 2260SOL     OW 7678   1.247   3.594   1.196
 2260SOL    HW1 7679   1.150   3.571   1.188
 2260SOL    HW2 7680   1.293   3.576   1.109
 2261SOL     OW 7681   4.141   4.475   6.510
 2261SOL    HW1 7682   4.137   4.477   6.410
 2261SOL    HW2 7683   4.175   4.562   6.545
 2262SOL     OW 7684   6.748   0.702   3.545
 2262SOL    HW1 7685   6.799   0.701   3.459
 2262SOL    HW2 7686   6.663   0.651   3.534
 2263SOL     OW 7687   2.566   4.125   6.824
 2263SOL    HW1 7688   2.656   4.168   6.825
 2263SOL    HW2 7689   2.565   4.051   6.757
 2264SOL     OW 7690   1.868   0.646   6.820
 2264SOL    HW1 7691   1.841   0.729   6.771
 2264SOL    HW2 7692   1.802   0.627   6.893
 2265SOL     OW 7693   0.493   6.391   3.707
 2265SOL    HW1 7694   0.411   6.418   3.657
 2265SOL    HW2 7695   0.569   6.450   3.680
 2266SOL     OW 7696   4.215   4.059   6.763
 2266SOL    HW1 7697   4.295   4.104   6.802
 2266SOL    HW2 7698   4.204   4.088   6.668
 2267SOL     OW 7699   5.786   3.223   4.756
 2267SOL    HW1 7700   5.738   3.258   4.675
 2267SOL    HW2 7701   5.773   3.286   4.832
 2268SOL     OW 7702   0.930   6.115   4.795
 2268SOL    HW1 7703   0.975   6.026   4.788
 2268SOL    HW2 7704   0.995   6.183   4.830
 2269SOL     OW 7705   1.582   2.084   5.421
 2269SOL    HW1 7706   1.578   2.183   5.402
 2269SOL    HW2 7707   1.677   2.053   5.412
 2270SOL     OW 7708   4.272   1.442   6.381
 2270SOL    HW1 7709   4.289   1.402   6.471
 2270SOL    HW2 7710   4.193   1.504   6.387
 2271SOL     OW 7711   4.050   5.657   4.856
 2271SOL    HW1 7712   4.051   5.757   4.856
 2271SOL    HW2 7713   4.119   5.622   4.793
 2272SOL     OW 7714   6.051   1.306   6.305
 2272SOL    HW1 7715   5.996   1.263   6.377
 2272SOL    HW2 7716   6.101   1.235   6.255
 2273SOL     OW 7717   2.068   2.184   4.460
 2273SOL    HW1 7718   2.108   2.096   4.484
 2273SOL    HW2 7719   2.125   2.258   4.496
 2274SOL     OW 7720   1.280   1.119   0.131
 2274SOL    HW1 7721   1.225   1.202   0.143
 2274SOL    HW2 7722   1.341   1.131   0.053
 2275SOL     OW 7723   5.250   3.521   3.068
 2275SOL    HW1 7724   5.309   3.562   3.137
 2275SOL    HW2 7725   5.171   3.580   3.053
 2276SOL     OW 7726   2.024   1.600   1.408
 2276SOL    HW1 7727   1.983   1.516   1.444
 2276SOL    HW2 7728   1.952   1.667   1.389
 2277SOL     OW 7729   4.018   3.100   3.406
 2277SOL    HW1 7730   3.936   3.076   3.458
 2277SOL    HW2 7731   4.096   3.107   3.468
 2278SOL     OW 7732   6.656   3.649   3.741
 2278SOL    HW1 7733   6.643   3.692   3.830
 2278SOL    HW2 7734   6.730   3.582   3.746
 2279SOL     OW 7735   0.692   5.357   5.957
 2279SOL    HW1 7736   0.713   5.376   5.861
 2279SOL    HW2 7737   0.775   5.328   6.004
 2280SOL     OW 7738   4.979   2.658   5.237
 2280SOL    HW1 7739   5.017   2.683   5.325
 2280SOL    HW2 7740   4.957   2.741   5.185
 2281SOL     OW 7741   5.195   6.835   2.345
 2281SOL    HW1 7742   5.180   6.738   2.363
 2281SOL    HW2 7743   5.133   6.866   2.274
 2282SOL     OW 7744   3.539   5.226   5.647
 2282SOL    HW1 7745   3.500   5.226   5.738
 2282SOL    HW2 7746   3.593   5.309   5.633
 2283SOL     OW 7747   6.845   0.434   5.143
 2283SOL    HW1 7748   6.931   0.426   5.094
 2283SOL    HW2 7749   6.824   0.531   5.158
 2284SOL     OW 7750   1.478   3.894   6.091
 2284SOL    HW1 7751   1.525   3.882   6.178
 2284SOL    HW2 7752   1.508   3.823   6.026
 2285SOL     OW 7753   1.406   5.296   0.121
 2285SOL    HW1 7754   1.336   5.367   0.116
 2285SOL    HW2 7755   1.461   5.298   0.037
 2286SOL     OW 7756   4.817   4.509   2.410
 2286SOL    HW1 7757   4.773   4.560   2.335
 2286SOL    HW2 7758   4.828   4.414   2.383
 2287SOL     OW 7759   1.959   1.346   3.995
 2287SOL    HW1 7760   2.041   1.360   4.051
 2287SOL    HW2 7761   1.986   1.316   3.903
 2288SOL     OW 7762   6.602   5.011   2.816
 2288SOL    HW1 7763   6.702   5.018   2.818
 2288SOL    HW2 7764   6.563   5.103   2.814
 2289SOL     OW 7765   0.413   4.455   0.227
 2289SOL    HW1 7766   0.356   4.536   0.212
 2289SOL    HW2 7767   0.486   4.477   0.292
 2290SOL     OW 7768   0.731   5.067   6.989
 2290SOL    HW1 7769   0.827   5.068   6.958
 2290SOL    HW2 7770   0.722   5.005   0.047
 2291SOL     OW 7771   1.954   1.281   0.125
 2291SOL    HW1 7772   2.050   1.270   0.102
 2291SOL    HW2 7773   1.909   1.336   0.053
 2292SOL     OW 7774   2.148   0.929   4.874
 2292SOL    HW1 7775   2.204   0.983   4.938
 2292SOL    HW2 7776   2.177   0.949   4.780
 2293SOL     OW 7777   5.197   3.814   3.384
 2293SOL    HW1 7778   5.165   3.846   3.294
 2293SOL    HW2 7779   5.157   3.725   3.403
 2294SOL     OW 7780   3.930   0.111   6.402
 2294SOL    HW1 7781   3.965   0.048   6.472
 2294SOL    HW2 7782   3.831   0.120   6.413
 2295SOL     OW 7783   1.020   0.540   1.772
 2295SOL    HW1 7784   1.102   0.520   1.825
 2295SOL    HW2 7785   1.042   0.538   1.674
 2296SOL     OW 7786   2.843   6.300   6.971
 2296SOL    HW1 7787   2.853   6.350   6.885
 2296SOL    HW2 7788   2.749   6.306   7.003
 2297SOL     OW 7789   4.087   6.107   6.268
 2297SOL    HW1 7790   4.161   6.152   6.318
 2297SOL    HW2 7791   4.125   6.060   6.188
 2298SOL     OW 7792   4.517   3.093   6.635
 2298SOL    HW1 7793   4.591   3.027   6.647
 2298SOL    HW2 7794   4.433   3.056   6.674
 2299SOL     OW 7795   4.652   0.251   1.702
 2299SOL    HW1 7796   4.746   0.239   1.671
 2299SOL    HW2 7797   4.595   0.282   1.626
 2300SOL     OW 7798   0.779   4.897   0.751
 2300SOL    HW1 7799   0.814   4.991   0.746
 2300SOL    HW2 7800   0.736   4.882   0.840
 2301SOL     OW 7801   3.392   2.983   1.465
 2301SOL    HW1 7802   3.475   3.039   1.469
 2301SOL    HW2 7803   3.417   2.887   1.478
 2302SOL     OW 7804   3.082   5.506   3.072
 2302SOL    HW1 7805   3.076   5.460   3.160
 2302SOL    HW2 7806   3.007   5.476   3.013
 2303SOL     OW 7807   0.567   3.528   6.056
 2303SOL    HW1 7808   0.589   3.432   6.043
 2303SOL    HW2 7809   0.640   3.573   6.109
 2304SOL     OW 7810   1.622   0.979   4.788
 2304SOL    HW1 7811   1.620   0.886   4.752
 2304SOL    HW2 7812   1.547   1.032   4.748
 2305SOL     OW 7813   4.192   4.857   1.629
 2305SOL    HW1 7814   4.237   4.945   1.643
 2305SOL    HW2 7815   4.231   4.812   1.548
 2306SOL     OW 7816   0.574   4.526   0.443
 2306SOL    HW1 7817   0.668   4.493   0.433
 2306SOL    HW2 7818   0.575   4.615   0.488
 2307SOL     OW 7819   0.282   1.139   3.277
 2307SOL    HW1 7820   0.214   1.210   3.259
 2307SOL    HW2 7821   0.365   1.181   3.313
 2308SOL     OW 7822   0.927   0.287   0.164
 2308SOL    HW1 7823   0.894   0.257   0.253
 2308SOL    HW2 7824   0.862   0.258   0.093
 2309SOL     OW 7825   1.929   5.083   6.393
 2309SOL    HW1 7826   1.996   5.132   6.450
 2309SOL    HW2 7827   1.952   4.986   6.392
 2310SOL     OW 7828   5.642   1.314   3.452
 2310SOL    HW1 7829   5.561   1.352   3.408
 2310SOL    HW2 7830   5.702   1.273   3.384
 2311SOL     OW 7831   2.796   6.928   2.663
 2311SOL    HW1 7832   2.706   6.955   2.699
 2311SOL    HW2 7833   2.837   7.006   2.614
 2312SOL     OW 7834   2.771   0.742   1.941
 2312SOL    HW1 7835   2.681   0.775   1.971
 2312SOL    HW2 7836   2.842   0.804   1.973
 2313SOL     OW 7837   5.005   4.839   1.385
 2313SOL    HW1 7838   4.981   4.762   1.444
 2313SOL    HW2 7839   5.044   4.913   1.441
 2314SOL     OW 7840   6.928   5.884   3.210
 2314SOL    HW1 7841   6.877   5.844   3.134
 2314SOL    HW2 7842   6.884   5.860   3.296
 2315SOL     OW 7843   5.096   6.686   5.000
 2315SOL    HW1 7844   5.191   6.666   4.977
 2315SOL    HW2 7845   5.076   6.652   5.091
 2316SOL     OW 7846   3.997   2.439   6.450
 2316SOL    HW1 7847   3.937   2.427   6.529
 2316SOL    HW2 7848   3.955   2.505   6.387
 2317SOL     OW 7849   0.199   5.093   2.091
 2317SOL    HW1 7850   0.205   4.999   2.059
 2317SOL    HW2 7851   0.174   5.094   2.188
 2318SOL     OW 7852   1.384   4.771   3.905
 2318SOL    HW1 7853   1.445   4.785   3.828
 2318SOL    HW2 7854   1.333   4.855   3.924
 2319SOL     OW 7855   2.802   5.352   2.966
 2319SOL    HW1 7856   2.705   5.354   2.945
 2319SOL    HW2 7857   2.854   5.331   2.882
 2320SOL     OW 7858   1.249   2.111   5.224
 2320SOL    HW1 7859   1.178   2.174   5.257
 2320SOL    HW2 7860   1.310   2.159   5.162
 2321SOL     OW 7861   1.827   5.081   5.574
 2321SOL    HW1 7862   1.925   5.065   5.560
 2321SOL    HW2 7863   1.801   5.168   5.531
 2322SOL     OW 7864   1.985   3.134   1.752
 2322SOL    HW1 7865   2.019   3.227   1.769
 2322SOL    HW2 7866   1.905   3.117   1.809
 2323SOL     OW 7867   2.360   5.958   6.482
 2323SOL    HW1 7868   2.389   5.917   6.395
 2323SOL    HW2 7869   2.394   6.052   6.487
 2324SOL     OW 7870   6.518   4.654   2.601
 2324SOL    HW1 7871   6.588   4.610   2.545
 2324SOL    HW2 7872   6.503   4.748   2.569
 2325SOL     OW 7873   6.861   3.761   2.503
 2325SOL    HW1 7874   6.785   3.745   2.566
 2325SOL    HW2 7875   6.845   3.711   2.418
 2326SOL     OW 7876   2.260   0.189   0.363
 2326SOL    HW1 7877   2.169   0.227   0.347
 2326SOL    HW2 7878   2.330   0.251   0.326
 2327SOL     OW 7879   6.259   6.273   1.777
 2327SOL    HW1 7880   6.161   6.269   1.797
 2327SOL    HW2 7881   6.305   6.193   1.815
 2328SOL     OW 7882   2.134   3.886   2.247
 2328SOL    HW1 7883   2.184   3.956   2.196
 2328SOL    HW2 7884   2.119   3.806   2.189
 2329SOL     OW 7885   1.033   4.694   1.815
 2329SOL    HW1 7886   0.968   4.681   1.890
 2329SOL    HW2 7887   1.123   4.715   1.851
 2330SOL     OW 7888   5.975   3.455   1.786
 2330SOL    HW1 7889   5.964   3.361   1.818
 2330SOL    HW2 7890   5.926   3.466   1.700
 2331SOL     OW 7891   4.848   5.186   1.528
 2331SOL    HW1 7892   4.764   5.132   1.533
 2331SOL    HW2 7893   4.839   5.254   1.455
 2332SOL     OW 7894   5.772   0.229   6.223
 2332SOL    HW1 7895   5.833   0.290   6.173
 2332SOL    HW2 7896   5.721   0.281   6.291
 2333SOL     OW 7897   1.833   4.724   2.616
 2333SOL    HW1 7898   1.782   4.659   2.672
 2333SOL    HW2 7899   1.770   4.774   2.557
 2334SOL     OW 7900   3.557   1.152   6.033
 2334SOL    HW1 7901   3.576   1.207   6.115
 2334SOL    HW2 7902   3.583   1.057   6.051
 2335SOL     OW 7903   6.005   0.602   3.573
 2335SOL    HW1 7904   5.943   0.624   3.648
 2335SOL    HW2 7905   6.040   0.509   3.584
 2336SOL     OW 7906   1.611   1.507   2.967
 2336SOL    HW1 7907   1.587   1.413   2.942
 2336SOL    HW2 7908   1.528   1.563   2.970
 2337SOL     OW 7909   4.179   0.955   2.336
 2337SOL    HW1 7910   4.262   0.997   2.298
 2337SOL    HW2 7911   4.127   1.023   2.386
 2338SOL     OW 7912   6.973   3.860   3.754
 2338SOL    HW1 7913   6.908   3.845   3.679
 2338SOL    HW2 7914   0.046   3.850   3.719
 2339SOL     OW 7915   3.170   2.938   2.792
 2339SOL    HW1 7916   3.076   2.907   2.777
 2339SOL    HW2 7917   3.176   3.036   2.772
 2340SOL     OW 7918   1.978   3.744   6.536
 2340SOL    HW1 7919   1.989   3.840   6.511
 2340SOL    HW2 7920   2.066   3.697   6.531
 2341SOL     OW 7921   2.828   4.799   4.207
 2341SOL    HW1 7922   2.827   4.798   4.307
 2341SOL    HW2 7923   2.922   4.792   4.175
 2342SOL     OW 7924   3.742   1.686   4.546
 2342SOL    HW1 7925   3.808   1.731   4.606
 2342SOL    HW2 7926   3.690   1.618   4.598
 2343SOL     OW 7927   6.721   0.149   0.886
 2343SOL    HW1 7928   6.664   0.214   0.935
 2343SOL    HW2 7929   6.700   0.056   0.918
 2344SOL     OW 7930   6.047   4.332   0.285
 2344SOL    HW1 7931   6.030   4.331   0.186
 2344SOL    HW2 7932   6.046   4.427   0.318
 2345SOL     OW 7933   3.591   6.110   4.057
 2345SOL    HW1 7934   3.570   6.158   3.972
 2345SOL    HW2 7935   3.660   6.161   4.109
 2346SOL     OW 7936   4.947   3.490   0.674
 2346SOL    HW1 7937   5.017   3.439   0.624
 2346SOL    HW2 7938   4.866   3.433   0.685
 2347SOL     OW 7939   1.643   1.358   0.869
 2347SOL    HW1 7940   1.632   1.430   0.800
 2347SOL    HW2 7941   1.718   1.297   0.841
 2348SOL     OW 7942   0.371   5.642   2.536
 2348SOL    HW1 7943   0.296   5.595   2.584
 2348SOL    HW2 7944   0.435   5.574   2.501
 2349SOL     OW 7945   0.907   4.826   4.646
 2349SOL    HW1 7946   0.840   4.872   4.705
 2349SOL    HW2 7947   0.939   4.742   4.690
 2350SOL     OW 7948   5.779   3.889   0.590
 2350SOL    HW1 7949   5.693   3.933   0.618
 2350SOL    HW2 7950   5.836   3.956   0.543
 2351SOL     OW 7951   2.151   5.799   1.421
 2351SOL    HW1 7952   2.190   5.711   1.450
 2351SOL    HW2 7953   2.217   5.849   1.366
 2352SOL     OW 7954   6.941   2.540   3.432
 2352SOL    HW1 7955   7.009   2.599   3.388
 2352SOL    HW2 7956   6.876   2.597   3.482
 2353SOL     OW 7957   3.264   6.140   4.134
 2353SOL    HW1 7958   3.358   6.173   4.132
 2353SOL    HW2 7959   3.245   6.097   4.222
 2354SOL     OW 7960   2.679   2.383   4.228
 2354SOL    HW1 7961   2.738   2.319   4.277
 2354SOL    HW2 7962   2.713   2.393   4.134
 2355SOL     OW 7963   2.630   5.544   4.429
 2355SOL    HW1 7964   2.708   5.492   4.396
 2355SOL    HW2 7965   2.547   5.515   4.382
 2356SOL     OW 7966   6.739   2.567   6.988
 2356SOL    HW1 7967   6.821   2.510   6.988
 2356SOL    HW2 7968   6.663   2.518   6.945
 2357SOL     OW 7969   2.480   6.660   2.876
 2357SOL    HW1 7970   2.477   6.630   2.971
 2357SOL    HW2 7971   2.389   6.693   2.849
 2358SOL     OW 7972   4.644   5.211   5.935
 2358SOL    HW1 7973   4.719   5.256   5.888
 2358SOL    HW2 7974   4.670   5.189   6.028
 2359SOL     OW 7975   1.388   6.989   5.477
 2359SOL    HW1 7976   1.370   6.941   5.391
 2359SOL    HW2 7977   1.336   6.946   5.551
 2360SOL     OW 7978   6.956   3.787   0.154
 2360SOL    HW1 7979   6.956   3.790   0.254
 2360SOL    HW2 7980   7.018   3.716   0.122
 2361SOL     OW 7981   3.286   1.310   0.658
 2361SOL    HW1 7982   3.244   1.220   0.651
 2361SOL    HW2 7983   3.224   1.372   0.707
 2362SOL     OW 7984   2.737   5.102   3.128
 2362SOL    HW1 7985   2.788   5.157   3.061
 2362SOL    HW2 7986   2.731   5.152   3.214
 2363SOL     OW 7987   3.942   0.434   3.706
 2363SOL    HW1 7988   3.846   0.453   3.685
 2363SOL    HW2 7989   3.955   0.435   3.805
 2364SOL     OW 7990   1.111   2.492   1.216
 2364SOL    HW1 7991   1.198   2.446   1.235
 2364SOL    HW2 7992   1.053   2.431   1.161
 2365SOL     OW 7993   5.311   1.925   0.783
 2365SOL    HW1 7994   5.344   2.017   0.804
 2365SOL    HW2 7995   5.383   1.873   0.737
 2366SOL     OW 7996   4.489   5.577   0.404
 2366SOL    HW1 7997   4.577   5.611   0.438
 2366SOL    HW2 7998   4.487   5.477   0.410
 2367SOL     OW 7999   2.366   3.348   5.782
 2367SOL    HW1 8000   2.322   3.411   5.719
 2367SOL    HW2 8001   2.342   3.254   5.757
 2368SOL     OW 8002   5.631   5.828   1.947
 2368SOL    HW1 8003   5.591   5.763   2.012
 2368SOL    HW2 8004   5.730   5.814   1.942
 2369SOL     OW 8005   2.300   1.576   3.279
 2369SOL    HW1 8006   2.261   1.529   3.358
 2369SOL    HW2 8007   2.229   1.596   3.212
 2370SOL     OW 8008   5.774   2.710   6.061
 2370SOL    HW1 8009   5.761   2.721   5.963
 2370SOL    HW2 8010   5.714   2.773   6.110
 2371SOL     OW 8011   1.337   5.696   1.759
 2371SOL    HW1 8012   1.270   5.746   1.706
 2371SOL    HW2 8013   1.411   5.757   1.786
 2372SOL     OW 8014   6.593   2.466   3.355
 2372SOL    HW1 8015   6.615   2.393   3.420
 2372SOL    HW2 8016   6.676   2.494   3.307
 2373SOL     OW 8017   2.317   3.399   6.447
 2373SOL    HW1 8018   2.286   3.460   6.520
 2373SOL    HW2 8019   2.353   3.453   6.371
 2374SOL     OW 8020   5.081   2.470   4.757
 2374SOL    HW1 8021   5.102   2.389   4.812
 2374SOL    HW2 8022   4.988   2.462   4.720
 2375SOL     OW 8023   0.887   7.015   5.721
 2375SOL    HW1 8024   0.800   0.044   5.726
 2375SOL    HW2 8025   0.874   6.921   5.753
 2376SOL     OW 8026   0.231   2.209   3.944
 2376SOL    HW1 8027   0.300   2.138   3.934
 2376SOL    HW2 8028   0.142   2.174   3.914
 2377SOL     OW 8029   3.382   2.906   4.052
 2377SOL    HW1 8030   3.475   2.893   4.087
 2377SOL    HW2 8031   3.378   2.874   3.957
 2378SOL     OW 8032   5.157   2.039   1.036
 2378SOL    HW1 8033   5.130   2.136   1.028
 2378SOL    HW2 8034   5.158   1.998   0.945
 2379SOL     OW 8035   6.620   0.141   6.023
 2379SOL    HW1 8036   6.590   0.047   6.007
 2379SOL    HW2 8037   6.546   0.204   6.002
 2380SOL     OW 8038   6.205   2.125   3.164
 2380SOL    HW1 8039   6.262   2.073   3.100
 2380SOL    HW2 8040   6.234   2.105   3.258
 2381SOL     OW 8041   1.716   5.851   2.208
 2381SOL    HW1 8042   1.617   5.869   2.202
 2381SOL    HW2 8043   1.766   5.929   2.169
 2382SOL     OW 8044   1.856   2.379   5.892
 2382SOL    HW1 8045   1.856   2.286   5.855
 2382SOL    HW2 8046   1.788   2.386   5.966
 2383SOL     OW 8047   5.633   5.416   1.251
 2383SOL    HW1 8048   5.691   5.335   1.261
 2383SOL    HW2 8049   5.684   5.487   1.203
 2384SOL     OW 8050   4.355   1.412   1.450
 2384SOL    HW1 8051   4.392   1.472   1.379
 2384SOL    HW2 8052   4.304   1.337   1.408
 2385SOL     OW 8053   1.153   2.675   0.074
 2385SOL    HW1 8054   1.132   2.672   6.996
 2385SOL    HW2 8055   1.249   2.702   0.087
 2386SOL     OW 8056   4.419   4.618   2.979
 2386SOL    HW1 8057   4.370   4.649   2.898
 2386SOL    HW2 8058   4.516   4.610   2.958
 2387SOL     OW 8059   1.271   1.212   2.660
 2387SOL    HW1 8060   1.229   1.293   2.621
 2387SOL    HW2 8061   1.243   1.203   2.756
 2388SOL     OW 8062   6.695   1.710   4.209
 2388SOL    HW1 8063   6.746   1.724   4.294
 2388SOL    HW2 8064   6.696   1.613   4.185
 2389SOL     OW 8065   3.842   6.453   2.103
 2389SOL    HW1 8066   3.754   6.409   2.087
 2389SOL    HW2 8067   3.869   6.503   2.020
 2390SOL     OW 8068   3.199   4.671   1.068
 2390SOL    HW1 8069   3.121   4.610   1.055
 2390SOL    HW2 8070   3.237   4.659   1.159
 2391SOL     OW 8071   4.191   5.298   4.251
 2391SOL    HW1 8072   4.120   5.368   4.250
 2391SOL    HW2 8073   4.247   5.306   4.168
 2392SOL     OW 8074   4.253   1.049   6.822
 2392SOL    HW1 8075   4.252   0.971   6.760
 2392SOL    HW2 8076   4.184   1.115   6.793
 2393SOL     OW 8077   3.499   5.222   4.973
 2393SOL    HW1 8078   3.430   5.292   4.952
 2393SOL    HW2 8079   3.488   5.193   5.068
 2394SOL     OW 8080   0.462   4.945   5.421
 2394SOL    HW1 8081   0.438   5.037   5.451
 2394SOL    HW2 8082   0.380   4.895   5.395
 2395SOL     OW 8083   4.448   6.323   6.218
 2395SOL    HW1 8084   4.421   6.243   6.271
 2395SOL    HW2 8085   4.368   6.375   6.192
 2396SOL     OW 8086   2.874   6.067   0.638
 2396SOL    HW1 8087   2.903   6.082   0.544
 2396SOL    HW2 8088   2.954   6.061   0.697
 2397SOL     OW 8089   0.850   3.199   4.464
 2397SOL    HW1 8090   0.816   3.233   4.551
 2397SOL    HW2 8091   0.861   3.275   4.400
 2398SOL     OW 8092   4.930   3.732   5.492
 2398SOL    HW1 8093   4.995   3.666   5.530
 2398SOL    HW2 8094   4.939   3.734   5.392
 2399SOL     OW 8095   4.977   2.569   1.510
 2399SOL    HW1 8096   4.968   2.661   1.472
 2399SOL    HW2 8097   4.891   2.542   1.552
 2400SOL     OW 8098   1.445   4.466   0.267
 2400SOL    HW1 8099   1.354   4.439   0.299
 2400SOL    HW2 8100   1.486   4.529   0.333
 2401SOL     OW 8101   6.111   5.828   6.697
 2401SOL    HW1 8102   6.076   5.877   6.617
 2401SOL    HW2 8103   6.092   5.881   6.780
 2402SOL     OW 8104   6.765   6.699   4.166
 2402SOL    HW1 8105   6.794   6.710   4.261
 2402SOL    HW2 8106   6.702   6.622   4.159
 2403SOL     OW 8107   1.344   0.982   3.595
 2403SOL    HW1 8108   1.316   1.071   3.558
 2403SOL    HW2 8109   1.263   0.931   3.625
 2404SOL     OW 8110   1.260   0.044   6.982
 2404SOL    HW1 8111   1.332   0.068   6.917
 2404SOL    HW2 8112   1.231   0.127   0.011
 2405SOL     OW 8113   3.116   4.759   1.425
 2405SOL    HW1 8114   3.051   4.686   1.443
 2405SOL    HW2 8115   3.203   4.720   1.393
 2406SOL     OW 8116   4.951   1.682   1.265
 2406SOL    HW1 8117   5.017   1.646   1.199
 2406SOL    HW2 8118   4.889   1.745   1.219
 2407SOL     OW 8119   4.897   6.883   3.637
 2407SOL    HW1 8120   4.927   6.921   3.725
 2407SOL    HW2 8121   4.976   6.851   3.585
 2408SOL     OW 8122   4.290   4.640   2.046
 2408SOL    HW1 8123   4.373   4.665   2.096
 2408SOL    HW2 8124   4.229   4.589   2.106
 2409SOL     OW 8125   1.404   4.042   0.842
 2409SOL    HW1 8126   1.399   4.000   0.933
 2409SOL    HW2 8127   1.354   3.985   0.777
 2410SOL     OW 8128   3.993   3.803   2.633
 2410SOL    HW1 8129   4.019   3.756   2.717
 2410SOL    HW2 8130   3.915   3.756   2.592
 2411SOL     OW 8131   3.712   0.188   4.954
 2411SOL    HW1 8132   3.717   0.180   4.854
 2411SOL    HW2 8133   3.712   0.285   4.980
 2412SOL     OW 8134   4.244   3.599   0.905
 2412SOL    HW1 8135   4.326   3.553   0.940
 2412SOL    HW2 8136   4.169   3.587   0.969
 2413SOL     OW 8137   3.444   0.354   3.199
 2413SOL    HW1 8138   3.365   0.374   3.257
 2413SOL    HW2 8139   3.416   0.295   3.123
 2414SOL     OW 8140   4.862   3.244   4.419
 2414SOL    HW1 8141   4.947   3.193   4.434
 2414SOL    HW2 8142   4.867   3.292   4.332
 2415SOL     OW 8143   3.955   0.169   3.419
 2415SOL    HW1 8144   3.858   0.178   3.440
 2415SOL    HW2 8145   3.999   0.112   3.488
 2416SOL     OW 8146   5.476   1.972   6.373
 2416SOL    HW1 8147   5.469   2.052   6.432
 2416SOL    HW2 8148   5.572   1.945   6.366
 2417SOL     OW 8149   3.226   3.715   5.595
 2417SOL    HW1 8150   3.170   3.642   5.559
 2417SOL    HW2 8151   3.303   3.733   5.533
 2418SOL     OW 8152   3.529   2.856   2.374
 2418SOL    HW1 8153   3.491   2.869   2.465
 2418SOL    HW2 8154   3.535   2.758   2.354
 2419SOL     OW 8155   6.636   0.526   4.068
 2419SOL    HW1 8156   6.570   0.601   4.076
 2419SOL    HW2 8157   6.667   0.499   4.159
 2420SOL     OW 8158   2.054   7.011   1.790
 2420SOL    HW1 8159   2.053   6.912   1.803
 2420SOL    HW2 8160   2.122   0.015   1.721
 2421SOL     OW 8161   4.542   2.270   3.094
 2421SOL    HW1 8162   4.442   2.277   3.089
 2421SOL    HW2 8163   4.577   2.235   3.007
 2422SOL     OW 8164   5.353   1.710   1.262
 2422SOL    HW1 8165   5.333   1.665   1.349
 2422SOL    HW2 8166   5.279   1.691   1.198
 2423SOL     OW 8167   1.337   5.122   2.387
 2423SOL    HW1 8168   1.263   5.063   2.355
 2423SOL    HW2 8169   1.372   5.087   2.475
 2424SOL     OW 8170   6.460   6.745   6.837
 2424SOL    HW1 8171   6.476   6.824   6.895
 2424SOL    HW2 8172   6.364   6.742   6.810
 2425SOL     OW 8173   6.908   0.217   4.416
 2425SOL    HW1 8174   6.884   0.215   4.513
 2425SOL    HW2 8175   6.958   0.134   4.393
 2426SOL     OW 8176   1.508   5.666   4.340
 2426SOL    HW1 8177   1.484   5.762   4.329
 2426SOL    HW2 8178   1.434   5.619   4.388
 2427SOL     OW 8179   5.828   0.691   5.115
 2427SOL    HW1 8180   5.874   0.690   5.026
 2427SOL    HW2 8181   5.742   0.741   5.108
 2428SOL     OW 8182   5.649   2.194   0.524
 2428SOL    HW1 8183   5.639   2.125   0.595
 2428SOL    HW2 8184   5.603   2.163   0.440
 2429SOL     OW 8185   4.629   4.522   2.816
 2429SOL    HW1 8186   4.646   4.435   2.864
 2429SOL    HW2 8187   4.531   4.532   2.798
 2430SOL     OW 8188   5.231   0.091   2.052
 2430SOL    HW1 8189   5.321   0.048   2.050
 2430SOL    HW2 8190   5.160   0.024   2.032
 2431SOL     OW 8191   4.028   6.930   2.230
 2431SOL    HW1 8192   3.996   6.894   2.142
 2431SOL    HW2 8193   3.958   6.914   2.299
 2432SOL     OW 8194   2.794   5.677   2.412
 2432SOL    HW1 8195   2.754   5.646   2.498
 2432SOL    HW2 8196   2.892   5.692   2.425
 2433SOL     OW 8197   5.154   0.114   0.536
 2433SOL    HW1 8198   5.103   0.130   0.620
 2433SOL    HW2 8199   5.174   0.016   0.527
 2434SOL     OW 8200   3.358   2.997   5.059
 2434SOL    HW1 8201   3.275   2.946   5.037
 2434SOL    HW2 8202   3.346   3.045   5.146
 2435SOL     OW 8203   5.544   5.139   6.612
 2435SOL    HW1 8204   5.503   5.095   6.692
 2435SOL    HW2 8205   5.533   5.238   6.619
 2436SOL     OW 8206   3.547   4.317   0.746
 2436SOL    HW1 8207   3.449   4.329   0.752
 2436SOL    HW2 8208   3.583   4.286   0.834
 2437SOL     OW 8209   0.070   0.997   5.687
 2437SOL    HW1 8210   0.155   1.050   5.681
 2437SOL    HW2 8211   0.091   0.900   5.676
 2438SOL     OW 8212   3.558   3.451   0.636
 2438SOL    HW1 8213   3.479   3.509   0.615
 2438SOL    HW2 8214   3.640   3.508   0.642
 2439SOL     OW 8215   6.397   3.771   6.572
 2439SOL    HW1 8216   6.416   3.858   6.617
 2439SOL    HW2 8217   6.479   3.739   6.525
 2440SOL     OW 8218   6.161   5.042   6.114
 2440SOL    HW1 8219   6.222   5.013   6.040
 2440SOL    HW2 8220   6.078   4.987   6.112
 2441SOL     OW 8221   6.409   2.069   0.612
 2441SOL    HW1 8222   6.389   2.157   0.655
 2441SOL    HW2 8223   6.350   1.999   0.651
 2442SOL     OW 8224   6.824   1.758   4.475
 2442SOL    HW1 8225   6.762   1.836   4.483
 2442SOL    HW2 8226   6.819   1.703   4.559
 2443SOL     OW 8227   2.747   4.670   6.446
 2443SOL    HW1 8228   2.819   4.678   6.377
 2443SOL    HW2 8229   2.673   4.733   6.425
 2444SOL     OW 8230   3.638   2.392   6.124
 2444SOL    HW1 8231   3.619   2.488   6.106
 2444SOL    HW2 8232   3.623   2.339   6.040
 2445SOL     OW 8233   0.968   0.704   0.742
 2445SOL    HW1 8234   1.019   0.747   0.667
 2445SOL    HW2 8235   0.896   0.646   0.704
 2446SOL     OW 8236   5.049   2.866   6.253
 2446SOL    HW1 8237   4.985   2.939   6.228
 2446SOL    HW2 8238   5.113   2.901   6.322
 2447SOL     OW 8239   0.903   3.653   6.791
 2447SOL    HW1 8240   0.877   3.557   6.800
 2447SOL    HW2 8241   0.824   3.707   6.763
 2448SOL     OW 8242   6.145   0.335   4.852
 2448SOL    HW1 8243   6.189   0.396   4.786
 2448SOL    HW2 8244   6.145   0.242   4.818
 2449SOL     OW 8245   7.000   3.120   5.709
 2449SOL    HW1 8246   0.056   3.091   5.767
 2449SOL    HW2 8247   6.924   3.151   5.766
 2450SOL     OW 8248   2.569   2.913   1.335
 2450SOL    HW1 8249   2.644   2.957   1.383
 2450SOL    HW2 8250   2.599   2.826   1.296
 2451SOL     OW 8251   1.997   6.293   3.565
 2451SOL    HW1 8252   1.977   6.364   3.498
 2451SOL    HW2 8253   2.096   6.287   3.579
 2452SOL     OW 8254   2.885   1.695   4.278
 2452SOL    HW1 8255   2.956   1.690   4.349
 2452SOL    HW2 8256   2.920   1.657   4.193
 2453SOL     OW 8257   0.443   4.151   0.889
 2453SOL    HW1 8258   0.412   4.117   0.801
 2453SOL    HW2 8259   0.401   4.098   0.962
 2454SOL     OW 8260   0.669   6.903   2.064
 2454SOL    HW1 8261   0.720   6.968   2.120
 2454SOL    HW2 8262   0.618   6.952   1.993
 2455SOL     OW 8263   5.572   3.750   1.382
 2455SOL    HW1 8264   5.543   3.746   1.478
 2455SOL    HW2 8265   5.596   3.845   1.359
 2456SOL     OW 8266   2.745   6.194   1.523
 2456SOL    HW1 8267   2.753   6.113   1.466
 2456SOL    HW2 8268   2.660   6.242   1.502
 2457SOL     OW 8269   4.868   6.024   0.692
 2457SOL    HW1 8270   4.967   6.029   0.676
 2457SOL    HW2 8271   4.851   5.999   0.787
 2458SOL     OW 8272   0.359   6.517   1.622
 2458SOL    HW1 8273   0.427   6.447   1.603
 2458SOL    HW2 8274   0.350   6.529   1.721
 2459SOL     OW 8275   1.299   2.137   0.230
 2459SOL    HW1 8276   1.386   2.120   0.275
 2459SOL    HW2 8277   1.290   2.235   0.211
 2460SOL     OW 8278   2.021   4.470   0.604
 2460SOL    HW1 8279   2.021   4.395   0.670
 2460SOL    HW2 8280   2.013   4.434   0.512
 2461SOL     OW 8281   4.511   1.295   3.304
 2461SOL    HW1 8282   4.444   1.221   3.312
 2461SOL    HW2 8283   4.587   1.265   3.247
 2462SOL     OW 8284   3.005   4.860   6.487
 2462SOL    HW1 8285   2.917   4.837   6.528
 2462SOL    HW2 8286   3.077   4.808   6.532
 2463SOL     OW 8287   1.936   3.280   5.265
 2463SOL    HW1 8288   1.913   3.183   5.256
 2463SOL    HW2 8289   1.955   3.318   5.175
 2464SOL     OW 8290   1.045   3.319   0.914
 2464SOL    HW1 8291   1.104   3.278   0.844
 2464SOL    HW2 8292   1.031   3.416   0.893
 2465SOL     OW 8293   6.263   4.348   2.869
 2465SOL    HW1 8294   6.176   4.310   2.903
 2465SOL    HW2 8295   6.333   4.338   2.939
 2466SOL     OW 8296   3.994   1.722   1.730
 2466SOL    HW1 8297   4.001   1.799   1.794
 2466SOL    HW2 8298   4.086   1.693   1.704
 2467SOL     OW 8299   1.343   1.353   4.208
 2467SOL    HW1 8300   1.384   1.318   4.123
 2467SOL    HW2 8301   1.416   1.382   4.270
 2468SOL     OW 8302   6.294   4.693   6.614
 2468SOL    HW1 8303   6.393   4.680   6.612
 2468SOL    HW2 8304   6.251   4.613   6.656
 2469SOL     OW 8305   2.491   1.762   6.507
 2469SOL    HW1 8306   2.487   1.728   6.413
 2469SOL    HW2 8307   2.586   1.759   6.539
 2470SOL     OW 8308   5.147   2.969   0.744
 2470SOL    HW1 8309   5.067   2.956   0.685
 2470SOL    HW2 8310   5.175   2.881   0.782
 2471SOL     OW 8311   0.533   1.414   3.445
 2471SOL    HW1 8312   0.539   1.340   3.378
 2471SOL    HW2 8313   0.538   1.502   3.398
 2472SOL     OW 8314   6.497   0.797   4.395
 2472SOL    HW1 8315   6.589   0.810   4.358
 2472SOL    HW2 8316   6.503   0.768   4.490
 2473SOL     OW 8317   0.571   5.467   4.539
 2473SOL    HW1 8318   0.581   5.367   4.535
 2473SOL    HW2 8319   0.537   5.493   4.629
 2474SOL     OW 8320   5.469   6.789   4.370
 2474SOL    HW1 8321   5.423   6.854   4.310
 2474SOL    HW2 8322   5.562   6.773   4.337
 2475SOL     OW 8323   3.868   2.585   6.272
 2475SOL    HW1 8324   3.845   2.667   6.325
 2475SOL    HW2 8325   3.819   2.586   6.185
 2476SOL     OW 8326   0.598   1.776   4.064
 2476SOL    HW1 8327   0.669   1.833   4.024
 2476SOL    HW2 8328   0.627   1.680   4.063
 2477SOL     OW 8329   4.644   4.493   1.828
 2477SOL    HW1 8330   4.576   4.443   1.882
 2477SOL    HW2 8331   4.728   4.439   1.821
 2478SOL     OW 8332   0.039   0.639   2.085
 2478SOL    HW1 8333   6.988   0.580   2.047
 2478SOL    HW2 8334   0.029   0.731   2.046
 2479SOL     OW 8335   1.081   3.195   0.437
 2479SOL    HW1 8336   1.140   3.150   0.371
 2479SOL    HW2 8337   0.989   3.204   0.399
 2480SOL     OW 8338   6.512   4.734   0.258
 2480SOL    HW1 8339   6.524   4.735   0.357
 2480SOL    HW2 8340   6.477   4.645   0.229
 2481SOL     OW 8341   3.950   4.867   2.706
 2481SOL    HW1 8342   3.875   4.917   2.662
 2481SOL    HW2 8343   4.034   4.921   2.699
 2482SOL     OW 8344   3.900   1.865   4.683
 2482SOL    HW1 8345   3.876   1.901   4.773
 2482SOL    HW2 8346   3.984   1.909   4.652
 2483SOL     OW 8347   0.469   3.147   6.773
 2483SOL    HW1 8348   0.545   3.115   6.829
 2483SOL    HW2 8349   0.494   3.232   6.727
 2484SOL     OW 8350   3.362   4.366   5.525
 2484SOL    HW1 8351   3.396   4.272   5.513
 2484SOL    HW2 8352   3.292   4.385   5.456
 2485SOL     OW 8353   0.775   4.866   0.250
 2485SOL    HW1 8354   0.859   4.913   0.277
 2485SOL    HW2 8355   0.734   4.821   0.330
 2486SOL     OW 8356   0.545   5.387   4.011
 2486SOL    HW1 8357   0.495   5.306   4.040
 2486SOL    HW2 8358   0.635   5.361   3.976
 2487SOL     OW 8359   2.496   1.380   1.369
 2487SOL    HW1 8360   2.503   1.395   1.270
 2487SOL    HW2 8361   2.581   1.409   1.413
 2488SOL     OW 8362   2.551   5.742   6.584
 2488SOL    HW1 8363   2.493   5.713   6.508
 2488SOL    HW2 8364   2.527   5.690   6.666
 2489SOL     OW 8365   6.536   5.947   4.695
 2489SOL    HW1 8366   6.524   6.033   4.644
 2489SOL    HW2 8367   6.454   5.929   4.749
 2490SOL     OW 8368   5.796   2.709   1.204
 2490SOL    HW1 8369   5.726   2.686   1.272
 2490SOL    HW2 8370   5.797   2.637   1.133
 2491SOL     OW 8371   6.829   4.071   2.195
 2491SOL    HW1 8372   6.850   4.063   2.098
 2491SOL    HW2 8373   6.901   4.124   2.241
 2492SOL     OW 8374   4.008   1.784   0.585
 2492SOL    HW1 8375   3.995   1.858   0.519
 2492SOL    HW2 8376   4.106   1.767   0.596
 2493SOL     OW 8377   6.177   1.142   5.493
 2493SOL    HW1 8378   6.251   1.174   5.434
 2493SOL    HW2 8379   6.109   1.093   5.439
 2494SOL     OW 8380   5.764   5.260   0.608
 2494SOL    HW1 8381   5.733   5.327   0.675
 2494SOL    HW2 8382   5.855   5.285   0.575
 2495SOL     OW 8383   6.995   1.383   2.895
 2495SOL    HW1 8384   0.054   1.357   2.952
 2495SOL    HW2 8385   6.912   1.376   2.950
 2496SOL     OW 8386   1.744   4.796   0.635
 2496SOL    HW1 8387   1.841   4.780   0.652
 2496SOL    HW2 8388   1.693   4.710   0.647
 2497SOL     OW 8389   6.252   1.542   6.252
 2497SOL    HW1 8390   6.186   1.469   6.267
 2497SOL    HW2 8391   6.283   1.578   6.340
 2498SOL     OW 8392   1.512   3.311   4.223
 2498SOL    HW1 8393   1.469   3.395   4.256
 2498SOL    HW2 8394   1.609   3.311   4.250
 2499SOL     OW 8395   5.039   0.207   6.937
 2499SOL    HW1 8396   4.986   0.122   6.940
 2499SOL    HW2 8397   5.112   0.198   6.869
 2500SOL     OW 8398   5.089   3.238   6.267
 2500SOL    HW1 8399   5.143   3.297   6.207
 2500SOL    HW2 8400   5.017   3.193   6.215
 2501SOL     OW 8401   5.878   5.033   0.674
 2501SOL    HW1 8402   5.821   5.111   0.647
 2501SOL    HW2 8403   5.894   4.975   0.594
 2502SOL     OW 8404   1.257   6.920   2.754
 2502SOL    HW1 8405   1.336   6.858   2.755
 2502SOL    HW2 8406   1.175   6.868   2.728
 2503SOL     OW 8407   5.596   5.687   3.652
 2503SOL    HW1 8408   5.693   5.694   3.626
 2503SOL    HW2 8409   5.561   5.777   3.676
 2504SOL     OW 8410   3.184   4.844   2.868
 2504SOL    HW1 8411   3.151   4.923   2.816
 2504SOL    HW2 8412   3.198   4.767   2.806
 2505SOL     OW 8413   4.867   3.705   4.574
 2505SOL    HW1 8414   4.873   3.745   4.665
 2505SOL    HW2 8415   4.900   3.611   4.577
 2506SOL     OW 8416   1.555   1.464   6.970
 2506SOL    HW1 8417   1.520   1.445   6.878
 2506SOL    HW2 8418   1.640   1.414   6.985
 2507SOL     OW 8419   6.774   5.622   1.091
 2507SOL    HW1 8420   6.725   5.658   1.012
 2507SOL    HW2 8421   6.740   5.530   1.112
 2508SOL     OW 8422   1.379   1.480   1.541
 2508SOL    HW1 8423   1.300   1.493   1.480
 2508SOL    HW2 8424   1.462   1.475   1.486
 2509SOL     OW 8425   6.350   6.970   3.511
 2509SOL    HW1 8426   6.293   6.977   3.593
 2509SOL    HW2 8427   6.421   6.900   3.526
 2510SOL     OW 8428   3.370   6.121   2.698
 2510SOL    HW1 8429   3.403   6.200   2.749
 2510SOL    HW2 8430   3.289   6.084   2.744
 2511SOL     OW 8431   0.912   5.238   4.329
 2511SOL    HW1 8432   0.895   5.152   4.282
 2511SOL    HW2 8433   0.883   5.314   4.270
 2512SOL     OW 8434   6.037   3.189   4.578
 2512SOL    HW1 8435   6.096   3.269   4.593
 2512SOL    HW2 8436   5.958   3.194   4.640
 2513SOL     OW 8437   0.960   4.251   1.615
 2513SOL    HW1 8438   1.002   4.279   1.529
 2513SOL    HW2 8439   0.865   4.226   1.599
 2514SOL     OW 8440   0.183   2.156   4.655
 2514SOL    HW1 8441   0.095   2.108   4.652
 2514SOL    HW2 8442   0.216   2.171   4.562
 2515SOL     OW 8443   0.228   4.739   6.311
 2515SOL    HW1 8444   0.291   4.791   6.253
 2515SOL    HW2 8445   0.268   4.651   6.334
 2516SOL     OW 8446   4.957   6.588   4.769
 2516SOL    HW1 8447   5.002   6.580   4.857
 2516SOL    HW2 8448   5.018   6.634   4.704
 2517SOL     OW 8449   2.613   5.936   6.761
 2517SOL    HW1 8450   2.559   6.007   6.716
 2517SOL    HW2 8451   2.608   5.852   6.708
 2518SOL     OW 8452   2.033   2.272   0.478
 2518SOL    HW1 8453   2.022   2.372   0.473
 2518SOL    HW2 8454   2.098   2.249   0.550
 2519SOL     OW 8455   5.823   4.150   4.285
 2519SOL    HW1 8456   5.790   4.062   4.249
 2519SOL    HW2 8457   5.792   4.224   4.226
 2520SOL     OW 8458   4.538   5.548   0.841
 2520SOL    HW1 8459   4.466   5.617   0.845
 2520SOL    HW2 8460   4.498   5.460   0.815
 2521SOL     OW 8461   5.619   6.425   5.956
 2521SOL    HW1 8462   5.672   6.496   6.001
 2521SOL    HW2 8463   5.521   6.444   5.967
 2522SOL     OW 8464   3.580   5.570   4.989
 2522SOL    HW1 8465   3.598   5.491   4.931
 2522SOL    HW2 8466   3.554   5.648   4.931
 2523SOL     OW 8467   1.128   2.034   6.697
 2523SOL    HW1 8468   1.116   2.002   6.603
 2523SOL    HW2 8469   1.049   2.089   6.724
 2524SOL     OW 8470   1.933   0.049   4.252
 2524SOL    HW1 8471   1.934   0.128   4.312
 2524SOL    HW2 8472   1.891   0.074   4.164
 2525SOL     OW 8473   3.011   4.864   2.381
 2525SOL    HW1 8474   3.002   4.842   2.284
 2525SOL    HW2 8475   3.028   4.962   2.392
 2526SOL     OW 8476   1.990   2.932   4.994
 2526SOL    HW1 8477   2.035   2.985   5.066
 2526SOL    HW2 8478   2.041   2.943   4.909
 2527SOL     OW 8479   6.566   0.087   3.898
 2527SOL    HW1 8480   6.635   0.091   3.825
 2527SOL    HW2 8481   6.570   7.016   3.941
 2528SOL     OW 8482   5.654   4.704   2.627
 2528SOL    HW1 8483   5.589   4.628   2.624
 2528SOL    HW2 8484   5.678   4.732   2.534
 2529SOL     OW 8485   5.250   5.488   4.875
 2529SOL    HW1 8486   5.223   5.561   4.812
 2529SOL    HW2 8487   5.301   5.528   4.952
 2530SOL     OW 8488   1.292   6.757   3.409
 2530SOL    HW1 8489   1.359   6.725   3.476
 2530SOL    HW2 8490   1.201   6.721   3.433
 2531SOL     OW 8491   5.082   2.621   6.138
 2531SOL    HW1 8492   5.081   2.710   6.185
 2531SOL    HW2 8493   4.991   2.601   6.103
 2532SOL     OW 8494   6.462   5.137   6.888
 2532SOL    HW1 8495   6.420   5.227   6.896
 2532SOL    HW2 8496   6.547   5.144   6.836
 2533SOL     OW 8497   4.848   0.382   3.696
 2533SOL    HW1 8498   4.860   0.326   3.614
 2533SOL    HW2 8499   4.751   0.395   3.715
 2534SOL     OW 8500   6.583   0.712   2.638
 2534SOL    HW1 8501   6.678   0.681   2.631
 2534SOL    HW2 8502   6.567   0.750   2.730
 2535SOL     OW 8503   2.885   1.333   1.290
 2535SOL    HW1 8504   2.972   1.326   1.338
 2535SOL    HW2 8505   2.840   1.243   1.290
 2536SOL     OW 8506   0.700   7.010   3.038
 2536SOL    HW1 8507   0.674   0.077   3.080
 2536SOL    HW2 8508   0.773   6.968   3.091
 2537SOL     OW 8509   2.297   6.402   1.619
 2537SOL    HW1 8510   2.255   6.311   1.621
 2537SOL    HW2 8511   2.328   6.427   1.710
 2538SOL     OW 8512   0.286   5.164   5.182
 2538SOL    HW1 8513   0.324   5.074   5.161
 2538SOL    HW2 8514   0.191   5.167   5.151
 2539SOL     OW 8515   0.624   0.165   5.261
 2539SOL    HW1 8516   0.663   0.111   5.336
 2539SOL    HW2 8517   0.670   0.140   5.175
 2540SOL     OW 8518   5.697   2.883   2.071
 2540SOL    HW1 8519   5.652   2.923   1.991
 2540SOL    HW2 8520   5.641   2.902   2.152
 2541SOL     OW 8521   1.972   0.687   0.158
 2541SOL    HW1 8522   1.966   0.787   0.157
 2541SOL    HW2 8523   2.061   0.659   0.193
 2542SOL     OW 8524   4.140   2.234   2.854
 2542SOL    HW1 8525   4.043   2.210   2.849
 2542SOL    HW2 8526   4.194   2.152   2.873
 2543SOL     OW 8527   5.874   6.546   5.438
 2543SOL    HW1 8528   5.902   6.461   5.392
 2543SOL    HW2 8529   5.843   6.525   5.531
 2544SOL     OW 8530   0.370   0.459   0.224
 2544SOL    HW1 8531   0.276   0.485   0.247
 2544SOL    HW2 8532   0.373   0.428   0.129
 2545SOL     OW 8533   0.987   1.507   0.365
 2545SOL    HW1 8534   1.038   1.494   0.281
 2545SOL    HW2 8535   0.942   1.596   0.364
 2546SOL     OW 8536   6.099   2.949   3.625
 2546SOL    HW1 8537   6.158   2.986   3.697
 2546SOL    HW2 8538   6.009   2.926   3.663
 2547SOL     OW 8539   6.196   3.285   0.792
 2547SOL    HW1 8540   6.160   3.199   0.755
 2547SOL    HW2 8541   6.160   3.361   0.738
 2548SOL     OW 8542   6.108   0.675   5.620
 2548SOL    HW1 8543   6.095   0.594   5.677
 2548SOL    HW2 8544   6.019   0.709   5.590
 2549SOL     OW 8545   2.663   3.931   6.666
 2549SOL    HW1 8546   2.760   3.905   6.662
 2549SOL    HW2 8547   2.646   4.003   6.599
 2550SOL     OW 8548   3.864   0.925   1.416
 2550SOL    HW1 8549   3.817   0.917   1.328
 2550SOL    HW2 8550   3.942   0.863   1.418
 2551SOL     OW 8551   2.758   4.743   0.835
 2551SOL    HW1 8552   2.757   4.765   0.737
 2551SOL    HW2 8553   2.756   4.644   0.847
 2552SOL     OW 8554   3.294   5.724   1.026
 2552SOL    HW1 8555   3.379   5.759   0.987
 2552SOL    HW2 8556   3.306   5.629   1.054
 2553SOL     OW 8557   4.327   2.179   1.485
 2553SOL    HW1 8558   4.254   2.191   1.552
 2553SOL    HW2 8559   4.379   2.264   1.476
 2554SOL     OW 8560   1.200   5.884   0.685
 2554SOL    HW1 8561   1.257   5.902   0.765
 2554SOL    HW2 8562   1.103   5.893   0.710
 2555SOL     OW 8563   0.183   5.783   4.611
 2555SOL    HW1 8564   0.155   5.870   4.652
 2555SOL    HW2 8565   0.102   5.731   4.586
 2556SOL     OW 8566   5.470   0.632   6.892
 2556SOL    HW1 8567   5.463   0.554   6.829
 2556SOL    HW2 8568   5.564   0.665   6.893
 2557SOL     OW 8569   2.688   1.505   0.753
 2557SOL    HW1 8570   2.588   1.505   0.751
 2557SOL    HW2 8571   2.720   1.567   0.825
 2558SOL     OW 8572   5.672   2.769   1.661
 2558SOL    HW1 8573   5.765   2.781   1.695
 2558SOL    HW2 8574   5.608   2.819   1.720
 2559SOL     OW 8575   0.191   6.104   3.194
 2559SOL    HW1 8576   0.242   6.019   3.208
 2559SOL    HW2 8577   0.139   6.126   3.277
 2560SOL     OW 8578   3.966   2.832   1.744
 2560SOL    HW1 8579   3.898   2.794   1.806
 2560SOL    HW2 8580   3.971   2.931   1.756
 2561SOL     OW 8581   3.643   0.907   4.884
 2561SOL    HW1 8582   3.634   0.831   4.820
 2561SOL    HW2 8583   3.735   0.908   4.923
 2562SOL     OW 8584   1.094   6.849   4.628
 2562SOL    HW1 8585   1.191   6.830   4.640
 2562SOL    HW2 8586   1.041   6.789   4.689
 2563SOL     OW 8587   4.622   1.825   0.096
 2563SOL    HW1 8588   4.650   1.921   0.085
 2563SOL    HW2 8589   4.524   1.818   0.077
 2564SOL     OW 8590   1.673   1.103   1.309
 2564SOL    HW1 8591   1.581   1.130   1.338
 2564SOL    HW2 8592   1.715   1.179   1.259
 2565SOL     OW 8593   5.943   0.552   0.499
 2565SOL    HW1 8594   5.947   0.592   0.590
 2565SOL    HW2 8595   5.869   0.595   0.447
 2566SOL     OW 8596   2.750   1.311   0.940
 2566SOL    HW1 8597   2.751   1.370   0.859
 2566SOL    HW2 8598   2.779   1.364   1.020
 2567SOL     OW 8599   2.056   0.544   6.340
 2567SOL    HW1 8600   1.977   0.509   6.289
 2567SOL    HW2 8601   2.110   0.468   6.375
 2568SOL     OW 8602   3.202   6.500   6.962
 2568SOL    HW1 8603   3.173   6.473   0.035
 2568SOL    HW2 8604   3.142   6.456   6.895
 2569SOL     OW 8605   3.036   6.378   6.768
 2569SOL    HW1 8606   3.021   6.302   6.705
 2569SOL    HW2 8607   3.059   6.460   6.717
 2570SOL     OW 8608   6.950   0.531   3.773
 2570SOL    HW1 8609   6.950   0.631   3.766
 2570SOL    HW2 8610   6.969   0.492   3.683
 2571SOL     OW 8611   3.219   3.378   2.196
 2571SOL    HW1 8612   3.174   3.391   2.285
 2571SOL    HW2 8613   3.214   3.282   2.170
 2572SOL     OW 8614   2.380   6.348   2.324
 2572SOL    HW1 8615   2.421   6.259   2.342
 2572SOL    HW2 8616   2.450   6.411   2.289
 2573SOL     OW 8617   6.064   0.120   2.523
 2573SOL    HW1 8618   6.060   0.153   2.617
 2573SOL    HW2 8619   6.130   0.044   2.517
 2574SOL     OW 8620   0.713   4.534   2.181
 2574SOL    HW1 8621   0.724   4.586   2.265
 2574SOL    HW2 8622   0.651   4.457   2.197
 2575SOL     OW 8623   4.285   3.451   5.417
 2575SOL    HW1 8624   4.277   3.551   5.409
 2575SOL    HW2 8625   4.371   3.421   5.375
 2576SOL     OW 8626   1.078   0.591   3.576
 2576SOL    HW1 8627   1.005   0.650   3.611
 2576SOL    HW2 8628   1.112   0.628   3.489
 2577SOL     OW 8629   1.560   4.690   0.354
 2577SOL    HW1 8630   1.648   4.733   0.336
 2577SOL    HW2 8631   1.495   4.758   0.388
 2578SOL     OW 8632   5.375   1.156   5.181
 2578SOL    HW1 8633   5.471   1.180   5.194
 2578SOL    HW2 8634   5.364   1.056   5.189
 2579SOL     OW 8635   6.991   2.203   6.358
 2579SOL    HW1 8636   0.037   2.241   6.423
 2579SOL    HW2 8637   0.011   2.206   6.266
 2580SOL     OW 8638   1.597   2.366   5.416
 2580SOL    HW1 8639   1.691   2.369   5.384
 2580SOL    HW2 8640   1.536   2.401   5.344
 2581SOL     OW 8641   4.847   6.800   4.217
 2581SOL    HW1 8642   4.791   6.765   4.293
 2581SOL    HW2 8643   4.889   6.723   4.169
 2582SOL     OW 8644   6.911   4.610   2.550
 2582SOL    HW1 8645   7.009   4.609   2.573
 2582SOL    HW2 8646   6.895   4.670   2.472
 2583SOL     OW 8647   3.116   0.556   0.075
 2583SOL    HW1 8648   3.106   0.539   0.173
 2583SOL    HW2 8649   3.066   0.639   0.050
 2584SOL     OW 8650   3.669   0.890   4.283
 2584SOL    HW1 8651   3.707   0.975   4.247
 2584SOL    HW2 8652   3.577   0.876   4.245
 2585SOL     OW 8653   3.822   0.729   3.037
 2585SOL    HW1 8654   3.833   0.728   2.938
 2585SOL    HW2 8655   3.738   0.681   3.062
 2586SOL     OW 8656   2.020   1.912   4.828
 2586SOL    HW1 8657   2.115   1.911   4.799
 2586SOL    HW2 8658   1.974   1.993   4.792
 2587SOL     OW 8659   6.686   4.642   3.674
 2587SOL    HW1 8660   6.667   4.668   3.580
 2587SOL    HW2 8661   6.777   4.601   3.680
 2588SOL     OW 8662   3.055   0.372   2.495
 2588SOL    HW1 8663   3.062   0.458   2.546
 2588SOL    HW2 8664   3.140   0.355   2.446
 2589SOL     OW 8665   4.978   6.737   2.190
 2589SOL    HW1 8666   4.923   6.795   2.130
 2589SOL    HW2 8667   5.001   6.652   2.143
 2590SOL     OW 8668   4.221   6.172   3.835
 2590SOL    HW1 8669   4.228   6.100   3.767
 2590SOL    HW2 8670   4.221   6.261   3.790
 2591SOL     OW 8671   5.246   0.526   0.681
 2591SOL    HW1 8672   5.156   0.502   0.719
 2591SOL    HW2 8673   5.235   0.595   0.610
 2592SOL     OW 8674   2.628   5.695   1.948
 2592SOL    HW1 8675   2.634   5.722   2.045
 2592SOL    HW2 8676   2.546   5.639   1.934
 2593SOL     OW 8677   2.558   6.978   4.342
 2593SOL    HW1 8678   2.604   0.019   4.278
 2593SOL    HW2 8679   2.506   6.909   4.292
 2594SOL     OW 8680   1.803   5.785   6.557
 2594SOL    HW1 8681   1.807   5.686   6.571
 2594SOL    HW2 8682   1.714   5.820   6.584
 2595SOL     OW 8683   0.265   3.178   5.392
 2595SOL    HW1 8684   0.203   3.213   5.462
 2595SOL    HW2 8685   0.212   3.149   5.312
 2596SOL     OW 8686   4.492   1.609   0.904
 2596SOL    HW1 8687   4.589   1.621   0.884
 2596SOL    HW2 8688   4.448   1.559   0.830
 2597SOL     OW 8689   2.602   2.189   6.089
 2597SOL    HW1 8690   2.696   2.156   6.101
 2597SOL    HW2 8691   2.594   2.233   6.000
 2598SOL     OW 8692   6.656   1.345   3.454
 2598SOL    HW1 8693   6.665   1.248   3.433
 2598SOL    HW2 8694   6.569   1.379   3.418
 2599SOL     OW 8695   5.077   6.019   5.890
 2599SOL    HW1 8696   5.019   6.100   5.906
 2599SOL    HW2 8697   5.160   6.047   5.843
 2600SOL     OW 8698   0.204   3.122   5.126
 2600SOL    HW1 8699   0.129   3.060   5.102
 2600SOL    HW2 8700   0.190   3.210   5.080
 2601SOL     OW 8701   4.083   4.226   5.293
 2601SOL    HW1 8702   4.134   4.297   5.244
 2601SOL    HW2 8703   4.084   4.142   5.240
 2602SOL     OW 8704   6.303   0.297   0.264
 2602SOL    HW1 8705   6.209   0.332   0.272
 2602SOL    HW2 8706   6.302   0.198   0.269
 2603SOL     OW 8707   1.849   1.450   6.943
 2603SOL    HW1 8708   1.883   1.542   6.960
 2603SOL    HW2 8709   1.829   1.439   6.846
 2604SOL     OW 8710   6.162   1.484   0.708
 2604SOL    HW1 8711   6.192   1.478   0.803
 2604SOL    HW2 8712   6.234   1.451   0.647
 2605SOL     OW 8713   5.562   2.055   5.476
 2605SOL    HW1 8714   5.608   1.967   5.465
 2605SOL    HW2 8715   5.622   2.118   5.526
 2606SOL     OW 8716   6.380   4.466   0.836
 2606SOL    HW1 8717   6.420   4.376   0.853
 2606SOL    HW2 8718   6.445   4.522   0.785
 2607SOL     OW 8719   0.629   0.614   3.215
 2607SOL    HW1 8720   0.678   0.591   3.299
 2607SOL    HW2 8721   0.561   0.544   3.195
 2608SOL     OW 8722   4.269   1.011   0.309
 2608SOL    HW1 8723   4.358   1.047   0.281
 2608SOL    HW2 8724   4.268   0.912   0.296
 2609SOL     OW 8725   0.975   4.417   3.402
 2609SOL    HW1 8726   1.056   4.357   3.397
 2609SOL    HW2 8727   1.003   4.512   3.389
 2610SOL     OW 8728   5.648   4.785   4.907
 2610SOL    HW1 8729   5.581   4.834   4.852
 2610SOL    HW2 8730   5.617   4.691   4.920
 2611SOL     OW 8731   2.960   6.377   1.924
 2611SOL    HW1 8732   2.936   6.287   1.961
 2611SOL    HW2 8733   2.952   6.376   1.825
 2612SOL     OW 8734   0.291   6.992   4.050
 2612SOL    HW1 8735   0.197   6.967   4.071
 2612SOL    HW2 8736   0.336   6.916   4.002
 2613SOL     OW 8737   4.106   1.565   6.978
 2613SOL    HW1 8738   4.135   1.488   0.014
 2613SOL    HW2 8739   4.159   1.568   6.894
 2614SOL     OW 8740   6.219   6.680   6.681
 2614SOL    HW1 8741   6.184   6.637   6.598
 2614SOL    HW2 8742   6.143   6.700   6.743
 2615SOL     OW 8743   0.265   4.606   1.596
 2615SOL    HW1 8744   0.289   4.541   1.524
 2615SOL    HW2 8745   0.260   4.698   1.558
 2616SOL     OW 8746   3.963   3.713   1.717
 2616SOL    HW1 8747   3.875   3.745   1.753
 2616SOL    HW2 8748   3.984   3.761   1.632
 2617SOL     OW 8749   2.881   6.460   0.965
 2617SOL    HW1 8750   2.882   6.430   0.870
 2617SOL    HW2 8751   2.971   6.446   1.006
 2618SOL     OW 8752   1.328   5.861   0.240
 2618SOL    HW1 8753   1.298   5.953   0.217
 2618SOL    HW2 8754   1.278   5.828   0.320
 2619SOL     OW 8755   6.144   0.785   2.787
 2619SOL    HW1 8756   6.075   0.812   2.854
 2619SOL    HW2 8757   6.140   0.846   2.707
 2620SOL     OW 8758   1.772   6.015   3.859
 2620SOL    HW1 8759   1.716   5.949   3.908
 2620SOL    HW2 8760   1.869   5.990   3.867
 2621SOL     OW 8761   1.430   5.920   4.257
 2621SOL    HW1 8762   1.368   5.963   4.322
 2621SOL    HW2 8763   1.411   5.955   4.165
 2622SOL     OW 8764   2.392   2.769   3.985
 2622SOL    HW1 8765   2.460   2.729   3.924
 2622SOL    HW2 8766   2.425   2.767   4.079
 2623SOL     OW 8767   3.000   0.149   5.394
 2623SOL    HW1 8768   2.949   0.070   5.359
 2623SOL    HW2 8769   3.044   0.197   5.318
 2624SOL     OW 8770   4.727   1.885   4.426
 2624SOL    HW1 8771   4.728   1.803   4.483
 2624SOL    HW2 8772   4.652   1.944   4.454
 2625SOL     OW 8773   1.516   0.103   5.671
 2625SOL    HW1 8774   1.467   0.062   5.594
 2625SOL    HW2 8775   1.458   0.100   5.753
 2626SOL     OW 8776   3.024   6.989   3.311
 2626SOL    HW1 8777   2.972   0.005   3.389
 2626SOL    HW2 8778   3.118   0.001   3.316
 2627SOL     OW 8779   1.201   0.104   4.194
 2627SOL    HW1 8780   1.111   0.109   4.153
 2627SOL    HW2 8781   1.246   0.019   4.167
 2628SOL     OW 8782   4.905   4.929   6.910
 2628SOL    HW1 8783   4.846   4.923   6.829
 2628SOL    HW2 8784   5.001   4.927   6.882
 2629SOL     OW 8785   3.013   4.092   1.889
 2629SOL    HW1 8786   2.926   4.072   1.934
 2629SOL    HW2 8787   3.004   4.177   1.836
 2630SOL     OW 8788   3.554   1.485   2.762
 2630SOL    HW1 8789   3.461   1.481   2.726
 2630SOL    HW2 8790   3.580   1.394   2.795
 2631SOL     OW 8791   3.208   6.560   3.589
 2631SOL    HW1 8792   3.208   6.644   3.643
 2631SOL    HW2 8793   3.219   6.481   3.649
 2632SOL     OW 8794   5.012   1.261   0.681
 2632SOL    HW1 8795   4.914   1.256   0.661
 2632SOL    HW2 8796   5.026   1.258   0.780
 2633SOL     OW 8797   0.168   2.180   0.218
 2633SOL    HW1 8798   0.256   2.178   0.265
 2633SOL    HW2 8799   0.095   2.164   0.284
 2634SOL     OW 8800   2.491   5.077   0.202
 2634SOL    HW1 8801   2.398   5.048   0.224
 2634SOL    HW2 8802   2.517   5.038   0.113
 2635SOL     OW 8803   6.367   4.332   3.134
 2635SOL    HW1 8804   6.383   4.391   3.213
 2635SOL    HW2 8805   6.293   4.267   3.155
 2636SOL     OW 8806   5.353   5.172   5.576
 2636SOL    HW1 8807   5.400   5.099   5.527
 2636SOL    HW2 8808   5.291   5.132   5.644
 2637SOL     OW 8809   5.096   5.340   2.012
 2637SOL    HW1 8810   5.055   5.412   1.957
 2637SOL    HW2 8811   5.025   5.276   2.042
 2638SOL     OW 8812   4.749   5.637   0.470
 2638SOL    HW1 8813   4.838   5.654   0.429
 2638SOL    HW2 8814   4.761   5.596   0.561
 2639SOL     OW 8815   6.243   0.748   0.377
 2639SOL    HW1 8816   6.169   0.808   0.408
 2639SOL    HW2 8817   6.249   0.669   0.438
 2640SOL     OW 8818   6.441   6.249   1.064
 2640SOL    HW1 8819   6.380   6.231   0.988
 2640SOL    HW2 8820   6.436   6.346   1.089
 2641SOL     OW 8821   6.468   5.903   1.306
 2641SOL    HW1 8822   6.426   5.993   1.292
 2641SOL    HW2 8823   6.536   5.909   1.380
 2642SOL     OW 8824   6.727   6.982   4.238
 2642SOL    HW1 8825   6.718   6.886   4.210
 2642SOL    HW2 8826   6.753   0.017   4.158
 2643SOL     OW 8827   1.592   0.621   2.055
 2643SOL    HW1 8828   1.684   0.626   2.095
 2643SOL    HW2 8829   1.570   0.708   2.010
 2644SOL     OW 8830   5.861   6.464   4.587
 2644SOL    HW1 8831   5.819   6.418   4.665
 2644SOL    HW2 8832   5.790   6.490   4.522
 2645SOL     OW 8833   5.600   6.116   6.648
 2645SOL    HW1 8834   5.565   6.033   6.606
 2645SOL    HW2 8835   5.542   6.193   6.623
 2646SOL     OW 8836   5.692   5.331   5.847
 2646SOL    HW1 8837   5.790   5.347   5.842
 2646SOL    HW2 8838   5.670   5.285   5.932
 2647SOL     OW 8839   3.169   4.383   0.512
 2647SOL    HW1 8840   3.192   4.405   0.607
 2647SOL    HW2 8841   3.070   4.386   0.501
 2648SOL     OW 8842   4.565   1.328   3.579
 2648SOL    HW1 8843   4.659   1.292   3.577
 2648SOL    HW2 8844   4.530   1.335   3.486
 2649SOL     OW 8845   2.855   3.919   5.083
 2649SOL    HW1 8846   2.807   3.864   5.015
 2649SOL    HW2 8847   2.808   3.913   5.171
 2650SOL     OW 8848   0.123   6.928   2.111
 2650SOL    HW1 8849   0.047   6.927   2.177
 2650SOL    HW2 8850   0.193   6.993   2.142
 2651SOL     OW 8851   1.899   0.285   2.486
 2651SOL    HW1 8852   1.873   0.377   2.457
 2651SOL    HW2 8853   1.990   0.264   2.451
 2652SOL     OW 8854   3.294   2.065   1.620
 2652SOL    HW1 8855   3.215   2.088   1.677
 2652SOL    HW2 8856   3.369   2.128   1.640
 2653SOL     OW 8857   5.535   0.066   1.206
 2653SOL    HW1 8858   5.505   0.146   1.258
 2653SOL    HW2 8859   5.620   0.030   1.245
 2654SOL     OW 8860   0.341   3.362   5.714
 2654SOL    HW1 8861   0.349   3.413   5.799
 2654SOL    HW2 8862   0.429   3.360   5.667
 2655SOL     OW 8863   5.557   4.712   3.914
 2655SOL    HW1 8864   5.524   4.643   3.850
 2655SOL    HW2 8865   5.595   4.790   3.864
 2656SOL     OW 8866   5.855   3.906   5.139
 2656SOL    HW1 8867   5.882   3.914   5.235
 2656SOL    HW2 8868   5.936   3.914   5.081
 2657SOL     OW 8869   4.067   1.899   5.252
 2657SOL    HW1 8870   4.126   1.924   5.175
 2657SOL    HW2 8871   4.036   1.983   5.298
 2658SOL     OW 8872   0.153   4.036   5.687
 2658SOL    HW1 8873   0.213   3.984   5.747
 2658SOL    HW2 8874   0.199   4.055   5.601
 2659SOL     OW 8875   6.244   0.575   3.208
 2659SOL    HW1 8876   6.312   0.597   3.137
 2659SOL    HW2 8877   6.256   0.636   3.286
 2660SOL     OW 8878   1.156   1.381   3.924
 2660SOL    HW1 8879   1.089   1.380   3.998
 2660SOL    HW2 8880   1.211   1.465   3.931
 2661SOL     OW 8881   3.519   6.732   3.140
 2661SOL    HW1 8882   3.445   6.769   3.197
 2661SOL    HW2 8883   3.592   6.696   3.198
 2662SOL     OW 8884   4.205   1.449   4.476
 2662SOL    HW1 8885   4.281   1.417   4.533
 2662SOL    HW2 8886   4.230   1.446   4.380
 2663SOL     OW 8887   1.021   4.584   3.060
 2663SOL    HW1 8888   1.073   4.503   3.085
 2663SOL    HW2 8889   0.923   4.563   3.061
 2664SOL     OW 8890   4.893   4.390   1.842
 2664SOL    HW1 8891   4.871   4.298   1.875
 2664SOL    HW2 8892   4.940   4.440   1.914
 2665SOL     OW 8893   3.786   0.626   5.250
 2665SOL    HW1 8894   3.735   0.660   5.329
 2665SOL    HW2 8895   3.857   0.692   5.225
 2666SOL     OW 8896   4.725   5.983   1.753
 2666SOL    HW1 8897   4.748   6.065   1.805
 2666SOL    HW2 8898   4.703   5.909   1.817
 2667SOL     OW 8899   2.424   4.779   3.051
 2667SOL    HW1 8900   2.516   4.801   3.085
 2667SOL    HW2 8901   2.375   4.865   3.034
 2668SOL     OW 8902   0.231   2.737   5.299
 2668SOL    HW1 8903   0.212   2.694   5.211
 2668SOL    HW2 8904   0.288   2.677   5.354
 2669SOL     OW 8905   4.259   5.334   4.824
 2669SOL    HW1 8906   4.310   5.252   4.798
 2669SOL    HW2 8907   4.290   5.366   4.913
 2670SOL     OW 8908   1.761   6.888   4.453
 2670SOL    HW1 8909   1.831   6.940   4.403
 2670SOL    HW2 8910   1.806   6.814   4.504
 2671SOL     OW 8911   2.759   3.403   6.845
 2671SOL    HW1 8912   2.823   3.470   6.882
 2671SOL    HW2 8913   2.794   3.311   6.862
 2672SOL     OW 8914   1.322   4.512   0.775
 2672SOL    HW1 8915   1.378   4.441   0.817
 2672SOL    HW2 8916   1.312   4.589   0.838
 2673SOL     OW 8917   4.265   2.271   3.128
 2673SOL    HW1 8918   4.200   2.298   3.056
 2673SOL    HW2 8919   4.216   2.223   3.201
 2674SOL     OW 8920   4.834   5.903   5.359
 2674SOL    HW1 8921   4.918   5.952   5.336
 2674SOL    HW2 8922   4.759   5.935   5.302
 2675SOL     OW 8923   6.901   5.320   6.027
 2675SOL    HW1 8924   6.986   5.363   5.999
 2675SOL    HW2 8925   6.920   5.228   6.062
 2676SOL     OW 8926   4.438   0.016   1.618
 2676SOL    HW1 8927   4.451   0.055   1.710
 2676SOL    HW2 8928   4.488   0.071   1.551
 2677SOL     OW 8929   2.334   4.652   2.026
 2677SOL    HW1 8930   2.304   4.558   2.045
 2677SOL    HW2 8931   2.397   4.652   1.948
 2678SOL     OW 8932   1.022   6.247   0.062
 2678SOL    HW1 8933   0.970   6.206   7.007
 2678SOL    HW2 8934   1.084   6.317   0.025
 2679SOL     OW 8935   2.126   5.211   1.155
 2679SOL    HW1 8936   2.042   5.186   1.203
 2679SOL    HW2 8937   2.196   5.142   1.172
 2680SOL     OW 8938   6.494   2.072   1.013
 2680SOL    HW1 8939   6.533   2.145   0.958
 2680SOL    HW2 8940   6.504   2.094   1.110
 2681SOL     OW 8941   1.544   2.073   1.503
 2681SOL    HW1 8942   1.497   2.015   1.437
 2681SOL    HW2 8943   1.477   2.132   1.549
 2682SOL     OW 8944   0.889   2.821   3.726
 2682SOL    HW1 8945   0.831   2.812   3.646
 2682SOL    HW2 8946   0.894   2.733   3.774
 2683SOL     OW 8947   1.872   0.029   1.137
 2683SOL    HW1 8948   1.931   0.039   1.057
 2683SOL    HW2 8949   1.782   0.068   1.117
 2684SOL     OW 8950   3.463   4.969   2.997
 2684SOL    HW1 8951   3.394   4.940   2.932
 2684SOL    HW2 8952   3.515   4.889   3.029
 2685SOL     OW 8953   5.428   4.681   5.823
 2685SOL    HW1 8954   5.477   4.638   5.746
 2685SOL    HW2 8955   5.405   4.611   5.890
 2686SOL     OW 8956   1.606   3.821   4.132
 2686SOL    HW1 8957   1.645   3.851   4.220
 2686SOL    HW2 8958   1.527   3.878   4.110
 2687SOL     OW 8959   4.409   5.330   2.972
 2687SOL    HW1 8960   4.399   5.357   3.068
 2687SOL    HW2 8961   4.499   5.290   2.959
 2688SOL     OW 8962   3.181   4.533   5.371
 2688SOL    HW1 8963   3.136   4.446   5.349
 2688SOL    HW2 8964   3.129   4.608   5.330
 2689SOL     OW 8965   6.089   1.342   4.073
 2689SOL    HW1 8966   6.154   1.347   3.998
 2689SOL    HW2 8967   6.136   1.364   4.159
 2690SOL     OW 8968   3.359   4.126   3.753
 2690SOL    HW1 8969   3.299   4.065   3.701
 2690SOL    HW2 8970   3.377   4.208   3.699
 2691SOL     OW 8971   0.902   5.963   1.314
 2691SOL    HW1 8972   0.840   5.922   1.381
 2691SOL    HW2 8973   0.964   6.027   1.360
 2692SOL     OW 8974   0.120   4.137   4.207
 2692SOL    HW1 8975   0.145   4.048   4.245
 2692SOL    HW2 8976   0.138   4.137   4.108
 2693SOL     OW 8977   2.058   3.429   2.454
 2693SOL    HW1 8978   2.110   3.476   2.382
 2693SOL    HW2 8979   2.061   3.482   2.538
 2694SOL     OW 8980   1.867   1.573   2.871
 2694SOL    HW1 8981   1.844   1.641   2.802
 2694SOL    HW2 8982   1.784   1.540   2.915
 2695SOL     OW 8983   3.934   2.231   1.797
 2695SOL    HW1 8984   3.841   2.268   1.804
 2695SOL    HW2 8985   3.938   2.141   1.841
 2696SOL     OW 8986   3.047   3.134   6.647
 2696SOL    HW1 8987   2.952   3.165   6.648
 2696SOL    HW2 8988   3.070   3.102   6.555
 2697SOL     OW 8989   2.103   0.824   5.330
 2697SOL    HW1 8990   2.201   0.840   5.336
 2697SOL    HW2 8991   2.062   0.891   5.267
 2698SOL     OW 8992   2.051   1.816   0.107
 2698SOL    HW1 8993   2.103   1.862   0.035
 2698SOL    HW2 8994   2.089   1.841   0.196
 2699SOL     OW 8995   1.755   4.166   3.478
 2699SOL    HW1 8996   1.853   4.172   3.494
 2699SOL    HW2 8997   1.708   4.233   3.536
 2700SOL     OW 8998   2.185   4.563   3.116
 2700SOL    HW1 8999   2.128   4.645   3.125
 2700SOL    HW2 9000   2.153   4.493   3.180
 2701SOL     OW 9001   1.259   0.640   5.189
 2701SOL    HW1 9002   1.351   0.667   5.161
 2701SOL    HW2 9003   1.212   0.597   5.112
 2702SOL     OW 9004   5.844   5.887   2.306
 2702SOL    HW1 9005   5.919   5.896   2.372
 2702SOL    HW2 9006   5.765   5.846   2.350
 2703SOL     OW 9007   2.047   2.592   2.226
 2703SOL    HW1 9008   2.087   2.661   2.287
 2703SOL    HW2 9009   2.074   2.501   2.256
 2704SOL     OW 9010   0.537   6.314   0.375
 2704SOL    HW1 9011   0.440   6.312   0.398
 2704SOL    HW2 9012   0.592   6.314   0.459
 2705SOL     OW 9013   0.084   2.917   2.971
 2705SOL    HW1 9014   0.109   2.820   2.976
 2705SOL    HW2 9015   0.115   2.955   2.884
 2706SOL     OW 9016   6.690   2.214   3.535
 2706SOL    HW1 9017   6.784   2.216   3.502
 2706SOL    HW2 9018   6.665   2.120   3.558
 2707SOL     OW 9019   3.516   0.622   0.554
 2707SOL    HW1 9020   3.486   0.717   0.550
 2707SOL    HW2 9021   3.474   0.572   0.478
 2708SOL     OW 9022   1.483   4.872   6.833
 2708SOL    HW1 9023   1.472   4.834   6.925
 2708SOL    HW2 9024   1.578   4.866   6.806
 2709SOL     OW 9025   3.771   0.455   2.016
 2709SOL    HW1 9026   3.852   0.469   1.959
 2709SOL    HW2 9027   3.721   0.375   1.984
 2710SOL     OW 9028   5.956   3.758   3.084
 2710SOL    HW1 9029   5.938   3.850   3.119
 2710SOL    HW2 9030   6.049   3.730   3.108
 2711SOL     OW 9031   7.007   6.486   1.932
 2711SOL    HW1 9032   0.009   6.584   1.924
 2711SOL    HW2 9033   6.939   6.461   1.864
 2712SOL     OW 9034   3.741   5.817   2.914
 2712SOL    HW1 9035   3.800   5.806   2.994
 2712SOL    HW2 9036   3.780   5.765   2.837
 2713SOL     OW 9037   2.614   2.531   5.512
 2713SOL    HW1 9038   2.540   2.518   5.579
 2713SOL    HW2 9039   2.615   2.627   5.482
 2714SOL     OW 9040   5.600   0.452   6.663
 2714SOL    HW1 9041   5.684   0.504   6.680
 2714SOL    HW2 9042   5.588   0.440   6.564
 2715SOL     OW 9043   5.768   0.028   6.412
 2715SOL    HW1 9044   5.675   0.034   6.449
 2715SOL    HW2 9045   5.776   0.090   6.334
 2716SOL     OW 9046   6.099   6.357   1.990
 2716SOL    HW1 9047   6.077   6.427   1.922
 2716SOL    HW2 9048   6.195   6.363   2.015
 2717SOL     OW 9049   0.142   6.737   3.338
 2717SOL    HW1 9050   0.196   6.772   3.415
 2717SOL    HW2 9051   0.183   6.767   3.252
 2718SOL     OW 9052   6.701   3.834   3.060
 2718SOL    HW1 9053   6.748   3.772   3.122
 2718SOL    HW2 9054   6.611   3.797   3.037
 2719SOL     OW 9055   4.908   4.275   3.354
 2719SOL    HW1 9056   4.866   4.216   3.285
 2719SOL    HW2 9057   4.855   4.270   3.439
 2720SOL     OW 9058   0.023   6.913   4.108
 2720SOL    HW1 9059   0.005   6.820   4.074
 2720SOL    HW2 9060   6.966   6.972   4.082
 2721SOL     OW 9061   4.931   5.670   2.508
 2721SOL    HW1 9062   4.931   5.592   2.445
 2721SOL    HW2 9063   5.021   5.678   2.551
 2722SOL     OW 9064   0.599   5.700   2.690
 2722SOL    HW1 9065   0.507   5.665   2.709
 2722SOL    HW2 9066   0.603   5.733   2.596
 2723SOL     OW 9067   2.882   1.868   4.902
 2723SOL    HW1 9068   2.887   1.881   5.001
 2723SOL    HW2 9069   2.969   1.895   4.861
 2724SOL     OW 9070   4.751   5.835   5.618
 2724SOL    HW1 9071   4.829   5.806   5.675
 2724SOL    HW2 9072   4.783   5.849   5.524
 2725SOL     OW 9073   1.759   5.641   2.402
 2725SOL    HW1 9074   1.729   5.715   2.341
 2725SOL    HW2 9075   1.743   5.553   2.358
 2726SOL     OW 9076   4.445   6.045   2.744
 2726SOL    HW1 9077   4.347   6.030   2.756
 2726SOL    HW2 9078   4.495   6.005   2.821
 2727SOL     OW 9079   2.590   5.189   3.960
 2727SOL    HW1 9080   2.540   5.155   3.881
 2727SOL    HW2 9081   2.674   5.137   3.971
 2728SOL     OW 9082   2.031   6.774   4.870
 2728SOL    HW1 9083   2.086   6.695   4.899
 2728SOL    HW2 9084   1.973   6.748   4.793
 2729SOL     OW 9085   6.852   3.662   2.250
 2729SOL    HW1 9086   6.880   3.566   2.240
 2729SOL    HW2 9087   6.855   3.706   2.160
 2730SOL     OW 9088   1.508   3.000   1.634
 2730SOL    HW1 9089   1.457   3.033   1.554
 2730SOL    HW2 9090   1.584   2.943   1.603
 2731SOL     OW 9091   1.613   3.391   6.457
 2731SOL    HW1 9092   1.650   3.441   6.379
 2731SOL    HW2 9093   1.652   3.299   6.459
 2732SOL     OW 9094   5.602   3.316   4.495
 2732SOL    HW1 9095   5.518   3.271   4.525
 2732SOL    HW2 9096   5.579   3.403   4.450
 2733SOL     OW 9097   2.092   0.504   6.895
 2733SOL    HW1 9098   2.010   0.560   6.887
 2733SOL    HW2 9099   2.149   0.517   6.814
 2734SOL     OW 9100   2.037   0.308   4.232
 2734SOL    HW1 9101   2.133   0.335   4.219
 2734SOL    HW2 9102   1.990   0.312   4.144
 2735SOL     OW 9103   1.353   5.992   1.085
 2735SOL    HW1 9104   1.397   5.982   0.996
 2735SOL    HW2 9105   1.418   5.972   1.158
 2736SOL     OW 9106   4.315   0.654   6.769
 2736SOL    HW1 9107   4.409   0.672   6.798
 2736SOL    HW2 9108   4.253   0.715   6.819
 2737SOL     OW 9109   4.116   3.822   5.573
 2737SOL    HW1 9110   4.122   3.893   5.643
 2737SOL    HW2 9111   4.196   3.762   5.581
 2738SOL     OW 9112   0.366   3.756   5.392
 2738SOL    HW1 9113   0.447   3.698   5.394
 2738SOL    HW2 9114   0.287   3.704   5.424
 2739SOL     OW 9115   3.761   4.143   6.559
 2739SOL    HW1 9116   3.844   4.176   6.603
 2739SOL    HW2 9117   3.685   4.148   6.623
 2740SOL     OW 9118   6.480   2.957   4.743
 2740SOL    HW1 9119   6.537   2.930   4.820
 2740SOL    HW2 9120   6.426   3.038   4.768
 2741SOL     OW 9121   2.249   3.006   5.935
 2741SOL    HW1 9122   2.225   2.913   5.907
 2741SOL    HW2 9123   2.221   3.071   5.865
 2742SOL     OW 9124   2.389   5.919   5.029
 2742SOL    HW1 9125   2.379   5.938   5.127
 2742SOL    HW2 9126   2.407   5.822   5.016
 2743SOL     OW 9127   5.347   3.752   6.459
 2743SOL    HW1 9128   5.286   3.674   6.446
 2743SOL    HW2 9129   5.425   3.725   6.516
 2744SOL     OW 9130   4.945   6.696   1.524
 2744SOL    HW1 9131   4.946   6.631   1.449
 2744SOL    HW2 9132   5.028   6.686   1.579
 2745SOL     OW 9133   3.310   5.632   3.089
 2745SOL    HW1 9134   3.383   5.574   3.053
 2745SOL    HW2 9135   3.223   5.583   3.084
 2746SOL     OW 9136   1.177   2.353   6.983
 2746SOL    HW1 9137   1.258   2.374   6.928
 2746SOL    HW2 9138   1.166   2.254   6.989
 2747SOL     OW 9139   4.504   6.460   3.507
 2747SOL    HW1 9140   4.571   6.442   3.580
 2747SOL    HW2 9141   4.548   6.449   3.418
 2748SOL     OW 9142   5.477   1.060   4.744
 2748SOL    HW1 9143   5.410   0.994   4.778
 2748SOL    HW2 9144   5.452   1.152   4.774
 2749SOL     OW 9145   6.271   5.537   2.721
 2749SOL    HW1 9146   6.198   5.604   2.714
 2749SOL    HW2 9147   6.247   5.455   2.668
 2750SOL     OW 9148   0.809   0.353   0.451
 2750SOL    HW1 9149   0.731   0.299   0.420
 2750SOL    HW2 9150   0.790   0.391   0.541
 2751SOL     OW 9151   1.271   6.918   0.201
 2751SOL    HW1 9152   1.332   6.841   0.188
 2751SOL    HW2 9153   1.247   6.958   0.112
 2752SOL     OW 9154   0.205   6.526   6.092
 2752SOL    HW1 9155   0.107   6.515   6.109
 2752SOL    HW2 9156   0.257   6.487   6.169
 2753SOL     OW 9157   3.432   5.727   4.273
 2753SOL    HW1 9158   3.405   5.632   4.259
 2753SOL    HW2 9159   3.442   5.773   4.185
 2754SOL     OW 9160   1.271   4.989   3.969
 2754SOL    HW1 9161   1.235   4.995   4.063
 2754SOL    HW2 9162   1.348   5.051   3.959
 2755SOL     OW 9163   4.299   6.893   2.558
 2755SOL    HW1 9164   4.319   6.976   2.507
 2755SOL    HW2 9165   4.360   6.820   2.528
 2756SOL     OW 9166   0.155   2.988   4.770
 2756SOL    HW1 9167   0.105   2.978   4.856
 2756SOL    HW2 9168   0.253   2.993   4.789
 2757SOL     OW 9169   5.282   3.960   5.752
 2757SOL    HW1 9170   5.191   3.998   5.734
 2757SOL    HW2 9171   5.326   3.937   5.666
 2758SOL     OW 9172   6.864   6.921   1.153
 2758SOL    HW1 9173   6.842   6.920   1.250
 2758SOL    HW2 9174   6.782   6.944   1.100
 2759SOL     OW 9175   4.036   3.720   4.263
 2759SOL    HW1 9176   3.937   3.712   4.268
 2759SOL    HW2 9177   4.066   3.706   4.168
 2760SOL     OW 9178   4.902   5.759   2.993
 2760SOL    HW1 9179   4.911   5.660   3.005
 2760SOL    HW2 9180   4.990   5.803   3.011
 2761SOL     OW 9181   2.097   3.522   3.854
 2761SOL    HW1 9182   2.114   3.476   3.941
 2761SOL    HW2 9183   2.099   3.455   3.779
 2762SOL     OW 9184   4.323   2.005   2.652
 2762SOL    HW1 9185   4.278   1.964   2.572
 2762SOL    HW2 9186   4.318   2.104   2.645
 2763SOL     OW 9187   5.467   0.731   3.248
 2763SOL    HW1 9188   5.555   0.777   3.262
 2763SOL    HW2 9189   5.448   0.671   3.327
 2764SOL     OW 9190   0.206   1.767   2.789
 2764SOL    HW1 9191   0.232   1.858   2.820
 2764SOL    HW2 9192   0.245   1.699   2.851
 2765SOL     OW 9193   6.732   6.791   6.483
 2765SOL    HW1 9194   6.815   6.840   6.456
 2765SOL    HW2 9195   6.757   6.701   6.519
 2766SOL     OW 9196   5.392   0.161   7.013
 2766SOL    HW1 9197   5.325   0.204   0.053
 2766SOL    HW2 9198   5.396   0.210   6.925
 2767SOL     OW 9199   6.985   6.232   6.814
 2767SOL    HW1 9200   7.012   6.284   6.734
 2767SOL    HW2 9201   0.018   6.147   6.818
 2768SOL     OW 9202   4.187   0.339   1.347
 2768SOL    HW1 9203   4.125   0.385   1.410
 2768SOL    HW2 9204   4.281   0.368   1.365
 2769SOL     OW 9205   0.986   5.324   6.048
 2769SOL    HW1 9206   1.047   5.256   6.006
 2769SOL    HW2 9207   1.024   5.352   6.137
 2770SOL     OW 9208   1.936   6.876   0.139
 2770SOL    HW1 9209   1.948   6.869   0.040
 2770SOL    HW2 9210   2.023   6.901   0.181
 2771SOL     OW 9211   4.155   6.256   5.351
 2771SOL    HW1 9212   4.065   6.287   5.382
 2771SOL    HW2 9213   4.169   6.161   5.379
 2772SOL     OW 9214   6.212   1.793   3.035
 2772SOL    HW1 9215   6.277   1.844   2.978
 2772SOL    HW2 9216   6.183   1.711   2.987
 2773SOL     OW 9217   4.473   0.963   5.928
 2773SOL    HW1 9218   4.433   1.001   6.012
 2773SOL    HW2 9219   4.409   0.974   5.852
 2774SOL     OW 9220   6.192   6.650   3.611
 2774SOL    HW1 9221   6.206   6.728   3.672
 2774SOL    HW2 9222   6.094   6.639   3.592
 2775SOL     OW 9223   6.949   2.754   4.723
 2775SOL    HW1 9224   6.978   2.850   4.730
 2775SOL    HW2 9225   6.865   2.749   4.670
 2776SOL     OW 9226   4.858   3.935   5.848
 2776SOL    HW1 9227   4.800   3.947   5.929
 2776SOL    HW2 9228   4.852   3.840   5.816
 2777SOL     OW 9229   1.538   1.781   0.659
 2777SOL    HW1 9230   1.599   1.855   0.630
 2777SOL    HW2 9231   1.445   1.802   0.627
 2778SOL     OW 9232   2.547   6.297   5.622
 2778SOL    HW1 9233   2.448   6.302   5.611
 2778SOL    HW2 9234   2.579   6.205   5.600
 2779SOL     OW 9235   5.137   1.525   3.747
 2779SOL    HW1 9236   5.206   1.501   3.815
 2779SOL    HW2 9237   5.046   1.501   3.782
 2780SOL     OW 9238   0.462   6.886   5.312
 2780SOL    HW1 9239   0.555   6.874   5.346
 2780SOL    HW2 9240   0.454   6.844   5.221
 2781SOL     OW 9241   6.967   6.927   2.383
 2781SOL    HW1 9242   6.996   7.017   2.415
 2781SOL    HW2 9243   6.893   6.937   2.317
 2782SOL     OW 9244   5.630   6.543   4.935
 2782SOL    HW1 9245   5.539   6.503   4.944
 2782SOL    HW2 9246   5.623   6.629   4.885
 2783SOL     OW 9247   0.267   2.011   1.962
 2783SOL    HW1 9248   0.247   2.004   2.060
 2783SOL    HW2 9249   0.258   1.920   1.920
 2784SOL     OW 9250   1.205   2.023   2.251
 2784SOL    HW1 9251   1.293   2.067   2.233
 2784SOL    HW2 9252   1.203   1.932   2.209
 2785SOL     OW 9253   5.634   3.077   3.819
 2785SOL    HW1 9254   5.644   3.168   3.777
 2785SOL    HW2 9255   5.605   3.087   3.914
 2786SOL     OW 9256   0.224   6.419   1.395
 2786SOL    HW1 9257   0.229   6.332   1.444
 2786SOL    HW2 9258   0.244   6.494   1.459
 2787SOL     OW 9259   7.006   6.304   6.122
 2787SOL    HW1 9260   0.033   6.280   6.037
 2787SOL    HW2 9261   6.917   6.345   6.100
 2788SOL     OW 9262   3.084   6.604   6.604
 2788SOL    HW1 9263   3.149   6.572   6.535
 2788SOL    HW2 9264   3.123   6.683   6.652
 2789SOL     OW 9265   2.486   2.128   4.372
 2789SOL    HW1 9266   2.441   2.213   4.345
 2789SOL    HW2 9267   2.519   2.080   4.291
 2790SOL     OW 9268   0.906   4.366   0.815
 2790SOL    HW1 9269   0.925   4.432   0.888
 2790SOL    HW2 9270   0.807   4.349   0.810
 2791SOL     OW 9271   0.838   3.781   5.493
 2791SOL    HW1 9272   0.798   3.720   5.561
 2791SOL    HW2 9273   0.900   3.845   5.538
 2792SOL     OW 9274   3.044   2.589   0.209
 2792SOL    HW1 9275   3.133   2.544   0.199
 2792SOL    HW2 9276   3.047   2.678   0.165
 2793SOL     OW 9277   4.078   3.787   6.233
 2793SOL    HW1 9278   4.083   3.692   6.263
 2793SOL    HW2 9279   4.090   3.848   6.312
 2794SOL     OW 9280   1.514   1.944   0.105
 2794SOL    HW1 9281   1.612   1.962   0.099
 2794SOL    HW2 9282   1.499   1.845   0.110
 2795SOL     OW 9283   1.092   0.236   0.438
 2795SOL    HW1 9284   1.112   0.286   0.354
 2795SOL    HW2 9285   1.121   0.290   0.517
 2796SOL     OW 9286   2.923   5.780   6.684
 2796SOL    HW1 9287   3.013   5.737   6.674
 2796SOL    HW2 9288   2.877   5.783   6.596
 2797SOL     OW 9289   4.737   3.962   5.193
 2797SOL    HW1 9290   4.751   3.869   5.227
 2797SOL    HW2 9291   4.666   4.007   5.246
 2798SOL     OW 9292   5.817   2.038   2.090
 2798SOL    HW1 9293   5.729   2.042   2.044
 2798SOL    HW2 9294   5.884   1.994   2.031
 2799SOL     OW 9295   3.499   0.177   4.081
 2799SOL    HW1 9296   3.444   0.111   4.031
 2799SOL    HW2 9297   3.439   0.231   4.141
 2800SOL     OW 9298   4.499   1.601   0.525
 2800SOL    HW1 9299   4.493   1.526   0.460
 2800SOL    HW2 9300   4.595   1.629   0.535
 2801SOL     OW 9301   0.601   4.565   3.060
 2801SOL    HW1 9302   0.524   4.542   3.119
 2801SOL    HW2 9303   0.664   4.487   3.055
 2802SOL     OW 9304   2.428   4.418   4.410
 2802SOL    HW1 9305   2.470   4.410   4.501
 2802SOL    HW2 9306   2.458   4.502   4.367
 2803SOL     OW 9307   3.000   2.827   7.006
 2803SOL    HW1 9308   2.910   2.796   6.977
 2803SOL    HW2 9309   3.045   2.874   6.930
 2804SOL     OW 9310   5.472   2.682   3.709
 2804SOL    HW1 9311   5.473   2.627   3.626
 2804SOL    HW2 9312   5.455   2.778   3.684
 2805SOL     OW 9313   3.606   5.270   0.378
 2805SOL    HW1 9314   3.655   5.330   0.315
 2805SOL    HW2 9315   3.520   5.240   0.337
 2806SOL     OW 9316   1.538   3.076   4.550
 2806SOL    HW1 9317   1.490   3.159   4.523
 2806SOL    HW2 9318   1.633   3.098   4.573
 2807SOL     OW 9319   5.102   1.258   4.013
 2807SOL    HW1 9320   5.034   1.320   4.053
 2807SOL    HW2 9321   5.093   1.168   4.055
 2808SOL     OW 9322   0.693   6.618   0.019
 2808SOL    HW1 9323   0.719   6.524   0.040
 2808SOL    HW2 9324   0.594   6.629   0.031
 2809SOL     OW 9325   0.615   6.130   1.035
 2809SOL    HW1 9326   0.536   6.147   1.094
 2809SOL    HW2 9327   0.698   6.161   1.081
 2810SOL     OW 9328   6.923   6.217   2.063
 2810SOL    HW1 9329   6.936   6.312   2.092
 2810SOL    HW2 9330   6.894   6.162   2.141
 2811SOL     OW 9331   0.428   6.967   0.335
 2811SOL    HW1 9332   0.395   6.873   0.347
 2811SOL    HW2 9333   0.398   0.004   0.411
 2812SOL     OW 9334   2.101   0.799   0.724
 2812SOL    HW1 9335   2.169   0.730   0.751
 2812SOL    HW2 9336   2.050   0.765   0.644
 2813SOL     OW 9337   5.488   2.282   2.058
 2813SOL    HW1 9338   5.514   2.212   2.124
 2813SOL    HW2 9339   5.452   2.239   1.975
 2814SOL     OW 9340   1.837   4.290   6.589
 2814SOL    HW1 9341   1.810   4.257   6.679
 2814SOL    HW2 9342   1.914   4.353   6.598
 2815SOL     OW 9343   6.057   6.468   5.058
 2815SOL    HW1 9344   6.008   6.552   5.033
 2815SOL    HW2 9345   6.151   6.473   5.025
 2816SOL     OW 9346   0.926   5.452   5.246
 2816SOL    HW1 9347   0.837   5.457   5.202
 2816SOL    HW2 9348   0.997   5.479   5.181
 2817SOL     OW 9349   2.874   0.687   1.278
 2817SOL    HW1 9350   2.843   0.735   1.196
 2817SOL    HW2 9351   2.950   0.626   1.255
 2818SOL     OW 9352   1.858   0.280   0.347
 2818SOL    HW1 9353   1.848   0.188   0.386
 2818SOL    HW2 9354   1.854   0.348   0.420
 2819SOL     OW 9355   6.152   0.658   6.932
 2819SOL    HW1 9356   6.104   0.576   6.903
 2819SOL    HW2 9357   6.186   0.646   0.006
 2820SOL     OW 9358   1.980   1.999   0.395
 2820SOL    HW1 9359   2.001   2.084   0.443
 2820SOL    HW2 9360   2.058   1.938   0.399
 2821SOL     OW 9361   3.809   2.859   6.151
 2821SOL    HW1 9362   3.828   2.948   6.194
 2821SOL    HW2 9363   3.895   2.817   6.123
 2822SOL     OW 9364   4.189   3.937   1.356
 2822SOL    HW1 9365   4.283   3.970   1.366
 2822SOL    HW2 9366   4.165   3.933   1.259
 2823SOL     OW 9367   5.187   4.332   3.938
 2823SOL    HW1 9368   5.261   4.294   3.882
 2823SOL    HW2 9369   5.099   4.305   3.898
 2824SOL     OW 9370   0.918   4.361   5.690
 2824SOL    HW1 9371   0.897   4.314   5.776
 2824SOL    HW2 9372   1.017   4.376   5.683
 2825SOL     OW 9373   4.971   2.532   5.781
 2825SOL    HW1 9374   4.982   2.601   5.709
 2825SOL    HW2 9375   4.877   2.533   5.815
 2826SOL     OW 9376   3.072   2.343   6.552
 2826SOL    HW1 9377   3.038   2.429   6.514
 2826SOL    HW2 9378   3.157   2.360   6.603
 2827SOL     OW 9379   0.014   1.986   0.440
 2827SOL    HW1 9380   0.038   2.071   0.486
 2827SOL    HW2 9381   0.097   1.940   0.408
 2828SOL     OW 9382   1.970   3.667   0.018
 2828SOL    HW1 9383   2.009   3.598   6.977
 2828SOL    HW2 9384   1.874   3.682   7.013
 2829SOL     OW 9385   3.401   4.432   1.064
 2829SOL    HW1 9386   3.399   4.509   1.000
 2829SOL    HW2 9387   3.490   4.428   1.109
 2830SOL     OW 9388   2.701   5.315   4.721
 2830SOL    HW1 9389   2.730   5.268   4.638
 2830SOL    HW2 9390   2.610   5.354   4.708
 2831SOL     OW 9391   5.245   1.824   1.769
 2831SOL    HW1 9392   5.199   1.908   1.741
 2831SOL    HW2 9393   5.213   1.797   1.859
 2832SOL     OW 9394   1.464   3.430   1.309
 2832SOL    HW1 9395   1.411   3.503   1.267
 2832SOL    HW2 9396   1.476   3.450   1.407
 2833SOL     OW 9397   6.475   2.006   3.297
 2833SOL    HW1 9398   6.486   2.099   3.332
 2833SOL    HW2 9399   6.512   1.940   3.363
 2834SOL     OW 9400   2.613   0.150   4.139
 2834SOL    HW1 9401   2.651   0.067   4.099
 2834SOL    HW2 9402   2.673   0.228   4.118
 2835SOL     OW 9403   5.993   1.644   0.519
 2835SOL    HW1 9404   6.052   1.722   0.497
 2835SOL    HW2 9405   6.042   1.582   0.581
 2836SOL     OW 9406   2.995   6.663   1.921
 2836SOL    HW1 9407   2.990   6.568   1.890
 2836SOL    HW2 9408   2.915   6.713   1.887
 2837SOL     OW 9409   5.114   4.442   3.271
 2837SOL    HW1 9410   5.059   4.360   3.285
 2837SOL    HW2 9411   5.070   4.520   3.317
 2838SOL     OW 9412   6.735   4.784   6.108
 2838SOL    HW1 9413   6.662   4.759   6.172
 2838SOL    HW2 9414   6.819   4.737   6.135
 2839SOL     OW 9415   5.618   2.547   6.596
 2839SOL    HW1 9416   5.523   2.522   6.576
 2839SOL    HW2 9417   5.620   2.621   6.663
 2840SOL     OW 9418   6.413   5.731   5.080
 2840SOL    HW1 9419   6.385   5.636   5.067
 2840SOL    HW2 9420   6.394   5.759   5.174
 2841SOL     OW 9421   5.459   3.446   2.887
 2841SOL    HW1 9422   5.538   3.431   2.946
 2841SOL    HW2 9423   5.382   3.479   2.942
 2842SOL     OW 9424   1.096   6.026   3.992
 2842SOL    HW1 9425   1.127   5.937   4.025
 2842SOL    HW2 9426   1.135   6.099   4.048
 2843SOL     OW 9427   1.121   2.713   3.923
 2843SOL    HW1 9428   1.143   2.791   3.865
 2843SOL    HW2 9429   1.170   2.632   3.890
 2844SOL     OW 9430   5.433   3.979   0.464
 2844SOL    HW1 9431   5.496   4.018   0.531
 2844SOL    HW2 9432   5.407   3.887   0.493
 2845SOL     OW 9433   3.383   1.763   1.163
 2845SOL    HW1 9434   3.380   1.816   1.247
 2845SOL    HW2 9435   3.323   1.683   1.171
 2846SOL     OW 9436   5.902   0.648   5.921
 2846SOL    HW1 9437   5.984   0.705   5.933
 2846SOL    HW2 9438   5.830   0.681   5.982
 2847SOL     OW 9439   6.052   4.948   2.968
 2847SOL    HW1 9440   6.010   4.953   2.877
 2847SOL    HW2 9441   6.104   4.863   2.975
 2848SOL     OW 9442   6.872   4.122   0.315
 2848SOL    HW1 9443   6.910   4.030   0.302
 2848SOL    HW2 9444   6.860   4.166   0.227
 2849SOL     OW 9445   5.190   0.858   0.743
 2849SOL    HW1 9446   5.114   0.895   0.689
 2849SOL    HW2 9447   5.153   0.806   0.821
 2850SOL     OW 9448   6.819   1.013   0.949
 2850SOL    HW1 9449   6.722   1.035   0.959
 2850SOL    HW2 9450   6.867   1.030   1.036
 2851SOL     OW 9451   3.273   2.928   2.258
 2851SOL    HW1 9452   3.215   2.907   2.337
 2851SOL    HW2 9453   3.369   2.919   2.284
 2852SOL     OW 9454   1.650   4.747   5.033
 2852SOL    HW1 9455   1.712   4.785   4.964
 2852SOL    HW2 9456   1.686   4.767   5.124
 2853SOL     OW 9457   6.649   5.204   5.395
 2853SOL    HW1 9458   6.602   5.205   5.484
 2853SOL    HW2 9459   6.701   5.120   5.385
 2854SOL     OW 9460   3.325   0.821   0.213
 2854SOL    HW1 9461   3.373   0.845   0.129
 2854SOL    HW2 9462   3.335   0.723   0.231
 2855SOL     OW 9463   3.019   2.190   4.293
 2855SOL    HW1 9464   2.978   2.212   4.204
 2855SOL    HW2 9465   2.949   2.156   4.355
 2856SOL     OW 9466   1.280   5.220   4.751
 2856SOL    HW1 9467   1.244   5.137   4.795
 2856SOL    HW2 9468   1.228   5.238   4.668
 2857SOL     OW 9469   0.930   4.419   0.210
 2857SOL    HW1 9470   0.888   4.504   0.178
 2857SOL    HW2 9471   0.980   4.376   0.134
 2858SOL     OW 9472   5.241   4.804   4.353
 2858SOL    HW1 9473   5.194   4.744   4.418
 2858SOL    HW2 9474   5.213   4.899   4.369
 2859SOL     OW 9475   0.442   5.195   2.028
 2859SOL    HW1 9476   0.344   5.182   2.041
 2859SOL    HW2 9477   0.464   5.191   1.931
 2860SOL     OW 9478   1.323   6.451   2.213
 2860SOL    HW1 9479   1.232   6.474   2.179
 2860SOL    HW2 9480   1.322   6.360   2.254
 2861SOL     OW 9481   5.940   3.108   5.204
 2861SOL    HW1 9482   5.930   3.047   5.283
 2861SOL    HW2 9483   5.851   3.149   5.182
 2862SOL     OW 9484   4.194   1.085   1.033
 2862SOL    HW1 9485   4.238   0.998   1.057
 2862SOL    HW2 9486   4.145   1.073   0.946
 2863SOL     OW 9487   5.361   1.702   6.151
 2863SOL    HW1 9488   5.291   1.770   6.128
 2863SOL    HW2 9489   5.383   1.647   6.071
 2864SOL     OW 9490   4.649   4.647   0.289
 2864SOL    HW1 9491   4.649   4.659   0.388
 2864SOL    HW2 9492   4.733   4.600   0.261
 2865SOL     OW 9493   5.397   4.223   6.749
 2865SOL    HW1 9494   5.329   4.211   6.677
 2865SOL    HW2 9495   5.410   4.321   6.766
 2866SOL     OW 9496   4.874   6.495   0.642
 2866SOL    HW1 9497   4.802   6.464   0.704
 2866SOL    HW2 9498   4.863   6.451   0.553
 2867SOL     OW 9499   0.361   6.318   3.165
 2867SOL    HW1 9500   0.295   6.247   3.190
 2867SOL    HW2 9501   0.442   6.275   3.124
 2868SOL     OW 9502   6.400   6.956   5.169
 2868SOL    HW1 9503   6.396   6.943   5.268
 2868SOL    HW2 9504   6.404   0.034   5.149
 2869SOL     OW 9505   6.130   4.639   5.096
 2869SOL    HW1 9506   6.086   4.592   5.173
 2869SOL    HW2 9507   6.078   4.621   5.012
 2870SOL     OW 9508   0.418   1.529   1.495
 2870SOL    HW1 9509   0.465   1.495   1.413
 2870SOL    HW2 9510   0.388   1.451   1.550
 2871SOL     OW 9511   4.855   1.756   3.297
 2871SOL    HW1 9512   4.927   1.803   3.248
 2871SOL    HW2 9513   4.895   1.697   3.367
 2872SOL     OW 9514   3.294   1.501   2.676
 2872SOL    HW1 9515   3.200   1.509   2.712
 2872SOL    HW2 9516   3.298   1.542   2.585
 2873SOL     OW 9517   0.005   0.696   2.477
 2873SOL    HW1 9518   0.081   0.643   2.438
 2873SOL    HW2 9519   0.034   0.790   2.491
 2874SOL     OW 9520   1.243   0.703   1.990
 2874SOL    HW1 9521   1.149   0.737   2.003
 2874SOL    HW2 9522   1.283   0.747   1.910
 2875SOL     OW 9523   3.306   1.233   2.620
 2875SOL    HW1 9524   3.319   1.332   2.629
 2875SOL    HW2 9525   3.298   1.210   2.523
 2876SOL     OW 9526   0.816   0.089   0.533
 2876SOL    HW1 9527   0.793   0.067   0.438
 2876SOL    HW2 9528   0.898   0.147   0.535
 2877SOL     OW 9529   1.179   3.105   6.443
 2877SOL    HW1 9530   1.171   3.065   6.352
 2877SOL    HW2 9531   1.261   3.162   6.447
 2878SOL     OW 9532   4.125   3.665   4.516
 2878SOL    HW1 9533   4.206   3.606   4.508
 2878SOL    HW2 9534   4.094   3.692   4.425
 2879SOL     OW 9535   6.331   6.656   0.389
 2879SOL    HW1 9536   6.356   6.576   0.335
 2879SOL    HW2 9537   6.376   6.737   0.352
 2880SOL     OW 9538   1.561   1.007   2.387
 2880SOL    HW1 9539   1.587   1.101   2.368
 2880SOL    HW2 9540   1.638   0.959   2.430
 2881SOL     OW 9541   4.992   5.673   6.692
 2881SOL    HW1 9542   5.021   5.598   6.752
 2881SOL    HW2 9543   4.950   5.745   6.747
 2882SOL     OW 9544   4.416   6.651   0.629
 2882SOL    HW1 9545   4.344   6.709   0.668
 2882SOL    HW2 9546   4.389   6.555   0.637
 2883SOL     OW 9547   5.578   6.166   2.766
 2883SOL    HW1 9548   5.507   6.197   2.830
 2883SOL    HW2 9549   5.635   6.098   2.811
 2884SOL     OW 9550   5.991   5.151   3.532
 2884SOL    HW1 9551   6.044   5.128   3.614
 2884SOL    HW2 9552   6.053   5.173   3.457
 2885SOL     OW 9553   0.490   4.512   3.610
 2885SOL    HW1 9554   0.580   4.515   3.567
 2885SOL    HW2 9555   0.435   4.589   3.578
 2886SOL     OW 9556   2.004   4.396   5.030
 2886SOL    HW1 9557   2.016   4.362   5.123
 2886SOL    HW2 9558   1.972   4.321   4.971
 2887SOL     OW 9559   0.353   4.902   2.383
 2887SOL    HW1 9560   0.432   4.902   2.322
 2887SOL    HW2 9561   0.269   4.900   2.328
 2888SOL     OW 9562   4.171   5.749   6.659
 2888SOL    HW1 9563   4.209   5.657   6.655
 2888SOL    HW2 9564   4.163   5.786   6.567
 2889SOL     OW 9565   4.195   5.000   3.865
 2889SOL    HW1 9566   4.140   4.941   3.924
 2889SOL    HW2 9567   4.164   4.992   3.771
 2890SOL     OW 9568   1.365   1.149   0.504
 2890SOL    HW1 9569   1.358   1.239   0.546
 2890SOL    HW2 9570   1.323   1.081   0.563
 2891SOL     OW 9571   1.323   1.642   5.368
 2891SOL    HW1 9572   1.353   1.737   5.383
 2891SOL    HW2 9573   1.240   1.642   5.311
 2892SOL     OW 9574   5.885   4.593   2.292
 2892SOL    HW1 9575   5.798   4.543   2.293
 2892SOL    HW2 9576   5.942   4.564   2.368
 2893SOL     OW 9577   6.617   6.167   4.883
 2893SOL    HW1 9578   6.623   6.080   4.834
 2893SOL    HW2 9579   6.653   6.156   4.975
 2894SOL     OW 9580   1.646   5.519   1.370
 2894SOL    HW1 9581   1.623   5.464   1.450
 2894SOL    HW2 9582   1.571   5.584   1.352
 2895SOL     OW 9583   5.021   6.198   6.212
 2895SOL    HW1 9584   4.921   6.205   6.218
 2895SOL    HW2 9585   5.062   6.274   6.263
 2896SOL     OW 9586   6.255   0.245   6.781
 2896SOL    HW1 9587   6.238   0.169   6.719
 2896SOL    HW2 9588   6.344   0.233   6.825
 2897SOL     OW 9589   2.898   5.971   3.787
 2897SOL    HW1 9590   2.800   5.984   3.776
 2897SOL    HW2 9591   2.917   5.938   3.879
 2898SOL     OW 9592   5.111   2.604   2.431
 2898SOL    HW1 9593   5.139   2.531   2.368
 2898SOL    HW2 9594   5.050   2.667   2.385
 2899SOL     OW 9595   6.453   2.855   1.056
 2899SOL    HW1 9596   6.402   2.782   1.102
 2899SOL    HW2 9597   6.482   2.923   1.123
 2900SOL     OW 9598   3.580   2.908   4.689
 2900SOL    HW1 9599   3.674   2.934   4.667
 2900SOL    HW2 9600   3.529   2.988   4.718
 2901SOL     OW 9601   1.501   2.625   1.598
 2901SOL    HW1 9602   1.573   2.582   1.653
 2901SOL    HW2 9603   1.541   2.695   1.539
 2902SOL     OW 9604   5.249   6.376   3.428
 2902SOL    HW1 9605   5.170   6.415   3.380
 2902SOL    HW2 9606   5.246   6.277   3.423
 2903SOL     OW 9607   0.776   4.955   2.144
 2903SOL    HW1 9608   0.840   4.955   2.221
 2903SOL    HW2 9609   0.686   4.984   2.176
 2904SOL     OW 9610   3.472   4.964   4.384
 2904SOL    HW1 9611   3.445   4.936   4.292
 2904SOL    HW2 9612   3.498   5.060   4.383
 2905SOL     OW 9613   2.243   4.136   1.451
 2905SOL    HW1 9614   2.280   4.212   1.503
 2905SOL    HW2 9615   2.201   4.070   1.514
 2906SOL     OW 9616   6.079   6.557   6.441
 2906SOL    HW1 9617   6.038   6.644   6.468
 2906SOL    HW2 9618   6.006   6.489   6.431
 2907SOL     OW 9619   0.389   1.483   6.457
 2907SOL    HW1 9620   0.442   1.477   6.372
 2907SOL    HW2 9621   0.449   1.512   6.532
 2908SOL     OW 9622   3.904   5.918   3.782
 2908SOL    HW1 9623   3.985   5.860   3.788
 2908SOL    HW2 9624   3.912   5.995   3.845
 2909SOL     OW 9625   6.659   6.401   0.803
 2909SOL    HW1 9626   6.743   6.454   0.804
 2909SOL    HW2 9627   6.679   6.306   0.779
 2910SOL     OW 9628   1.498   0.085   3.817
 2910SOL    HW1 9629   1.583   0.115   3.774
 2910SOL    HW2 9630   1.424   0.089   3.750
 2911SOL     OW 9631   6.556   3.605   3.428
 2911SOL    HW1 9632   6.613   3.667   3.375
 2911SOL    HW2 9633   6.565   3.512   3.392
 2912SOL     OW 9634   0.047   1.366   3.219
 2912SOL    HW1 9635   0.079   1.449   3.266
 2912SOL    HW2 9636   6.980   1.386   3.173
 2913SOL     OW 9637   0.760   6.639   4.197
 2913SOL    HW1 9638   0.781   6.736   4.186
 2913SOL    HW2 9639   0.787   6.609   4.289
 2914SOL     OW 9640   3.759   4.498   0.753
 2914SOL    HW1 9641   3.702   4.419   0.778
 2914SOL    HW2 9642   3.846   4.493   0.802
 2915SOL     OW 9643   1.919   6.850   3.305
 2915SOL    HW1 9644   1.853   6.924   3.298
 2915SOL    HW2 9645   2.002   6.883   3.351
 2916SOL     OW 9646   0.162   6.090   0.096
 2916SOL    HW1 9647   0.248   6.081   0.145
 2916SOL    HW2 9648   0.178   6.085   7.017
 2917SOL     OW 9649   2.313   1.892   3.972
 2917SOL    HW1 9650   2.362   1.906   3.886
 2917SOL    HW2 9651   2.378   1.896   4.048
 2918SOL     OW 9652   4.912   0.742   1.399
 2918SOL    HW1 9653   4.998   0.699   1.429
 2918SOL    HW2 9654   4.866   0.684   1.332
 2919SOL     OW 9655   0.994   5.240   5.409
 2919SOL    HW1 9656   1.024   5.168   5.346
 2919SOL    HW2 9657   0.966   5.320   5.356
 2920SOL     OW 9658   2.877   2.583   1.686
 2920SOL    HW1 9659   2.933   2.666   1.676
 2920SOL    HW2 9660   2.899   2.539   1.773
 2921SOL     OW 9661   0.073   4.747   3.237
 2921SOL    HW1 9662   0.108   4.827   3.189
 2921SOL    HW2 9663   0.022   4.689   3.172
 2922SOL     OW 9664   3.779   5.322   4.062
 2922SOL    HW1 9665   3.689   5.318   4.018
 2922SOL    HW2 9666   3.839   5.253   4.022
 2923SOL     OW 9667   1.424   4.416   3.763
 2923SOL    HW1 9668   1.511   4.403   3.714
 2923SOL    HW2 9669   1.349   4.415   3.697
 2924SOL     OW 9670   4.529   1.711   6.818
 2924SOL    HW1 9671   4.533   1.799   6.771
 2924SOL    HW2 9672   4.621   1.683   6.844
 2925SOL     OW 9673   5.410   6.609   4.113
 2925SOL    HW1 9674   5.334   6.656   4.069
 2925SOL    HW2 9675   5.410   6.628   4.211
 2926SOL     OW 9676   0.013   2.889   5.273
 2926SOL    HW1 9677   0.099   2.839   5.281
 2926SOL    HW2 9678   6.964   2.829   5.231
 2927SOL     OW 9679   1.078   1.951   3.150
 2927SOL    HW1 9680   1.145   1.884   3.118
 2927SOL    HW2 9681   0.985   1.917   3.132
 2928SOL     OW 9682   5.399   4.820   0.308
 2928SOL    HW1 9683   5.466   4.754   0.342
 2928SOL    HW2 9684   5.310   4.777   0.302
 2929SOL     OW 9685   1.776   1.341   2.532
 2929SOL    HW1 9686   1.837   1.351   2.611
 2929SOL    HW2 9687   1.681   1.346   2.563
 2930SOL     OW 9688   0.785   3.068   3.734
 2930SOL    HW1 9689   0.851   3.142   3.746
 2930SOL    HW2 9690   0.831   2.980   3.747
 2931SOL     OW 9691   5.721   4.498   5.735
 2931SOL    HW1 9692   5.701   4.482   5.831
 2931SOL    HW2 9693   5.730   4.597   5.719
 2932SOL     OW 9694   6.690   0.149   0.514
 2932SOL    HW1 9695   6.617   0.081   0.504
 2932SOL    HW2 9696   6.657   0.224   0.572
 2933SOL     OW 9697   0.450   0.779   6.725
 2933SOL    HW1 9698   0.529   0.793   6.666
 2933SOL    HW2 9699   0.367   0.810   6.677
 2934SOL     OW 9700   5.498   5.520   2.710
 2934SOL    HW1 9701   5.500   5.608   2.757
 2934SOL    HW2 9702   5.568   5.517   2.640
 2935SOL     OW 9703   0.384   4.487   6.239
 2935SOL    HW1 9704   0.447   4.433   6.294
 2935SOL    HW2 9705   0.290   4.457   6.256
 2936SOL     OW 9706   4.843   6.154   2.844
 2936SOL    HW1 9707   4.878   6.215   2.915
 2936SOL    HW2 9708   4.804   6.209   2.770
 2937SOL     OW 9709   6.271   3.276   3.435
 2937SOL    HW1 9710   6.217   3.300   3.516
 2937SOL    HW2 9711   6.280   3.176   3.430
 2938SOL     OW 9712   0.136   5.267   1.298
 2938SOL    HW1 9713   0.161   5.347   1.243
 2938SOL    HW2 9714   0.205   5.196   1.285
 2939SOL     OW 9715   6.399   5.718   1.691
 2939SOL    HW1 9716   6.371   5.622   1.699
 2939SOL    HW2 9717   6.491   5.729   1.729
 2940SOL     OW 9718   4.774   5.873   3.222
 2940SOL    HW1 9719   4.738   5.966   3.225
 2940SOL    HW2 9720   4.806   5.852   3.130
 2941SOL     OW 9721   3.025   5.099   1.994
 2941SOL    HW1 9722   3.105   5.128   2.047
 2941SOL    HW2 9723   3.014   5.000   2.002
 2942SOL     OW 9724   2.640   1.911   0.567
 2942SOL    HW1 9725   2.732   1.874   0.564
 2942SOL    HW2 9726   2.643   2.010   0.550
 2943SOL     OW 9727   0.254   4.598   3.383
 2943SOL    HW1 9728   0.303   4.670   3.431
 2943SOL    HW2 9729   0.174   4.636   3.338
 2944SOL     OW 9730   0.678   5.168   3.525
 2944SOL    HW1 9731   0.731   5.252   3.540
 2944SOL    HW2 9732   0.665   5.154   3.427
 2945SOL     OW 9733   5.886   3.227   0.364
 2945SOL    HW1 9734   5.789   3.204   0.357
 2945SOL    HW2 9735   5.932   3.158   0.419
 2946SOL     OW 9736   3.212   3.714   4.579
 2946SOL    HW1 9737   3.163   3.646   4.634
 2946SOL    HW2 9738   3.180   3.805   4.604
 2947SOL     OW 9739   6.404   6.881   0.225
 2947SOL    HW1 9740   6.441   6.941   0.295
 2947SOL    HW2 9741   6.452   6.898   0.139
 2948SOL     OW 9742   6.345   5.176   0.841
 2948SOL    HW1 9743   6.364   5.087   0.883
 2948SOL    HW2 9744   6.246   5.189   0.834
 2949SOL     OW 9745   1.491   5.950   0.849
 2949SOL    HW1 9746   1.550   5.872   0.868
 2949SOL    HW2 9747   1.547   6.029   0.823
 2950SOL     OW 9748   4.916   5.192   2.613
 2950SOL    HW1 9749   4.985   5.121   2.597
 2950SOL    HW2 9750   4.962   5.276   2.643
 2951SOL     OW 9751   0.793   2.904   0.602
 2951SOL    HW1 9752   0.715   2.873   0.656
 2951SOL    HW2 9753   0.794   3.004   0.599
 2952SOL     OW 9754   1.355   0.964   4.501
 2952SOL    HW1 9755   1.292   0.896   4.538
 2952SOL    HW2 9756   1.304   1.039   4.460
 2953SOL     OW 9757   1.116   5.732   3.218
 2953SOL    HW1 9758   1.119   5.705   3.314
 2953SOL    HW2 9759   1.199   5.783   3.195
 2954SOL     OW 9760   0.469   4.714   5.622
 2954SOL    HW1 9761   0.565   4.735   5.644
 2954SOL    HW2 9762   0.411   4.788   5.657
 2955SOL     OW 9763   1.035   4.928   6.270
 2955SOL    HW1 9764   0.984   4.863   6.327
 2955SOL    HW2 9765   0.974   5.001   6.240
 2956SOL     OW 9766   6.491   3.734   5.149
 2956SOL    HW1 9767   6.472   3.636   5.158
 2956SOL    HW2 9768   6.459   3.766   5.060
 2957SOL     OW 9769   1.310   4.696   1.809
 2957SOL    HW1 9770   1.314   4.655   1.718
 2957SOL    HW2 9771   1.396   4.679   1.857
 2958SOL     OW 9772   2.142   3.227   1.259
 2958SOL    HW1 9773   2.150   3.282   1.341
 2958SOL    HW2 9774   2.179   3.136   1.275
 2959SOL     OW 9775   1.192   4.018   4.338
 2959SOL    HW1 9776   1.149   3.945   4.284
 2959SOL    HW2 9777   1.232   3.979   4.421
 2960SOL     OW 9778   5.337   6.215   0.466
 2960SOL    HW1 9779   5.247   6.185   0.497
 2960SOL    HW2 9780   5.334   6.312   0.443
 2961SOL     OW 9781   5.827   1.770   0.777
 2961SOL    HW1 9782   5.773   1.768   0.861
 2961SOL    HW2 9783   5.797   1.697   0.715
 2962SOL     OW 9784   6.219   0.815   3.980
 2962SOL    HW1 9785   6.145   0.774   4.032
 2962SOL    HW2 9786   6.209   0.915   3.980
 2963SOL     OW 9787   1.906   0.969   6.448
 2963SOL    HW1 9788   1.936   1.057   6.484
 2963SOL    HW2 9789   1.864   0.981   6.358
 2964SOL     OW 9790   0.629   0.723   5.876
 2964SOL    HW1 9791   0.671   0.805   5.837
 2964SOL    HW2 9792   0.697   0.673   5.930
 2965SOL     OW 9793   6.360   0.420   6.081
 2965SOL    HW1 9794   6.382   0.433   6.177
 2965SOL    HW2 9795   6.291   0.348   6.072
 2966SOL     OW 9796   3.716   0.088   2.667
 2966SOL    HW1 9797   3.802   0.095   2.616
 2966SOL    HW2 9798   3.736   0.068   2.763
 2967SOL     OW 9799   5.267   6.812   5.322
 2967SOL    HW1 9800   5.252   6.723   5.279
 2967SOL    HW2 9801   5.292   6.799   5.418
 2968SOL     OW 9802   1.786   3.654   1.877
 2968SOL    HW1 9803   1.794   3.570   1.931
 2968SOL    HW2 9804   1.697   3.696   1.892
 2969SOL     OW 9805   3.981   1.764   4.974
 2969SOL    HW1 9806   4.073   1.763   4.935
 2969SOL    HW2 9807   3.949   1.858   4.982
 2970SOL     OW 9808   2.580   2.296   6.513
 2970SOL    HW1 9809   2.537   2.244   6.440
 2970SOL    HW2 9810   2.529   2.283   6.598
 2971SOL     OW 9811   3.897   4.134   5.480
 2971SOL    HW1 9812   3.810   4.157   5.438
 2971SOL    HW2 9813   3.972   4.172   5.426
 2972SOL     OW 9814   0.045   6.073   0.456
 2972SOL    HW1 9815   0.034   6.126   0.373
 2972SOL    HW2 9816   6.985   6.013   0.468
 2973SOL     OW 9817   4.877   0.661   4.850
 2973SOL    HW1 9818   4.915   0.572   4.876
 2973SOL    HW2 9819   4.818   0.650   4.770
 2974SOL     OW 9820   5.201   4.877   2.911
 2974SOL    HW1 9821   5.117   4.915   2.873
 2974SOL    HW2 9822   5.230   4.932   2.989
 2975SOL     OW 9823   1.127   3.584   4.749
 2975SOL    HW1 9824   1.147   3.619   4.840
 2975SOL    HW2 9825   1.041   3.534   4.750
 2976SOL     OW 9826   4.009   0.117   1.613
 2976SOL    HW1 9827   4.086   0.054   1.599
 2976SOL    HW2 9828   3.974   0.146   1.524
 2977SOL     OW 9829   1.296   1.572   2.409
 2977SOL    HW1 9830   1.225   1.567   2.338
 2977SOL    HW2 9831   1.384   1.595   2.366
 2978SOL     OW 9832   3.314   5.983   0.498
 2978SOL    HW1 9833   3.360   5.965   0.411
 2978SOL    HW2 9834   3.343   5.915   0.566
 2979SOL     OW 9835   1.540   1.266   5.448
 2979SOL    HW1 9836   1.623   1.252   5.503
 2979SOL    HW2 9837   1.530   1.363   5.427
 2980SOL     OW 9838   3.173   3.209   2.727
 2980SOL    HW1 9839   3.225   3.283   2.686
 2980SOL    HW2 9840   3.168   3.222   2.826
 2981SOL     OW 9841   2.333   1.697   1.694
 2981SOL    HW1 9842   2.287   1.778   1.729
 2981SOL    HW2 9843   2.364   1.715   1.600
 2982SOL     OW 9844   0.412   0.633   2.451
 2982SOL    HW1 9845   0.339   0.628   2.383
 2982SOL    HW2 9846   0.497   0.597   2.412
 2983SOL     OW 9847   6.727   2.578   6.112
 2983SOL    HW1 9848   6.646   2.616   6.157
 2983SOL    HW2 9849   6.701   2.545   6.021
 2984SOL     OW 9850   0.595   5.853   1.062
 2984SOL    HW1 9851   0.570   5.950   1.064
 2984SOL    HW2 9852   0.515   5.797   1.083
 2985SOL     OW 9853   0.360   0.124   5.652
 2985SOL    HW1 9854   0.335   0.131   5.555
 2985SOL    HW2 9855   0.284   0.084   5.703
 2986SOL     OW 9856   3.646   4.100   2.317
 2986SOL    HW1 9857   3.639   4.101   2.416
 2986SOL    HW2 9858   3.555   4.094   2.277
 2987SOL     OW 9859   2.608   6.869   6.012
 2987SOL    HW1 9860   2.555   6.787   5.990
 2987SOL    HW2 9861   2.703   6.844   6.029
 2988SOL     OW 9862   1.020   1.775   6.531
 2988SOL    HW1 9863   1.097   1.719   6.561
 2988SOL    HW2 9864   1.050   1.839   6.461
 2989SOL     OW 9865   5.510   3.508   5.739
 2989SOL    HW1 9866   5.527   3.607   5.736
 2989SOL    HW2 9867   5.561   3.468   5.815
 2990SOL     OW 9868   4.918   2.259   5.101
 2990SOL    HW1 9869   4.966   2.248   5.014
 2990SOL    HW2 9870   4.967   2.326   5.157
 2991SOL     OW 9871   6.333   2.438   0.331
 2991SOL    HW1 9872   6.256   2.501   0.331
 2991SOL    HW2 9873   6.402   2.469   0.265
 2992SOL     OW 9874   2.457   4.416   4.683
 2992SOL    HW1 9875   2.419   4.484   4.746
 2992SOL    HW2 9876   2.406   4.330   4.693
 2993SOL     OW 9877   4.059   5.307   6.758
 2993SOL    HW1 9878   4.029   5.364   6.835
 2993SOL    HW2 9879   4.066   5.212   6.787
 2994SOL     OW 9880   2.887   5.328   4.935
 2994SOL    HW1 9881   2.962   5.262   4.930
 2994SOL    HW2 9882   2.865   5.362   4.844
 2995SOL     OW 9883   5.784   0.394   2.510
 2995SOL    HW1 9884   5.775   0.477   2.455
 2995SOL    HW2 9885   5.734   0.406   2.596
 2996SOL     OW 9886   6.468   0.534   4.347
 2996SOL    HW1 9887   6.411   0.474   4.291
 2996SOL    HW2 9888   6.470   0.626   4.308
 2997SOL     OW 9889   4.891   6.373   4.022
 2997SOL    HW1 9890   4.929   6.421   3.943
 2997SOL    HW2 9891   4.823   6.306   3.991
 2998SOL     OW 9892   2.533   0.553   1.398
 2998SOL    HW1 9893   2.569   0.579   1.488
 2998SOL    HW2 9894   2.548   0.628   1.333
 2999SOL     OW 9895   2.512   5.316   0.346
 2999SOL    HW1 9896   2.523   5.383   0.273
 2999SOL    HW2 9897   2.514   5.224   0.307
 3000SOL     OW 9898   1.740   4.189   6.355
 3000SOL    HW1 9899   1.825   4.169   6.306
 3000SOL    HW2 9900   1.762   4.234   6.442
 3001SOL     OW 9901   2.968   0.356   5.868
 3001SOL    HW1 9902   3.020   0.270   5.861
 3001SOL    HW2 9903   2.917   0.371   5.783
 3002SOL     OW 9904   1.834   1.939   1.331
 3002SOL    HW1 9905   1.792   1.961   1.243
 3002SOL    HW2 9906   1.796   1.852   1.364
 3003SOL     OW 9907   1.112   6.063   0.238
 3003SOL    HW1 9908   1.043   5.992   0.251
 3003SOL    HW2 9909   1.067   6.147   0.206
 3004SOL     OW 9910   2.986   1.239   4.626
 3004SOL    HW1 9911   2.989   1.142   4.652
 3004SOL    HW2 9912   2.911   1.284   4.676
 3005SOL     OW 9913   2.997   1.348   6.949
 3005SOL    HW1 9914   2.968   1.403   6.870
 3005SOL    HW2 9915   3.096   1.331   6.944
 3006SOL     OW 9916   5.712   1.330   5.956
 3006SOL    HW1 9917   5.799   1.378   5.961
 3006SOL    HW2 9918   5.725   1.234   5.982
 3007SOL     OW 9919   6.348   5.541   6.306
 3007SOL    HW1 9920   6.368   5.460   6.361
 3007SOL    HW2 9921   6.346   5.516   6.209
 3008SOL     OW 9922   5.326   3.314   5.693
 3008SOL    HW1 9923   5.326   3.310   5.594
 3008SOL    HW2 9924   5.396   3.379   5.724
 3009SOL     OW 9925   5.995   4.255   1.423
 3009SOL    HW1 9926   5.910   4.218   1.459
 3009SOL    HW2 9927   5.984   4.353   1.405
 3010SOL     OW 9928   4.434   4.060   1.365
 3010SOL    HW1 9929   4.485   4.077   1.449
 3010SOL    HW2 9930   4.468   4.120   1.293
 3011SOL     OW 9931   5.306   0.612   1.265
 3011SOL    HW1 9932   5.278   0.533   1.210
 3011SOL    HW2 9933   5.240   0.626   1.339
 3012SOL     OW 9934   2.036   2.815   4.665
 3012SOL    HW1 9935   2.103   2.888   4.675
 3012SOL    HW2 9936   1.976   2.833   4.587
 3013SOL     OW 9937   0.637   5.487   5.622
 3013SOL    HW1 9938   0.707   5.521   5.560
 3013SOL    HW2 9939   0.588   5.412   5.578
 3014SOL     OW 9940   3.901   6.848   0.864
 3014SOL    HW1 9941   3.879   6.876   0.958
 3014SOL    HW2 9942   3.903   6.749   0.858
 3015SOL     OW 9943   2.230   6.718   5.909
 3015SOL    HW1 9944   2.177   6.653   5.855
 3015SOL    HW2 9945   2.327   6.693   5.905
 3016SOL     OW 9946   3.524   1.251   4.697
 3016SOL    HW1 9947   3.555   1.341   4.729
 3016SOL    HW2 9948   3.474   1.206   4.771
 3017SOL     OW 9949   1.850   6.020   6.783
 3017SOL    HW1 9950   1.918   6.062   6.843
 3017SOL    HW2 9951   1.891   5.941   6.736
 3018SOL     OW 9952   2.116   2.832   2.039
 3018SOL    HW1 9953   2.105   2.739   2.073
 3018SOL    HW2 9954   2.212   2.849   2.019
 3019SOL     OW 9955   0.901   1.397   5.369
 3019SOL    HW1 9956   0.839   1.431   5.440
 3019SOL    HW2 9957   0.996   1.411   5.399
 3020SOL     OW 9958   5.381   3.937   6.785
 3020SOL    HW1 9959   5.443   3.896   6.717
 3020SOL    HW2 9960   5.385   4.037   6.778
 3021SOL     OW 9961   3.948   6.634   4.384
 3021SOL    HW1 9962   3.980   6.706   4.445
 3021SOL    HW2 9963   3.968   6.545   4.425
 3022SOL     OW 9964   4.202   6.354   1.936
 3022SOL    HW1 9965   4.165   6.315   2.021
 3022SOL    HW2 9966   4.255   6.436   1.957
 3023SOL     OW 9967   6.196   4.622   5.367
 3023SOL    HW1 9968   6.235   4.536   5.335
 3023SOL    HW2 9969   6.247   4.698   5.328
 3024SOL     OW 9970   6.162   1.905   6.019
 3024SOL    HW1 9971   6.165   1.914   5.920
 3024SOL    HW2 9972   6.243   1.855   6.051
 3025SOL     OW 9973   3.882   5.271   0.995
 3025SOL    HW1 9974   3.828   5.344   0.953
 3025SOL    HW2 9975   3.978   5.300   0.998
 3026SOL     OW 9976   6.978   5.292   2.802
 3026SOL    HW1 9977   0.055   5.307   2.824
 3026SOL    HW2 9978   6.922   5.306   2.884
 3027SOL     OW 9979   3.896   0.325   1.103
 3027SOL    HW1 9980   3.920   0.255   1.035
 3027SOL    HW2 9981   3.950   0.407   1.087
 3028SOL     OW 9982   3.458   3.767   3.565
 3028SOL    HW1 9983   3.412   3.685   3.530
 3028SOL    HW2 9984   3.408   3.801   3.645
 3029SOL     OW 9985   0.034   2.496   5.183
 3029SOL    HW1 9986   0.126   2.458   5.171
 3029SOL    HW2 9987   0.012   2.502   5.280
 3030SOL     OW 9988   0.409   3.817   6.269
 3030SOL    HW1 9989   0.498   3.793   6.230
 3030SOL    HW2 9990   0.377   3.744   6.329
 3031SOL     OW 9991   0.332   4.180   0.219
 3031SOL    HW1 9992   0.401   4.128   0.169
 3031SOL    HW2 9993   0.334   4.275   0.190
 3032SOL     OW 9994   3.687   0.539   3.697
 3032SOL    HW1 9995   3.610   0.487   3.660
 3032SOL    HW2 9996   3.701   0.622   3.643
 3033SOL     OW 9997   1.967   0.336   6.087
 3033SOL    HW1 9998   1.884   0.392   6.082
 3033SOL    HW2 9999   2.025   0.356   6.007
 3034SOL     OW10000   5.287   3.321   3.344
 3034SOL    HW110001   5.260   3.246   3.284
 3034SOL    HW210002   5.346   3.384   3.293
 3035SOL     OW10003   5.689   4.215   6.883
 3035SOL    HW110004   5.649   4.230   6.792
 3035SOL    HW210005   5.625   4.161   6.938
 3036SOL     OW10006   2.633   2.477   6.907
 3036SOL    HW110007   2.593   2.519   6.988
 3036SOL    HW210008   2.669   2.387   6.930
 3037SOL     OW10009   0.595   5.175   6.314
 3037SOL    HW110010   0.508   5.217   6.341
 3037SOL    HW210011   0.580   5.078   6.294
 3038SOL     OW10012   6.291   5.287   5.840
 3038SOL    HW110013   6.268   5.315   5.746
 3038SOL    HW210014   6.339   5.361   5.886
 3039SOL     OW10015   6.093   3.153   6.303
 3039SOL    HW110016   6.102   3.252   6.314
 3039SOL    HW210017   6.179   3.116   6.267
 3040SOL     OW10018   3.452   6.635   6.597
 3040SOL    HW110019   3.537   6.648   6.545
 3040SOL    HW210020   3.457   6.548   6.647
 3041SOL     OW10021   1.900   5.855   5.689
 3041SOL    HW110022   1.978   5.794   5.697
 3041SOL    HW210023   1.841   5.845   5.769
 3042SOL     OW10024   6.991   5.796   4.897
 3042SOL    HW110025   6.973   5.857   4.820
 3042SOL    HW210026   6.908   5.787   4.952
 3043SOL     OW10027   2.392   3.675   1.723
 3043SOL    HW110028   2.434   3.589   1.753
 3043SOL    HW210029   2.462   3.746   1.718
 3044SOL     OW10030   3.855   3.946   3.697
 3044SOL    HW110031   3.897   3.958   3.787
 3044SOL    HW210032   3.775   3.886   3.705
 3045SOL     OW10033   5.364   6.684   3.238
 3045SOL    HW110034   5.270   6.649   3.244
 3045SOL    HW210035   5.362   6.781   3.215
 3046SOL     OW10036   6.065   6.051   1.614
 3046SOL    HW110037   6.056   6.074   1.711
 3046SOL    HW210038   6.130   5.976   1.603
 3047SOL     OW10039   4.492   1.651   3.686
 3047SOL    HW110040   4.538   1.737   3.664
 3047SOL    HW210041   4.536   1.576   3.636
 3048SOL     OW10042   4.282   4.721   0.546
 3048SOL    HW110043   4.316   4.688   0.634
 3048SOL    HW210044   4.331   4.804   0.519
 3049SOL     OW10045   0.017   0.532   1.537
 3049SOL    HW110046   0.086   0.471   1.499
 3049SOL    HW210047   6.959   0.538   1.474
 3050SOL     OW10048   3.900   3.069   5.553
 3050SOL    HW110049   3.889   3.046   5.650
 3050SOL    HW210050   3.965   3.005   5.511
 3051SOL     OW10051   2.571   4.725   5.860
 3051SOL    HW110052   2.473   4.738   5.843
 3051SOL    HW210053   2.612   4.678   5.782
 3052SOL     OW10054   6.197   6.931   4.284
 3052SOL    HW110055   6.280   6.876   4.291
 3052SOL    HW210056   6.192   6.995   4.361
 3053SOL     OW10057   0.485   5.219   5.550
 3053SOL    HW110058   0.388   5.220   5.573
 3053SOL    HW210059   0.524   5.129   5.573
 3054SOL     OW10060   6.209   6.081   3.457
 3054SOL    HW110061   6.253   6.061   3.370
 3054SOL    HW210062   6.280   6.094   3.527
 3055SOL     OW10063   5.412   6.071   0.712
 3055SOL    HW110064   5.318   6.043   0.728
 3055SOL    HW210065   5.414   6.164   0.676
 3056SOL     OW10066   4.558   2.658   1.308
 3056SOL    HW110067   4.487   2.728   1.308
 3056SOL    HW210068   4.612   2.665   1.392
 3057SOL     OW10069   6.938   2.133   2.804
 3057SOL    HW110070   6.964   2.229   2.807
 3057SOL    HW210071   6.925   2.104   2.710
 3058SOL     OW10072   5.245   4.195   6.520
 3058SOL    HW110073   5.298   4.238   6.447
 3058SOL    HW210074   5.200   4.113   6.484
 3059SOL     OW10075   1.617   2.752   3.169
 3059SOL    HW110076   1.636   2.675   3.231
 3059SOL    HW210077   1.540   2.805   3.205
 3060SOL     OW10078   6.608   2.770   4.083
 3060SOL    HW110079   6.618   2.671   4.072
 3060SOL    HW210080   6.600   2.793   4.180
 3061SOL     OW10081   5.228   5.515   2.200
 3061SOL    HW110082   5.209   5.483   2.293
 3061SOL    HW210083   5.230   5.437   2.138
 3062SOL     OW10084   4.335   5.149   6.765
 3062SOL    HW110085   4.371   5.225   6.710
 3062SOL    HW210086   4.408   5.082   6.780
 3063SOL     OW10087   5.964   5.972   0.932
 3063SOL    HW110088   5.975   5.985   0.833
 3063SOL    HW210089   5.948   6.060   0.975
 3064SOL     OW10090   4.723   0.631   5.981
 3064SOL    HW110091   4.719   0.651   6.079
 3064SOL    HW210092   4.729   0.717   5.930
 3065SOL     OW10093   4.711   1.734   6.264
 3065SOL    HW110094   4.654   1.812   6.288
 3065SOL    HW210095   4.652   1.653   6.251
 3066SOL     OW10096   4.938   0.119   6.524
 3066SOL    HW110097   4.850   0.111   6.570
 3066SOL    HW210098   4.955   0.037   6.470
 3067SOL     OW10099   1.292   1.997   4.742
 3067SOL    HW110100   1.276   2.093   4.718
 3067SOL    HW210101   1.350   1.955   4.673
 3068SOL     OW10102   6.377   0.288   0.614
 3068SOL    HW110103   6.463   0.305   0.662
 3068SOL    HW210104   6.383   0.201   0.565
 3069SOL     OW10105   5.317   5.868   4.132
 3069SOL    HW110106   5.399   5.836   4.180
 3069SOL    HW210107   5.303   5.814   4.050
 3070SOL     OW10108   2.419   1.718   0.525
 3070SOL    HW110109   2.490   1.788   0.538
 3070SOL    HW210110   2.442   1.637   0.580
 3071SOL     OW10111   6.322   4.264   4.451
 3071SOL    HW110112   6.335   4.361   4.468
 3071SOL    HW210113   6.277   4.251   4.363
 3072SOL     OW10114   1.988   6.784   4.152
 3072SOL    HW110115   1.979   6.721   4.229
 3072SOL    HW210116   1.980   6.878   4.185
 3073SOL     OW10117   0.899   5.278   3.276
 3073SOL    HW110118   0.892   5.378   3.269
 3073SOL    HW210119   0.985   5.247   3.236
 3074SOL     OW10120   3.139   3.678   1.544
 3074SOL    HW110121   3.106   3.755   1.599
 3074SOL    HW210122   3.061   3.623   1.514
 3075SOL     OW10123   3.782   4.734   0.606
 3075SOL    HW110124   3.773   4.645   0.650
 3075SOL    HW210125   3.733   4.803   0.659
 3076SOL     OW10126   2.437   1.674   4.484
 3076SOL    HW110127   2.536   1.663   4.492
 3076SOL    HW210128   2.392   1.619   4.554
 3077SOL     OW10129   0.159   3.526   2.804
 3077SOL    HW110130   0.069   3.569   2.793
 3077SOL    HW210131   0.148   3.427   2.809
 3078SOL     OW10132   6.213   4.803   1.493
 3078SOL    HW110133   6.287   4.819   1.428
 3078SOL    HW210134   6.198   4.885   1.548
 3079SOL     OW10135   7.017   4.224   2.363
 3079SOL    HW110136   0.092   4.193   2.367
 3079SOL    HW210137   7.012   4.310   2.313
 3080SOL     OW10138   3.608   4.919   1.561
 3080SOL    HW110139   3.656   4.930   1.648
 3080SOL    HW210140   3.520   4.874   1.577
 3081SOL     OW10141   2.309   2.100   5.927
 3081SOL    HW110142   2.234   2.111   5.992
 3081SOL    HW210143   2.349   2.190   5.906
 3082SOL     OW10144   6.307   3.525   4.330
 3082SOL    HW110145   6.259   3.607   4.363
 3082SOL    HW210146   6.358   3.484   4.405
 3083SOL     OW10147   4.629   5.329   1.997
 3083SOL    HW110148   4.657   5.329   2.093
 3083SOL    HW210149   4.612   5.422   1.966
 3084SOL     OW10150   0.073   5.422   4.602
 3084SOL    HW110151   0.050   5.340   4.654
 3084SOL    HW210152   0.152   5.468   4.644
 3085SOL     OW10153   6.564   5.569   5.803
 3085SOL    HW110154   6.620   5.573   5.720
 3085SOL    HW210155   6.588   5.647   5.862
 3086SOL     OW10156   6.417   6.275   5.905
 3086SOL    HW110157   6.499   6.262   5.850
 3086SOL    HW210158   6.360   6.346   5.863
 3087SOL     OW10159   2.267   0.034   1.599
 3087SOL    HW110160   2.313   0.123   1.605
 3087SOL    HW210161   2.280   7.016   1.508
 3088SOL     OW10162   2.154   2.614   5.327
 3088SOL    HW110163   2.177   2.541   5.262
 3088SOL    HW210164   2.224   2.685   5.324
 3089SOL     OW10165   4.354   0.161   0.354
 3089SOL    HW110166   4.260   0.149   0.322
 3089SOL    HW210167   4.387   0.076   0.395
 3090SOL     OW10168   0.425   2.102   3.070
 3090SOL    HW110169   0.468   2.056   3.148
 3090SOL    HW210170   0.473   2.077   2.986
 3091SOL     OW10171   1.566   1.811   5.834
 3091SOL    HW110172   1.501   1.864   5.888
 3091SOL    HW210173   1.632   1.767   5.895
 3092SOL     OW10174   4.852   2.098   3.983
 3092SOL    HW110175   4.857   2.038   3.903
 3092SOL    HW210176   4.906   2.180   3.967
 3093SOL     OW10177   6.433   6.416   0.232
 3093SOL    HW110178   6.478   6.329   0.211
 3093SOL    HW210179   6.383   6.448   0.152
 3094SOL     OW10180   1.180   0.417   6.472
 3094SOL    HW110181   1.207   0.509   6.501
 3094SOL    HW210182   1.180   0.412   6.372
 3095SOL     OW10183   2.313   3.447   6.065
 3095SOL    HW110184   2.349   3.533   6.099
 3095SOL    HW210185   2.298   3.455   5.966
 3096SOL     OW10186   1.923   3.590   3.603
 3096SOL    HW110187   1.972   3.574   3.689
 3096SOL    HW210188   1.989   3.610   3.531
 3097SOL     OW10189   5.252   2.139   6.660
 3097SOL    HW110190   5.327   2.178   6.606
 3097SOL    HW210191   5.165   2.169   6.621
 3098SOL     OW10192   2.054   4.195   2.812
 3098SOL    HW110193   1.956   4.177   2.814
 3098SOL    HW210194   2.075   4.274   2.869
 3099SOL     OW10195   0.460   1.202   5.419
 3099SOL    HW110196   0.384   1.145   5.390
 3099SOL    HW210197   0.470   1.279   5.357
 3100SOL     OW10198   5.984   4.289   2.927
 3100SOL    HW110199   5.916   4.312   2.996
 3100SOL    HW210200   5.940   4.286   2.837
 3101SOL     OW10201   4.605   0.364   4.761
 3101SOL    HW110202   4.548   0.445   4.751
 3101SOL    HW210203   4.583   0.299   4.688
 3102SOL     OW10204   5.390   2.994   2.724
 3102SOL    HW110205   5.387   2.963   2.629
 3102SOL    HW210206   5.455   3.070   2.732
 3103SOL     OW10207   1.374   0.905   2.551
 3103SOL    HW110208   1.281   0.885   2.519
 3103SOL    HW210209   1.425   0.953   2.479
 3104SOL     OW10210   5.888   1.843   6.118
 3104SOL    HW110211   5.901   1.937   6.086
 3104SOL    HW210212   5.977   1.801   6.135
 3105SOL     OW10213   5.715   4.532   0.853
 3105SOL    HW110214   5.719   4.625   0.816
 3105SOL    HW210215   5.790   4.478   0.814
 3106SOL     OW10216   5.296   1.780   5.286
 3106SOL    HW110217   5.266   1.806   5.378
 3106SOL    HW210218   5.324   1.862   5.236
 3107SOL     OW10219   4.780   1.281   4.565
 3107SOL    HW110220   4.714   1.247   4.632
 3107SOL    HW210221   4.869   1.291   4.608
 3108SOL     OW10222   2.840   5.142   4.529
 3108SOL    HW110223   2.776   5.077   4.572
 3108SOL    HW210224   2.823   5.146   4.431
 3109SOL     OW10225   6.869   4.982   4.097
 3109SOL    HW110226   6.849   4.889   4.131
 3109SOL    HW210227   6.963   5.006   4.120
 3110SOL     OW10228   2.101   4.756   3.823
 3110SOL    HW110229   2.048   4.768   3.739
 3110SOL    HW210230   2.172   4.688   3.808
 3111SOL     OW10231   0.233   3.784   4.403
 3111SOL    HW110232   0.172   3.716   4.444
 3111SOL    HW210233   0.300   3.814   4.471
 3112SOL     OW10234   4.592   0.475   0.893
 3112SOL    HW110235   4.632   0.391   0.855
 3112SOL    HW210236   4.545   0.525   0.821
 3113SOL     OW10237   1.229   6.370   3.529
 3113SOL    HW110238   1.317   6.331   3.502
 3113SOL    HW210239   1.194   6.321   3.609
 3114SOL     OW10240   5.082   4.937   5.197
 3114SOL    HW110241   5.176   4.920   5.167
 3114SOL    HW210242   5.065   5.035   5.200
 3115SOL     OW10243   5.625   5.124   4.401
 3115SOL    HW110244   5.568   5.195   4.359
 3115SOL    HW210245   5.719   5.134   4.369
 3116SOL     OW10246   0.677   2.557   5.963
 3116SOL    HW110247   0.712   2.479   6.014
 3116SOL    HW210248   0.642   2.625   6.027
 3117SOL     OW10249   3.904   0.177   2.104
 3117SOL    HW110250   3.934   0.109   2.170
 3117SOL    HW210251   3.880   0.261   2.152
 3118SOL     OW10252   0.934   1.809   3.427
 3118SOL    HW110253   0.900   1.833   3.336
 3118SOL    HW210254   0.862   1.825   3.494
 3119SOL     OW10255   4.285   6.509   3.151
 3119SOL    HW110256   4.307   6.589   3.096
 3119SOL    HW210257   4.291   6.427   3.093
 3120SOL     OW10258   3.824   6.476   6.352
 3120SOL    HW110259   3.860   6.548   6.293
 3120SOL    HW210260   3.724   6.481   6.353
 3121SOL     OW10261   4.019   1.339   3.074
 3121SOL    HW110262   4.035   1.249   3.032
 3121SOL    HW210263   3.998   1.405   3.002
 3122SOL     OW10264   5.295   3.189   6.746
 3122SOL    HW110265   5.387   3.184   6.709
 3122SOL    HW210266   5.229   3.177   6.672
 3123SOL     OW10267   2.006   3.232   2.763
 3123SOL    HW110268   2.088   3.183   2.734
 3123SOL    HW210269   2.021   3.330   2.752
 3124SOL     OW10270   5.111   6.401   5.720
 3124SOL    HW110271   5.073   6.451   5.643
 3124SOL    HW210272   5.201   6.365   5.695
 3125SOL     OW10273   2.330   1.675   4.971
 3125SOL    HW110274   2.251   1.727   5.005
 3125SOL    HW210275   2.361   1.714   4.884
 3126SOL     OW10276   5.242   4.170   5.025
 3126SOL    HW110277   5.204   4.254   4.985
 3126SOL    HW210278   5.284   4.115   4.953
 3127SOL     OW10279   6.550   2.382   6.272
 3127SOL    HW110280   6.614   2.351   6.202
 3127SOL    HW210281   6.599   2.434   6.342
 3128SOL     OW10282   4.514   2.406   1.440
 3128SOL    HW110283   4.509   2.470   1.363
 3128SOL    HW210284   4.599   2.353   1.433
 3129SOL     OW10285   4.289   4.501   0.125
 3129SOL    HW110286   4.367   4.446   0.154
 3129SOL    HW210287   4.214   4.489   0.189
 3130SOL     OW10288   6.386   5.560   3.502
 3130SOL    HW110289   6.327   5.618   3.446
 3130SOL    HW210290   6.437   5.617   3.567
 3131SOL     OW10291   0.382   1.884   3.451
 3131SOL    HW110292   0.315   1.907   3.522
 3131SOL    HW210293   0.361   1.937   3.369
 3132SOL     OW10294   4.662   4.070   6.014
 3132SOL    HW110295   4.613   4.038   5.933
 3132SOL    HW210296   4.653   4.003   6.087
 3133SOL     OW10297   5.508   6.497   4.553
 3133SOL    HW110298   5.441   6.441   4.504
 3133SOL    HW210299   5.587   6.514   4.494
 3134SOL     OW10300   3.869   5.360   3.095
 3134SOL    HW110301   3.925   5.443   3.100
 3134SOL    HW210302   3.794   5.368   3.161
 3135SOL     OW10303   4.176   0.686   6.339
 3135SOL    HW110304   4.231   0.607   6.364
 3135SOL    HW210305   4.090   0.684   6.389
 3136SOL     OW10306   6.076   5.543   1.872
 3136SOL    HW110307   6.066   5.580   1.780
 3136SOL    HW210308   6.040   5.450   1.875
 3137SOL     OW10309   5.079   3.777   6.773
 3137SOL    HW110310   5.156   3.778   6.838
 3137SOL    HW210311   5.084   3.857   6.714
 3138SOL     OW10312   6.535   6.454   5.301
 3138SOL    HW110313   6.489   6.424   5.218
 3138SOL    HW210314   6.468   6.490   5.365
 3139SOL     OW10315   1.151   4.922   2.236
 3139SOL    HW110316   1.053   4.919   2.216
 3139SOL    HW210317   1.199   4.970   2.162
 3140SOL     OW10318   4.572   5.571   6.559
 3140SOL    HW110319   4.549   5.482   6.598
 3140SOL    HW210320   4.648   5.561   6.495
 3141SOL     OW10321   5.966   2.321   0.255
 3141SOL    HW110322   6.049   2.275   0.285
 3141SOL    HW210323   5.983   2.419   0.245
 3142SOL     OW10324   3.991   0.732   3.811
 3142SOL    HW110325   3.949   0.647   3.781
 3142SOL    HW210326   4.003   0.731   3.910
 3143SOL     OW10327   5.798   1.553   6.996
 3143SOL    HW110328   5.870   1.555   0.047
 3143SOL    HW210329   5.827   1.492   6.922
 3144SOL     OW10330   3.898   5.246   6.349
 3144SOL    HW110331   3.813   5.241   6.298
 3144SOL    HW210332   3.889   5.311   6.424
 3145SOL     OW10333   1.109   6.193   5.180
 3145SOL    HW110334   1.055   6.111   5.199
 3145SOL    HW210335   1.205   6.176   5.202
 3146SOL     OW10336   6.365   1.424   4.644
 3146SOL    HW110337   6.352   1.485   4.565
 3146SOL    HW210338   6.419   1.345   4.616
 3147SOL     OW10339   5.030   0.500   0.938
 3147SOL    HW110340   4.965   0.423   0.934
 3147SOL    HW210341   5.032   0.547   0.850
 3148SOL     OW10342   5.601   4.879   0.549
 3148SOL    HW110343   5.575   4.934   0.469
 3148SOL    HW210344   5.616   4.940   0.627
 3149SOL     OW10345   4.281   3.081   6.768
 3149SOL    HW110346   4.293   3.180   6.777
 3149SOL    HW210347   4.225   3.047   6.844
 3150SOL     OW10348   6.755   0.664   5.279
 3150SOL    HW110349   6.668   0.695   5.318
 3150SOL    HW210350   6.824   0.736   5.289
 3151SOL     OW10351   0.785   1.360   6.999
 3151SOL    HW110352   0.793   1.261   6.998
 3151SOL    HW210353   0.692   1.386   0.005
 3152SOL     OW10354   2.689   1.343   5.710
 3152SOL    HW110355   2.772   1.332   5.656
 3152SOL    HW210356   2.685   1.272   5.781
 3153SOL     OW10357   5.309   5.644   1.423
 3153SOL    HW110358   5.318   5.699   1.340
 3153SOL    HW210359   5.333   5.549   1.403
 3154SOL     OW10360   3.864   2.209   0.454
 3154SOL    HW110361   3.939   2.242   0.511
 3154SOL    HW210362   3.794   2.280   0.446
 3155SOL     OW10363   6.781   6.526   6.577
 3155SOL    HW110364   6.797   6.432   6.546
 3155SOL    HW210365   6.699   6.530   6.634
 3156SOL     OW10366   3.049   4.843   0.923
 3156SOL    HW110367   3.112   4.786   0.976
 3156SOL    HW210368   2.959   4.799   0.920
 3157SOL     OW10369   1.392   0.999   3.217
 3157SOL    HW110370   1.463   0.958   3.276
 3157SOL    HW210371   1.321   1.040   3.274
 3158SOL     OW10372   1.745   0.562   6.331
 3158SOL    HW110373   1.749   0.504   6.412
 3158SOL    HW210374   1.750   0.658   6.358
 3159SOL     OW10375   4.948   5.463   0.909
 3159SOL    HW110376   4.920   5.401   0.836
 3159SOL    HW210377   4.993   5.410   0.981
 3160SOL     OW10378   2.067   1.083   5.636
 3160SOL    HW110379   1.989   1.102   5.577
 3160SOL    HW210380   2.037   1.080   5.731
 3161SOL     OW10381   2.131   2.321   2.068
 3161SOL    HW110382   2.069   2.382   2.020
 3161SOL    HW210383   2.225   2.340   2.039
 3162SOL     OW10384   1.404   5.663   2.337
 3162SOL    HW110385   1.305   5.649   2.336
 3162SOL    HW210386   1.425   5.755   2.305
 3163SOL     OW10387   5.729   4.687   1.418
 3163SOL    HW110388   5.725   4.773   1.368
 3163SOL    HW210389   5.722   4.706   1.516
 3164SOL     OW10390   2.217   6.754   2.907
 3164SOL    HW110391   2.143   6.703   2.952
 3164SOL    HW210392   2.193   6.851   2.904
 3165SOL     OW10393   6.786   5.535   0.061
 3165SOL    HW110394   6.801   5.504   6.987
 3165SOL    HW210395   6.693   5.571   0.069
 3166SOL     OW10396   3.848   2.144   4.745
 3166SOL    HW110397   3.767   2.203   4.739
 3166SOL    HW210398   3.921   2.181   4.686
 3167SOL     OW10399   6.545   2.682   2.762
 3167SOL    HW110400   6.624   2.743   2.759
 3167SOL    HW210401   6.564   2.601   2.706
 3168SOL     OW10402   5.873   1.437   0.838
 3168SOL    HW110403   5.966   1.425   0.805
 3168SOL    HW210404   5.830   1.513   0.789
 3169SOL     OW10405   1.183   2.259   2.399
 3169SOL    HW110406   1.172   2.180   2.339
 3169SOL    HW210407   1.120   2.331   2.371
 3170SOL     OW10408   2.811   5.053   4.012
 3170SOL    HW110409   2.806   4.990   3.935
 3170SOL    HW210410   2.762   5.015   4.090
 3171SOL     OW10411   6.813   2.410   4.602
 3171SOL    HW110412   6.751   2.479   4.565
 3171SOL    HW210413   6.787   2.388   4.696
 3172SOL     OW10414   6.425   4.209   0.868
 3172SOL    HW110415   6.481   4.179   0.945
 3172SOL    HW210416   6.332   4.177   0.880
 3173SOL     OW10417   5.526   4.254   0.345
 3173SOL    HW110418   5.455   4.185   0.359
 3173SOL    HW210419   5.616   4.212   0.359
 3174SOL     OW10420   2.703   2.992   0.056
 3174SOL    HW110421   2.718   2.904   0.011
 3174SOL    HW210422   2.769   3.059   0.022
 3175SOL     OW10423   5.888   5.978   4.910
 3175SOL    HW110424   5.905   5.998   4.813
 3175SOL    HW210425   5.951   5.908   4.941
 3176SOL     OW10426   6.807   4.933   3.749
 3176SOL    HW110427   6.730   4.869   3.742
 3176SOL    HW210428   6.892   4.881   3.760
 3177SOL     OW10429   5.641   2.300   1.624
 3177SOL    HW110430   5.723   2.313   1.568
 3177SOL    HW210431   5.588   2.224   1.587
 3178SOL     OW10432   1.834   0.652   2.189
 3178SOL    HW110433   1.915   0.614   2.143
 3178SOL    HW210434   1.842   0.751   2.193
 3179SOL     OW10435   0.413   4.601   2.825
 3179SOL    HW110436   0.404   4.504   2.802
 3179SOL    HW210437   0.417   4.612   2.924
 3180SOL     OW10438   6.306   0.134   6.187
 3180SOL    HW110439   6.342   0.080   6.111
 3180SOL    HW210440   6.217   0.098   6.215
 3181SOL     OW10441   6.489   6.547   4.555
 3181SOL    HW110442   6.520   6.630   4.602
 3181SOL    HW210443   6.530   6.467   4.599
 3182SOL     OW10444   1.123   6.549   1.443
 3182SOL    HW110445   1.109   6.643   1.411
 3182SOL    HW210446   1.148   6.491   1.366
 3183SOL     OW10447   4.258   4.177   0.258
 3183SOL    HW110448   4.306   4.144   0.340
 3183SOL    HW210449   4.164   4.201   0.283
 3184SOL     OW10450   6.271   0.555   4.751
 3184SOL    HW110451   6.240   0.569   4.657
 3184SOL    HW210452   6.237   0.630   4.809
 3185SOL     OW10453   1.208   6.788   6.253
 3185SOL    HW110454   1.132   6.813   6.192
 3185SOL    HW210455   1.184   6.707   6.305
 3186SOL     OW10456   0.816   2.289   6.031
 3186SOL    HW110457   0.844   2.318   6.122
 3186SOL    HW210458   0.767   2.202   6.037
 3187SOL     OW10459   5.333   0.454   3.128
 3187SOL    HW110460   5.309   0.500   3.043
 3187SOL    HW210461   5.325   0.355   3.116
 3188SOL     OW10462   0.682   6.333   1.461
 3188SOL    HW110463   0.739   6.415   1.451
 3188SOL    HW210464   0.641   6.310   1.373
 3189SOL     OW10465   2.765   1.807   5.438
 3189SOL    HW110466   2.711   1.724   5.450
 3189SOL    HW210467   2.707   1.887   5.459
 3190SOL     OW10468   6.564   5.702   4.581
 3190SOL    HW110469   6.531   5.789   4.619
 3190SOL    HW210470   6.652   5.716   4.536
 3191SOL     OW10471   4.322   5.168   0.499
 3191SOL    HW110472   4.296   5.259   0.532
 3191SOL    HW210473   4.420   5.167   0.478
 3192SOL     OW10474   5.264   0.933   3.246
 3192SOL    HW110475   5.293   1.008   3.305
 3192SOL    HW210476   5.333   0.860   3.249
 3193SOL     OW10477   3.939   5.972   4.775
 3193SOL    HW110478   3.985   6.052   4.814
 3193SOL    HW210479   3.855   6.001   4.730
 3194SOL     OW10480   2.497   6.668   5.850
 3194SOL    HW110481   2.507   6.698   5.755
 3194SOL    HW210482   2.552   6.586   5.865
 3195SOL     OW10483   6.730   5.929   1.455
 3195SOL    HW110484   6.704   6.007   1.512
 3195SOL    HW210485   6.769   5.963   1.369
 3196SOL     OW10486   6.140   0.875   3.241
 3196SOL    HW110487   6.202   0.907   3.169
 3196SOL    HW210488   6.175   0.905   3.330
 3197SOL     OW10489   3.112   0.937   0.336
 3197SOL    HW110490   3.031   0.953   0.279
 3197SOL    HW210491   3.186   0.902   0.279
 3198SOL     OW10492   6.066   4.311   3.725
 3198SOL    HW110493   6.039   4.369   3.648
 3198SOL    HW210494   6.047   4.358   3.811
 3199SOL     OW10495   5.248   3.414   4.130
 3199SOL    HW110496   5.223   3.318   4.115
 3199SOL    HW210497   5.169   3.472   4.111
 3200SOL     OW10498   6.328   3.737   4.903
 3200SOL    HW110499   6.307   3.642   4.924
 3200SOL    HW210500   6.360   3.744   4.809
 3201SOL     OW10501   6.348   3.320   2.490
 3201SOL    HW110502   6.347   3.240   2.430
 3201SOL    HW210503   6.261   3.368   2.484
 3202SOL     OW10504   3.465   3.038   5.877
 3202SOL    HW110505   3.536   3.027   5.807
 3202SOL    HW210506   3.459   2.955   5.932
 3203SOL     OW10507   3.360   6.428   1.707
 3203SOL    HW110508   3.446   6.472   1.681
 3203SOL    HW210509   3.304   6.492   1.759
 3204SOL     OW10510   5.802   0.280   3.342
 3204SOL    HW110511   5.886   0.325   3.375
 3204SOL    HW210512   5.737   0.349   3.311
 3205SOL     OW10513   5.733   2.821   0.883
 3205SOL    HW110514   5.718   2.911   0.841
 3205SOL    HW210515   5.653   2.797   0.939
 3206SOL     OW10516   3.750   5.426   0.197
 3206SOL    HW110517   3.772   5.481   0.116
 3206SOL    HW210518   3.820   5.357   0.210
 3207SOL     OW10519   1.803   5.790   2.630
 3207SOL    HW110520   1.790   5.888   2.615
 3207SOL    HW210521   1.775   5.739   2.549
 3208SOL     OW10522   0.453   3.963   6.844
 3208SOL    HW110523   0.382   3.957   6.914
 3208SOL    HW210524   0.496   3.873   6.832
 3209SOL     OW10525   5.164   0.265   5.113
 3209SOL    HW110526   5.166   0.337   5.182
 3209SOL    HW210527   5.136   0.179   5.155
 3210SOL     OW10528   4.863   4.888   2.261
 3210SOL    HW110529   4.933   4.891   2.332
 3210SOL    HW210530   4.870   4.970   2.204
 3211SOL     OW10531   2.350   0.224   6.690
 3211SOL    HW110532   2.269   0.226   6.748
 3211SOL    HW210533   2.396   0.312   6.695
 3212SOL     OW10534   3.753   0.175   3.992
 3212SOL    HW110535   3.796   0.254   4.035
 3212SOL    HW210536   3.658   0.169   4.021
 3213SOL     OW10537   1.399   0.161   5.903
 3213SOL    HW110538   1.445   0.204   5.981
 3213SOL    HW210539   1.301   0.150   5.924
 3214SOL     OW10540   2.138   0.012   2.881
 3214SOL    HW110541   2.061   6.985   2.838
 3214SOL    HW210542   2.167   0.089   2.824
 3215SOL     OW10543   2.119   3.343   1.501
 3215SOL    HW110544   2.188   3.319   1.569
 3215SOL    HW210545   2.031   3.304   1.528
 3216SOL     OW10546   0.398   4.044   1.569
 3216SOL    HW110547   0.477   4.105   1.583
 3216SOL    HW210548   0.314   4.097   1.575
 3217SOL     OW10549   5.997   5.771   4.376
 3217SOL    HW110550   6.011   5.870   4.383
 3217SOL    HW210551   5.922   5.753   4.313
 3218SOL     OW10552   5.836   1.343   3.248
 3218SOL    HW110553   5.909   1.412   3.250
 3218SOL    HW210554   5.876   1.253   3.233
 3219SOL     OW10555   4.456   1.962   4.178
 3219SOL    HW110556   4.474   1.981   4.274
 3219SOL    HW210557   4.366   1.997   4.152
 3220SOL     OW10558   0.503   3.870   5.962
 3220SOL    HW110559   0.408   3.856   5.989
 3220SOL    HW210560   0.527   3.808   5.888
 3221SOL     OW10561   3.898   1.754   2.347
 3221SOL    HW110562   3.833   1.727   2.276
 3221SOL    HW210563   3.856   1.824   2.405
 3222SOL     OW10564   2.843   0.862   3.153
 3222SOL    HW110565   2.938   0.889   3.135
 3222SOL    HW210566   2.790   0.943   3.179
 3223SOL     OW10567   1.936   5.335   0.636
 3223SOL    HW110568   1.899   5.242   0.641
 3223SOL    HW210569   2.010   5.338   0.569
 3224SOL     OW10570   4.567   2.491   3.767
 3224SOL    HW110571   4.626   2.413   3.790
 3224SOL    HW210572   4.521   2.524   3.849
 3225SOL     OW10573   3.049   0.904   4.724
 3225SOL    HW110574   3.077   0.949   4.809
 3225SOL    HW210575   3.127   0.903   4.660
 3226SOL     OW10576   5.291   1.142   0.018
 3226SOL    HW110577   5.229   1.094   6.976
 3226SOL    HW210578   5.281   1.105   0.110
 3227SOL     OW10579   6.170   4.171   5.941
 3227SOL    HW110580   6.246   4.130   5.991
 3227SOL    HW210581   6.086   4.119   5.959
 3228SOL     OW10582   2.060   4.388   1.073
 3228SOL    HW110583   2.080   4.469   1.129
 3228SOL    HW210584   2.109   4.309   1.109
 3229SOL     OW10585   0.756   0.999   0.263
 3229SOL    HW110586   0.839   0.968   0.216
 3229SOL    HW210587   0.774   1.085   0.310
 3230SOL     OW10588   3.671   6.880   5.144
 3230SOL    HW110589   3.613   6.954   5.109
 3230SOL    HW210590   3.616   6.819   5.201
 3231SOL     OW10591   2.800   2.314   2.797
 3231SOL    HW110592   2.820   2.308   2.699
 3231SOL    HW210593   2.800   2.222   2.836
 3232SOL     OW10594   3.446   5.184   3.450
 3232SOL    HW110595   3.486   5.212   3.362
 3232SOL    HW210596   3.373   5.247   3.475
 3233SOL     OW10597   1.975   6.941   5.092
 3233SOL    HW110598   2.037   7.019   5.101
 3233SOL    HW210599   2.014   6.874   5.030
 3234SOL     OW10600   3.571   3.940   0.741
 3234SOL    HW110601   3.613   4.001   0.673
 3234SOL    HW210602   3.637   3.922   0.814
 3235SOL     OW10603   0.235   1.619   3.052
 3235SOL    HW110604   0.154   1.677   3.046
 3235SOL    HW210605   0.217   1.531   3.008
 3236SOL     OW10606   5.580   6.489   0.881
 3236SOL    HW110607   5.603   6.449   0.792
 3236SOL    HW210608   5.538   6.419   0.938
 3237SOL     OW10609   6.208   2.627   5.570
 3237SOL    HW110610   6.137   2.558   5.581
 3237SOL    HW210611   6.167   2.711   5.533
 3238SOL     OW10612   0.653   4.348   0.730
 3238SOL    HW110613   0.674   4.293   0.649
 3238SOL    HW210614   0.557   4.337   0.754
 3239SOL     OW10615   6.495   1.628   4.903
 3239SOL    HW110616   6.534   1.550   4.854
 3239SOL    HW210617   6.418   1.665   4.852
 3240SOL     OW10618   0.974   1.670   1.516
 3240SOL    HW110619   1.023   1.591   1.479
 3240SOL    HW210620   0.968   1.663   1.616
 3241SOL     OW10621   6.834   2.835   5.778
 3241SOL    HW110622   6.857   2.808   5.871
 3241SOL    HW210623   6.865   2.928   5.761
 3242SOL     OW10624   6.875   4.910   5.725
 3242SOL    HW110625   6.958   4.931   5.776
 3242SOL    HW210626   6.845   4.817   5.748
 3243SOL     OW10627   6.425   4.695   5.093
 3243SOL    HW110628   6.330   4.676   5.067
 3243SOL    HW210629   6.429   4.720   5.189
 3244SOL     OW10630   4.885   6.998   6.971
 3244SOL    HW110631   4.871   6.958   0.042
 3244SOL    HW210632   4.798   7.003   6.923
 3245SOL     OW10633   1.787   6.205   4.489
 3245SOL    HW110634   1.845   6.180   4.566
 3245SOL    HW210635   1.751   6.122   4.446
 3246SOL     OW10636   6.269   5.199   1.909
 3246SOL    HW110637   6.319   5.112   1.912
 3246SOL    HW210638   6.208   5.204   1.988
 3247SOL     OW10639   2.273   4.221   4.779
 3247SOL    HW110640   2.251   4.159   4.704
 3247SOL    HW210641   2.277   4.169   4.865
 3248SOL     OW10642   6.104   2.609   3.924
 3248SOL    HW110643   6.073   2.530   3.871
 3248SOL    HW210644   6.133   2.578   4.015
 3249SOL     OW10645   3.937   3.902   3.953
 3249SOL    HW110646   4.006   3.854   4.006
 3249SOL    HW210647   3.854   3.914   4.007
 3250SOL     OW10648   4.345   5.356   3.260
 3250SOL    HW110649   4.439   5.376   3.287
 3250SOL    HW210650   4.288   5.436   3.277
 3251SOL     OW10651   2.362   2.382   1.906
 3251SOL    HW110652   2.364   2.441   1.825
 3251SOL    HW210653   2.432   2.413   1.970
 3252SOL     OW10654   1.510   1.363   2.548
 3252SOL    HW110655   1.438   1.295   2.563
 3252SOL    HW210656   1.471   1.455   2.552
 3253SOL     OW10657   6.696   3.034   0.982
 3253SOL    HW110658   6.680   3.010   1.077
 3253SOL    HW210659   6.648   3.119   0.960
 3254SOL     OW10660   5.845   0.147   0.666
 3254SOL    HW110661   5.901   0.199   0.602
 3254SOL    HW210662   5.751   0.180   0.662
 3255SOL     OW10663   3.584   4.879   2.244
 3255SOL    HW110664   3.582   4.831   2.156
 3255SOL    HW210665   3.492   4.877   2.284
 3256SOL     OW10666   5.210   2.620   2.115
 3256SOL    HW110667   5.278   2.659   2.053
 3256SOL    HW210668   5.254   2.551   2.173
 3257SOL     OW10669   2.876   1.599   2.522
 3257SOL    HW110670   2.962   1.647   2.537
 3257SOL    HW210671   2.893   1.501   2.510
 3258SOL     OW10672   6.917   5.669   4.612
 3258SOL    HW110673   6.909   5.578   4.571
 3258SOL    HW210674   6.878   5.737   4.550
 3259SOL     OW10675   6.096   5.442   2.504
 3259SOL    HW110676   6.075   5.521   2.446
 3259SOL    HW210677   6.013   5.388   2.518
 3260SOL     OW10678   3.179   4.904   3.566
 3260SOL    HW110679   3.248   4.898   3.494
 3260SOL    HW210680   3.134   4.815   3.576
 3261SOL     OW10681   6.010   0.698   4.114
 3261SOL    HW110682   5.982   0.625   4.051
 3261SOL    HW210683   5.935   0.716   4.178
 3262SOL     OW10684   3.166   2.055   2.547
 3262SOL    HW110685   3.107   2.135   2.539
 3262SOL    HW210686   3.198   2.028   2.456
 3263SOL     OW10687   5.622   0.267   0.902
 3263SOL    HW110688   5.604   0.364   0.892
 3263SOL    HW210689   5.570   0.216   0.833
 3264SOL     OW10690   1.608   5.296   6.947
 3264SOL    HW110691   1.540   5.232   6.911
 3264SOL    HW210692   1.590   5.387   6.911
 3265SOL     OW10693   6.649   5.649   5.370
 3265SOL    HW110694   6.553   5.673   5.357
 3265SOL    HW210695   6.680   5.592   5.294
 3266SOL     OW10696   3.218   4.778   6.713
 3266SOL    HW110697   3.300   4.720   6.714
 3266SOL    HW210698   3.150   4.740   6.775
 3267SOL     OW10699   3.139   0.424   0.316
 3267SOL    HW110700   3.084   0.436   0.399
 3267SOL    HW210701   3.235   0.409   0.341
 3268SOL     OW10702   5.461   3.892   2.662
 3268SOL    HW110703   5.504   3.904   2.573
 3268SOL    HW210704   5.424   3.980   2.694
 3269SOL     OW10705   2.155   5.573   0.294
 3269SOL    HW110706   2.195   5.567   0.203
 3269SOL    HW210707   2.111   5.487   0.318
 3270SOL     OW10708   1.659   3.130   6.504
 3270SOL    HW110709   1.596   3.109   6.579
 3270SOL    HW210710   1.746   3.083   6.520
 3271SOL     OW10711   1.314   3.997   1.929
 3271SOL    HW110712   1.265   3.910   1.938
 3271SOL    HW210713   1.274   4.051   1.856
 3272SOL     OW10714   3.801   0.261   0.620
 3272SOL    HW110715   3.800   0.342   0.678
 3272SOL    HW210716   3.773   0.181   0.673
 3273SOL     OW10717   4.138   3.762   6.783
 3273SOL    HW110718   4.187   3.709   6.714
 3273SOL    HW210719   4.136   3.858   6.756
 3274SOL     OW10720   4.826   6.901   2.036
 3274SOL    HW110721   4.907   6.929   1.984
 3274SOL    HW210722   4.744   6.928   1.987
 3275SOL     OW10723   4.650   0.050   1.877
 3275SOL    HW110724   4.586   0.055   1.954
 3275SOL    HW210725   4.630   0.125   1.813
 3276SOL     OW10726   6.394   6.318   0.664
 3276SOL    HW110727   6.401   6.416   0.681
 3276SOL    HW210728   6.466   6.270   0.715
 3277SOL     OW10729   4.974   1.284   2.100
 3277SOL    HW110730   4.937   1.220   2.168
 3277SOL    HW210731   5.072   1.297   2.117
 3278SOL     OW10732   5.116   1.190   6.446
 3278SOL    HW110733   5.111   1.236   6.357
 3278SOL    HW210734   5.153   1.253   6.514
 3279SOL     OW10735   4.152   0.310   2.427
 3279SOL    HW110736   4.234   0.330   2.481
 3279SOL    HW210737   4.115   0.395   2.389
 3280SOL     OW10738   0.594   2.229   4.366
 3280SOL    HW110739   0.640   2.184   4.442
 3280SOL    HW210740   0.635   2.201   4.280
 3281SOL     OW10741   5.767   2.607   2.090
 3281SOL    HW110742   5.758   2.704   2.068
 3281SOL    HW210743   5.728   2.552   2.016
 3282SOL     OW10744   6.579   4.946   5.728
 3282SOL    HW110745   6.674   4.931   5.701
 3282SOL    HW210746   6.518   4.894   5.668
 3283SOL     OW10747   3.520   1.434   0.713
 3283SOL    HW110748   3.431   1.394   0.694
 3283SOL    HW210749   3.511   1.533   0.722
 3284SOL     OW10750   2.326   0.878   5.910
 3284SOL    HW110751   2.384   0.835   5.979
 3284SOL    HW210752   2.293   0.808   5.846
 3285SOL     OW10753   4.075   1.618   4.664
 3285SOL    HW110754   4.036   1.695   4.613
 3285SOL    HW210755   4.121   1.556   4.601
 3286SOL     OW10756   1.642   3.985   3.061
 3286SOL    HW110757   1.557   3.935   3.079
 3286SOL    HW210758   1.717   3.920   3.053
 3287SOL     OW10759   3.176   1.701   0.671
 3287SOL    HW110760   3.252   1.757   0.639
 3287SOL    HW210761   3.203   1.651   0.754
 3288SOL     OW10762   2.954   5.362   1.177
 3288SOL    HW110763   2.939   5.335   1.272
 3288SOL    HW210764   2.989   5.284   1.125
 3289SOL     OW10765   5.168   6.853   0.247
 3289SOL    HW110766   5.140   6.949   0.251
 3289SOL    HW210767   5.219   6.837   0.162
 3290SOL     OW10768   0.788   3.937   0.268
 3290SOL    HW110769   0.820   3.862   0.326
 3290SOL    HW210770   0.850   3.949   0.190
 3291SOL     OW10771   5.415   6.893   5.864
 3291SOL    HW110772   5.320   6.913   5.890
 3291SOL    HW210773   5.458   6.839   5.936
 3292SOL     OW10774   0.553   2.888   0.731
 3292SOL    HW110775   0.508   2.930   0.653
 3292SOL    HW210776   0.500   2.809   0.763
 3293SOL     OW10777   6.885   4.817   1.883
 3293SOL    HW110778   6.874   4.739   1.821
 3293SOL    HW210779   6.931   4.891   1.836
 3294SOL     OW10780   4.060   2.893   5.410
 3294SOL    HW110781   4.041   2.966   5.344
 3294SOL    HW210782   4.009   2.811   5.384
 3295SOL     OW10783   1.906   3.832   3.094
 3295SOL    HW110784   1.888   3.733   3.097
 3295SOL    HW210785   1.909   3.867   3.188
 3296SOL     OW10786   2.355   0.830   0.324
 3296SOL    HW110787   2.443   0.804   0.362
 3296SOL    HW210788   2.357   0.823   0.225
 3297SOL     OW10789   3.025   0.700   5.907
 3297SOL    HW110790   3.047   0.772   5.841
 3297SOL    HW210791   3.076   0.617   5.883
 3298SOL     OW10792   3.729   3.996   6.181
 3298SOL    HW110793   3.668   3.955   6.113
 3298SOL    HW210794   3.818   4.016   6.139
 3299SOL     OW10795   2.458   6.763   4.206
 3299SOL    HW110796   2.379   6.709   4.177
 3299SOL    HW210797   2.539   6.734   4.154
 3300SOL     OW10798   1.729   1.081   2.750
 3300SOL    HW110799   1.674   1.159   2.720
 3300SOL    HW210800   1.674   1.022   2.808
 3301SOL     OW10801   1.439   0.892   1.688
 3301SOL    HW110802   1.362   0.956   1.686
 3301SOL    HW210803   1.431   0.829   1.611
 3302SOL     OW10804   1.791   5.066   5.005
 3302SOL    HW110805   1.815   4.978   4.962
 3302SOL    HW210806   1.766   5.132   4.934
 3303SOL     OW10807   4.414   4.091   0.463
 3303SOL    HW110808   4.404   4.068   0.560
 3303SOL    HW210809   4.511   4.085   0.438
 3304SOL     OW10810   2.709   3.805   0.692
 3304SOL    HW110811   2.697   3.801   0.791
 3304SOL    HW210812   2.773   3.878   0.669
 3305SOL     OW10813   3.506   2.507   6.761
 3305SOL    HW110814   3.522   2.605   6.748
 3305SOL    HW210815   3.539   2.457   6.682
 3306SOL     OW10816   2.746   0.316   0.506
 3306SOL    HW110817   2.716   0.241   0.565
 3306SOL    HW210818   2.838   0.345   0.532
 3307SOL     OW10819   2.072   5.576   5.033
 3307SOL    HW110820   2.119   5.511   5.093
 3307SOL    HW210821   1.984   5.538   5.005
 3308SOL     OW10822   5.323   4.985   1.866
 3308SOL    HW110823   5.360   5.025   1.782
 3308SOL    HW210824   5.393   4.988   1.937
 3309SOL     OW10825   5.814   3.286   4.089
 3309SOL    HW110826   5.719   3.314   4.074
 3309SOL    HW210827   5.820   3.232   4.174
 3310SOL     OW10828   6.154   4.411   6.924
 3310SOL    HW110829   6.149   4.507   6.896
 3310SOL    HW210830   6.067   4.384   6.966
 3311SOL     OW10831   1.283   2.847   0.956
 3311SOL    HW110832   1.382   2.836   0.943
 3311SOL    HW210833   1.240   2.869   0.869
 3312SOL     OW10834   5.192   3.681   0.277
 3312SOL    HW110835   5.239   3.626   0.208
 3312SOL    HW210836   5.097   3.694   0.251
 3313SOL     OW10837   0.573   6.283   4.120
 3313SOL    HW110838   0.553   6.190   4.151
 3313SOL    HW210839   0.570   6.346   4.197
 3314SOL     OW10840   3.291   6.156   3.503
 3314SOL    HW110841   3.227   6.176   3.429
 3314SOL    HW210842   3.262   6.074   3.552
 3315SOL     OW10843   0.635   6.631   3.956
 3315SOL    HW110844   0.633   6.644   4.055
 3315SOL    HW210845   0.682   6.546   3.935
 3316SOL     OW10846   4.176   1.696   0.955
 3316SOL    HW110847   4.237   1.691   0.876
 3316SOL    HW210848   4.188   1.614   1.011
 3317SOL     OW10849   5.894   2.348   1.220
 3317SOL    HW110850   5.911   2.254   1.192
 3317SOL    HW210851   5.845   2.397   1.148
 3318SOL     OW10852   4.101   2.715   0.670
 3318SOL    HW110853   4.030   2.732   0.602
 3318SOL    HW210854   4.134   2.801   0.707
 3319SOL     OW10855   6.257   6.329   3.966
 3319SOL    HW110856   6.279   6.414   4.013
 3319SOL    HW210857   6.282   6.336   3.870
 3320SOL     OW10858   6.440   0.591   2.999
 3320SOL    HW110859   6.509   0.539   3.050
 3320SOL    HW210860   6.485   0.666   2.950
 3321SOL     OW10861   4.836   1.543   6.459
 3321SOL    HW110862   4.759   1.606   6.447
 3321SOL    HW210863   4.851   1.492   6.374
 3322SOL     OW10864   5.904   3.548   2.041
 3322SOL    HW110865   5.945   3.638   2.052
 3322SOL    HW210866   5.929   3.510   1.952
 3323SOL     OW10867   0.300   0.392   2.071
 3323SOL    HW110868   0.340   0.472   2.116
 3323SOL    HW210869   0.322   0.309   2.123
 3324SOL     OW10870   6.505   5.764   6.409
 3324SOL    HW110871   6.562   5.719   6.478
 3324SOL    HW210872   6.435   5.701   6.376
 3325SOL     OW10873   2.372   5.660   6.396
 3325SOL    HW110874   2.276   5.658   6.426
 3325SOL    HW210875   2.376   5.694   6.302
 3326SOL     OW10876   3.937   1.295   1.652
 3326SOL    HW110877   4.004   1.350   1.702
 3326SOL    HW210878   3.858   1.351   1.628
 3327SOL     OW10879   1.668   6.469   5.845
 3327SOL    HW110880   1.668   6.556   5.795
 3327SOL    HW210881   1.610   6.477   5.926
 3328SOL     OW10882   4.102   2.651   5.618
 3328SOL    HW110883   4.156   2.735   5.627
 3328SOL    HW210884   4.053   2.653   5.531
 3329SOL     OW10885   0.070   6.454   5.750
 3329SOL    HW110886   0.071   6.387   5.824
 3329SOL    HW210887   0.154   6.507   5.752
 3330SOL     OW10888   6.740   3.148   3.433
 3330SOL    HW110889   6.779   3.091   3.505
 3330SOL    HW210890   6.766   3.111   3.344
 3331SOL     OW10891   2.160   3.489   0.689
 3331SOL    HW110892   2.123   3.403   0.724
 3331SOL    HW210893   2.257   3.496   0.713
 3332SOL     OW10894   6.892   4.097   1.901
 3332SOL    HW110895   6.960   4.165   1.875
 3332SOL    HW210896   6.809   4.110   1.847
 3333SOL     OW10897   3.000   6.279   5.413
 3333SOL    HW110898   3.031   6.343   5.342
 3333SOL    HW210899   3.015   6.319   5.503
 3334SOL     OW10900   1.503   2.580   1.037
 3334SOL    HW110901   1.429   2.562   0.972
 3334SOL    HW210902   1.572   2.509   1.031
 3335SOL     OW10903   5.691   4.225   5.343
 3335SOL    HW110904   5.713   4.145   5.287
 3335SOL    HW210905   5.615   4.275   5.302
 3336SOL     OW10906   3.408   6.098   5.676
 3336SOL    HW110907   3.372   6.009   5.649
 3336SOL    HW210908   3.507   6.092   5.689
 3337SOL     OW10909   3.793   1.030   1.133
 3337SOL    HW110910   3.854   1.106   1.158
 3337SOL    HW210911   3.770   1.036   1.036
 3338SOL     OW10912   6.418   5.499   0.567
 3338SOL    HW110913   6.469   5.585   0.562
 3338SOL    HW210914   6.465   5.428   0.515
 3339SOL     OW10915   0.446   4.775   6.742
 3339SOL    HW110916   0.499   4.792   6.660
 3339SOL    HW210917   0.348   4.785   6.721
 3340SOL     OW10918   4.197   0.947   1.862
 3340SOL    HW110919   4.175   0.909   1.952
 3340SOL    HW210920   4.216   0.873   1.798
 3341SOL     OW10921   1.408   0.044   6.743
 3341SOL    HW110922   1.321   0.081   6.713
 3341SOL    HW210923   1.468   0.118   6.771
 3342SOL     OW10924   1.365   6.730   5.193
 3342SOL    HW110925   1.458   6.752   5.164
 3342SOL    HW210926   1.366   6.696   5.287
 3343SOL     OW10927   0.233   2.313   0.840
 3343SOL    HW110928   0.282   2.280   0.759
 3343SOL    HW210929   0.150   2.361   0.812
 3344SOL     OW10930   1.374   1.958   6.716
 3344SOL    HW110931   1.280   1.983   6.694
 3344SOL    HW210932   1.383   1.858   6.717
 3345SOL     OW10933   3.050   3.003   6.414
 3345SOL    HW110934   3.112   2.925   6.400
 3345SOL    HW210935   3.023   3.040   6.325
 3346SOL     OW10936   2.746   5.528   2.683
 3346SOL    HW110937   2.667   5.471   2.664
 3346SOL    HW210938   2.724   5.594   2.755
 3347SOL     OW10939   5.755   4.060   3.576
 3347SOL    HW110940   5.664   4.102   3.584
 3347SOL    HW210941   5.780   4.019   3.664
 3348SOL     OW10942   4.111   3.652   3.393
 3348SOL    HW110943   4.091   3.749   3.384
 3348SOL    HW210944   4.068   3.602   3.317
 3349SOL     OW10945   5.371   2.544   0.820
 3349SOL    HW110946   5.354   2.449   0.849
 3349SOL    HW210947   5.456   2.576   0.862
 3350SOL     OW10948   2.508   2.865   1.595
 3350SOL    HW110949   2.549   2.953   1.619
 3350SOL    HW210950   2.500   2.857   1.496
 3351SOL     OW10951   6.316   2.872   0.797
 3351SOL    HW110952   6.352   2.953   0.750
 3351SOL    HW210953   6.355   2.868   0.889
 3352SOL     OW10954   0.181   4.325   0.871
 3352SOL    HW110955   0.203   4.409   0.921
 3352SOL    HW210956   0.128   4.264   0.930
 3353SOL     OW10957   1.100   6.129   6.105
 3353SOL    HW110958   1.105   6.125   6.005
 3353SOL    HW210959   1.014   6.172   6.132
 3354SOL     OW10960   0.225   6.449   2.076
 3354SOL    HW110961   0.163   6.420   2.003
 3354SOL    HW210962   0.193   6.535   2.115
 3355SOL     OW10963   5.767   1.257   2.656
 3355SOL    HW110964   5.724   1.193   2.720
 3355SOL    HW210965   5.756   1.351   2.690
 3356SOL     OW10966   1.593   3.892   6.743
 3356SOL    HW110967   1.669   3.828   6.733
 3356SOL    HW210968   1.507   3.842   6.739
 3357SOL     OW10969   2.695   5.897   2.673
 3357SOL    HW110970   2.784   5.903   2.628
 3357SOL    HW210971   2.682   5.976   2.733
 3358SOL     OW10972   0.492   3.662   3.407
 3358SOL    HW110973   0.589   3.682   3.424
 3358SOL    HW210974   0.477   3.652   3.308
 3359SOL     OW10975   2.733   1.934   1.763
 3359SOL    HW110976   2.710   2.001   1.833
 3359SOL    HW210977   2.811   1.967   1.710
 3360SOL     OW10978   2.442   1.194   6.214
 3360SOL    HW110979   2.424   1.106   6.259
 3360SOL    HW210980   2.386   1.201   6.131
 3361SOL     OW10981   2.363   1.163   2.915
 3361SOL    HW110982   2.461   1.155   2.932
 3361SOL    HW210983   2.337   1.260   2.921
 3362SOL     OW10984   3.224   2.033   4.429
 3362SOL    HW110985   3.265   2.047   4.339
 3362SOL    HW210986   3.130   2.068   4.428
 3363SOL     OW10987   6.847   0.693   0.411
 3363SOL    HW110988   6.772   0.639   0.450
 3363SOL    HW210989   6.818   0.788   0.400
 3364SOL     OW10990   1.526   5.480   5.066
 3364SOL    HW110991   1.504   5.519   5.156
 3364SOL    HW210992   1.623   5.493   5.046
 3365SOL     OW10993   6.309   2.394   5.160
 3365SOL    HW110994   6.373   2.420   5.088
 3365SOL    HW210995   6.315   2.296   5.175
 3366SOL     OW10996   4.763   1.293   0.306
 3366SOL    HW110997   4.800   1.288   0.214
 3366SOL    HW210998   4.838   1.304   0.372
 3367SOL     OW10999   1.775   0.100   2.005
 3367SOL    HW111000   1.751   0.053   1.920
 3367SOL    HW211001   1.692   0.123   2.055
 3368SOL     OW11002   6.129   1.342   4.746
 3368SOL    HW111003   6.115   1.263   4.687
 3368SOL    HW211004   6.213   1.389   4.719
 3369SOL     OW11005   3.913   5.431   6.542
 3369SOL    HW111006   3.958   5.361   6.598
 3369SOL    HW211007   3.847   5.481   6.599
 3370SOL     OW11008   6.012   1.038   5.750
 3370SOL    HW111009   6.100   1.060   5.707
 3370SOL    HW211010   5.947   1.111   5.733
 3371SOL     OW11011   6.451   4.834   1.355
 3371SOL    HW111012   6.526   4.793   1.304
 3371SOL    HW211013   6.482   4.858   1.447
 3372SOL     OW11014   1.543   2.818   2.667
 3372SOL    HW111015   1.627   2.777   2.632
 3372SOL    HW211016   1.471   2.749   2.672
 3373SOL     OW11017   1.183   2.943   6.168
 3373SOL    HW111018   1.180   2.849   6.137
 3373SOL    HW211019   1.107   2.994   6.128
 3374SOL     OW11020   3.363   6.277   5.345
 3374SOL    HW111021   3.337   6.347   5.411
 3374SOL    HW211022   3.348   6.310   5.252
 3375SOL     OW11023   3.096   4.037   5.108
 3375SOL    HW111024   3.012   3.991   5.079
 3375SOL    HW211025   3.143   4.074   5.029
 3376SOL     OW11026   3.630   2.886   1.192
 3376SOL    HW111027   3.601   2.980   1.170
 3376SOL    HW211028   3.550   2.826   1.189
 3377SOL     OW11029   2.621   5.208   6.186
 3377SOL    HW111030   2.650   5.124   6.141
 3377SOL    HW211031   2.694   5.276   6.180
 3378SOL     OW11032   6.848   1.556   0.760
 3378SOL    HW111033   6.928   1.566   0.818
 3378SOL    HW211034   6.860   1.612   0.677
 3379SOL     OW11035   6.089   5.481   5.648
 3379SOL    HW111036   6.155   5.406   5.644
 3379SOL    HW211037   6.094   5.534   5.564
 3380SOL     OW11038   0.983   3.854   5.167
 3380SOL    HW111039   0.902   3.884   5.218
 3380SOL    HW211040   0.989   3.754   5.172
 3381SOL     OW11041   3.103   2.368   1.059
 3381SOL    HW111042   3.188   2.333   1.098
 3381SOL    HW211043   3.076   2.311   0.981
 3382SOL     OW11044   6.755   6.358   0.143
 3382SOL    HW111045   6.703   6.392   0.221
 3382SOL    HW211046   6.707   6.281   0.102
 3383SOL     OW11047   0.694   4.057   1.838
 3383SOL    HW111048   0.782   4.061   1.884
 3383SOL    HW211049   0.684   3.968   1.793
 3384SOL     OW11050   3.246   3.685   3.276
 3384SOL    HW111051   3.316   3.757   3.268
 3384SOL    HW211052   3.215   3.659   3.184
 3385SOL     OW11053   0.072   4.310   3.794
 3385SOL    HW111054   0.105   4.287   3.703
 3385SOL    HW211055   0.013   4.391   3.788
 3386SOL     OW11056   5.603   4.277   3.956
 3386SOL    HW111057   5.573   4.279   3.861
 3386SOL    HW211058   5.550   4.209   4.006
 3387SOL     OW11059   3.626   1.500   2.332
 3387SOL    HW111060   3.537   1.468   2.301
 3387SOL    HW211061   3.676   1.539   2.254
 3388SOL     OW11062   5.787   1.593   1.097
 3388SOL    HW111063   5.828   1.524   1.038
 3388SOL    HW211064   5.704   1.557   1.138
 3389SOL     OW11065   4.053   5.297   2.279
 3389SOL    HW111066   4.042   5.383   2.229
 3389SOL    HW211067   4.114   5.310   2.357
 3390SOL     OW11068   4.072   1.976   5.742
 3390SOL    HW111069   4.033   1.888   5.766
 3390SOL    HW211070   4.162   1.963   5.699
 3391SOL     OW11071   3.256   1.282   4.186
 3391SOL    HW111072   3.190   1.347   4.148
 3391SOL    HW211073   3.219   1.243   4.271
 3392SOL     OW11074   5.503   6.133   3.948
 3392SOL    HW111075   5.555   6.204   3.997
 3392SOL    HW211076   5.410   6.166   3.932
 3393SOL     OW11077   6.871   0.225   6.094
 3393SOL    HW111078   6.902   0.259   6.183
 3393SOL    HW211079   6.772   0.211   6.095
 3394SOL     OW11080   4.933   1.678   1.938
 3394SOL    HW111081   4.983   1.664   2.023
 3394SOL    HW211082   4.858   1.612   1.932
 3395SOL     OW11083   1.752   3.842   5.331
 3395SOL    HW111084   1.743   3.838   5.232
 3395SOL    HW211085   1.760   3.937   5.360
 3396SOL     OW11086   6.125   3.794   4.009
 3396SOL    HW111087   6.093   3.702   4.032
 3396SOL    HW211088   6.120   3.807   3.910
 3397SOL     OW11089   3.152   5.655   6.297
 3397SOL    HW111090   3.196   5.589   6.237
 3397SOL    HW211091   3.146   5.744   6.251
 3398SOL     OW11092   0.530   1.703   4.324
 3398SOL    HW111093   0.491   1.612   4.325
 3398SOL    HW211094   0.539   1.735   4.230
 3399SOL     OW11095   3.775   5.635   4.557
 3399SOL    HW111096   3.731   5.721   4.529
 3399SOL    HW211097   3.754   5.617   4.654
 3400SOL     OW11098   5.214   1.987   0.495
 3400SOL    HW111099   5.299   2.020   0.452
 3400SOL    HW211100   5.229   1.973   0.592
 3401SOL     OW11101   6.723   4.728   6.917
 3401SOL    HW111102   6.706   4.772   7.005
 3401SOL    HW211103   6.688   4.785   6.843
 3402SOL     OW11104   4.026   4.814   1.940
 3402SOL    HW111105   3.955   4.791   1.873
 3402SOL    HW211106   3.984   4.818   2.031
 3403SOL     OW11107   3.848   1.694   6.541
 3403SOL    HW111108   3.748   1.699   6.544
 3403SOL    HW211109   3.877   1.602   6.566
 3404SOL     OW11110   4.304   5.681   2.083
 3404SOL    HW111111   4.343   5.755   2.029
 3404SOL    HW211112   4.369   5.653   2.154
 3405SOL     OW11113   5.998   3.959   0.398
 3405SOL    HW111114   6.031   4.053   0.401
 3405SOL    HW211115   5.930   3.949   0.325
 3406SOL     OW11116   0.868   3.254   1.686
 3406SOL    HW111117   0.852   3.252   1.587
 3406SOL    HW211118   0.928   3.178   1.711
 3407SOL     OW11119   1.165   5.506   2.401
 3407SOL    HW111120   1.127   5.453   2.476
 3407SOL    HW211121   1.103   5.505   2.323
 3408SOL     OW11122   5.397   3.543   2.188
 3408SOL    HW111123   5.345   3.476   2.241
 3408SOL    HW211124   5.494   3.521   2.192
 3409SOL     OW11125   2.781   1.654   0.324
 3409SOL    HW111126   2.832   1.569   0.309
 3409SOL    HW211127   2.699   1.635   0.378
 3410SOL     OW11128   0.690   1.674   0.358
 3410SOL    HW111129   0.775   1.711   0.319
 3410SOL    HW211130   0.614   1.693   0.295
 3411SOL     OW11131   4.956   1.727   2.512
 3411SOL    HW111132   4.892   1.665   2.466
 3411SOL    HW211133   5.034   1.675   2.547
 3412SOL     OW11134   4.498   4.928   6.729
 3412SOL    HW111135   4.425   4.906   6.664
 3412SOL    HW211136   4.541   4.843   6.761
 3413SOL     OW11137   4.900   1.029   2.648
 3413SOL    HW111138   4.906   0.947   2.705
 3413SOL    HW211139   4.868   1.106   2.703
 3414SOL     OW11140   4.300   0.552   5.384
 3414SOL    HW111141   4.390   0.509   5.389
 3414SOL    HW211142   4.243   0.501   5.320
 3415SOL     OW11143   1.704   6.151   5.888
 3415SOL    HW111144   1.710   6.251   5.884
 3415SOL    HW211145   1.609   6.124   5.906
 3416SOL     OW11146   1.383   4.870   5.349
 3416SOL    HW111147   1.414   4.899   5.440
 3416SOL    HW211148   1.414   4.935   5.280
 3417SOL     OW11149   5.304   0.873   1.174
 3417SOL    HW111150   5.287   0.775   1.188
 3417SOL    HW211151   5.311   0.918   1.263
 3418SOL     OW11152   2.837   2.423   5.692
 3418SOL    HW111153   2.771   2.444   5.764
 3418SOL    HW211154   2.804   2.461   5.605
 3419SOL     OW11155   4.430   3.420   6.112
 3419SOL    HW111156   4.490   3.428   6.192
 3419SOL    HW211157   4.395   3.510   6.087
 3420SOL     OW11158   2.935   0.631   4.930
 3420SOL    HW111159   2.879   0.699   4.977
 3420SOL    HW211160   3.029   0.664   4.925
 3421SOL     OW11161   0.921   6.535   2.898
 3421SOL    HW111162   0.964   6.475   2.831
 3421SOL    HW211163   0.860   6.481   2.956
 3422SOL     OW11164   3.286   2.098   2.961
 3422SOL    HW111165   3.250   2.037   3.032
 3422SOL    HW211166   3.213   2.158   2.928
 3423SOL     OW11167   3.521   0.995   1.626
 3423SOL    HW111168   3.466   0.943   1.691
 3423SOL    HW211169   3.618   0.987   1.650
 3424SOL     OW11170   4.542   2.013   0.908
 3424SOL    HW111171   4.566   1.959   0.827
 3424SOL    HW211172   4.499   1.953   0.976
 3425SOL     OW11173   4.008   3.733   1.408
 3425SOL    HW111174   4.063   3.659   1.448
 3425SOL    HW211175   4.065   3.814   1.396
 3426SOL     OW11176   5.048   3.887   0.803
 3426SOL    HW111177   5.056   3.854   0.708
 3426SOL    HW211178   5.126   3.945   0.825
 3427SOL     OW11179   0.987   1.783   0.479
 3427SOL    HW111180   1.048   1.852   0.441
 3427SOL    HW211181   1.040   1.716   0.530
 3428SOL     OW11182   4.659   4.610   3.306
 3428SOL    HW111183   4.596   4.536   3.328
 3428SOL    HW211184   4.708   4.637   3.389
 3429SOL     OW11185   0.443   2.931   0.463
 3429SOL    HW111186   0.527   2.907   0.413
 3429SOL    HW211187   0.456   3.019   0.509
 3430SOL     OW11188   0.692   5.480   6.990
 3430SOL    HW111189   0.702   5.540   0.050
 3430SOL    HW211190   0.644   5.397   7.017
 3431SOL     OW11191   1.252   6.016   6.386
 3431SOL    HW111192   1.244   6.111   6.355
 3431SOL    HW211193   1.249   6.013   6.486
 3432SOL     OW11194   3.843   1.956   6.454
 3432SOL    HW111195   3.833   1.857   6.459
 3432SOL    HW211196   3.853   1.984   6.359
 3433SOL     OW11197   3.901   1.265   4.896
 3433SOL    HW111198   3.847   1.335   4.849
 3433SOL    HW211199   3.981   1.241   4.841
 3434SOL     OW11200   4.241   1.334   3.553
 3434SOL    HW111201   4.300   1.333   3.634
 3434SOL    HW211202   4.152   1.373   3.577
 3435SOL     OW11203   0.508   1.267   6.725
 3435SOL    HW111204   0.436   1.261   6.793
 3435SOL    HW211205   0.471   1.245   6.635
 3436SOL     OW11206   3.889   6.588   1.805
 3436SOL    HW111207   3.984   6.611   1.784
 3436SOL    HW211208   3.870   6.494   1.777
 3437SOL     OW11209   4.247   0.109   7.008
 3437SOL    HW111210   4.182   0.093   0.062
 3437SOL    HW211211   4.214   0.067   6.924
 3438SOL     OW11212   0.703   5.175   6.666
 3438SOL    HW111213   0.676   5.105   6.731
 3438SOL    HW211214   0.638   5.251   6.669
 3439SOL     OW11215   2.497   0.554   3.807
 3439SOL    HW111216   2.482   0.553   3.906
 3439SOL    HW211217   2.432   0.619   3.765
 3440SOL     OW11218   3.821   2.017   0.672
 3440SOL    HW111219   3.818   2.078   0.593
 3440SOL    HW211220   3.917   1.994   0.693
 3441SOL     OW11221   4.535   0.133   4.168
 3441SOL    HW111222   4.484   0.204   4.216
 3441SOL    HW211223   4.502   0.043   4.197
 3442SOL     OW11224   0.891   5.549   3.255
 3442SOL    HW111225   0.953   5.567   3.179
 3442SOL    HW211226   0.903   5.620   3.325
 3443SOL     OW11227   5.953   6.550   4.019
 3443SOL    HW111228   5.888   6.475   4.007
 3443SOL    HW211229   6.011   6.531   4.098
 3444SOL     OW11230   3.522   5.300   6.981
 3444SOL    HW111231   3.479   5.293   0.051
 3444SOL    HW211232   3.594   5.231   6.973
 3445SOL     OW11233   6.311   5.029   5.403
 3445SOL    HW111234   6.342   5.122   5.383
 3445SOL    HW211235   6.268   4.990   5.322
 3446SOL     OW11236   2.364   5.747   1.699
 3446SOL    HW111237   2.342   5.722   1.605
 3446SOL    HW211238   2.458   5.778   1.704
 3447SOL     OW11239   5.953   4.457   5.287
 3447SOL    HW111240   5.905   4.413   5.363
 3447SOL    HW211241   6.039   4.409   5.271
 3448SOL     OW11242   3.907   3.257   0.467
 3448SOL    HW111243   3.833   3.216   0.414
 3448SOL    HW211244   3.916   3.210   0.554
 3449SOL     OW11245   5.904   5.819   3.003
 3449SOL    HW111246   5.949   5.878   3.070
 3449SOL    HW211247   5.931   5.724   3.018
 3450SOL     OW11248   0.792   1.556   1.115
 3450SOL    HW111249   0.797   1.518   1.023
 3450SOL    HW211250   0.730   1.634   1.117
 3451SOL     OW11251   2.141   5.375   4.398
 3451SOL    HW111252   2.205   5.311   4.441
 3451SOL    HW211253   2.104   5.333   4.315
 3452SOL     OW11254   6.641   2.087   0.412
 3452SOL    HW111255   6.550   2.071   0.451
 3452SOL    HW211256   6.674   2.003   0.368
 3453SOL     OW11257   6.183   5.262   4.953
 3453SOL    HW111258   6.228   5.205   4.884
 3453SOL    HW211259   6.116   5.206   5.003
 3454SOL     OW11260   6.775   1.275   0.536
 3454SOL    HW111261   6.750   1.342   0.606
 3454SOL    HW211262   6.768   1.183   0.575
 3455SOL     OW11263   1.353   2.841   3.260
 3455SOL    HW111264   1.263   2.866   3.296
 3455SOL    HW211265   1.351   2.844   3.160
 3456SOL     OW11266   6.526   0.491   0.282
 3456SOL    HW111267   6.483   0.402   0.295
 3456SOL    HW211268   6.491   0.534   0.199
 3457SOL     OW11269   1.899   6.511   3.425
 3457SOL    HW111270   1.933   6.586   3.369
 3457SOL    HW211271   1.837   6.454   3.370
 3458SOL     OW11272   4.788   5.084   0.076
 3458SOL    HW111273   4.691   5.061   0.072
 3458SOL    HW211274   4.838   5.026   0.012
 3459SOL     OW11275   6.528   6.854   3.228
 3459SOL    HW111276   6.550   6.775   3.286
 3459SOL    HW211277   6.451   6.830   3.169
 3460SOL     OW11278   4.906   2.954   0.618
 3460SOL    HW111279   4.918   2.919   0.525
 3460SOL    HW211280   4.810   2.980   0.631
 3461SOL     OW11281   2.388   6.087   3.065
 3461SOL    HW111282   2.466   6.132   3.107
 3461SOL    HW211283   2.328   6.051   3.137
 3462SOL     OW11284   4.969   2.342   2.917
 3462SOL    HW111285   4.996   2.356   3.012
 3462SOL    HW211286   5.014   2.260   2.881
 3463SOL     OW11287   0.894   2.936   1.220
 3463SOL    HW111288   0.944   2.855   1.190
 3463SOL    HW211289   0.926   3.016   1.170
 3464SOL     OW11290   5.227   1.384   6.264
 3464SOL    HW111291   5.251   1.447   6.191
 3464SOL    HW211292   5.274   1.410   6.348
 3465SOL     OW11293   2.158   4.506   1.459
 3465SOL    HW111294   2.114   4.424   1.496
 3465SOL    HW211295   2.133   4.585   1.514
 3466SOL     OW11296   6.645   3.551   4.237
 3466SOL    HW111297   6.548   3.547   4.259
 3466SOL    HW211298   6.663   3.498   4.154
 3467SOL     OW11299   3.359   3.613   0.351
 3467SOL    HW111300   3.277   3.557   0.362
 3467SOL    HW211301   3.393   3.639   0.441
 3468SOL     OW11302   4.573   1.513   1.582
 3468SOL    HW111303   4.494   1.481   1.531
 3468SOL    HW211304   4.564   1.487   1.678
 3469SOL     OW11305   3.773   5.632   5.461
 3469SOL    HW111306   3.762   5.596   5.368
 3469SOL    HW211307   3.731   5.723   5.466
 3470SOL     OW11308   1.025   2.715   0.722
 3470SOL    HW111309   0.986   2.797   0.763
 3470SOL    HW211310   0.960   2.639   0.730
 3471SOL     OW11311   4.962   3.182   5.028
 3471SOL    HW111312   5.060   3.168   5.018
 3471SOL    HW211313   4.917   3.172   4.939
 3472SOL     OW11314   4.532   1.741   1.916
 3472SOL    HW111315   4.452   1.780   1.962
 3472SOL    HW211316   4.615   1.774   1.960
 3473SOL     OW11317   6.349   4.513   1.885
 3473SOL    HW111318   6.438   4.477   1.857
 3473SOL    HW211319   6.283   4.438   1.888
 3474SOL     OW11320   4.895   3.877   3.476
 3474SOL    HW111321   4.935   3.867   3.567
 3474SOL    HW211322   4.869   3.973   3.462
 3475SOL     OW11323   6.820   3.908   4.160
 3475SOL    HW111324   6.790   3.900   4.255
 3475SOL    HW211325   6.766   3.846   4.103
 3476SOL     OW11326   1.686   3.167   3.176
 3476SOL    HW111327   1.609   3.167   3.111
 3476SOL    HW211328   1.771   3.180   3.125
 3477SOL     OW11329   1.544   4.083   2.058
 3477SOL    HW111330   1.559   4.182   2.066
 3477SOL    HW211331   1.464   4.067   2.000
 3478SOL     OW11332   2.556   0.736   1.166
 3478SOL    HW111333   2.645   0.759   1.127
 3478SOL    HW211334   2.521   0.814   1.218
 3479SOL     OW11335   1.501   3.916   5.654
 3479SOL    HW111336   1.549   3.835   5.686
 3479SOL    HW211337   1.488   3.911   5.555
 3480SOL     OW11338   1.230   5.094   6.975
 3480SOL    HW111339   1.205   5.173   0.012
 3480SOL    HW211340   1.261   5.126   6.886
 3481SOL     OW11341   5.925   1.005   4.875
 3481SOL    HW111342   5.836   1.013   4.920
 3481SOL    HW211343   5.915   1.027   4.778
 3482SOL     OW11344   6.039   2.822   6.065
 3482SOL    HW111345   6.043   2.840   6.163
 3482SOL    HW211346   5.943   2.815   6.037
 3483SOL     OW11347   5.067   2.176   4.888
 3483SOL    HW111348   5.137   2.106   4.873
 3483SOL    HW211349   5.018   2.194   4.803
 3484SOL     OW11350   1.142   2.795   4.593
 3484SOL    HW111351   1.098   2.861   4.532
 3484SOL    HW211352   1.120   2.817   4.688
 3485SOL     OW11353   6.760   4.046   6.677
 3485SOL    HW111354   6.661   4.045   6.685
 3485SOL    HW211355   6.788   3.983   6.604
 3486SOL     OW11356   1.346   6.528   4.806
 3486SOL    HW111357   1.433   6.521   4.856
 3486SOL    HW211358   1.334   6.447   4.748
 3487SOL     OW11359   4.235   1.588   6.745
 3487SOL    HW111360   4.331   1.613   6.740
 3487SOL    HW211361   4.218   1.510   6.685
 3488SOL     OW11362   4.985   6.219   5.454
 3488SOL    HW111363   4.993   6.186   5.360
 3488SOL    HW211364   4.903   6.182   5.496
 3489SOL     OW11365   3.517   6.245   0.778
 3489SOL    HW111366   3.495   6.312   0.849
 3489SOL    HW211367   3.612   6.259   0.748
 3490SOL     OW11368   4.544   0.042   0.763
 3490SOL    HW111369   4.582   6.988   0.708
 3490SOL    HW211370   4.572   0.032   0.858
 3491SOL     OW11371   4.776   4.405   5.571
 3491SOL    HW111372   4.858   4.409   5.628
 3491SOL    HW211373   4.702   4.360   5.622
 3492SOL     OW11374   5.685   3.764   3.525
 3492SOL    HW111375   5.683   3.863   3.537
 3492SOL    HW211376   5.593   3.727   3.539
 3493SOL     OW11377   0.744   3.907   6.142
 3493SOL    HW111378   0.668   3.909   6.076
 3493SOL    HW211379   0.817   3.967   6.110
 3494SOL     OW11380   4.412   1.104   2.885
 3494SOL    HW111381   4.410   1.082   2.983
 3494SOL    HW211382   4.320   1.092   2.847
 3495SOL     OW11383   1.833   3.867   3.742
 3495SOL    HW111384   1.824   3.831   3.649
 3495SOL    HW211385   1.778   3.811   3.805
 3496SOL     OW11386   6.318   5.609   1.029
 3496SOL    HW111387   6.259   5.584   0.952
 3496SOL    HW211388   6.410   5.629   0.995
 3497SOL     OW11389   3.110   0.390   1.448
 3497SOL    HW111390   3.063   0.416   1.532
 3497SOL    HW211391   3.147   0.297   1.458
 3498SOL     OW11392   2.810   2.235   1.345
 3498SOL    HW111393   2.855   2.146   1.348
 3498SOL    HW211394   2.711   2.223   1.355
 3499SOL     OW11395   5.752   6.956   5.010
 3499SOL    HW111396   5.809   0.014   4.985
 3499SOL    HW211397   5.683   6.984   5.076
 3500SOL     OW11398   2.916   2.205   3.726
 3500SOL    HW111399   2.993   2.191   3.663
 3500SOL    HW211400   2.841   2.143   3.701
 3501SOL     OW11401   1.469   6.866   6.301
 3501SOL    HW111402   1.476   6.887   6.399
 3501SOL    HW211403   1.378   6.831   6.282
 3502SOL     OW11404   5.270   2.381   2.247
 3502SOL    HW111405   5.204   2.310   2.225
 3502SOL    HW211406   5.359   2.358   2.208
 3503SOL     OW11407   0.618   6.049   6.372
 3503SOL    HW111408   0.681   6.096   6.433
 3503SOL    HW211409   0.626   6.086   6.279
 3504SOL     OW11410   2.223   0.987   6.891
 3504SOL    HW111411   2.199   1.070   6.842
 3504SOL    HW211412   2.140   0.940   6.921
 3505SOL     OW11413   5.125   2.605   4.991
 3505SOL    HW111414   5.072   2.566   4.916
 3505SOL    HW211415   5.066   2.620   5.070
 3506SOL     OW11416   4.097   4.904   4.882
 3506SOL    HW111417   4.041   4.867   4.957
 3506SOL    HW211418   4.067   4.997   4.861
 3507SOL     OW11419   2.969   1.716   1.565
 3507SOL    HW111420   2.879   1.748   1.537
 3507SOL    HW211421   3.039   1.765   1.513
 3508SOL     OW11422   3.698   1.017   6.686
 3508SOL    HW111423   3.754   0.935   6.691
 3508SOL    HW211424   3.665   1.029   6.592
 3509SOL     OW11425   4.550   5.798   6.944
 3509SOL    HW111426   4.489   5.797   0.003
 3509SOL    HW211427   4.503   5.835   6.864
 3510SOL     OW11428   2.569   1.119   1.566
 3510SOL    HW111429   2.666   1.144   1.558
 3510SOL    HW211430   2.515   1.199   1.590
 3511SOL     OW11431   2.790   4.855   1.913
 3511SOL    HW111432   2.823   4.830   1.822
 3511SOL    HW211433   2.804   4.779   1.975
 3512SOL     OW11434   6.772   5.493   6.182
 3512SOL    HW111435   6.697   5.430   6.202
 3512SOL    HW211436   6.836   5.450   6.119
 3513SOL     OW11437   5.009   1.827   0.403
 3513SOL    HW111438   5.090   1.877   0.434
 3513SOL    HW211439   5.028   1.785   0.315
 3514SOL     OW11440   3.511   1.722   2.521
 3514SOL    HW111441   3.562   1.641   2.495
 3514SOL    HW211442   3.536   1.798   2.462
 3515SOL     OW11443   0.729   4.602   4.057
 3515SOL    HW111444   0.785   4.631   3.979
 3515SOL    HW211445   0.777   4.529   4.106
 3516SOL     OW11446   4.321   0.626   1.342
 3516SOL    HW111447   4.342   0.574   1.259
 3516SOL    HW211448   4.384   0.703   1.350
 3517SOL     OW11449   4.709   1.757   2.132
 3517SOL    HW111450   4.790   1.799   2.171
 3517SOL    HW211451   4.688   1.672   2.181
 3518SOL     OW11452   6.287   1.525   5.497
 3518SOL    HW111453   6.266   1.595   5.428
 3518SOL    HW211454   6.203   1.478   5.524
 3519SOL     OW11455   3.302   1.429   1.637
 3519SOL    HW111456   3.330   1.519   1.667
 3519SOL    HW211457   3.377   1.364   1.649
 3520SOL     OW11458   2.521   6.148   4.139
 3520SOL    HW111459   2.434   6.149   4.190
 3520SOL    HW211460   2.530   6.060   4.092
 3521SOL     OW11461   2.124   2.426   5.710
 3521SOL    HW111462   2.063   2.409   5.787
 3521SOL    HW211463   2.076   2.477   5.639
 3522SOL     OW11464   0.796   5.938   6.778
 3522SOL    HW111465   0.859   5.901   6.710
 3522SOL    HW211466   0.843   6.006   6.834
 3523SOL     OW11467   3.597   5.689   6.973
 3523SOL    HW111468   3.585   5.667   0.050
 3523SOL    HW211469   3.676   5.639   6.938
 3524SOL     OW11470   4.551   1.439   4.307
 3524SOL    HW111471   4.580   1.506   4.376
 3524SOL    HW211472   4.556   1.347   4.346
 3525SOL     OW11473   0.608   3.068   3.531
 3525SOL    HW111474   0.619   3.138   3.460
 3525SOL    HW211475   0.680   3.080   3.600
 3526SOL     OW11476   7.016   6.887   1.570
 3526SOL    HW111477   6.950   6.848   1.633
 3526SOL    HW211478   0.078   6.830   1.567
 3527SOL     OW11479   6.500   2.808   0.192
 3527SOL    HW111480   6.572   2.854   0.140
 3527SOL    HW211481   6.517   2.709   0.191
 3528SOL     OW11482   2.299   5.423   5.198
 3528SOL    HW111483   2.310   5.455   5.104
 3528SOL    HW211484   2.348   5.337   5.210
 3529SOL     OW11485   4.654   4.100   0.337
 3529SOL    HW111486   4.630   4.079   0.243
 3529SOL    HW211487   4.709   4.184   0.340
 3530SOL     OW11488   6.653   0.360   0.699
 3530SOL    HW111489   6.736   0.415   0.698
 3530SOL    HW211490   6.610   0.365   0.789
 3531SOL     OW11491   4.401   2.243   0.609
 3531SOL    HW111492   4.362   2.235   0.701
 3531SOL    HW211493   4.427   2.338   0.591
 3532SOL     OW11494   2.209   0.955   1.403
 3532SOL    HW111495   2.181   0.908   1.319
 3532SOL    HW211496   2.200   1.054   1.390
 3533SOL     OW11497   1.846   2.853   3.097
 3533SOL    HW111498   1.852   2.932   3.036
 3533SOL    HW211499   1.751   2.824   3.104
 3534SOL     OW11500   0.462   1.380   0.749
 3534SOL    HW111501   0.392   1.310   0.736
 3534SOL    HW211502   0.548   1.349   0.709
 3535SOL     OW11503   4.235   6.938   3.644
 3535SOL    HW111504   4.261   6.845   3.669
 3535SOL    HW211505   4.275   7.002   3.710
 3536SOL     OW11506   4.246   1.737   4.050
 3536SOL    HW111507   4.203   1.828   4.048
 3536SOL    HW211508   4.209   1.685   4.127
 3537SOL     OW11509   1.756   6.077   2.584
 3537SOL    HW111510   1.776   6.160   2.636
 3537SOL    HW211511   1.797   6.083   2.493
 3538SOL     OW11512   3.206   5.749   1.548
 3538SOL    HW111513   3.178   5.843   1.568
 3538SOL    HW211514   3.133   5.703   1.497
 3539SOL     OW11515   3.424   3.908   4.196
 3539SOL    HW111516   3.462   3.914   4.288
 3539SOL    HW211517   3.384   3.997   4.171
 3540SOL     OW11518   1.872   2.203   3.076
 3540SOL    HW111519   1.965   2.224   3.108
 3540SOL    HW211520   1.815   2.179   3.154
 3541SOL     OW11521   3.852   4.036   4.672
 3541SOL    HW111522   3.783   3.965   4.685
 3541SOL    HW211523   3.883   4.034   4.576
 3542SOL     OW11524   6.557   5.962   0.982
 3542SOL    HW111525   6.554   6.046   0.927
 3542SOL    HW211526   6.601   5.981   1.069
 3543SOL     OW11527   4.943   1.924   4.741
 3543SOL    HW111528   4.882   1.994   4.702
 3543SOL    HW211529   5.017   1.906   4.677
 3544SOL     OW11530   3.677   7.003   6.650
 3544SOL    HW111531   3.694   0.061   6.710
 3544SOL    HW211532   3.644   0.016   6.561
 3545SOL     OW11533   2.881   5.192   0.389
 3545SOL    HW111534   2.802   5.254   0.385
 3545SOL    HW211535   2.953   5.226   0.330
 3546SOL     OW11536   1.169   4.641   2.668
 3546SOL    HW111537   1.210   4.628   2.577
 3546SOL    HW211538   1.075   4.673   2.658
 3547SOL     OW11539   4.962   4.857   4.155
 3547SOL    HW111540   4.885   4.819   4.104
 3547SOL    HW211541   4.941   4.857   4.253
 3548SOL     OW11542   5.964   3.388   5.510
 3548SOL    HW111543   5.967   3.330   5.591
 3548SOL    HW211544   5.889   3.454   5.519
 3549SOL     OW11545   5.139   3.513   1.874
 3549SOL    HW111546   5.083   3.595   1.877
 3549SOL    HW211547   5.100   3.443   1.933
 3550SOL     OW11548   5.178   1.849   3.985
 3550SOL    HW111549   5.104   1.785   4.003
 3550SOL    HW211550   5.155   1.905   3.905
 3551SOL     OW11551   2.129   0.270   2.355
 3551SOL    HW111552   2.164   0.362   2.335
 3551SOL    HW211553   2.092   0.230   2.271
 3552SOL     OW11554   6.699   4.249   2.929
 3552SOL    HW111555   6.653   4.205   2.851
 3552SOL    HW211556   6.725   4.342   2.905
 3553SOL     OW11557   5.913   1.675   3.416
 3553SOL    HW111558   5.880   1.691   3.323
 3553SOL    HW211559   5.995   1.730   3.431
 3554SOL     OW11560   3.711   5.474   6.782
 3554SOL    HW111561   3.633   5.510   6.730
 3554SOL    HW211562   3.680   5.400   6.842
 3555SOL     OW11563   1.151   2.255   4.020
 3555SOL    HW111564   1.068   2.310   4.033
 3555SOL    HW211565   1.180   2.218   4.109
 3556SOL     OW11566   4.238   1.168   6.231
 3556SOL    HW111567   4.190   1.219   6.160
 3556SOL    HW211568   4.294   1.230   6.285
 3557SOL     OW11569   1.470   0.850   3.880
 3557SOL    HW111570   1.396   0.913   3.902
 3557SOL    HW211571   1.432   0.765   3.845
 3558SOL     OW11572   0.369   0.051   1.185
 3558SOL    HW111573   0.395   0.026   1.091
 3558SOL    HW211574   0.380   0.149   1.197
 3559SOL     OW11575   0.902   0.418   6.032
 3559SOL    HW111576   0.977   0.374   5.982
 3559SOL    HW211577   0.834   0.453   5.968
 3560SOL     OW11578   6.447   7.013   1.611
 3560SOL    HW111579   6.519   7.003   1.679
 3560SOL    HW211580   6.373   0.049   1.648
 3561SOL     OW11581   5.788   5.157   3.831
 3561SOL    HW111582   5.804   5.222   3.756
 3561SOL    HW211583   5.789   5.064   3.795
 3562SOL     OW11584   4.231   2.108   2.402
 3562SOL    HW111585   4.153   2.146   2.351
 3562SOL    HW211586   4.245   2.161   2.486
 3563SOL     OW11587   4.018   6.034   1.872
 3563SOL    HW111588   4.050   5.971   1.801
 3563SOL    HW211589   4.056   6.125   1.854
 3564SOL     OW11590   6.431   4.214   1.994
 3564SOL    HW111591   6.342   4.255   1.974
 3564SOL    HW211592   6.467   4.254   2.079
 3565SOL     OW11593   0.665   0.854   5.375
 3565SOL    HW111594   0.747   0.836   5.321
 3565SOL    HW211595   0.692   0.879   5.468
 3566SOL     OW11596   0.743   4.745   5.688
 3566SOL    HW111597   0.837   4.775   5.708
 3566SOL    HW211598   0.746   4.673   5.619
 3567SOL     OW11599   6.611   2.138   1.274
 3567SOL    HW111600   6.631   2.100   1.364
 3567SOL    HW211601   6.696   2.149   1.222
 3568SOL     OW11602   4.789   4.058   4.045
 3568SOL    HW111603   4.787   3.959   4.031
 3568SOL    HW211604   4.874   4.083   4.091
 3569SOL     OW11605   3.982   3.578   3.156
 3569SOL    HW111606   3.986   3.484   3.123
 3569SOL    HW211607   3.916   3.631   3.102
 3570SOL     OW11608   0.369   2.600   5.677
 3570SOL    HW111609   0.366   2.609   5.578
 3570SOL    HW211610   0.450   2.546   5.704
 3571SOL     OW11611   3.111   0.025   4.271
 3571SOL    HW111612   3.178   0.098   4.287
 3571SOL    HW211613   3.064   0.005   4.357
 3572SOL     OW11614   4.780   4.174   3.010
 3572SOL    HW111615   4.793   4.204   2.915
 3572SOL    HW211616   4.712   4.232   3.054
 3573SOL     OW11617   0.382   4.767   3.570
 3573SOL    HW111618   0.456   4.833   3.585
 3573SOL    HW211619   0.294   4.815   3.571
 3574SOL     OW11620   2.145   1.764   6.264
 3574SOL    HW111621   2.195   1.846   6.293
 3574SOL    HW211622   2.177   1.735   6.174
 3575SOL     OW11623   4.837   0.231   6.143
 3575SOL    HW111624   4.843   0.134   6.122
 3575SOL    HW211625   4.898   0.282   6.081
 3576SOL     OW11626   0.973   2.788   0.425
 3576SOL    HW111627   1.066   2.772   0.457
 3576SOL    HW211628   0.918   2.826   0.499
 3577SOL     OW11629   2.138   3.696   4.406
 3577SOL    HW111630   2.226   3.733   4.374
 3577SOL    HW211631   2.064   3.732   4.349
 3578SOL     OW11632   4.762   2.225   0.785
 3578SOL    HW111633   4.761   2.298   0.716
 3578SOL    HW211634   4.672   2.182   0.789
 3579SOL     OW11635   0.482   3.490   2.507
 3579SOL    HW111636   0.559   3.545   2.474
 3579SOL    HW211637   0.407   3.550   2.533
 3580SOL     OW11638   6.653   3.883   2.091
 3580SOL    HW111639   6.717   3.944   2.139
 3580SOL    HW211640   6.691   3.859   2.002
 3581SOL     OW11641   1.573   0.504   2.804
 3581SOL    HW111642   1.572   0.564   2.724
 3581SOL    HW211643   1.654   0.446   2.802
 3582SOL     OW11644   4.462   6.263   6.871
 3582SOL    HW111645   4.475   6.304   6.961
 3582SOL    HW211646   4.484   6.166   6.874
 3583SOL     OW11647   2.189   6.299   0.547
 3583SOL    HW111648   2.159   6.346   0.630
 3583SOL    HW211649   2.189   6.200   0.563
 3584SOL     OW11650   5.505   5.174   4.896
 3584SOL    HW111651   5.555   5.149   4.978
 3584SOL    HW211652   5.472   5.268   4.904
 3585SOL     OW11653   4.343   2.024   3.525
 3585SOL    HW111654   4.293   1.946   3.489
 3585SOL    HW211655   4.424   2.041   3.469
 3586SOL     OW11656   7.005   3.004   5.001
 3586SOL    HW111657   6.987   3.001   5.099
 3586SOL    HW211658   6.920   3.021   4.952
 3587SOL     OW11659   2.269   0.622   5.810
 3587SOL    HW111660   2.265   0.531   5.851
 3587SOL    HW211661   2.343   0.624   5.742
 3588SOL     OW11662   5.940   4.062   3.996
 3588SOL    HW111663   5.981   3.971   3.997
 3588SOL    HW211664   6.004   4.128   4.035
 3589SOL     OW11665   0.243   1.641   6.065
 3589SOL    HW111666   0.162   1.590   6.092
 3589SOL    HW211667   0.215   1.728   6.023
 3590SOL     OW11668   6.291   5.006   5.863
 3590SOL    HW111669   6.305   5.097   5.825
 3590SOL    HW211670   6.245   4.949   5.794
 3591SOL     OW11671   5.020   1.166   0.978
 3591SOL    HW111672   4.943   1.218   1.015
 3591SOL    HW211673   5.012   1.070   1.006
 3592SOL     OW11674   0.480   6.152   1.470
 3592SOL    HW111675   0.445   6.121   1.558
 3592SOL    HW211676   0.547   6.226   1.485
 3593SOL     OW11677   4.129   3.322   5.819
 3593SOL    HW111678   4.091   3.230   5.830
 3593SOL    HW211679   4.111   3.375   5.902
 3594SOL     OW11680   4.409   4.331   5.351
 3594SOL    HW111681   4.489   4.276   5.328
 3594SOL    HW211682   4.356   4.350   5.269
 3595SOL     OW11683   4.679   7.012   5.226
 3595SOL    HW111684   4.773   0.024   5.213
 3595SOL    HW211685   4.677   6.912   5.227
 3596SOL     OW11686   3.425   1.556   1.944
 3596SOL    HW111687   3.428   1.464   1.983
 3596SOL    HW211688   3.332   1.574   1.910
 3597SOL     OW11689   4.190   4.681   5.273
 3597SOL    HW111690   4.259   4.736   5.226
 3597SOL    HW211691   4.195   4.586   5.240
 3598SOL     OW11692   6.460   5.317   4.255
 3598SOL    HW111693   6.487   5.413   4.259
 3598SOL    HW211694   6.525   5.262   4.307
 3599SOL     OW11695   1.828   1.153   5.478
 3599SOL    HW111696   1.777   1.067   5.474
 3599SOL    HW211697   1.864   1.175   5.387
 3600SOL     OW11698   2.125   4.153   1.202
 3600SOL    HW111699   2.028   4.130   1.187
 3600SOL    HW211700   2.145   4.149   1.300
 3601SOL     OW11701   3.080   0.324   5.195
 3601SOL    HW111702   3.109   0.406   5.245
 3601SOL    HW211703   2.991   0.341   5.152
 3602SOL     OW11704   1.357   2.274   0.721
 3602SOL    HW111705   1.341   2.329   0.639
 3602SOL    HW211706   1.270   2.240   0.756
 3603SOL     OW11707   1.241   6.855   5.771
 3603SOL    HW111708   1.294   6.772   5.789
 3603SOL    HW211709   1.241   6.913   5.853
 3604SOL     OW11710   6.546   1.212   4.664
 3604SOL    HW111711   6.623   1.196   4.602
 3604SOL    HW211712   6.526   1.127   4.714
 3605SOL     OW11713   0.743   0.121   4.978
 3605SOL    HW111714   0.686   0.081   4.906
 3605SOL    HW211715   0.804   0.052   5.015
 3606SOL     OW11716   1.804   0.384   2.787
 3606SOL    HW111717   1.874   0.447   2.821
 3606SOL    HW211718   1.816   0.370   2.689
 3607SOL     OW11719   5.838   1.645   4.440
 3607SOL    HW111720   5.780   1.630   4.521
 3607SOL    HW211721   5.783   1.683   4.366
 3608SOL     OW11722   4.172   1.735   5.451
 3608SOL    HW111723   4.140   1.788   5.373
 3608SOL    HW211724   4.253   1.779   5.490
 3609SOL     OW11725   3.045   6.724   4.615
 3609SOL    HW111726   3.014   6.799   4.555
 3609SOL    HW211727   3.142   6.734   4.633
 3610SOL     OW11728   1.087   0.077   5.878
 3610SOL    HW111729   1.063   0.174   5.883
 3610SOL    HW211730   1.016   0.028   5.827
 3611SOL     OW11731   5.564   3.201   2.771
 3611SOL    HW111732   5.659   3.229   2.758
 3611SOL    HW211733   5.526   3.249   2.851
 3612SOL     OW11734   5.125   1.406   0.916
 3612SOL    HW111735   5.107   1.319   0.962
 3612SOL    HW211736   5.210   1.398   0.864
 3613SOL     OW11737   4.214   1.002   2.665
 3613SOL    HW111738   4.291   0.952   2.626
 3613SOL    HW211739   4.130   0.979   2.616
 3614SOL     OW11740   3.307   5.895   0.137
 3614SOL    HW111741   3.290   5.797   0.134
 3614SOL    HW211742   3.403   5.913   0.116
 3615SOL     OW11743   5.389   2.701   4.972
 3615SOL    HW111744   5.296   2.666   4.958
 3615SOL    HW211745   5.422   2.743   4.888
 3616SOL     OW11746   2.076   0.857   1.179
 3616SOL    HW111747   2.043   0.925   1.114
 3616SOL    HW211748   2.021   0.773   1.170
 3617SOL     OW11749   3.912   5.432   4.881
 3617SOL    HW111750   3.893   5.393   4.971
 3617SOL    HW211751   3.952   5.523   4.891
 3618SOL     OW11752   1.081   5.493   4.228
 3618SOL    HW111753   1.080   5.513   4.326
 3618SOL    HW211754   0.987   5.481   4.196
 3619SOL     OW11755   6.920   1.818   2.124
 3619SOL    HW111756   6.983   1.770   2.184
 3619SOL    HW211757   6.855   1.753   2.084
 3620SOL     OW11758   4.681   6.483   5.583
 3620SOL    HW111759   4.624   6.448   5.657
 3620SOL    HW211760   4.651   6.445   5.496
 3621SOL     OW11761   3.153   3.314   2.969
 3621SOL    HW111762   3.061   3.340   2.998
 3621SOL    HW211763   3.206   3.283   3.049
 3622SOL     OW11764   1.934   6.234   6.364
 3622SOL    HW111765   1.935   6.134   6.372
 3622SOL    HW211766   1.845   6.264   6.330
 3623SOL     OW11767   1.890   6.112   5.614
 3623SOL    HW111768   1.815   6.149   5.668
 3623SOL    HW211769   1.908   6.018   5.643
 3624SOL     OW11770   2.764   1.773   2.751
 3624SOL    HW111771   2.795   1.714   2.677
 3624SOL    HW211772   2.686   1.827   2.719
 3625SOL     OW11773   6.076   1.753   1.730
 3625SOL    HW111774   6.143   1.772   1.801
 3625SOL    HW211775   6.066   1.654   1.718
 3626SOL     OW11776   0.880   3.359   5.677
 3626SOL    HW111777   0.938   3.327   5.602
 3626SOL    HW211778   0.904   3.310   5.760
 3627SOL     OW11779   3.042   1.462   2.766
 3627SOL    HW111780   2.987   1.513   2.832
 3627SOL    HW211781   2.996   1.377   2.743
 3628SOL     OW11782   6.816   1.402   1.357
 3628SOL    HW111783   6.893   1.357   1.312
 3628SOL    HW211784   6.730   1.366   1.322
 3629SOL     OW11785   1.687   0.809   4.360
 3629SOL    HW111786   1.652   0.776   4.448
 3629SOL    HW211787   1.767   0.866   4.375
 3630SOL     OW11788   6.929   1.545   2.679
 3630SOL    HW111789   6.929   1.642   2.706
 3630SOL    HW211790   6.947   1.488   2.759
 3631SOL     OW11791   2.355   5.387   2.299
 3631SOL    HW111792   2.436   5.334   2.276
 3631SOL    HW211793   2.305   5.343   2.373
 3632SOL     OW11794   4.875   3.400   2.612
 3632SOL    HW111795   4.786   3.445   2.605
 3632SOL    HW211796   4.869   3.327   2.680
 3633SOL     OW11797   4.572   4.928   5.744
 3633SOL    HW111798   4.659   4.908   5.789
 3633SOL    HW211799   4.497   4.885   5.795
 3634SOL     OW11800   2.531   5.220   6.589
 3634SOL    HW111801   2.480   5.218   6.504
 3634SOL    HW211802   2.603   5.289   6.584
 3635SOL     OW11803   1.443   6.703   2.749
 3635SOL    HW111804   1.386   6.636   2.797
 3635SOL    HW211805   1.538   6.692   2.778
 3636SOL     OW11806   6.823   6.284   4.157
 3636SOL    HW111807   6.863   6.219   4.093
 3636SOL    HW211808   6.895   6.340   4.198
 3637SOL     OW11809   4.822   2.024   0.173
 3637SOL    HW111810   4.872   2.079   0.106
 3637SOL    HW211811   4.888   1.978   0.233
 3638SOL     OW11812   0.539   2.805   3.976
 3638SOL    HW111813   0.579   2.785   3.887
 3638SOL    HW211814   0.468   2.875   3.966
 3639SOL     OW11815   3.387   3.331   3.763
 3639SOL    HW111816   3.307   3.391   3.765
 3639SOL    HW211817   3.410   3.303   3.857
 3640SOL     OW11818   4.490   1.828   2.332
 3640SOL    HW111819   4.577   1.783   2.311
 3640SOL    HW211820   4.501   1.887   2.411
 3641SOL     OW11821   0.219   3.244   1.552
 3641SOL    HW111822   0.192   3.235   1.456
 3641SOL    HW211823   0.245   3.339   1.571
 3642SOL     OW11824   3.877   4.657   6.698
 3642SOL    HW111825   3.965   4.646   6.744
 3642SOL    HW211826   3.892   4.681   6.602
 3643SOL     OW11827   4.369   4.967   5.053
 3643SOL    HW111828   4.395   4.877   5.085
 3643SOL    HW211829   4.425   4.992   4.974
 3644SOL     OW11830   3.153   1.623   1.840
 3644SOL    HW111831   3.082   1.674   1.889
 3644SOL    HW211832   3.170   1.667   1.752
 3645SOL     OW11833   1.568   3.692   3.686
 3645SOL    HW111834   1.521   3.779   3.700
 3645SOL    HW211835   1.604   3.659   3.774
 3646SOL     OW11836   2.517   5.221   5.207
 3646SOL    HW111837   2.444   5.163   5.169
 3646SOL    HW211838   2.606   5.184   5.179
 3647SOL     OW11839   3.373   0.980   0.918
 3647SOL    HW111840   3.462   0.938   0.904
 3647SOL    HW211841   3.330   0.942   1.000
 3648SOL     OW11842   5.878   5.706   3.906
 3648SOL    HW111843   5.887   5.704   3.807
 3648SOL    HW211844   5.804   5.644   3.934
 3649SOL     OW11845   5.271   3.222   0.156
 3649SOL    HW111846   5.232   3.186   0.072
 3649SOL    HW211847   5.208   3.206   0.232
 3650SOL     OW11848   5.197   6.020   0.127
 3650SOL    HW111849   5.193   6.120   0.124
 3650SOL    HW211850   5.111   5.983   0.162
 3651SOL     OW11851   0.549   1.621   5.616
 3651SOL    HW111852   0.453   1.643   5.635
 3651SOL    HW211853   0.607   1.658   5.689
 3652SOL     OW11854   5.866   2.038   2.480
 3652SOL    HW111855   5.961   2.021   2.452
 3652SOL    HW211856   5.827   2.110   2.423
 3653SOL     OW11857   2.284   1.658   0.931
 3653SOL    HW111858   2.332   1.743   0.953
 3653SOL    HW211859   2.193   1.659   0.974
 3654SOL     OW11860   4.517   5.923   0.858
 3654SOL    HW111861   4.498   5.967   0.770
 3654SOL    HW211862   4.450   5.851   0.874
 3655SOL     OW11863   1.304   6.922   4.026
 3655SOL    HW111864   1.310   6.974   3.941
 3655SOL    HW211865   1.396   6.908   4.063
 3656SOL     OW11866   0.574   0.637   0.984
 3656SOL    HW111867   0.518   0.587   1.050
 3656SOL    HW211868   0.515   0.684   0.918
 3657SOL     OW11869   6.999   4.510   6.656
 3657SOL    HW111870   0.060   4.458   6.628
 3657SOL    HW211871   6.952   4.462   6.730
 3658SOL     OW11872   2.233   4.556   5.447
 3658SOL    HW111873   2.183   4.499   5.381
 3658SOL    HW211874   2.181   4.565   5.531
 3659SOL     OW11875   0.796   2.282   0.276
 3659SOL    HW111876   0.869   2.341   0.311
 3659SOL    HW211877   0.827   2.187   0.277
 3660SOL     OW11878   4.414   4.747   4.197
 3660SOL    HW111879   4.319   4.763   4.173
 3660SOL    HW211880   4.434   4.649   4.191
 3661SOL     OW11881   0.510   0.988   5.173
 3661SOL    HW111882   0.438   1.038   5.222
 3661SOL    HW211883   0.589   0.976   5.233
 3662SOL     OW11884   3.661   2.990   5.345
 3662SOL    HW111885   3.634   2.925   5.273
 3662SOL    HW211886   3.761   2.997   5.348
 3663SOL     OW11887   1.431   2.592   5.829
 3663SOL    HW111888   1.425   2.498   5.794
 3663SOL    HW211889   1.518   2.604   5.877
 3664SOL     OW11890   1.955   2.793   0.869
 3664SOL    HW111891   1.916   2.866   0.925
 3664SOL    HW211892   2.054   2.792   0.879
 3665SOL     OW11893   6.785   6.141   5.126
 3665SOL    HW111894   6.827   6.060   5.167
 3665SOL    HW211895   6.827   6.224   5.163
 3666SOL     OW11896   2.076   3.831   4.673
 3666SOL    HW111897   2.097   3.796   4.582
 3666SOL    HW211898   2.079   3.756   4.740
 3667SOL     OW11899   2.553   6.415   1.197
 3667SOL    HW111900   2.555   6.386   1.102
 3667SOL    HW211901   2.467   6.461   1.217
 3668SOL     OW11902   4.842   0.795   0.786
 3668SOL    HW111903   4.887   0.856   0.720
 3668SOL    HW211904   4.744   0.816   0.789
 3669SOL     OW11905   6.817   1.254   2.446
 3669SOL    HW111906   6.793   1.169   2.492
 3669SOL    HW211907   6.855   1.318   2.513
 3670SOL     OW11908   1.801   5.993   1.784
 3670SOL    HW111909   1.844   5.993   1.874
 3670SOL    HW211910   1.848   5.928   1.724
 3671SOL     OW11911   0.441   0.670   5.342
 3671SOL    HW111912   0.447   0.577   5.306
 3671SOL    HW211913   0.524   0.721   5.316
 3672SOL     OW11914   2.711   0.253   2.851
 3672SOL    HW111915   2.799   0.218   2.883
 3672SOL    HW211916   2.643   0.242   2.923
 3673SOL     OW11917   3.803   1.570   1.875
 3673SOL    HW111918   3.894   1.571   1.835
 3673SOL    HW211919   3.742   1.628   1.820
 3674SOL     OW11920   0.000   5.891   6.147
 3674SOL    HW111921   0.057   5.912   6.227
 3674SOL    HW211922   6.923   5.900   6.173
 3675SOL     OW11923   5.823   0.661   5.640
 3675SOL    HW111924   5.799   0.758   5.639
 3675SOL    HW211925   5.832   0.630   5.735
 3676SOL     OW11926   2.402   0.522   6.346
 3676SOL    HW111927   2.333   0.451   6.330
 3676SOL    HW211928   2.373   0.580   6.422
 3677SOL     OW11929   0.899   6.918   5.074
 3677SOL    HW111930   0.930   6.834   5.030
 3677SOL    HW211931   0.958   6.940   5.151
 3678SOL     OW11932   2.742   1.008   3.578
 3678SOL    HW111933   2.772   1.095   3.540
 3678SOL    HW211934   2.684   0.961   3.511
 3679SOL     OW11935   3.290   1.066   1.462
 3679SOL    HW111936   3.383   1.047   1.494
 3679SOL    HW211937   3.231   0.989   1.485
 3680SOL     OW11938   4.632   0.906   4.060
 3680SOL    HW111939   4.550   0.963   4.047
 3680SOL    HW211940   4.711   0.964   4.079
 3681SOL     OW11941   1.217   5.420   3.571
 3681SOL    HW111942   1.290   5.486   3.585
 3681SOL    HW211943   1.235   5.368   3.487
 3682SOL     OW11944   5.247   0.961   1.957
 3682SOL    HW111945   5.317   1.021   1.995
 3682SOL    HW211946   5.190   0.926   2.031
 3683SOL     OW11947   6.061   2.550   1.600
 3683SOL    HW111948   6.019   2.490   1.532
 3683SOL    HW211949   6.106   2.627   1.555
 3684SOL     OW11950   2.180   6.425   5.238
 3684SOL    HW111951   2.242   6.448   5.314
 3684SOL    HW211952   2.150   6.330   5.247
 3685SOL     OW11953   1.294   6.494   2.884
 3685SOL    HW111954   1.380   6.463   2.926
 3685SOL    HW211955   1.243   6.550   2.949
 3686SOL     OW11956   1.247   5.101   1.041
 3686SOL    HW111957   1.188   5.051   0.977
 3686SOL    HW211958   1.192   5.162   1.097
 3687SOL     OW11959   6.810   4.751   4.214
 3687SOL    HW111960   6.891   4.754   4.272
 3687SOL    HW211961   6.815   4.671   4.154
 3688SOL     OW11962   0.510   2.625   1.595
 3688SOL    HW111963   0.566   2.543   1.585
 3688SOL    HW211964   0.531   2.670   1.682
 3689SOL     OW11965   3.150   2.445   5.621
 3689SOL    HW111966   3.090   2.442   5.541
 3689SOL    HW211967   3.095   2.453   5.704
 3690SOL     OW11968   0.096   5.449   2.285
 3690SOL    HW111969   0.129   5.390   2.359
 3690SOL    HW211970   0.058   5.533   2.323
 3691SOL     OW11971   2.740   1.854   6.694
 3691SOL    HW111972   2.787   1.808   6.769
 3691SOL    HW211973   2.806   1.877   6.622
 3692SOL     OW11974   0.863   2.831   5.682
 3692SOL    HW111975   0.777   2.823   5.631
 3692SOL    HW211976   0.926   2.760   5.653
 3693SOL     OW11977   1.008   0.960   3.347
 3693SOL    HW111978   0.926   0.983   3.398
 3693SOL    HW211979   1.066   1.041   3.337
 3694SOL     OW11980   6.799   5.839   1.983
 3694SOL    HW111981   6.895   5.851   1.957
 3694SOL    HW211982   6.795   5.781   2.065
 3695SOL     OW11983   5.799   3.841   4.496
 3695SOL    HW111984   5.868   3.770   4.514
 3695SOL    HW211985   5.820   3.922   4.549
 3696SOL     OW11986   4.195   6.868   4.261
 3696SOL    HW111987   4.194   6.777   4.303
 3696SOL    HW211988   4.144   6.866   4.176
 3697SOL     OW11989   6.869   5.018   2.824
 3697SOL    HW111990   6.858   5.003   2.922
 3697SOL    HW211991   6.932   5.095   2.809
 3698SOL     OW11992   1.402   0.395   3.430
 3698SOL    HW111993   1.412   0.360   3.337
 3698SOL    HW211994   1.437   0.489   3.434
 3699SOL     OW11995   3.204   1.656   3.260
 3699SOL    HW111996   3.143   1.584   3.227
 3699SOL    HW211997   3.249   1.626   3.344
 3700SOL     OW11998   1.143   4.946   4.612
 3700SOL    HW111999   1.051   4.908   4.610
 3700SOL    HW212000   1.142   5.038   4.572
 3701SOL     OW12001   6.588   0.340   2.618
 3701SOL    HW112002   6.521   0.414   2.630
 3701SOL    HW212003   6.624   0.343   2.524
 3702SOL     OW12004   6.959   4.565   3.772
 3702SOL    HW112005   7.019   4.644   3.760
 3702SOL    HW212006   6.903   4.578   3.854
 3703SOL     OW12007   1.226   1.800   3.426
 3703SOL    HW112008   1.136   1.840   3.446
 3703SOL    HW212009   1.297   1.866   3.447
 3704SOL     OW12010   6.287   6.755   0.875
 3704SOL    HW112011   6.199   6.727   0.912
 3704SOL    HW212012   6.290   6.855   0.868
 3705SOL     OW12013   6.803   4.326   3.887
 3705SOL    HW112014   6.854   4.246   3.917
 3705SOL    HW212015   6.810   4.335   3.787
 3706SOL     OW12016   0.040   6.680   6.939
 3706SOL    HW112017   0.011   6.589   6.970
 3706SOL    HW212018   6.990   6.717   6.877
 3707SOL     OW12019   6.555   4.306   3.519
 3707SOL    HW112020   6.529   4.385   3.465
 3707SOL    HW212021   6.508   4.225   3.485
 3708SOL     OW12022   0.688   5.642   0.247
 3708SOL    HW112023   0.692   5.717   0.181
 3708SOL    HW212024   0.718   5.675   0.337
 3709SOL     OW12025   0.710   1.681   1.373
 3709SOL    HW112026   0.721   1.631   1.287
 3709SOL    HW212027   0.793   1.674   1.427
 3710SOL     OW12028   1.660   3.559   5.160
 3710SOL    HW112029   1.702   3.625   5.097
 3710SOL    HW212030   1.593   3.504   5.110
 3711SOL     OW12031   1.185   4.885   6.065
 3711SOL    HW112032   1.134   4.895   6.151
 3711SOL    HW212033   1.126   4.845   5.996
 3712SOL     OW12034   3.792   4.937   3.257
 3712SOL    HW112035   3.799   4.919   3.159
 3712SOL    HW212036   3.884   4.936   3.297
 3713SOL     OW12037   6.028   1.078   6.446
 3713SOL    HW112038   6.105   1.024   6.413
 3713SOL    HW212039   5.944   1.024   6.439
 3714SOL     OW12040   0.093   5.238   0.623
 3714SOL    HW112041   0.147   5.182   0.561
 3714SOL    HW212042   7.016   5.214   0.615
 3715SOL     OW12043   5.666   4.216   2.073
 3715SOL    HW112044   5.573   4.245   2.050
 3715SOL    HW212045   5.728   4.242   1.998
 3716SOL     OW12046   5.424   4.958   5.422
 3716SOL    HW112047   5.358   4.903   5.472
 3716SOL    HW212048   5.400   4.960   5.325
 3717SOL     OW12049   4.163   6.903   1.231
 3717SOL    HW112050   4.250   6.916   1.183
 3717SOL    HW212051   4.100   6.852   1.173
 3718SOL     OW12052   5.291   6.152   6.254
 3718SOL    HW112053   5.203   6.163   6.207
 3718SOL    HW212054   5.360   6.123   6.187
 3719SOL     OW12055   2.770   3.858   0.377
 3719SOL    HW112056   2.867   3.866   0.357
 3719SOL    HW212057   2.753   3.891   0.470
 3720SOL     OW12058   0.885   1.997   0.349
 3720SOL    HW112059   0.884   1.902   0.378
 3720SOL    HW212060   0.856   2.003   0.253
 3721SOL     OW12061   6.356   0.474   5.650
 3721SOL    HW112062   6.372   0.542   5.578
 3721SOL    HW212063   6.416   0.493   5.727
 3722SOL     OW12064   4.774   6.252   1.842
 3722SOL    HW112065   4.697   6.247   1.778
 3722SOL    HW212066   4.747   6.304   1.923
 3723SOL     OW12067   3.976   4.286   6.659
 3723SOL    HW112068   4.040   4.340   6.604
 3723SOL    HW212069   3.971   4.324   6.751
 3724SOL     OW12070   5.919   4.042   4.688
 3724SOL    HW112071   5.939   4.118   4.627
 3724SOL    HW212072   6.003   3.989   4.704
 3725SOL     OW12073   6.775   6.309   1.381
 3725SOL    HW112074   6.737   6.272   1.296
 3725SOL    HW212075   6.860   6.356   1.362
 3726SOL     OW12076   6.128   3.836   5.046
 3726SOL    HW112077   6.135   3.810   5.142
 3726SOL    HW212078   6.211   3.807   4.998
 3727SOL     OW12079   6.230   1.627   3.942
 3727SOL    HW112080   6.162   1.626   3.868
 3727SOL    HW212081   6.186   1.657   4.027
 3728SOL     OW12082   2.009   4.048   0.298
 3728SOL    HW112083   1.927   3.994   0.281
 3728SOL    HW212084   2.038   4.037   0.393
 3729SOL     OW12085   6.916   6.895   6.257
 3729SOL    HW112086   6.819   6.871   6.262
 3729SOL    HW212087   6.938   6.927   6.165
 3730SOL     OW12088   6.121   4.102   4.998
 3730SOL    HW112089   6.033   4.149   4.993
 3730SOL    HW212090   6.107   4.009   5.033
 3731SOL     OW12091   6.014   1.318   2.010
 3731SOL    HW112092   6.102   1.272   2.017
 3731SOL    HW212093   5.959   1.276   1.937
 3732SOL     OW12094   4.323   2.212   6.740
 3732SOL    HW112095   4.275   2.296   6.712
 3732SOL    HW212096   4.318   2.202   6.839
 3733SOL     OW12097   2.032   1.242   3.095
 3733SOL    HW112098   2.049   1.168   3.160
 3733SOL    HW212099   1.944   1.227   3.050
 3734SOL     OW12100   4.676   1.120   2.003
 3734SOL    HW112101   4.600   1.137   1.941
 3734SOL    HW212102   4.738   1.199   2.002
 3735SOL     OW12103   3.958   1.020   2.551
 3735SOL    HW112104   3.872   0.984   2.515
 3735SOL    HW212105   3.938   1.096   2.614
 3736SOL     OW12106   0.734   1.041   6.618
 3736SOL    HW112107   0.652   1.073   6.569
 3736SOL    HW212108   0.794   1.119   6.637
 3737SOL     OW12109   5.155   1.803   4.582
 3737SOL    HW112110   5.164   1.893   4.541
 3737SOL    HW212111   5.192   1.734   4.520
 3738SOL     OW12112   0.477   0.908   0.528
 3738SOL    HW112113   0.417   0.876   0.455
 3738SOL    HW212114   0.572   0.903   0.497
 3739SOL     OW12115   3.307   5.936   6.822
 3739SOL    HW112116   3.341   5.945   6.916
 3739SOL    HW212117   3.210   5.962   6.820
 3740SOL     OW12118   6.819   0.224   6.853
 3740SOL    HW112119   6.872   0.304   6.826
 3740SOL    HW212120   6.793   0.232   6.950
 3741SOL     OW12121   5.809   4.471   0.561
 3741SOL    HW112122   5.713   4.445   0.570
 3741SOL    HW212123   5.819   4.540   0.489
 3742SOL     OW12124   4.684   4.951   1.243
 3742SOL    HW112125   4.669   4.989   1.334
 3742SOL    HW212126   4.701   4.853   1.249
 3743SOL     OW12127   2.676   3.998   1.485
 3743SOL    HW112128   2.634   4.089   1.486
 3743SOL    HW212129   2.773   4.006   1.465
 3744SOL     OW12130   6.541   5.654   2.441
 3744SOL    HW112131   6.551   5.736   2.384
 3744SOL    HW212132   6.460   5.603   2.413
 3745SOL     OW12133   6.447   1.027   3.299
 3745SOL    HW112134   6.491   1.078   3.225
 3745SOL    HW212135   6.425   0.935   3.267
 3746SOL     OW12136   5.391   0.278   5.533
 3746SOL    HW112137   5.466   0.310   5.591
 3746SOL    HW212138   5.422   0.276   5.438
 3747SOL     OW12139   2.116   4.624   5.699
 3747SOL    HW112140   2.041   4.659   5.643
 3747SOL    HW212141   2.079   4.568   5.773
 3748SOL     OW12142   4.857   1.311   3.137
 3748SOL    HW112143   4.840   1.409   3.130
 3748SOL    HW212144   4.934   1.295   3.199
 3749SOL     OW12145   5.678   5.420   0.805
 3749SOL    HW112146   5.607   5.416   0.875
 3749SOL    HW212147   5.669   5.503   0.751
 3750SOL     OW12148   0.026   4.460   1.623
 3750SOL    HW112149   7.005   4.415   1.544
 3750SOL    HW212150   0.095   4.525   1.594
 3751SOL     OW12151   2.041   4.782   1.008
 3751SOL    HW112152   2.126   4.771   0.957
 3751SOL    HW212153   2.045   4.729   1.092
 3752SOL     OW12154   1.163   6.515   6.335
 3752SOL    HW112155   1.203   6.541   6.423
 3752SOL    HW212156   1.065   6.499   6.347
 3753SOL     OW12157   0.465   1.601   5.210
 3753SOL    HW112158   0.533   1.532   5.185
 3753SOL    HW212159   0.512   1.684   5.242
 3754SOL     OW12160   6.671   6.684   0.871
 3754SOL    HW112161   6.625   6.596   0.862
 3754SOL    HW212162   6.768   6.673   0.849
 3755SOL     OW12163   4.715   2.318   2.835
 3755SOL    HW112164   4.801   2.332   2.884
 3755SOL    HW212165   4.712   2.379   2.755
 3756SOL     OW12166   3.359   0.009   0.426
 3756SOL    HW112167   3.269   6.994   0.400
 3756SOL    HW212168   3.415   0.022   0.345
 3757SOL     OW12169   2.854   3.387   5.837
 3757SOL    HW112170   2.863   3.400   5.936
 3757SOL    HW212171   2.774   3.330   5.818
 3758SOL     OW12172   0.714   1.175   1.404
 3758SOL    HW112173   0.664   1.088   1.402
 3758SOL    HW212174   0.768   1.184   1.320
 3759SOL     OW12175   5.559   4.059   0.996
 3759SOL    HW112176   5.609   4.064   0.910
 3759SOL    HW212177   5.546   4.152   1.031
 3760SOL     OW12178   2.142   1.289   6.287
 3760SOL    HW112179   2.099   1.237   6.360
 3760SOL    HW212180   2.096   1.270   6.201
 3761SOL     OW12181   6.433   6.752   4.301
 3761SOL    HW112182   6.482   6.666   4.289
 3761SOL    HW212183   6.467   6.798   4.383
 3762SOL     OW12184   0.340   3.897   1.350
 3762SOL    HW112185   0.427   3.892   1.303
 3762SOL    HW212186   0.351   3.950   1.434
 3763SOL     OW12187   0.497   2.419   5.008
 3763SOL    HW112188   0.520   2.505   5.054
 3763SOL    HW212189   0.544   2.414   4.920
 3764SOL     OW12190   2.489   0.524   3.276
 3764SOL    HW112191   2.446   0.587   3.341
 3764SOL    HW212192   2.588   0.540   3.274
 3765SOL     OW12193   6.405   1.556   3.709
 3765SOL    HW112194   6.364   1.488   3.770
 3765SOL    HW212195   6.503   1.562   3.728
 3766SOL     OW12196   2.009   1.360   4.795
 3766SOL    HW112197   1.974   1.269   4.819
 3766SOL    HW212198   2.087   1.382   4.854
 3767SOL     OW12199   6.543   4.423   1.654
 3767SOL    HW112200   6.450   4.451   1.675
 3767SOL    HW212201   6.607   4.470   1.716
 3768SOL     OW12202   4.512   6.665   1.363
 3768SOL    HW112203   4.460   6.582   1.344
 3768SOL    HW212204   4.548   6.661   1.457
 3769SOL     OW12205   4.019   6.817   4.557
 3769SOL    HW112206   4.007   6.901   4.611
 3769SOL    HW212207   4.117   6.801   4.543
 3770SOL     OW12208   1.272   2.956   0.675
 3770SOL    HW112209   1.284   2.903   0.591
 3770SOL    HW212210   1.342   3.027   0.680
 3771SOL     OW12211   5.097   1.676   5.135
 3771SOL    HW112212   5.176   1.733   5.156
 3771SOL    HW212213   5.058   1.641   5.220
 3772SOL     OW12214   5.217   0.896   2.970
 3772SOL    HW112215   5.250   0.906   3.064
 3772SOL    HW212216   5.118   0.904   2.969
 3773SOL     OW12217   6.297   2.699   1.253
 3773SOL    HW112218   6.217   2.754   1.279
 3773SOL    HW212219   6.280   2.603   1.277
 3774SOL     OW12220   2.208   1.049   1.800
 3774SOL    HW112221   2.121   1.075   1.759
 3774SOL    HW212222   2.197   1.036   1.898
 3775SOL     OW12223   5.218   2.965   3.644
 3775SOL    HW112224   5.168   2.913   3.574
 3775SOL    HW212225   5.314   2.973   3.618
 3776SOL     OW12226   3.179   1.804   0.099
 3776SOL    HW112227   3.198   1.774   0.006
 3776SOL    HW212228   3.261   1.844   0.139
 3777SOL     OW12229   1.499   4.116   3.418
 3777SOL    HW112230   1.456   4.068   3.494
 3777SOL    HW212231   1.598   4.124   3.435
 3778SOL     OW12232   2.215   0.509   1.836
 3778SOL    HW112233   2.177   0.448   1.766
 3778SOL    HW212234   2.246   0.593   1.793
 3779SOL     OW12235   1.990   3.575   0.285
 3779SOL    HW112236   2.011   3.477   0.285
 3779SOL    HW212237   1.960   3.603   0.194
 3780SOL     OW12238   2.563   0.468   4.082
 3780SOL    HW112239   2.603   0.398   4.023
 3780SOL    HW212240   2.636   0.525   4.119
 3781SOL     OW12241   3.256   4.928   4.850
 3781SOL    HW112242   3.276   4.861   4.921
 3781SOL    HW212243   3.340   4.952   4.801
 3782SOL     OW12244   2.939   0.845   2.205
 3782SOL    HW112245   2.958   0.810   2.297
 3782SOL    HW212246   3.002   0.804   2.140
 3783SOL     OW12247   5.453   4.357   5.770
 3783SOL    HW112248   5.392   4.399   5.703
 3783SOL    HW212249   5.548   4.375   5.744
 3784SOL     OW12250   4.970   2.807   4.846
 3784SOL    HW112251   4.893   2.796   4.783
 3784SOL    HW212252   5.054   2.775   4.801
 3785SOL     OW12253   0.145   0.401   1.814
 3785SOL    HW112254   0.098   0.489   1.818
 3785SOL    HW212255   0.224   0.402   1.876
 3786SOL     OW12256   2.656   5.907   1.335
 3786SOL    HW112257   2.566   5.948   1.346
 3786SOL    HW212258   2.662   5.823   1.390
 3787SOL     OW12259   3.761   1.335   3.377
 3787SOL    HW112260   3.715   1.323   3.290
 3787SOL    HW212261   3.806   1.250   3.403
 3788SOL     OW12262   0.367   3.028   2.997
 3788SOL    HW112263   0.413   2.946   3.030
 3788SOL    HW212264   0.291   3.051   3.057
 3789SOL     OW12265   1.820   5.171   2.148
 3789SOL    HW112266   1.918   5.157   2.139
 3789SOL    HW212267   1.778   5.169   2.057
 3790SOL     OW12268   2.043   3.484   2.772
 3790SOL    HW112269   2.048   3.459   2.869
 3790SOL    HW212270   2.096   3.567   2.756
 3791SOL     OW12271   6.699   0.349   2.350
 3791SOL    HW112272   6.778   0.335   2.291
 3791SOL    HW212273   6.637   0.415   2.308
 3792SOL     OW12274   1.414   5.248   5.882
 3792SOL    HW112275   1.367   5.317   5.937
 3792SOL    HW212276   1.497   5.288   5.842
 3793SOL     OW12277   6.275   5.899   2.443
 3793SOL    HW112278   6.269   5.895   2.343
 3793SOL    HW212279   6.291   5.807   2.479
 3794SOL     OW12280   4.281   0.199   4.864
 3794SOL    HW112281   4.269   0.276   4.927
 3794SOL    HW212282   4.300   0.234   4.772
 3795SOL     OW12283   5.527   0.737   0.549
 3795SOL    HW112284   5.479   0.748   0.462
 3795SOL    HW212285   5.476   0.672   0.606
 3796SOL     OW12286   0.400   2.216   1.538
 3796SOL    HW112287   0.464   2.294   1.541
 3796SOL    HW212288   0.440   2.139   1.588
 3797SOL     OW12289   6.278   5.935   2.170
 3797SOL    HW112290   6.214   5.898   2.102
 3797SOL    HW212291   6.371   5.930   2.134
 3798SOL     OW12292   1.395   4.653   0.073
 3798SOL    HW112293   1.432   4.596   0.147
 3798SOL    HW212294   1.295   4.646   0.072
 3799SOL     OW12295   0.242   1.067   5.320
 3799SOL    HW112296   0.253   0.985   5.377
 3799SOL    HW212297   0.199   1.042   5.233
 3800SOL     OW12298   4.528   2.398   5.191
 3800SOL    HW112299   4.591   2.334   5.235
 3800SOL    HW212300   4.573   2.487   5.182
 3801SOL     OW12301   6.960   0.679   5.560
 3801SOL    HW112302   6.860   0.681   5.568
 3801SOL    HW212303   6.987   0.599   5.506
 3802SOL     OW12304   1.668   2.239   5.062
 3802SOL    HW112305   1.578   2.281   5.073
 3802SOL    HW212306   1.658   2.139   5.067
 3803SOL     OW12307   4.509   1.114   1.286
 3803SOL    HW112308   4.569   1.127   1.366
 3803SOL    HW212309   4.421   1.157   1.304
 3804SOL     OW12310   5.111   4.275   4.743
 3804SOL    HW112311   5.075   4.204   4.683
 3804SOL    HW212312   5.149   4.349   4.688
 3805SOL     OW12313   2.149   2.977   1.334
 3805SOL    HW112314   2.050   2.967   1.329
 3805SOL    HW212315   2.178   2.973   1.429
 3806SOL     OW12316   4.256   0.256   1.090
 3806SOL    HW112317   4.241   0.255   1.189
 3806SOL    HW212318   4.191   0.195   1.045
 3807SOL     OW12319   1.574   6.999   2.722
 3807SOL    HW112320   1.671   6.992   2.746
 3807SOL    HW212321   1.536   6.907   2.711
 3808SOL     OW12322   3.780   1.087   0.855
 3808SOL    HW112323   3.866   1.091   0.804
 3808SOL    HW212324   3.719   1.019   0.814
 3809SOL     OW12325   3.690   1.018   0.539
 3809SOL    HW112326   3.598   1.011   0.577
 3809SOL    HW212327   3.738   0.931   0.550
 3810SOL     OW12328   1.033   3.130   6.862
 3810SOL    HW112329   1.019   3.123   6.960
 3810SOL    HW212330   1.103   3.199   6.842
 3811SOL     OW12331   6.546   0.804   5.401
 3811SOL    HW112332   6.473   0.770   5.340
 3811SOL    HW212333   6.509   0.816   5.493
 3812SOL     OW12334   4.118   0.074   5.704
 3812SOL    HW112335   4.030   0.114   5.730
 3812SOL    HW212336   4.102   7.009   5.654
 3813SOL     OW12337   3.648   5.020   1.889
 3813SOL    HW112338   3.615   4.935   1.930
 3813SOL    HW212339   3.745   5.032   1.912
 3814SOL     OW12340   1.320   6.942   1.439
 3814SOL    HW112341   1.367   7.004   1.502
 3814SOL    HW212342   1.270   6.873   1.492
 3815SOL     OW12343   4.927   1.933   2.263
 3815SOL    HW112344   4.910   1.928   2.362
 3815SOL    HW212345   4.881   2.014   2.226
 3816SOL     OW12346   0.069   5.363   0.867
 3816SOL    HW112347   0.036   5.281   0.914
 3816SOL    HW212348   0.070   5.347   0.768
 3817SOL     OW12349   5.816   1.922   5.057
 3817SOL    HW112350   5.840   1.825   5.049
 3817SOL    HW212351   5.732   1.940   5.004
 3818SOL     OW12352   3.744   0.065   2.965
 3818SOL    HW112353   3.813   0.020   3.022
 3818SOL    HW212354   3.653   0.037   2.995
 3819SOL     OW12355   5.828   3.606   6.378
 3819SOL    HW112356   5.810   3.541   6.452
 3819SOL    HW212357   5.927   3.624   6.373
 3820SOL     OW12358   3.921   6.516   3.443
 3820SOL    HW112359   3.933   6.441   3.508
 3820SOL    HW212360   4.009   6.537   3.400
 3821SOL     OW12361   1.524   4.322   1.742
 3821SOL    HW112362   1.446   4.340   1.803
 3821SOL    HW212363   1.496   4.257   1.671
 3822SOL     OW12364   1.008   3.496   1.884
 3822SOL    HW112365   1.044   3.476   1.793
 3822SOL    HW212366   1.078   3.545   1.937
 3823SOL     OW12367   2.056   3.612   5.105
 3823SOL    HW112368   2.099   3.702   5.111
 3823SOL    HW212369   1.992   3.601   5.181
 3824SOL     OW12370   0.248   3.226   6.206
 3824SOL    HW112371   0.197   3.141   6.191
 3824SOL    HW212372   0.341   3.204   6.238
 3825SOL     OW12373   0.638   5.776   6.594
 3825SOL    HW112374   0.674   5.816   6.678
 3825SOL    HW212375   0.630   5.848   6.524
 3826SOL     OW12376   0.064   1.326   1.560
 3826SOL    HW112377   0.069   1.426   1.567
 3826SOL    HW212378   6.999   1.294   1.602
 3827SOL     OW12379   4.256   1.651   1.679
 3827SOL    HW112380   4.314   1.723   1.718
 3827SOL    HW212381   4.288   1.631   1.586
 3828SOL     OW12382   3.795   1.506   0.816
 3828SOL    HW112383   3.814   1.604   0.827
 3828SOL    HW212384   3.709   1.494   0.767
 3829SOL     OW12385   1.018   5.285   3.686
 3829SOL    HW112386   1.053   5.193   3.703
 3829SOL    HW212387   1.083   5.335   3.629
 3830SOL     OW12388   1.858   6.868   6.065
 3830SOL    HW112389   1.797   6.926   6.012
 3830SOL    HW212390   1.926   6.925   6.111
 3831SOL     OW12391   4.852   2.368   2.344
 3831SOL    HW112392   4.906   2.384   2.261
 3831SOL    HW212393   4.777   2.306   2.323
 3832SOL     OW12394   6.336   6.929   2.578
 3832SOL    HW112395   6.340   6.844   2.630
 3832SOL    HW212396   6.428   6.969   2.572
 3833SOL     OW12397   1.080   6.076   1.938
 3833SOL    HW112398   1.147   6.092   1.866
 3833SOL    HW212399   0.990   6.060   1.896
 3834SOL     OW12400   2.960   2.469   0.475
 3834SOL    HW112401   2.993   2.377   0.497
 3834SOL    HW212402   3.010   2.504   0.396
 3835SOL     OW12403   3.780   4.913   2.985
 3835SOL    HW112404   3.780   4.851   2.907
 3835SOL    HW212405   3.864   4.968   2.984
 3836SOL     OW12406   1.607   2.336   6.423
 3836SOL    HW112407   1.661   2.336   6.339
 3836SOL    HW212408   1.514   2.366   6.403
 3837SOL     OW12409   3.675   4.324   6.901
 3837SOL    HW112410   3.614   4.280   6.835
 3837SOL    HW212411   3.655   4.422   6.905
 3838SOL     OW12412   0.204   3.502   5.374
 3838SOL    HW112413   0.186   3.415   5.419
 3838SOL    HW212414   0.118   3.549   5.356
 3839SOL     OW12415   0.407   6.410   6.883
 3839SOL    HW112416   0.504   6.424   6.861
 3839SOL    HW212417   0.389   6.442   6.976
 3840SOL     OW12418   3.715   1.743   3.365
 3840SOL    HW112419   3.649   1.769   3.294
 3840SOL    HW212420   3.795   1.700   3.322
 3841SOL     OW12421   1.772   2.929   3.904
 3841SOL    HW112422   1.749   2.985   3.984
 3841SOL    HW212423   1.761   2.983   3.821
 3842SOL     OW12424   1.355   4.961   0.422
 3842SOL    HW112425   1.371   4.948   0.325
 3842SOL    HW212426   1.288   4.895   0.455
 3843SOL     OW12427   0.074   5.238   0.216
 3843SOL    HW112428   0.110   5.250   0.124
 3843SOL    HW212429   7.013   5.295   0.228
 3844SOL     OW12430   2.738   4.349   5.834
 3844SOL    HW112431   2.686   4.382   5.755
 3844SOL    HW212432   2.692   4.270   5.874
 3845SOL     OW12433   3.232   4.096   4.899
 3845SOL    HW112434   3.220   4.072   4.803
 3845SOL    HW212435   3.326   4.125   4.915
 3846SOL     OW12436   6.920   4.277   4.254
 3846SOL    HW112437   6.996   4.217   4.230
 3846SOL    HW212438   6.890   4.259   4.348
 3847SOL     OW12439   0.982   6.399   1.188
 3847SOL    HW112440   1.039   6.329   1.143
 3847SOL    HW212441   1.003   6.489   1.149
 3848SOL     OW12442   2.212   6.099   2.257
 3848SOL    HW112443   2.181   6.193   2.271
 3848SOL    HW212444   2.207   6.077   2.159
 3849SOL     OW12445   2.608   1.274   4.605
 3849SOL    HW112446   2.560   1.217   4.671
 3849SOL    HW212447   2.562   1.269   4.516
 3850SOL     OW12448   1.774   2.803   1.784
 3850SOL    HW112449   1.818   2.864   1.850
 3850SOL    HW212450   1.677   2.793   1.807
 3851SOL     OW12451   2.533   2.837   0.206
 3851SOL    HW112452   2.588   2.901   0.152
 3851SOL    HW212453   2.443   2.825   0.163
 3852SOL     OW12454   4.495   0.957   5.538
 3852SOL    HW112455   4.396   0.959   5.527
 3852SOL    HW212456   4.522   0.873   5.585
 3853SOL     OW12457   0.214   3.340   1.874
 3853SOL    HW112458   0.237   3.401   1.799
 3853SOL    HW212459   0.297   3.312   1.922
 3854SOL     OW12460   1.371   3.984   4.122
 3854SOL    HW112461   1.313   3.988   4.203
 3854SOL    HW212462   1.336   3.914   4.059
 3855SOL     OW12463   6.596   2.473   5.051
 3855SOL    HW112464   6.625   2.522   4.969
 3855SOL    HW212465   6.642   2.513   5.131
 3856SOL     OW12466   1.054   6.409   5.923
 3856SOL    HW112467   0.963   6.421   5.963
 3856SOL    HW212468   1.075   6.311   5.917
 3857SOL     OW12469   0.388   0.681   6.386
 3857SOL    HW112470   0.328   0.685   6.306
 3857SOL    HW212471   0.408   0.585   6.407
 3858SOL     OW12472   3.539   5.234   6.630
 3858SOL    HW112473   3.626   5.212   6.674
 3858SOL    HW212474   3.531   5.333   6.618
 3859SOL     OW12475   0.383   2.499   2.737
 3859SOL    HW112476   0.388   2.429   2.666
 3859SOL    HW212477   0.399   2.457   2.827
 3860SOL     OW12478   2.190   6.090   4.731
 3860SOL    HW112479   2.188   6.124   4.825
 3860SOL    HW212480   2.101   6.109   4.688
 3861SOL     OW12481   3.488   3.831   0.217
 3861SOL    HW112482   3.412   3.893   0.198
 3861SOL    HW212483   3.455   3.753   0.270
 3862SOL     OW12484   0.358   6.409   5.425
 3862SOL    HW112485   0.438   6.350   5.440
 3862SOL    HW212486   0.275   6.355   5.438
 3863SOL     OW12487   2.194   3.061   0.788
 3863SOL    HW112488   2.269   2.996   0.778
 3863SOL    HW212489   2.152   3.050   0.878
 3864SOL     OW12490   3.500   1.798   2.077
 3864SOL    HW112491   3.493   1.726   2.009
 3864SOL    HW212492   3.486   1.887   2.034
 3865SOL     OW12493   4.524   0.920   2.122
 3865SOL    HW112494   4.469   1.001   2.141
 3865SOL    HW212495   4.605   0.946   2.070
 3866SOL     OW12496   4.524   6.567   5.955
 3866SOL    HW112497   4.519   6.506   5.876
 3866SOL    HW212498   4.444   6.627   5.956
 3867SOL     OW12499   2.512   5.334   2.842
 3867SOL    HW112500   2.440   5.398   2.870
 3867SOL    HW212501   2.471   5.253   2.801
 3868SOL     OW12502   2.720   5.346   2.392
 3868SOL    HW112503   2.661   5.302   2.324
 3868SOL    HW212504   2.664   5.386   2.464
 3869SOL     OW12505   1.418   1.456   3.222
 3869SOL    HW112506   1.336   1.485   3.173
 3869SOL    HW212507   1.457   1.375   3.178
 3870SOL     OW12508   3.744   3.682   0.650
 3870SOL    HW112509   3.764   3.763   0.705
 3870SOL    HW212510   3.771   3.699   0.555
 3871SOL     OW12511   2.075   0.579   5.203
 3871SOL    HW112512   2.086   0.495   5.256
 3871SOL    HW212513   2.079   0.658   5.265
 3872SOL     OW12514   4.923   4.127   0.028
 3872SOL    HW112515   4.875   4.040   0.026
 3872SOL    HW212516   5.005   4.122   6.990
 3873SOL     OW12517   6.180   4.983   1.708
 3873SOL    HW112518   6.199   4.910   1.774
 3873SOL    HW212519   6.262   5.040   1.698
 3874SOL     OW12520   5.573   6.400   5.383
 3874SOL    HW112521   5.569   6.350   5.470
 3874SOL    HW212522   5.636   6.477   5.392
 3875SOL     OW12523   3.159   3.337   0.673
 3875SOL    HW112524   3.209   3.251   0.671
 3875SOL    HW212525   3.061   3.319   0.683
 3876SOL     OW12526   5.559   4.309   3.176
 3876SOL    HW112527   5.519   4.252   3.104
 3876SOL    HW212528   5.529   4.275   3.266
 3877SOL     OW12529   4.964   2.519   2.103
 3877SOL    HW112530   5.056   2.558   2.104
 3877SOL    HW212531   4.939   2.496   2.008
 3878SOL     OW12532   6.392   5.255   5.255
 3878SOL    HW112533   6.364   5.274   5.161
 3878SOL    HW212534   6.486   5.287   5.269
 3879SOL     OW12535   1.891   6.664   0.806
 3879SOL    HW112536   1.918   6.675   0.901
 3879SOL    HW212537   1.881   6.754   0.763
 3880SOL     OW12538   5.559   1.912   4.514
 3880SOL    HW112539   5.597   1.882   4.427
 3880SOL    HW212540   5.605   1.865   4.589
 3881SOL     OW12541   0.107   6.222   5.904
 3881SOL    HW112542   0.199   6.259   5.890
 3881SOL    HW212543   0.112   6.122   5.904
 3882SOL     OW12544   6.985   5.677   0.208
 3882SOL    HW112545   6.899   5.633   0.180
 3882SOL    HW212546   0.002   5.629   0.288
 3883SOL     OW12547   4.087   2.079   0.723
 3883SOL    HW112548   4.156   2.092   0.652
 3883SOL    HW212549   4.098   2.149   0.794
 3884SOL     OW12550   3.005   6.147   6.256
 3884SOL    HW112551   2.944   6.226   6.256
 3884SOL    HW212552   3.010   6.110   6.163
 3885SOL     OW12553   1.160   1.559   4.153
 3885SOL    HW112554   1.083   1.562   4.217
 3885SOL    HW212555   1.225   1.489   4.182
 3886SOL     OW12556   6.781   5.822   4.445
 3886SOL    HW112557   6.789   5.918   4.473
 3886SOL    HW212558   6.768   5.817   4.346
 3887SOL     OW12559   0.414   2.890   4.785
 3887SOL    HW112560   0.511   2.894   4.811
 3887SOL    HW212561   0.404   2.837   4.701
 3888SOL     OW12562   4.527   2.136   3.364
 3888SOL    HW112563   4.619   2.175   3.355
 3888SOL    HW212564   4.504   2.084   3.282
 3889SOL     OW12565   6.308   5.459   0.214
 3889SOL    HW112566   6.341   5.520   0.286
 3889SOL    HW212567   6.227   5.498   0.172
 3890SOL     OW12568   5.844   2.954   3.722
 3890SOL    HW112569   5.832   2.857   3.744
 3890SOL    HW212570   5.777   3.009   3.772
 3891SOL     OW12571   3.502   4.619   6.439
 3891SOL    HW112572   3.571   4.611   6.367
 3891SOL    HW212573   3.435   4.545   6.430
 3892SOL     OW12574   5.286   5.770   4.498
 3892SOL    HW112575   5.216   5.807   4.437
 3892SOL    HW212576   5.259   5.784   4.593
 3893SOL     OW12577   2.881   6.129   4.837
 3893SOL    HW112578   2.867   6.032   4.855
 3893SOL    HW212579   2.846   6.151   4.746
 3894SOL     OW12580   5.338   5.045   6.420
 3894SOL    HW112581   5.320   5.141   6.398
 3894SOL    HW212582   5.421   5.039   6.475
 3895SOL     OW12583   1.444   1.788   4.966
 3895SOL    HW112584   1.442   1.689   4.979
 3895SOL    HW212585   1.370   1.830   5.019
 3896SOL     OW12586   6.094   3.220   1.480
 3896SOL    HW112587   6.096   3.151   1.408
 3896SOL    HW212588   6.130   3.181   1.565
 3897SOL     OW12589   2.550   0.732   2.826
 3897SOL    HW112590   2.492   0.744   2.745
 3897SOL    HW212591   2.501   0.765   2.907
 3898SOL     OW12592   3.416   3.988   2.504
 3898SOL    HW112593   3.343   4.037   2.457
 3898SOL    HW212594   3.461   4.049   2.569
 3899SOL     OW12595   4.309   0.933   6.344
 3899SOL    HW112596   4.257   0.851   6.322
 3899SOL    HW212597   4.278   1.009   6.286
 3900SOL     OW12598   1.410   2.071   4.084
 3900SOL    HW112599   1.390   2.107   3.993
 3900SOL    HW212600   1.368   2.130   4.153
 3901SOL     OW12601   4.264   6.735   4.492
 3901SOL    HW112602   4.328   6.658   4.489
 3901SOL    HW212603   4.293   6.800   4.563
 3902SOL     OW12604   3.304   4.956   3.325
 3902SOL    HW112605   3.235   4.967   3.254
 3902SOL    HW212606   3.380   5.019   3.308
 3903SOL     OW12607   2.577   4.112   5.884
 3903SOL    HW112608   2.588   4.049   5.808
 3903SOL    HW212609   2.487   4.155   5.879
 3904SOL     OW12610   1.965   6.197   0.829
 3904SOL    HW112611   1.952   6.115   0.772
 3904SOL    HW212612   2.006   6.269   0.773
 3905SOL     OW12613   4.753   6.473   4.914
 3905SOL    HW112614   4.817   6.518   4.852
 3905SOL    HW212615   4.659   6.500   4.889
 3906SOL     OW12616   6.853   5.719   3.789
 3906SOL    HW112617   6.765   5.764   3.801
 3906SOL    HW212618   6.925   5.772   3.835
 3907SOL     OW12619   1.443   0.537   4.556
 3907SOL    HW112620   1.354   0.550   4.513
 3907SOL    HW212621   1.432   0.487   4.642
 3908SOL     OW12622   2.688   1.748   4.768
 3908SOL    HW112623   2.770   1.771   4.820
 3908SOL    HW212624   2.714   1.708   4.681
 3909SOL     OW12625   6.497   2.968   2.562
 3909SOL    HW112626   6.532   2.901   2.628
 3909SOL    HW212627   6.498   3.059   2.602
 3910SOL     OW12628   1.593   2.246   0.089
 3910SOL    HW112629   1.596   2.234   7.009
 3910SOL    HW212630   1.584   2.157   0.133
 3911SOL     OW12631   6.402   0.719   1.906
 3911SOL    HW112632   6.344   0.671   1.972
 3911SOL    HW212633   6.347   0.785   1.854
 3912SOL     OW12634   4.718   4.549   0.762
 3912SOL    HW112635   4.812   4.581   0.775
 3912SOL    HW212636   4.719   4.451   0.743
 3913SOL     OW12637   3.976   4.304   0.796
 3913SOL    HW112638   4.072   4.332   0.788
 3913SOL    HW212639   3.956   4.231   0.731
 3914SOL     OW12640   0.580   0.556   0.417
 3914SOL    HW112641   0.644   0.630   0.437
 3914SOL    HW212642   0.541   0.569   0.326
 3915SOL     OW12643   5.478   0.176   4.043
 3915SOL    HW112644   5.536   0.178   3.962
 3915SOL    HW212645   5.488   0.263   4.093
 3916SOL     OW12646   1.710   2.586   2.152
 3916SOL    HW112647   1.664   2.660   2.201
 3916SOL    HW212648   1.808   2.591   2.169
 3917SOL     OW12649   2.853   5.518   1.844
 3917SOL    HW112650   2.891   5.608   1.822
 3917SOL    HW212651   2.812   5.520   1.935
 3918SOL     OW12652   3.986   6.629   6.877
 3918SOL    HW112653   3.889   6.612   6.893
 3918SOL    HW212654   4.006   6.619   6.779
 3919SOL     OW12655   5.025   4.659   3.418
 3919SOL    HW112656   5.098   4.659   3.485
 3919SOL    HW212657   4.936   4.666   3.464
 3920SOL     OW12658   4.540   0.463   5.466
 3920SOL    HW112659   4.465   0.444   5.530
 3920SOL    HW212660   4.597   0.381   5.458
 3921SOL     OW12661   1.385   4.217   5.450
 3921SOL    HW112662   1.419   4.160   5.375
 3921SOL    HW212663   1.299   4.179   5.484
 3922SOL     OW12664   5.310   1.424   3.920
 3922SOL    HW112665   5.402   1.384   3.925
 3922SOL    HW212666   5.248   1.370   3.977
 3923SOL     OW12667   5.817   1.088   1.444
 3923SOL    HW112668   5.799   0.993   1.418
 3923SOL    HW212669   5.737   1.125   1.493
 3924SOL     OW12670   5.599   4.741   4.171
 3924SOL    HW112671   5.591   4.732   4.072
 3924SOL    HW212672   5.663   4.815   4.193
 3925SOL     OW12673   3.383   4.810   1.658
 3925SOL    HW112674   3.458   4.781   1.718
 3925SOL    HW212675   3.298   4.767   1.688
 3926SOL     OW12676   0.670   6.149   4.964
 3926SOL    HW112677   0.760   6.167   4.926
 3926SOL    HW212678   0.629   6.070   4.918
 3927SOL     OW12679   6.336   6.324   5.130
 3927SOL    HW112680   6.369   6.230   5.144
 3927SOL    HW212681   6.281   6.352   5.209
 3928SOL     OW12682   4.411   5.242   1.811
 3928SOL    HW112683   4.498   5.250   1.861
 3928SOL    HW212684   4.342   5.301   1.854
 3929SOL     OW12685   2.014   0.436   5.474
 3929SOL    HW112686   2.022   0.379   5.556
 3929SOL    HW212687   1.922   0.427   5.436
 3930SOL     OW12688   1.695   5.472   4.416
 3930SOL    HW112689   1.631   5.543   4.386
 3930SOL    HW212690   1.669   5.385   4.373
 3931SOL     OW12691   0.101   2.240   0.526
 3931SOL    HW112692   0.033   2.309   0.553
 3931SOL    HW212693   0.192   2.283   0.523
 3932SOL     OW12694   1.722   4.737   2.874
 3932SOL    HW112695   1.770   4.792   2.806
 3932SOL    HW212696   1.783   4.664   2.906
 3933SOL     OW12697   0.649   6.983   1.325
 3933SOL    HW112698   0.603   0.052   1.329
 3933SOL    HW212699   0.582   6.910   1.334
 3934SOL     OW12700   0.650   6.721   1.703
 3934SOL    HW112701   0.673   6.623   1.706
 3934SOL    HW212702   0.599   6.741   1.619
 3935SOL     OW12703   6.852   1.367   5.005
 3935SOL    HW112704   6.937   1.322   5.032
 3935SOL    HW212705   6.862   1.466   5.017
 3936SOL     OW12706   6.487   4.752   4.677
 3936SOL    HW112707   6.389   4.771   4.669
 3936SOL    HW212708   6.502   4.684   4.749
 3937SOL     OW12709   1.513   5.757   6.645
 3937SOL    HW112710   1.552   5.666   6.662
 3937SOL    HW212711   1.520   5.812   6.728
 3938SOL     OW12712   1.219   4.494   6.652
 3938SOL    HW112713   1.207   4.585   6.612
 3938SOL    HW212714   1.209   4.425   6.581
 3939SOL     OW12715   1.323   5.487   4.502
 3939SOL    HW112716   1.321   5.407   4.441
 3939SOL    HW212717   1.230   5.517   4.520
 3940SOL     OW12718   2.331   6.175   6.784
 3940SOL    HW112719   2.312   6.080   6.808
 3940SOL    HW212720   2.259   6.234   6.821
 3941SOL     OW12721   5.898   4.804   3.516
 3941SOL    HW112722   5.997   4.818   3.504
 3941SOL    HW212723   5.860   4.762   3.435
 3942SOL     OW12724   0.745   7.007   0.300
 3942SOL    HW112725   0.657   6.966   0.323
 3942SOL    HW212726   0.787   6.956   0.225
 3943SOL     OW12727   0.926   4.616   0.629
 3943SOL    HW112728   0.876   4.599   0.715
 3943SOL    HW212729   0.879   4.569   0.554
 3944SOL     OW12730   5.949   2.698   0.747
 3944SOL    HW112731   5.989   2.633   0.810
 3944SOL    HW212732   5.888   2.760   0.796
 3945SOL     OW12733   0.821   0.529   3.052
 3945SOL    HW112734   0.848   0.586   2.975
 3945SOL    HW212735   0.749   0.575   3.104
 3946SOL     OW12736   4.781   0.902   1.133
 3946SOL    HW112737   4.768   0.803   1.128
 3946SOL    HW212738   4.710   0.949   1.081
 3947SOL     OW12739   5.233   0.393   1.087
 3947SOL    HW112740   5.144   0.432   1.063
 3947SOL    HW212741   5.238   0.299   1.054
 3948SOL     OW12742   1.893   1.490   3.571
 3948SOL    HW112743   1.829   1.467   3.498
 3948SOL    HW212744   1.954   1.563   3.540
 3949SOL     OW12745   6.133   6.619   2.415
 3949SOL    HW112746   6.038   6.592   2.405
 3949SOL    HW212747   6.142   6.717   2.401
 3950SOL     OW12748   2.343   4.845   1.688
 3950SOL    HW112749   2.279   4.768   1.696
 3950SOL    HW212750   2.299   4.928   1.722
 3951SOL     OW12751   0.020   3.233   3.091
 3951SOL    HW112752   0.085   3.184   3.148
 3951SOL    HW212753   0.037   3.211   2.995
 3952SOL     OW12754   5.592   5.422   6.987
 3952SOL    HW112755   5.533   5.502   6.982
 3952SOL    HW212756   5.647   5.416   6.903
 3953SOL     OW12757   3.461   3.130   4.775
 3953SOL    HW112758   3.414   3.139   4.863
 3953SOL    HW212759   3.508   3.216   4.754
 3954SOL     OW12760   0.815   5.378   6.384
 3954SOL    HW112761   0.740   5.402   6.322
 3954SOL    HW212762   0.826   5.279   6.388
 3955SOL     OW12763   6.137   3.116   0.260
 3955SOL    HW112764   6.045   3.079   0.268
 3955SOL    HW212765   6.202   3.056   0.307
 3956SOL     OW12766   0.086   3.583   4.511
 3956SOL    HW112767   7.006   3.591   4.515
 3956SOL    HW212768   0.125   3.609   4.599
 3957SOL     OW12769   1.668   2.449   1.739
 3957SOL    HW112770   1.742   2.501   1.780
 3957SOL    HW212771   1.661   2.360   1.785
 3958SOL     OW12772   5.040   4.933   0.691
 3958SOL    HW112773   4.966   4.929   0.759
 3958SOL    HW212774   5.003   4.964   0.603
 3959SOL     OW12775   2.244   4.999   0.308
 3959SOL    HW112776   2.150   4.979   0.281
 3959SOL    HW212777   2.248   5.089   0.351
 3960SOL     OW12778   5.850   3.470   1.534
 3960SOL    HW112779   5.831   3.379   1.497
 3960SOL    HW212780   5.833   3.538   1.463
 3961SOL     OW12781   0.310   1.760   2.142
 3961SOL    HW112782   0.325   1.857   2.161
 3961SOL    HW212783   0.334   1.741   2.047
 3962SOL     OW12784   0.204   6.811   0.101
 3962SOL    HW112785   0.225   6.894   0.153
 3962SOL    HW212786   0.131   6.830   0.035
 3963SOL     OW12787   6.380   3.183   4.850
 3963SOL    HW112788   6.290   3.143   4.871
 3963SOL    HW212789   6.396   3.261   4.910
 3964SOL     OW12790   6.007   4.866   6.471
 3964SOL    HW112791   5.926   4.924   6.472
 3964SOL    HW212792   6.061   4.881   6.554
 3965SOL     OW12793   2.406   5.109   1.852
 3965SOL    HW112794   2.478   5.045   1.826
 3965SOL    HW212795   2.447   5.189   1.896
 3966SOL     OW12796   6.945   4.408   5.921
 3966SOL    HW112797   6.987   4.318   5.910
 3966SOL    HW212798   6.856   4.410   5.876
 3967SOL     OW12799   3.054   0.625   0.920
 3967SOL    HW112800   3.026   0.542   0.967
 3967SOL    HW212801   3.153   0.628   0.911
 3968SOL     OW12802   4.807   2.370   0.563
 3968SOL    HW112803   4.888   2.421   0.590
 3968SOL    HW212804   4.823   2.327   0.474
 3969SOL     OW12805   6.378   6.925   1.339
 3969SOL    HW112806   6.278   6.930   1.332
 3969SOL    HW212807   6.407   6.965   1.425
 3970SOL     OW12808   5.816   3.622   3.307
 3970SOL    HW112809   5.878   3.675   3.248
 3970SOL    HW212810   5.784   3.681   3.382
 3971SOL     OW12811   0.097   5.519   4.067
 3971SOL    HW112812   0.062   5.530   4.160
 3971SOL    HW212813   0.021   5.493   4.007
 3972SOL     OW12814   0.524   1.144   6.456
 3972SOL    HW112815   0.575   1.228   6.443
 3972SOL    HW212816   0.554   1.075   6.389
 3973SOL     OW12817   3.899   2.965   1.194
 3973SOL    HW112818   3.927   3.055   1.228
 3973SOL    HW212819   3.806   2.946   1.225
 3974SOL     OW12820   5.661   0.435   6.389
 3974SOL    HW112821   5.580   0.444   6.332
 3974SOL    HW212822   5.720   0.515   6.377
 3975SOL     OW12823   0.012   6.294   3.424
 3975SOL    HW112824   0.001   6.199   3.455
 3975SOL    HW212825   6.944   6.327   3.389
 3976SOL     OW12826   0.845   2.831   4.969
 3976SOL    HW112827   0.864   2.879   5.055
 3976SOL    HW212828   0.813   2.897   4.901
 3977SOL     OW12829   2.413   4.920   6.033
 3977SOL    HW112830   2.353   4.862   5.978
 3977SOL    HW212831   2.475   4.970   5.974
 3978SOL     OW12832   4.192   3.316   6.306
 3978SOL    HW112833   4.170   3.391   6.368
 3978SOL    HW212834   4.242   3.351   6.227
 3979SOL     OW12835   0.334   5.819   2.980
 3979SOL    HW112836   0.235   5.806   2.983
 3979SOL    HW212837   0.378   5.732   2.958
 3980SOL     OW12838   5.477   4.013   3.857
 3980SOL    HW112839   5.491   4.018   3.956
 3980SOL    HW212840   5.407   3.944   3.837
 3981SOL     OW12841   6.684   1.240   6.836
 3981SOL    HW112842   6.596   1.275   6.866
 3981SOL    HW212843   6.679   1.141   6.826
 3982SOL     OW12844   1.949   2.631   3.685
 3982SOL    HW112845   1.995   2.635   3.774
 3982SOL    HW212846   1.988   2.700   3.624
 3983SOL     OW12847   2.224   1.507   3.537
 3983SOL    HW112848   2.174   1.426   3.508
 3983SOL    HW212849   2.159   1.578   3.564
 3984SOL     OW12850   1.330   6.345   2.661
 3984SOL    HW112851   1.308   6.394   2.745
 3984SOL    HW212852   1.423   6.366   2.633
 3985SOL     OW12853   1.065   2.046   1.271
 3985SOL    HW112854   1.159   2.067   1.247
 3985SOL    HW212855   1.063   1.995   1.357
 3986SOL     OW12856   1.057   0.508   3.192
 3986SOL    HW112857   0.977   0.511   3.133
 3986SOL    HW212858   1.049   0.432   3.256
 3987SOL     OW12859   1.592   4.618   5.673
 3987SOL    HW112860   1.611   4.521   5.657
 3987SOL    HW212861   1.678   4.667   5.682
 3988SOL     OW12862   4.729   5.252   2.254
 3988SOL    HW112863   4.702   5.198   2.334
 3988SOL    HW212864   4.812   5.213   2.214
 3989SOL     OW12865   4.574   0.889   6.417
 3989SOL    HW112866   4.595   0.932   6.504
 3989SOL    HW212867   4.478   0.907   6.393
 3990SOL     OW12868   6.139   6.097   3.766
 3990SOL    HW112869   6.081   6.178   3.767
 3990SOL    HW212870   6.095   6.024   3.714
 3991SOL     OW12871   0.617   2.350   4.767
 3991SOL    HW112872   0.578   2.384   4.682
 3991SOL    HW212873   0.567   2.268   4.797
 3992SOL     OW12874   6.162   3.491   5.682
 3992SOL    HW112875   6.155   3.590   5.680
 3992SOL    HW212876   6.091   3.451   5.623
 3993SOL     OW12877   1.441   0.923   4.215
 3993SOL    HW112878   1.511   0.858   4.246
 3993SOL    HW212879   1.406   0.974   4.294
 3994SOL     OW12880   3.019   1.854   3.431
 3994SOL    HW112881   3.042   1.818   3.341
 3994SOL    HW212882   2.981   1.780   3.488
 3995SOL     OW12883   2.084   4.103   1.848
 3995SOL    HW112884   2.084   4.074   1.752
 3995SOL    HW212885   2.055   4.027   1.906
 3996SOL     OW12886   0.405   5.810   5.358
 3996SOL    HW112887   0.409   5.875   5.282
 3996SOL    HW212888   0.491   5.758   5.361
 3997SOL     OW12889   6.029   3.538   5.061
 3997SOL    HW112890   6.047   3.528   5.158
 3997SOL    HW212891   6.016   3.634   5.038
 3998SOL     OW12892   4.442   1.966   3.154
 3998SOL    HW112893   4.382   1.893   3.187
 3998SOL    HW212894   4.392   2.023   3.088
 3999SOL     OW12895   4.686   3.685   1.061
 3999SOL    HW112896   4.758   3.661   1.126
 3999SOL    HW212897   4.723   3.750   0.994
 4000SOL     OW12898   2.928   4.866   2.635
 4000SOL    HW112899   2.978   4.843   2.551
 4000SOL    HW212900   2.853   4.802   2.648
 4001SOL     OW12901   0.635   5.663   4.138
 4001SOL    HW112902   0.566   5.619   4.081
 4001SOL    HW212903   0.670   5.745   4.093
 4002SOL     OW12904   3.454   3.754   4.743
 4002SOL    HW112905   3.415   3.698   4.816
 4002SOL    HW212906   3.391   3.756   4.665
 4003SOL     OW12907   3.323   1.500   4.379
 4003SOL    HW112908   3.374   1.432   4.326
 4003SOL    HW212909   3.384   1.576   4.401
 4004SOL     OW12910   2.148   3.635   4.836
 4004SOL    HW112911   2.236   3.603   4.870
 4004SOL    HW212912   2.080   3.632   4.909
 4005SOL     OW12913   5.742   2.009   1.811
 4005SOL    HW112914   5.750   1.910   1.798
 4005SOL    HW212915   5.803   2.056   1.748
 4006SOL     OW12916   6.925   5.518   2.062
 4006SOL    HW112917   6.938   5.535   1.964
 4006SOL    HW212918   6.962   5.428   2.086
 4007SOL     OW12919   0.735   1.202   1.686
 4007SOL    HW112920   0.729   1.199   1.587
 4007SOL    HW212921   0.702   1.290   1.720
 4008SOL     OW12922   4.190   0.271   1.726
 4008SOL    HW112923   4.218   0.205   1.796
 4008SOL    HW212924   4.104   0.241   1.685
 4009SOL     OW12925   3.592   2.520   1.417
 4009SOL    HW112926   3.667   2.553   1.360
 4009SOL    HW212927   3.627   2.494   1.507
 4010SOL     OW12928   1.083   5.544   0.974
 4010SOL    HW112929   1.054   5.588   1.059
 4010SOL    HW212930   1.178   5.569   0.954
 4011SOL     OW12931   5.594   6.515   6.561
 4011SOL    HW112932   5.684   6.474   6.578
 4011SOL    HW212933   5.575   6.515   6.463
 4012SOL     OW12934   5.875   4.273   1.895
 4012SOL    HW112935   5.949   4.263   1.961
 4012SOL    HW212936   5.858   4.186   1.850
 4013SOL     OW12937   0.262   2.054   6.914
 4013SOL    HW112938   0.244   2.007   6.827
 4013SOL    HW212939   0.272   1.986   6.987
 4014SOL     OW12940   4.271   6.319   2.962
 4014SOL    HW112941   4.172   6.326   2.946
 4014SOL    HW212942   4.318   6.309   2.874
 4015SOL     OW12943   3.451   6.498   5.148
 4015SOL    HW112944   3.479   6.541   5.234
 4015SOL    HW212945   3.369   6.543   5.113
 4016SOL     OW12946   4.441   5.124   3.867
 4016SOL    HW112947   4.352   5.088   3.841
 4016SOL    HW212948   4.489   5.058   3.925
 4017SOL     OW12949   1.531   6.097   6.182
 4017SOL    HW112950   1.516   6.100   6.084
 4017SOL    HW212951   1.547   6.002   6.211
 4018SOL     OW12952   5.421   5.624   0.004
 4018SOL    HW112953   5.451   5.702   0.060
 4018SOL    HW212954   5.356   5.569   0.057
 4019SOL     OW12955   0.999   2.204   2.999
 4019SOL    HW112956   1.057   2.284   3.014
 4019SOL    HW212957   1.049   2.136   2.945
 4020SOL     OW12958   6.762   5.771   5.038
 4020SOL    HW112959   6.700   5.848   5.025
 4020SOL    HW212960   6.734   5.695   4.979
 4021SOL     OW12961   4.836   5.615   5.881
 4021SOL    HW112962   4.805   5.674   5.956
 4021SOL    HW212963   4.893   5.668   5.819
 4022SOL     OW12964   3.868   0.415   1.371
 4022SOL    HW112965   3.935   0.418   1.296
 4022SOL    HW212966   3.871   0.325   1.413
 4023SOL     OW12967   1.261   1.714   3.782
 4023SOL    HW112968   1.251   1.758   3.871
 4023SOL    HW212969   1.173   1.710   3.736
 4024SOL     OW12970   1.199   6.648   6.588
 4024SOL    HW112971   1.291   6.676   6.616
 4024SOL    HW212972   1.188   6.550   6.602
 4025SOL     OW12973   1.340   4.739   4.689
 4025SOL    HW112974   1.289   4.801   4.630
 4025SOL    HW212975   1.304   4.744   4.782
 4026SOL     OW12976   0.233   6.480   4.232
 4026SOL    HW112977   0.310   6.523   4.279
 4026SOL    HW212978   0.242   6.496   4.133
 4027SOL     OW12979   3.351   5.447   4.785
 4027SOL    HW112980   3.290   5.525   4.795
 4027SOL    HW212981   3.438   5.476   4.745
 4028SOL     OW12982   4.796   1.696   4.716
 4028SOL    HW112983   4.708   1.741   4.703
 4028SOL    HW212984   4.866   1.764   4.739
 4029SOL     OW12985   2.016   6.732   1.083
 4029SOL    HW112986   2.025   6.690   1.173
 4029SOL    HW212987   1.925   6.772   1.073
 4030SOL     OW12988   0.366   1.423   1.893
 4030SOL    HW112989   0.384   1.358   1.820
 4030SOL    HW212990   0.268   1.443   1.898
 4031SOL     OW12991   5.863   5.958   0.659
 4031SOL    HW112992   5.914   5.883   0.618
 4031SOL    HW212993   5.919   6.041   0.659
 4032SOL     OW12994   4.792   2.120   2.027
 4032SOL    HW112995   4.749   2.100   2.115
 4032SOL    HW212996   4.722   2.147   1.961
 4033SOL     OW12997   1.183   4.385   3.151
 4033SOL    HW112998   1.261   4.408   3.208
 4033SOL    HW212999   1.135   4.306   3.189
 4034SOL     OW13000   3.113   1.683   4.473
 4034SOL    HW113001   3.158   1.773   4.473
 4034SOL    HW213002   3.174   1.615   4.432
 4035SOL     OW13003   3.560   2.321   1.066
 4035SOL    HW113004   3.491   2.328   1.139
 4035SOL    HW213005   3.608   2.234   1.075
 4036SOL     OW13006   4.373   0.378   3.091
 4036SOL    HW113007   4.323   0.292   3.083
 4036SOL    HW213008   4.452   0.365   3.150
 4037SOL     OW13009   1.593   0.769   5.978
 4037SOL    HW113010   1.649   0.696   5.939
 4037SOL    HW213011   1.547   0.736   6.060
 4038SOL     OW13012   3.958   5.324   5.768
 4038SOL    HW113013   3.972   5.346   5.864
 4038SOL    HW213014   3.954   5.409   5.714
 4039SOL     OW13015   6.296   4.551   2.173
 4039SOL    HW113016   6.305   4.517   2.079
 4039SOL    HW213017   6.294   4.474   2.237
 4040SOL     OW13018   2.000   6.617   5.404
 4040SOL    HW113019   2.023   6.556   5.329
 4040SOL    HW213020   2.072   6.685   5.416
 4041SOL     OW13021   1.056   6.184   1.400
 4041SOL    HW113022   1.112   6.207   1.321
 4041SOL    HW213023   1.108   6.203   1.484
 4042SOL     OW13024   1.538   1.703   4.713
 4042SOL    HW113025   1.634   1.684   4.696
 4042SOL    HW213026   1.528   1.754   4.798
 4043SOL     OW13027   3.749   2.802   5.699
 4043SOL    HW113028   3.684   2.844   5.636
 4043SOL    HW213029   3.793   2.873   5.754
 4044SOL     OW13030   4.803   4.075   3.767
 4044SOL    HW113031   4.834   3.980   3.761
 4044SOL    HW213032   4.800   4.103   3.862
 4045SOL     OW13033   4.520   1.763   4.703
 4045SOL    HW113034   4.451   1.835   4.703
 4045SOL    HW213035   4.476   1.675   4.683
 4046SOL     OW13036   5.156   0.970   4.145
 4046SOL    HW113037   5.138   0.895   4.209
 4046SOL    HW213038   5.202   1.045   4.193
 4047SOL     OW13039   2.492   2.707   6.634
 4047SOL    HW113040   2.545   2.783   6.672
 4047SOL    HW213041   2.538   2.621   6.655
 4048SOL     OW13042   5.001   2.165   3.188
 4048SOL    HW113043   5.075   2.232   3.178
 4048SOL    HW213044   5.033   2.089   3.246
 4049SOL     OW13045   3.842   4.018   2.556
 4049SOL    HW113046   3.882   4.042   2.467
 4049SOL    HW213047   3.903   3.956   2.604
 4050SOL     OW13048   0.058   4.841   2.887
 4050SOL    HW113049   6.998   4.894   2.857
 4050SOL    HW213050   0.104   4.803   2.806
 4051SOL     OW13051   5.647   0.222   3.568
 4051SOL    HW113052   5.559   0.271   3.568
 4051SOL    HW213053   5.703   0.255   3.493
 4052SOL     OW13054   4.350   1.190   5.127
 4052SOL    HW113055   4.255   1.197   5.158
 4052SOL    HW213056   4.361   1.242   5.042
 4053SOL     OW13057   0.867   4.729   2.725
 4053SOL    HW113058   0.798   4.658   2.711
 4053SOL    HW213059   0.833   4.795   2.791
 4054SOL     OW13060   5.334   4.045   1.692
 4054SOL    HW113061   5.282   3.962   1.669
 4054SOL    HW213062   5.352   4.047   1.790
 4055SOL     OW13063   0.080   4.067   0.070
 4055SOL    HW113064   0.029   4.149   0.094
 4055SOL    HW213065   0.174   4.074   0.102
 4056SOL     OW13066   4.852   4.501   0.229
 4056SOL    HW113067   4.952   4.509   0.222
 4056SOL    HW213068   4.818   4.446   0.152
 4057SOL     OW13069   0.124   4.708   5.549
 4057SOL    HW113070   0.180   4.760   5.613
 4057SOL    HW213071   0.131   4.610   5.571
 4058SOL     OW13072   2.833   0.829   3.789
 4058SOL    HW113073   2.929   0.809   3.767
 4058SOL    HW213074   2.796   0.891   3.720
 4059SOL     OW13075   2.036   1.059   3.563
 4059SOL    HW113076   1.955   1.068   3.504
 4059SOL    HW213077   2.027   0.976   3.618
 4060SOL     OW13078   6.814   6.435   3.815
 4060SOL    HW113079   6.817   6.480   3.726
 4060SOL    HW213080   6.906   6.430   3.853
 4061SOL     OW13081   1.500   4.014   2.580
 4061SOL    HW113082   1.436   4.081   2.543
 4061SOL    HW213083   1.572   3.997   2.513
 4062SOL     OW13084   2.644   3.698   0.212
 4062SOL    HW113085   2.558   3.748   0.200
 4062SOL    HW213086   2.707   3.753   0.268
 4063SOL     OW13087   3.603   1.033   1.321
 4063SOL    HW113088   3.676   1.047   1.254
 4063SOL    HW213089   3.610   1.102   1.393
 4064SOL     OW13090   2.454   6.687   4.814
 4064SOL    HW113091   2.429   6.603   4.767
 4064SOL    HW213092   2.456   6.762   4.748
 4065SOL     OW13093   2.354   1.255   1.714
 4065SOL    HW113094   2.312   1.164   1.719
 4065SOL    HW213095   2.418   1.267   1.789
 4066SOL     OW13096   0.308   4.028   5.024
 4066SOL    HW113097   0.264   3.951   5.069
 4066SOL    HW213098   0.243   4.103   5.015
 4067SOL     OW13099   5.886   4.121   1.155
 4067SOL    HW113100   5.916   4.151   1.246
 4067SOL    HW213101   5.840   4.197   1.109
 4068SOL     OW13102   2.626   2.435   5.912
 4068SOL    HW113103   2.692   2.504   5.941
 4068SOL    HW213104   2.572   2.470   5.836
 4069SOL     OW13105   3.944   0.471   5.937
 4069SOL    HW113106   3.973   0.528   5.860
 4069SOL    HW213107   4.010   0.481   6.012
 4070SOL     OW13108   1.970   4.130   4.386
 4070SOL    HW113109   1.958   4.228   4.404
 4070SOL    HW213110   2.029   4.119   4.306
 4071SOL     OW13111   0.810   0.457   5.244
 4071SOL    HW113112   0.744   0.403   5.296
 4071SOL    HW213113   0.788   0.452   5.146
 4072SOL     OW13114   2.670   6.197   2.153
 4072SOL    HW113115   2.704   6.292   2.153
 4072SOL    HW213116   2.731   6.141   2.209
 4073SOL     OW13117   5.136   5.045   6.815
 4073SOL    HW113118   5.104   5.135   6.786
 4073SOL    HW213119   5.141   4.984   6.736
 4074SOL     OW13120   1.337   5.407   1.826
 4074SOL    HW113121   1.348   5.495   1.781
 4074SOL    HW213122   1.246   5.370   1.804
 4075SOL     OW13123   5.537   0.154   6.451
 4075SOL    HW113124   5.511   0.250   6.442
 4075SOL    HW213125   5.456   0.097   6.459
 4076SOL     OW13126   2.346   5.190   3.447
 4076SOL    HW113127   2.267   5.251   3.460
 4076SOL    HW213128   2.327   5.126   3.373
 4077SOL     OW13129   2.779   1.678   1.217
 4077SOL    HW113130   2.697   1.622   1.206
 4077SOL    HW213131   2.788   1.706   1.313
 4078SOL     OW13132   4.460   4.688   1.768
 4078SOL    HW113133   4.508   4.759   1.715
 4078SOL    HW213134   4.527   4.629   1.813
 4079SOL     OW13135   0.557   3.154   3.879
 4079SOL    HW113136   0.574   3.116   3.970
 4079SOL    HW213137   0.634   3.132   3.818
 4080SOL     OW13138   6.270   2.328   4.752
 4080SOL    HW113139   6.245   2.369   4.664
 4080SOL    HW213140   6.306   2.399   4.813
 4081SOL     OW13141   6.241   3.726   2.333
 4081SOL    HW113142   6.189   3.656   2.382
 4081SOL    HW213143   6.285   3.685   2.253
 4082SOL     OW13144   0.689   3.593   1.224
 4082SOL    HW113145   0.680   3.564   1.128
 4082SOL    HW213146   0.631   3.672   1.241
 4083SOL     OW13147   0.258   3.695   5.721
 4083SOL    HW113148   0.353   3.686   5.748
 4083SOL    HW213149   0.205   3.731   5.798
 4084SOL     OW13150   4.597   0.475   3.791
 4084SOL    HW113151   4.618   0.571   3.811
 4084SOL    HW213152   4.617   0.420   3.872
 4085SOL     OW13153   2.403   5.155   6.355
 4085SOL    HW113154   2.485   5.174   6.301
 4085SOL    HW213155   2.328   5.129   6.295
 4086SOL     OW13156   6.923   2.059   2.021
 4086SOL    HW113157   6.839   2.058   1.967
 4086SOL    HW213158   6.932   1.972   2.070
 4087SOL     OW13159   1.146   0.729   3.330
 4087SOL    HW113160   1.100   0.662   3.272
 4087SOL    HW213161   1.088   0.810   3.340
 4088SOL     OW13162   0.521   3.149   6.342
 4088SOL    HW113163   0.454   3.126   6.413
 4088SOL    HW213164   0.609   3.172   6.385
 4089SOL     OW13165   0.662   2.174   5.546
 4089SOL    HW113166   0.684   2.205   5.638
 4089SOL    HW213167   0.591   2.104   5.550
 4090SOL     OW13168   3.254   5.336   6.435
 4090SOL    HW113169   3.272   5.363   6.341
 4090SOL    HW213170   3.333   5.360   6.492
 4091SOL     OW13171   4.226   6.027   1.159
 4091SOL    HW113172   4.287   5.948   1.153
 4091SOL    HW213173   4.133   5.995   1.178
 4092SOL     OW13174   1.041   1.141   3.846
 4092SOL    HW113175   0.977   1.216   3.828
 4092SOL    HW213176   1.132   1.179   3.866
 4093SOL     OW13177   4.392   6.706   3.524
 4093SOL    HW113178   4.436   6.795   3.537
 4093SOL    HW213179   4.459   6.633   3.538
 4094SOL     OW13180   3.195   2.761   6.401
 4094SOL    HW113181   3.136   2.688   6.368
 4094SOL    HW213182   3.275   2.770   6.341
 4095SOL     OW13183   2.300   3.880   5.970
 4095SOL    HW113184   2.245   3.849   5.893
 4095SOL    HW213185   2.287   3.979   5.983
 4096SOL     OW13186   4.546   4.521   1.519
 4096SOL    HW113187   4.472   4.507   1.584
 4096SOL    HW213188   4.629   4.547   1.568
 4097SOL     OW13189   3.429   3.770   2.877
 4097SOL    HW113190   3.522   3.741   2.856
 4097SOL    HW213191   3.422   3.869   2.870
 4098SOL     OW13192   1.479   3.078   2.276
 4098SOL    HW113193   1.435   3.165   2.296
 4098SOL    HW213194   1.578   3.091   2.269
 4099SOL     OW13195   2.415   6.022   1.328
 4099SOL    HW113196   2.369   6.050   1.244
 4099SOL    HW213197   2.417   6.099   1.392
 4100SOL     OW13198   3.561   0.313   2.511
 4100SOL    HW113199   3.584   0.228   2.558
 4100SOL    HW213200   3.608   0.389   2.555
 4101SOL     OW13201   4.961   1.458   6.692
 4101SOL    HW113202   4.927   1.488   6.603
 4101SOL    HW213203   4.912   1.375   6.720
 4102SOL     OW13204   5.071   2.081   6.132
 4102SOL    HW113205   5.023   2.081   6.044
 4102SOL    HW213206   5.158   2.032   6.122
 4103SOL     OW13207   6.872   0.353   1.730
 4103SOL    HW113208   6.940   0.312   1.791
 4103SOL    HW213209   6.895   0.448   1.712
 4104SOL     OW13210   2.321   4.393   2.114
 4104SOL    HW113211   2.303   4.294   2.119
 4104SOL    HW213212   2.373   4.421   2.195
 4105SOL     OW13213   6.353   4.798   0.584
 4105SOL    HW113214   6.445   4.837   0.596
 4105SOL    HW213215   6.360   4.703   0.554
 4106SOL     OW13216   0.322   3.223   3.813
 4106SOL    HW113217   0.414   3.191   3.837
 4106SOL    HW213218   0.281   3.268   3.892
 4107SOL     OW13219   6.966   0.705   1.212
 4107SOL    HW113220   0.045   0.723   1.210
 4107SOL    HW213221   6.924   0.738   1.127
 4108SOL     OW13222   6.373   2.547   4.878
 4108SOL    HW113223   6.331   2.605   4.948
 4108SOL    HW213224   6.359   2.589   4.788
 4109SOL     OW13225   2.105   6.308   3.945
 4109SOL    HW113226   2.086   6.405   3.929
 4109SOL    HW213227   2.029   6.254   3.909
 4110SOL     OW13228   4.932   3.464   5.225
 4110SOL    HW113229   4.899   3.495   5.135
 4110SOL    HW213230   4.862   3.482   5.294
 4111SOL     OW13231   3.900   3.528   6.687
 4111SOL    HW113232   3.942   3.440   6.710
 4111SOL    HW213233   3.954   3.602   6.726
 4112SOL     OW13234   3.653   0.705   5.871
 4112SOL    HW113235   3.566   0.746   5.840
 4112SOL    HW213236   3.664   0.615   5.828
 4113SOL     OW13237   3.528   5.842   4.036
 4113SOL    HW113238   3.563   5.936   4.040
 4113SOL    HW213239   3.605   5.778   4.037
 4114SOL     OW13240   3.627   0.987   3.439
 4114SOL    HW113241   3.716   1.031   3.450
 4114SOL    HW213242   3.606   0.978   3.342
 4115SOL     OW13243   4.856   3.703   3.275
 4115SOL    HW113244   4.846   3.611   3.313
 4115SOL    HW213245   4.874   3.768   3.349
 4116SOL     OW13246   2.772   1.373   1.741
 4116SOL    HW113247   2.795   1.462   1.779
 4116SOL    HW213248   2.852   1.313   1.743
 4117SOL     OW13249   1.174   5.909   2.157
 4117SOL    HW113250   1.124   5.972   2.098
 4117SOL    HW213251   1.149   5.815   2.134
 4118SOL     OW13252   1.500   0.647   6.212
 4118SOL    HW113253   1.466   0.735   6.245
 4118SOL    HW213254   1.588   0.626   6.257
 4119SOL     OW13255   5.438   1.330   3.231
 4119SOL    HW113256   5.361   1.355   3.172
 4119SOL    HW213257   5.521   1.377   3.198
 4120SOL     OW13258   5.712   0.756   1.884
 4120SOL    HW113259   5.619   0.727   1.864
 4120SOL    HW213260   5.774   0.718   1.815
 4121SOL     OW13261   5.079   2.765   3.893
 4121SOL    HW113262   5.044   2.674   3.870
 4121SOL    HW213263   5.022   2.834   3.849
 4122SOL     OW13264   2.127   5.219   0.030
 4122SOL    HW113265   2.067   5.229   0.109
 4122SOL    HW213266   2.127   5.304   6.997
 4123SOL     OW13267   3.841   3.717   5.192
 4123SOL    HW113268   3.849   3.787   5.262
 4123SOL    HW213269   3.890   3.634   5.220
 4124SOL     OW13270   4.685   5.963   2.936
 4124SOL    HW113271   4.700   6.059   2.912
 4124SOL    HW213272   4.766   5.909   2.910
 4125SOL     OW13273   4.484   2.084   1.696
 4125SOL    HW113274   4.440   2.111   1.610
 4125SOL    HW213275   4.522   1.992   1.686
 4126SOL     OW13276   1.782   3.728   4.649
 4126SOL    HW113277   1.825   3.704   4.736
 4126SOL    HW213278   1.821   3.672   4.576
 4127SOL     OW13279   5.211   4.895   3.712
 4127SOL    HW113280   5.178   4.823   3.650
 4127SOL    HW213281   5.228   4.855   3.802
 4128SOL     OW13282   6.917   1.707   1.815
 4128SOL    HW113283   6.955   1.799   1.816
 4128SOL    HW213284   6.825   1.708   1.857
 4129SOL     OW13285   0.155   3.232   0.404
 4129SOL    HW113286   0.087   3.161   0.423
 4129SOL    HW213287   0.169   3.287   0.486
 4130SOL     OW13288   6.333   2.191   1.314
 4130SOL    HW113289   6.422   2.154   1.288
 4130SOL    HW213290   6.330   2.204   1.413
 4131SOL     OW13291   6.823   3.799   3.550
 4131SOL    HW113292   6.794   3.864   3.480
 4131SOL    HW213293   6.743   3.761   3.596
 4132SOL     OW13294   4.936   1.448   4.138
 4132SOL    HW113295   4.973   1.491   4.220
 4132SOL    HW213296   4.841   1.477   4.125
 4133SOL     OW13297   2.498   2.959   0.698
 4133SOL    HW113298   2.559   2.974   0.620
 4133SOL    HW213299   2.427   2.893   0.672
 4134SOL     OW13300   2.438   1.582   0.096
 4134SOL    HW113301   2.504   1.515   0.062
 4134SOL    HW213302   2.399   1.632   0.019
 4135SOL     OW13303   1.440   0.370   0.940
 4135SOL    HW113304   1.452   0.273   0.958
 4135SOL    HW213305   1.388   0.383   0.856
 4136SOL     OW13306   1.644   1.843   3.469
 4136SOL    HW113307   1.720   1.812   3.412
 4136SOL    HW213308   1.624   1.774   3.539
 4137SOL     OW13309   3.933   3.027   5.207
 4137SOL    HW113310   3.910   2.985   5.120
 4137SOL    HW213311   3.987   3.110   5.190
 4138SOL     OW13312   5.023   5.277   1.134
 4138SOL    HW113313   5.046   5.183   1.156
 4138SOL    HW213314   4.946   5.307   1.190
 4139SOL     OW13315   3.159   1.567   6.861
 4139SOL    HW113316   3.192   1.473   6.866
 4139SOL    HW213317   3.235   1.628   6.839
 4140SOL     OW13318   4.641   2.288   4.712
 4140SOL    HW113319   4.590   2.286   4.626
 4140SOL    HW213320   4.584   2.330   4.783
 4141SOL     OW13321   4.989   6.185   1.060
 4141SOL    HW113322   4.946   6.123   1.125
 4141SOL    HW213323   5.003   6.138   0.972
 4142SOL     OW13324   5.907   3.029   2.127
 4142SOL    HW113325   5.961   3.021   2.210
 4142SOL    HW213326   5.828   2.968   2.132
 4143SOL     OW13327   1.947   2.505   1.943
 4143SOL    HW113328   1.979   2.551   1.860
 4143SOL    HW213329   1.929   2.573   2.014
 4144SOL     OW13330   4.400   0.704   2.271
 4144SOL    HW113331   4.463   0.652   2.327
 4144SOL    HW213332   4.449   0.745   2.194
 4145SOL     OW13333   3.024   0.281   3.460
 4145SOL    HW113334   2.979   0.192   3.453
 4145SOL    HW213335   2.958   0.348   3.493
 4146SOL     OW13336   4.978   4.624   0.801
 4146SOL    HW113337   4.947   4.687   0.729
 4146SOL    HW213338   5.076   4.609   0.791
 4147SOL     OW13339   2.722   1.546   5.925
 4147SOL    HW113340   2.701   1.481   5.852
 4147SOL    HW213341   2.708   1.504   6.014
 4148SOL     OW13342   6.834   6.656   2.202
 4148SOL    HW113343   6.844   6.571   2.149
 4148SOL    HW213344   6.874   6.643   2.292
 4149SOL     OW13345   4.611   4.422   2.235
 4149SOL    HW113346   4.566   4.361   2.170
 4149SOL    HW213347   4.544   4.487   2.270
 4150SOL     OW13348   3.370   0.332   4.264
 4150SOL    HW113349   3.289   0.361   4.213
 4150SOL    HW213350   3.431   0.410   4.276
 4151SOL     OW13351   0.286   5.482   0.430
 4151SOL    HW113352   0.339   5.400   0.450
 4151SOL    HW213353   0.316   5.521   0.343
 4152SOL     OW13354   3.689   4.273   0.973
 4152SOL    HW113355   3.708   4.320   1.059
 4152SOL    HW213356   3.746   4.191   0.967
 4153SOL     OW13357   6.001   5.979   6.481
 4153SOL    HW113358   6.056   6.017   6.406
 4153SOL    HW213359   5.955   6.053   6.529
 4154SOL     OW13360   4.496   2.335   4.502
 4154SOL    HW113361   4.469   2.316   4.407
 4154SOL    HW213362   4.538   2.426   4.507
 4155SOL     OW13363   1.570   3.277   0.922
 4155SOL    HW113364   1.606   3.205   0.980
 4155SOL    HW213365   1.642   3.343   0.901
 4156SOL     OW13366   5.913   1.488   5.334
 4156SOL    HW113367   5.992   1.454   5.283
 4156SOL    HW213368   5.941   1.562   5.395
 4157SOL     OW13369   3.743   1.303   3.672
 4157SOL    HW113370   3.835   1.339   3.687
 4157SOL    HW213371   3.715   1.319   3.578
 4158SOL     OW13372   0.755   0.253   3.117
 4158SOL    HW113373   0.743   0.352   3.115
 4158SOL    HW213374   0.851   0.230   3.099
 4159SOL     OW13375   1.126   4.815   5.279
 4159SOL    HW113376   1.225   4.817   5.297
 4159SOL    HW213377   1.087   4.904   5.301
 4160SOL     OW13378   6.227   0.867   1.455
 4160SOL    HW113379   6.135   0.837   1.429
 4160SOL    HW213380   6.233   0.966   1.445
 4161SOL     OW13381   6.432   1.305   1.800
 4161SOL    HW113382   6.491   1.225   1.795
 4161SOL    HW213383   6.336   1.276   1.791
 4162SOL     OW13384   0.307   0.008   4.776
 4162SOL    HW113385   0.241   6.977   4.831
 4162SOL    HW213386   0.315   6.985   4.686
 4163SOL     OW13387   0.839   2.091   5.330
 4163SOL    HW113388   0.789   2.100   5.416
 4163SOL    HW213389   0.786   2.134   5.257
 4164SOL     OW13390   2.132   0.048   5.499
 4164SOL    HW113391   2.201   0.070   5.568
 4164SOL    HW213392   2.140   0.111   5.422
 4165SOL     OW13393   0.645   5.911   1.433
 4165SOL    HW113394   0.638   5.893   1.531
 4165SOL    HW213395   0.571   5.972   1.405
 4166SOL     OW13396   6.607   1.859   2.806
 4166SOL    HW113397   6.549   1.808   2.742
 4166SOL    HW213398   6.551   1.893   2.882
 4167SOL     OW13399   1.265   2.764   1.242
 4167SOL    HW113400   1.234   2.669   1.247
 4167SOL    HW213401   1.279   2.790   1.147
 4168SOL     OW13402   2.160   5.820   0.753
 4168SOL    HW113403   2.095   5.830   0.828
 4168SOL    HW213404   2.203   5.730   0.759
 4169SOL     OW13405   6.180   3.168   6.782
 4169SOL    HW113406   6.191   3.261   6.819
 4169SOL    HW213407   6.129   3.172   6.696
 4170SOL     OW13408   3.523   0.930   5.656
 4170SOL    HW113409   3.517   0.999   5.584
 4170SOL    HW213410   3.485   0.966   5.741
 4171SOL     OW13411   6.747   2.908   1.876
 4171SOL    HW113412   6.810   2.983   1.857
 4171SOL    HW213413   6.711   2.873   1.790
 4172SOL     OW13414   2.728   0.385   0.955
 4172SOL    HW113415   2.633   0.354   0.958
 4172SOL    HW213416   2.786   0.312   0.920
 4173SOL     OW13417   4.315   4.033   5.482
 4173SOL    HW113418   4.257   4.028   5.564
 4173SOL    HW213419   4.280   4.104   5.421
 4174SOL     OW13420   4.305   1.035   3.637
 4174SOL    HW113421   4.356   0.992   3.563
 4174SOL    HW213422   4.355   1.115   3.670
 4175SOL     OW13423   2.536   1.167   2.149
 4175SOL    HW113424   2.535   1.229   2.227
 4175SOL    HW213425   2.572   1.214   2.069
 4176SOL     OW13426   5.651   4.916   2.809
 4176SOL    HW113427   5.656   4.839   2.746
 4176SOL    HW213428   5.564   4.964   2.796
 4177SOL     OW13429   0.479   6.041   3.060
 4177SOL    HW113430   0.524   6.068   2.975
 4177SOL    HW213431   0.424   5.959   3.043
 4178SOL     OW13432   3.978   2.627   5.390
 4178SOL    HW113433   3.883   2.606   5.370
 4178SOL    HW213434   4.037   2.581   5.324
 4179SOL     OW13435   0.223   1.856   0.092
 4179SOL    HW113436   0.248   1.895   0.180
 4179SOL    HW213437   0.128   1.879   0.070
 4180SOL     OW13438   6.220   4.079   1.685
 4180SOL    HW113439   6.242   4.096   1.589
 4180SOL    HW213440   6.275   4.003   1.719
 4181SOL     OW13441   5.714   1.074   6.980
 4181SOL    HW113442   5.768   1.141   6.928
 4181SOL    HW213443   5.672   1.119   0.038
 4182SOL     OW13444   5.906   0.949   3.874
 4182SOL    HW113445   5.981   0.975   3.935
 4182SOL    HW213446   5.923   0.986   3.782
 4183SOL     OW13447   0.557   0.838   1.713
 4183SOL    HW113448   0.576   0.892   1.795
 4183SOL    HW213449   0.496   0.889   1.653
 4184SOL     OW13450   4.292   4.912   6.249
 4184SOL    HW113451   4.245   4.824   6.253
 4184SOL    HW213452   4.234   4.983   6.289
 4185SOL     OW13453   0.216   1.174   4.604
 4185SOL    HW113454   0.233   1.269   4.630
 4185SOL    HW213455   0.173   1.126   4.681
 4186SOL     OW13456   3.215   3.408   1.672
 4186SOL    HW113457   3.288   3.476   1.683
 4186SOL    HW213458   3.130   3.444   1.709
 4187SOL     OW13459   4.753   5.181   5.533
 4187SOL    HW113460   4.717   5.187   5.439
 4187SOL    HW213461   4.800   5.266   5.556
 4188SOL     OW13462   5.456   5.934   2.668
 4188SOL    HW113463   5.490   6.023   2.698
 4188SOL    HW213464   5.366   5.918   2.709
 4189SOL     OW13465   1.392   3.454   3.097
 4189SOL    HW113466   1.461   3.422   3.032
 4189SOL    HW213467   1.313   3.394   3.094
 4190SOL     OW13468   2.183   6.164   1.588
 4190SOL    HW113469   2.212   6.072   1.615
 4190SOL    HW213470   2.090   6.160   1.551
 4191SOL     OW13471   0.182   1.896   3.945
 4191SOL    HW113472   0.246   1.939   4.008
 4191SOL    HW213473   0.223   1.887   3.854
 4192SOL     OW13474   5.869   6.204   3.723
 4192SOL    HW113475   5.827   6.262   3.793
 4192SOL    HW213476   5.890   6.258   3.642
 4193SOL     OW13477   1.387   6.667   3.874
 4193SOL    HW113478   1.287   6.666   3.876
 4193SOL    HW213479   1.418   6.724   3.798
 4194SOL     OW13480   4.743   6.836   3.211
 4194SOL    HW113481   4.651   6.874   3.201
 4194SOL    HW213482   4.809   6.900   3.170
 4195SOL     OW13483   4.546   0.430   3.293
 4195SOL    HW113484   4.605   0.508   3.312
 4195SOL    HW213485   4.465   0.434   3.352
 4196SOL     OW13486   5.027   2.664   3.248
 4196SOL    HW113487   5.105   2.686   3.189
 4196SOL    HW213488   5.051   2.587   3.308
 4197SOL     OW13489   5.636   4.523   4.967
 4197SOL    HW113490   5.602   4.444   4.917
 4197SOL    HW213491   5.729   4.504   5.000
 4198SOL     OW13492   6.477   3.532   6.064
 4198SOL    HW113493   6.454   3.509   5.969
 4198SOL    HW213494   6.555   3.478   6.093
 4199SOL     OW13495   2.981   4.460   5.915
 4199SOL    HW113496   2.950   4.505   5.999
 4199SOL    HW213497   2.903   4.418   5.869
 4200SOL     OW13498   2.594   0.221   5.090
 4200SOL    HW113499   2.598   0.138   5.146
 4200SOL    HW213500   2.520   0.280   5.124
 4201SOL     OW13501   6.115   0.072   4.738
 4201SOL    HW113502   6.030   0.044   4.692
 4201SOL    HW213503   6.168   7.010   4.762
 4202SOL     OW13504   5.847   3.732   4.885
 4202SOL    HW113505   5.834   3.822   4.927
 4202SOL    HW213506   5.759   3.685   4.879
 4203SOL     OW13507   3.436   5.661   4.528
 4203SOL    HW113508   3.449   5.695   4.435
 4203SOL    HW213509   3.338   5.654   4.548
 4204SOL     OW13510   1.642   4.025   7.006
 4204SOL    HW113511   1.632   3.986   6.914
 4204SOL    HW213512   1.565   3.996   0.043
 4205SOL     OW13513   2.319   0.031   3.746
 4205SOL    HW113514   2.391   0.081   3.794
 4205SOL    HW213515   2.270   6.992   3.810
 4206SOL     OW13516   4.771   6.190   3.156
 4206SOL    HW113517   4.699   6.221   3.093
 4206SOL    HW213518   4.756   6.232   3.246
 4207SOL     OW13519   2.156   6.335   6.953
 4207SOL    HW113520   2.141   6.240   6.979
 4207SOL    HW213521   2.126   6.395   0.007
 4208SOL     OW13522   1.072   1.564   2.261
 4208SOL    HW113523   1.000   1.611   2.312
 4208SOL    HW213524   1.046   1.468   2.248
 4209SOL     OW13525   2.002   0.587   5.793
 4209SOL    HW113526   2.000   0.505   5.736
 4209SOL    HW213527   2.097   0.615   5.808
 4210SOL     OW13528   3.539   3.202   0.754
 4210SOL    HW113529   3.534   3.285   0.700
 4210SOL    HW213530   3.628   3.158   0.739
 4211SOL     OW13531   6.776   3.407   4.033
 4211SOL    HW113532   6.831   3.335   4.077
 4211SOL    HW213533   6.817   3.432   3.946
 4212SOL     OW13534   5.646   6.665   1.735
 4212SOL    HW113535   5.686   6.690   1.647
 4212SOL    HW213536   5.588   6.739   1.767
 4213SOL     OW13537   1.044   0.555   0.994
 4213SOL    HW113538   1.064   0.459   0.977
 4213SOL    HW213539   1.085   0.611   0.922
 4214SOL     OW13540   3.283   5.282   3.661
 4214SOL    HW113541   3.335   5.358   3.701
 4214SOL    HW213542   3.186   5.295   3.679
 4215SOL     OW13543   1.739   5.882   0.097
 4215SOL    HW113544   1.714   5.944   0.022
 4215SOL    HW213545   1.836   5.890   0.116
 4216SOL     OW13546   2.419   2.763   5.272
 4216SOL    HW113547   2.429   2.842   5.211
 4216SOL    HW213548   2.446   2.789   5.364
 4217SOL     OW13549   5.923   0.514   4.697
 4217SOL    HW113550   5.964   0.447   4.636
 4217SOL    HW213551   5.870   0.468   4.768
 4218SOL     OW13552   3.224   5.776   2.315
 4218SOL    HW113553   3.235   5.860   2.261
 4218SOL    HW213554   3.276   5.784   2.399
 4219SOL     OW13555   5.220   0.702   2.574
 4219SOL    HW113556   5.178   0.612   2.560
 4219SOL    HW213557   5.268   0.702   2.662
 4220SOL     OW13558   1.333   4.866   2.908
 4220SOL    HW113559   1.404   4.889   2.974
 4220SOL    HW213560   1.246   4.853   2.957
 4221SOL     OW13561   5.321   6.099   5.792
 4221SOL    HW113562   5.369   6.056   5.715
 4221SOL    HW213563   5.274   6.181   5.761
 4222SOL     OW13564   2.239   3.165   0.155
 4222SOL    HW113565   2.313   3.204   0.100
 4222SOL    HW213566   2.211   3.077   0.115
 4223SOL     OW13567   3.568   4.104   2.913
 4223SOL    HW113568   3.469   4.097   2.926
 4223SOL    HW213569   3.612   4.114   3.002
 4224SOL     OW13570   3.398   2.177   5.174
 4224SOL    HW113571   3.323   2.243   5.171
 4224SOL    HW213572   3.429   2.167   5.269
 4225SOL     OW13573   5.278   6.140   4.518
 4225SOL    HW113574   5.186   6.101   4.520
 4225SOL    HW213575   5.338   6.085   4.576
 4226SOL     OW13576   2.427   2.137   1.804
 4226SOL    HW113577   2.378   2.213   1.846
 4226SOL    HW213578   2.515   2.124   1.850
 4227SOL     OW13579   5.882   3.499   0.461
 4227SOL    HW113580   5.850   3.557   0.386
 4227SOL    HW213581   5.900   3.406   0.426
 4228SOL     OW13582   4.275   5.643   2.931
 4228SOL    HW113583   4.271   5.548   2.901
 4228SOL    HW213584   4.336   5.694   2.870
 4229SOL     OW13585   4.236   4.722   4.600
 4229SOL    HW113586   4.189   4.736   4.688
 4229SOL    HW213587   4.267   4.627   4.594
 4230SOL     OW13588   1.661   1.228   5.107
 4230SOL    HW113589   1.591   1.172   5.062
 4230SOL    HW213590   1.620   1.279   5.182
 4231SOL     OW13591   3.679   6.747   6.519
 4231SOL    HW113592   3.775   6.724   6.501
 4231SOL    HW213593   3.675   6.827   6.578
 4232SOL     OW13594   2.072   3.936   1.614
 4232SOL    HW113595   2.136   3.865   1.584
 4232SOL    HW213596   2.010   3.958   1.539
 4233SOL     OW13597   4.856   4.898   0.914
 4233SOL    HW113598   4.934   4.922   0.972
 4233SOL    HW213599   4.778   4.872   0.972
 4234SOL     OW13600   3.565   3.864   5.979
 4234SOL    HW113601   3.617   3.902   5.903
 4234SOL    HW213602   3.529   3.775   5.954
 4235SOL     OW13603   0.475   4.060   4.761
 4235SOL    HW113604   0.552   4.125   4.762
 4235SOL    HW213605   0.424   4.068   4.847
 4236SOL     OW13606   0.955   3.284   4.157
 4236SOL    HW113607   0.992   3.360   4.103
 4236SOL    HW213608   1.031   3.232   4.196
 4237SOL     OW13609   5.203   3.715   5.317
 4237SOL    HW113610   5.106   3.738   5.307
 4237SOL    HW213611   5.258   3.780   5.264
 4238SOL     OW13612   5.094   4.673   5.029
 4238SOL    HW113613   5.114   4.763   5.067
 4238SOL    HW213614   5.161   4.606   5.062
 4239SOL     OW13615   5.697   4.592   5.310
 4239SOL    HW113616   5.703   4.653   5.231
 4239SOL    HW213617   5.789   4.560   5.334
 4240SOL     OW13618   2.340   4.222   5.839
 4240SOL    HW113619   2.337   4.321   5.851
 4240SOL    HW213620   2.291   4.197   5.755
 4241SOL     OW13621   3.423   2.377   0.436
 4241SOL    HW113622   3.366   2.318   0.493
 4241SOL    HW213623   3.382   2.388   0.346
 4242SOL     OW13624   2.581   0.410   1.783
 4242SOL    HW113625   2.597   0.508   1.766
 4242SOL    HW213626   2.641   0.356   1.724
 4243SOL     OW13627   2.181   1.864   2.068
 4243SOL    HW113628   2.145   1.774   2.044
 4243SOL    HW213629   2.113   1.934   2.049
 4244SOL     OW13630   2.550   6.909   0.768
 4244SOL    HW113631   2.495   6.831   0.800
 4244SOL    HW213632   2.496   6.993   0.775
 4245SOL     OW13633   6.845   1.136   1.686
 4245SOL    HW113634   6.857   1.083   1.770
 4245SOL    HW213635   6.806   1.226   1.709
 4246SOL     OW13636   3.465   2.121   3.145
 4246SOL    HW113637   3.560   2.105   3.117
 4246SOL    HW213638   3.408   2.129   3.064
 4247SOL     OW13639   2.250   4.920   6.523
 4247SOL    HW113640   2.271   4.860   6.600
 4247SOL    HW213641   2.335   4.946   6.477
 4248SOL     OW13642   2.881   6.384   1.668
 4248SOL    HW113643   2.859   6.333   1.586
 4248SOL    HW213644   2.882   6.482   1.648
 4249SOL     OW13645   6.131   1.375   5.187
 4249SOL    HW113646   6.220   1.415   5.166
 4249SOL    HW213647   6.130   1.279   5.160
 4250SOL     OW13648   1.003   5.369   4.692
 4250SOL    HW113649   0.923   5.311   4.681
 4250SOL    HW213650   1.062   5.332   4.763
 4251SOL     OW13651   4.406   1.765   5.807
 4251SOL    HW113652   4.466   1.734   5.734
 4251SOL    HW213653   4.399   1.694   5.877
 4252SOL     OW13654   0.689   6.413   6.816
 4252SOL    HW113655   0.748   6.487   6.849
 4252SOL    HW213656   0.695   6.407   6.716
 4253SOL     OW13657   3.276   0.018   2.534
 4253SOL    HW113658   3.360   6.984   2.529
 4253SOL    HW213659   3.211   6.993   2.594
 4254SOL     OW13660   0.810   0.946   4.674
 4254SOL    HW113661   0.719   0.906   4.666
 4254SOL    HW213662   0.855   0.912   4.756
 4255SOL     OW13663   1.929   2.996   4.482
 4255SOL    HW113664   1.998   3.028   4.418
 4255SOL    HW213665   1.854   2.953   4.432
 4256SOL     OW13666   5.701   6.319   1.111
 4256SOL    HW113667   5.793   6.326   1.072
 4256SOL    HW213668   5.640   6.275   1.044
 4257SOL     OW13669   0.451   1.717   2.634
 4257SOL    HW113670   0.463   1.626   2.673
 4257SOL    HW213671   0.354   1.736   2.622
 4258SOL     OW13672   2.319   6.466   0.899
 4258SOL    HW113673   2.276   6.409   0.969
 4258SOL    HW213674   2.418   6.465   0.912
 4259SOL     OW13675   1.200   0.520   0.464
 4259SOL    HW113676   1.184   0.477   0.552
 4259SOL    HW213677   1.298   0.538   0.452
 4260SOL     OW13678   0.070   0.490   5.424
 4260SOL    HW113679   0.158   0.449   5.451
 4260SOL    HW213680   0.008   0.417   5.396
 4261SOL     OW13681   1.689   6.661   2.831
 4261SOL    HW113682   1.716   6.742   2.884
 4261SOL    HW213683   1.748   6.654   2.750
 4262SOL     OW13684   1.330   3.689   5.005
 4262SOL    HW113685   1.414   3.688   4.952
 4262SOL    HW213686   1.301   3.784   5.019
 4263SOL     OW13687   3.193   0.909   2.641
 4263SOL    HW113688   3.169   0.967   2.562
 4263SOL    HW213689   3.245   0.830   2.610
 4264SOL     OW13690   4.240   2.347   6.246
 4264SOL    HW113691   4.209   2.326   6.339
 4264SOL    HW213692   4.161   2.359   6.186
 4265SOL     OW13693   3.754   6.015   6.117
 4265SOL    HW113694   3.691   6.092   6.126
 4265SOL    HW213695   3.744   5.974   6.026
 4266SOL     OW13696   1.274   3.565   2.453
 4266SOL    HW113697   1.245   3.580   2.547
 4266SOL    HW213698   1.367   3.602   2.441
 4267SOL     OW13699   1.707   3.399   3.649
 4267SOL    HW113700   1.772   3.475   3.653
 4267SOL    HW213701   1.613   3.435   3.657
 4268SOL     OW13702   1.240   4.430   4.882
 4268SOL    HW113703   1.190   4.369   4.820
 4268SOL    HW213704   1.231   4.398   4.976
 4269SOL     OW13705   2.738   1.888   4.393
 4269SOL    HW113706   2.793   1.926   4.467
 4269SOL    HW213707   2.791   1.820   4.343
 4270SOL     OW13708   4.027   4.237   1.082
 4270SOL    HW113709   3.961   4.173   1.122
 4270SOL    HW213710   4.017   4.237   0.983
 4271SOL     OW13711   6.044   6.697   6.927
 4271SOL    HW113712   6.037   6.797   6.934
 4271SOL    HW213713   5.968   6.655   6.976
 4272SOL     OW13714   6.651   2.129   5.517
 4272SOL    HW113715   6.619   2.214   5.477
 4272SOL    HW213716   6.744   2.109   5.484
 4273SOL     OW13717   3.418   6.253   3.278
 4273SOL    HW113718   3.392   6.191   3.352
 4273SOL    HW213719   3.355   6.242   3.201
 4274SOL     OW13720   5.956   0.777   2.229
 4274SOL    HW113721   5.945   0.875   2.215
 4274SOL    HW213722   6.017   0.761   2.307
 4275SOL     OW13723   5.704   1.797   4.273
 4275SOL    HW113724   5.757   1.880   4.257
 4275SOL    HW213725   5.701   1.743   4.189
 4276SOL     OW13726   2.350   0.889   3.057
 4276SOL    HW113727   2.388   0.906   3.148
 4276SOL    HW213728   2.361   0.970   3.000
 4277SOL     OW13729   6.171   4.707   2.952
 4277SOL    HW113730   6.167   4.668   3.044
 4277SOL    HW213731   6.249   4.667   2.903
 4278SOL     OW13732   0.351   6.997   1.627
 4278SOL    HW113733   0.301   6.928   1.575
 4278SOL    HW213734   0.308   0.066   1.614
 4279SOL     OW13735   1.362   3.814   2.716
 4279SOL    HW113736   1.436   3.762   2.760
 4279SOL    HW213737   1.398   3.898   2.677
 4280SOL     OW13738   2.299   0.185   5.700
 4280SOL    HW113739   2.367   0.259   5.708
 4280SOL    HW213740   2.322   0.112   5.764
 4281SOL     OW13741   6.827   6.770   2.629
 4281SOL    HW113742   6.740   6.807   2.596
 4281SOL    HW213743   6.825   6.670   2.622
 4282SOL     OW13744   5.110   4.633   2.370
 4282SOL    HW113745   5.180   4.564   2.389
 4282SOL    HW213746   5.033   4.591   2.322
 4283SOL     OW13747   0.297   2.272   5.527
 4283SOL    HW113748   0.222   2.251   5.590
 4283SOL    HW213749   0.264   2.270   5.433
 4284SOL     OW13750   4.669   6.128   0.033
 4284SOL    HW113751   4.671   6.183   0.117
 4284SOL    HW213752   4.761   6.124   7.013
 4285SOL     OW13753   3.025   1.273   6.075
 4285SOL    HW113754   2.946   1.324   6.042
 4285SOL    HW213755   3.103   1.288   6.015
 4286SOL     OW13756   5.102   6.639   6.453
 4286SOL    HW113757   5.126   6.709   6.386
 4286SOL    HW213758   5.146   6.659   6.540
 4287SOL     OW13759   4.890   0.246   0.953
 4287SOL    HW113760   4.967   0.203   0.906
 4287SOL    HW213761   4.821   0.273   0.885
 4288SOL     OW13762   6.200   6.291   2.725
 4288SOL    HW113763   6.190   6.329   2.633
 4288SOL    HW213764   6.251   6.205   2.720
 4289SOL     OW13765   0.314   5.111   5.851
 4289SOL    HW113766   0.268   5.091   5.765
 4289SOL    HW213767   0.274   5.056   5.924
 4290SOL     OW13768   6.861   0.963   2.969
 4290SOL    HW113769   6.936   0.991   3.029
 4290SOL    HW213770   6.879   0.872   2.932
 4291SOL     OW13771   4.634   4.829   5.428
 4291SOL    HW113772   4.634   4.730   5.410
 4291SOL    HW213773   4.710   4.872   5.379
 4292SOL     OW13774   6.307   0.639   0.121
 4292SOL    HW113775   6.269   0.667   0.209
 4292SOL    HW213776   6.376   0.704   0.092
 4293SOL     OW13777   4.158   2.025   6.044
 4293SOL    HW113778   4.108   1.973   5.974
 4293SOL    HW213779   4.235   1.969   6.077
 4294SOL     OW13780   2.970   1.975   0.114
 4294SOL    HW113781   3.046   1.910   0.122
 4294SOL    HW213782   2.883   1.927   0.124
 4295SOL     OW13783   4.021   6.929   2.618
 4295SOL    HW113784   4.113   6.910   2.585
 4295SOL    HW213785   4.004   0.008   2.614
 4296SOL     OW13786   1.684   5.157   1.888
 4296SOL    HW113787   1.590   5.183   1.910
 4296SOL    HW213788   1.711   5.200   1.801
 4297SOL     OW13789   5.111   4.213   0.222
 4297SOL    HW113790   5.017   4.193   0.193
 4297SOL    HW213791   5.162   4.127   0.230
 4298SOL     OW13792   1.616   6.214   0.814
 4298SOL    HW113793   1.673   6.293   0.836
 4298SOL    HW213794   1.534   6.244   0.766
 4299SOL     OW13795   0.373   3.598   0.193
 4299SOL    HW113796   0.343   3.656   0.269
 4299SOL    HW213797   0.462   3.629   0.160
 4300SOL     OW13798   3.684   0.738   2.455
 4300SOL    HW113799   3.698   0.825   2.407
 4300SOL    HW213800   3.687   0.753   2.553
 4301SOL     OW13801   2.189   5.429   3.795
 4301SOL    HW113802   2.192   5.345   3.848
 4301SOL    HW213803   2.140   5.499   3.848
 4302SOL     OW13804   3.408   4.579   6.718
 4302SOL    HW113805   3.472   4.586   6.795
 4302SOL    HW213806   3.457   4.590   6.632
 4303SOL     OW13807   4.626   5.372   3.398
 4303SOL    HW113808   4.685   5.452   3.386
 4303SOL    HW213809   4.672   5.305   3.455
 4304SOL     OW13810   2.665   4.265   1.186
 4304SOL    HW113811   2.597   4.331   1.154
 4304SOL    HW213812   2.661   4.259   1.286
 4305SOL     OW13813   0.858   6.771   6.163
 4305SOL    HW113814   0.937   6.824   6.134
 4305SOL    HW213815   0.774   6.825   6.152
 4306SOL     OW13816   6.820   4.322   5.072
 4306SOL    HW113817   6.908   4.324   5.024
 4306SOL    HW213818   6.773   4.410   5.059
 4307SOL     OW13819   6.935   1.988   4.328
 4307SOL    HW113820   6.924   1.956   4.234
 4307SOL    HW213821   6.925   1.910   4.390
 4308SOL     OW13822   4.749   5.870   6.339
 4308SOL    HW113823   4.827   5.820   6.377
 4308SOL    HW213824   4.684   5.891   6.412
 4309SOL     OW13825   2.285   2.078   0.356
 4309SOL    HW113826   2.256   1.983   0.347
 4309SOL    HW213827   2.256   2.114   0.445
 4310SOL     OW13828   6.249   1.135   4.937
 4310SOL    HW113829   6.175   1.102   4.994
 4310SOL    HW213830   6.226   1.226   4.902
 4311SOL     OW13831   0.925   6.724   0.863
 4311SOL    HW113832   0.895   6.629   0.872
 4311SOL    HW213833   0.868   6.771   0.796
 4312SOL     OW13834   0.508   3.252   3.009
 4312SOL    HW113835   0.451   3.170   3.005
 4312SOL    HW213836   0.454   3.328   3.047
 4313SOL     OW13837   0.666   3.460   0.836
 4313SOL    HW113838   0.576   3.464   0.879
 4313SOL    HW213839   0.686   3.365   0.809
 4314SOL     OW13840   2.608   1.826   5.862
 4314SOL    HW113841   2.582   1.848   5.768
 4314SOL    HW213842   2.652   1.736   5.864
 4315SOL     OW13843   2.781   2.144   5.715
 4315SOL    HW113844   2.813   2.235   5.689
 4315SOL    HW213845   2.720   2.108   5.645
 4316SOL     OW13846   5.080   4.273   1.300
 4316SOL    HW113847   5.002   4.324   1.336
 4316SOL    HW213848   5.049   4.185   1.264
 4317SOL     OW13849   4.734   0.138   3.125
 4317SOL    HW113850   4.791   0.215   3.150
 4317SOL    HW213851   4.731   0.128   3.026
 4318SOL     OW13852   2.399   5.865   3.562
 4318SOL    HW113853   2.368   5.902   3.649
 4318SOL    HW213854   2.436   5.773   3.576
 4319SOL     OW13855   2.576   4.788   0.616
 4319SOL    HW113856   2.561   4.699   0.660
 4319SOL    HW213857   2.518   4.796   0.535
 4320SOL     OW13858   4.566   1.482   1.854
 4320SOL    HW113859   4.529   1.574   1.860
 4320SOL    HW213860   4.655   1.479   1.900
 4321SOL     OW13861   6.927   5.753   3.511
 4321SOL    HW113862   6.916   5.737   3.609
 4321SOL    HW213863   6.907   5.668   3.461
 4322SOL     OW13864   2.924   1.836   3.706
 4322SOL    HW113865   3.002   1.895   3.728
 4322SOL    HW213866   2.951   1.740   3.716
 4323SOL     OW13867   5.971   3.966   1.810
 4323SOL    HW113868   6.001   3.905   1.883
 4323SOL    HW213869   6.051   4.011   1.769
 4324SOL     OW13870   6.460   4.045   5.185
 4324SOL    HW113871   6.411   4.111   5.242
 4324SOL    HW213872   6.461   3.956   5.230
 4325SOL     OW13873   1.384   0.187   0.565
 4325SOL    HW113874   1.476   0.189   0.605
 4325SOL    HW213875   1.383   0.243   0.482
 4326SOL     OW13876   5.378   2.833   2.479
 4326SOL    HW113877   5.314   2.806   2.407
 4326SOL    HW213878   5.459   2.774   2.474
 4327SOL     OW13879   3.264   6.600   4.199
 4327SOL    HW113880   3.253   6.536   4.275
 4327SOL    HW213881   3.361   6.610   4.177
 4328SOL     OW13882   5.607   0.272   1.643
 4328SOL    HW113883   5.531   0.331   1.617
 4328SOL    HW213884   5.689   0.326   1.657
 4329SOL     OW13885   6.643   3.679   0.694
 4329SOL    HW113886   6.703   3.668   0.614
 4329SOL    HW213887   6.640   3.594   0.746
 4330SOL     OW13888   2.653   6.435   5.219
 4330SOL    HW113889   2.646   6.496   5.140
 4330SOL    HW213890   2.623   6.343   5.193
 4331SOL     OW13891   6.100   1.528   2.959
 4331SOL    HW113892   6.152   1.455   3.004
 4331SOL    HW213893   6.108   1.518   2.860
 4332SOL     OW13894   6.534   6.483   1.414
 4332SOL    HW113895   6.538   6.573   1.370
 4332SOL    HW213896   6.624   6.441   1.410
 4333SOL     OW13897   3.689   3.148   5.979
 4333SOL    HW113898   3.718   3.238   5.946
 4333SOL    HW213899   3.590   3.149   5.995
 4334SOL     OW13900   0.785   1.957   3.906
 4334SOL    HW113901   0.863   1.978   3.848
 4334SOL    HW213902   0.762   2.036   3.962
 4335SOL     OW13903   2.424   2.506   1.267
 4335SOL    HW113904   2.505   2.494   1.323
 4335SOL    HW213905   2.351   2.445   1.300
 4336SOL     OW13906   2.205   5.871   5.250
 4336SOL    HW113907   2.165   5.836   5.165
 4336SOL    HW213908   2.138   5.866   5.323
 4337SOL     OW13909   0.104   4.563   4.191
 4337SOL    HW113910   0.044   4.483   4.181
 4337SOL    HW213911   0.184   4.538   4.246
 4338SOL     OW13912   3.381   3.300   4.972
 4338SOL    HW113913   3.405   3.397   4.977
 4338SOL    HW213914   3.283   3.289   4.985
 4339SOL     OW13915   3.788   3.696   4.906
 4339SOL    HW113916   3.849   3.709   4.828
 4339SOL    HW213917   3.819   3.751   4.983
 4340SOL     OW13918   0.002   4.138   0.540
 4340SOL    HW113919   0.013   4.237   0.531
 4340SOL    HW213920   6.953   4.106   0.475
 4341SOL     OW13921   5.798   6.663   1.496
 4341SOL    HW113922   5.766   6.697   1.408
 4341SOL    HW213923   5.857   6.731   1.539
 4342SOL     OW13924   5.182   3.731   2.217
 4342SOL    HW113925   5.243   3.653   2.200
 4342SOL    HW213926   5.087   3.699   2.217
 4343SOL     OW13927   4.928   6.934   6.368
 4343SOL    HW113928   4.880   6.947   6.281
 4343SOL    HW213929   4.992   6.858   6.359
 4344SOL     OW13930   1.638   4.362   2.414
 4344SOL    HW113931   1.595   4.446   2.380
 4344SOL    HW213932   1.594   4.283   2.374
 4345SOL     OW13933   3.692   3.740   2.287
 4345SOL    HW113934   3.764   3.810   2.294
 4345SOL    HW213935   3.732   3.655   2.253
 4346SOL     OW13936   1.172   3.130   1.610
 4346SOL    HW113937   1.208   3.037   1.601
 4346SOL    HW213938   1.189   3.180   1.525
 4347SOL     OW13939   5.601   5.895   0.814
 4347SOL    HW113940   5.522   5.948   0.782
 4347SOL    HW213941   5.684   5.930   0.770
 4348SOL     OW13942   6.897   4.393   6.196
 4348SOL    HW113943   6.801   4.368   6.205
 4348SOL    HW213944   6.918   4.411   6.100
 4349SOL     OW13945   0.930   3.718   3.764
 4349SOL    HW113946   0.870   3.649   3.804
 4349SOL    HW213947   0.944   3.792   3.830
 4350SOL     OW13948   4.728   6.958   4.056
 4350SOL    HW113949   4.763   6.898   4.126
 4350SOL    HW213950   4.674   0.011   4.098
 4351SOL     OW13951   0.230   6.758   1.511
 4351SOL    HW113952   0.276   6.802   1.434
 4351SOL    HW213953   0.291   6.691   1.553
 4352SOL     OW13954   4.481   4.395   1.288
 4352SOL    HW113955   4.526   4.452   1.357
 4352SOL    HW213956   4.388   4.374   1.318
 4353SOL     OW13957   2.152   3.464   6.930
 4353SOL    HW113958   2.185   3.498   7.018
 4353SOL    HW213959   2.214   3.394   6.897
 4354SOL     OW13960   6.504   4.238   2.680
 4354SOL    HW113961   6.410   4.262   2.705
 4354SOL    HW213962   6.504   4.151   2.632
 4355SOL     OW13963   2.301   5.169   4.106
 4355SOL    HW113964   2.399   5.184   4.109
 4355SOL    HW213965   2.282   5.085   4.056
 4356SOL     OW13966   5.746   1.819   5.486
 4356SOL    HW113967   5.731   1.778   5.576
 4356SOL    HW213968   5.706   1.759   5.416
 4357SOL     OW13969   5.182   5.625   2.630
 4357SOL    HW113970   5.160   5.531   2.657
 4357SOL    HW213971   5.253   5.661   2.691
 4358SOL     OW13972   3.688   0.629   1.311
 4358SOL    HW113973   3.620   0.671   1.372
 4358SOL    HW213974   3.752   0.575   1.365
 4359SOL     OW13975   3.033   4.259   1.674
 4359SOL    HW113976   2.938   4.283   1.657
 4359SOL    HW213977   3.086   4.342   1.688
 4360SOL     OW13978   2.903   6.444   3.732
 4360SOL    HW113979   2.827   6.420   3.793
 4360SOL    HW213980   2.922   6.542   3.739
 4361SOL     OW13981   1.891   7.006   6.721
 4361SOL    HW113982   1.918   6.936   6.655
 4361SOL    HW213983   1.828   0.051   6.677
 4362SOL     OW13984   5.954   5.311   1.862
 4362SOL    HW113985   5.983   5.267   1.777
 4362SOL    HW213986   5.978   5.253   1.940
 4363SOL     OW13987   4.545   0.545   2.452
 4363SOL    HW113988   4.635   0.559   2.494
 4363SOL    HW213989   4.498   0.469   2.497
 4364SOL     OW13990   3.622   3.261   3.089
 4364SOL    HW113991   3.635   3.187   3.154
 4364SOL    HW213992   3.528   3.294   3.093
 4365SOL     OW13993   2.130   1.385   0.954
 4365SOL    HW113994   2.229   1.394   0.940
 4365SOL    HW213995   2.082   1.409   0.869
 4366SOL     OW13996   4.630   5.347   4.974
 4366SOL    HW113997   4.676   5.400   4.903
 4366SOL    HW213998   4.626   5.250   4.947
 4367SOL     OW13999   1.473   0.099   1.607
 4367SOL    HW114000   1.414   0.148   1.672
 4367SOL    HW214001   1.550   0.158   1.582
 4368SOL     OW14002   5.429   5.328   4.151
 4368SOL    HW114003   5.374   5.345   4.069
 4368SOL    HW214004   5.415   5.402   4.217
 4369SOL     OW14005   6.816   4.323   3.582
 4369SOL    HW114006   6.876   4.288   3.510
 4369SOL    HW214007   6.723   4.332   3.546
 4370SOL     OW14008   5.608   4.484   1.272
 4370SOL    HW114009   5.566   4.427   1.343
 4370SOL    HW214010   5.631   4.573   1.310
 4371SOL     OW14011   3.158   0.789   3.667
 4371SOL    HW114012   3.199   0.744   3.746
 4371SOL    HW214013   3.213   0.869   3.642
 4372SOL     OW14014   1.956   4.278   5.487
 4372SOL    HW114015   1.880   4.338   5.513
 4372SOL    HW214016   2.000   4.243   5.569
 4373SOL     OW14017   4.132   0.481   0.708
 4373SOL    HW114018   4.042   0.507   0.744
 4373SOL    HW214019   4.173   0.412   0.769
 4374SOL     OW14020   1.969   6.249   0.346
 4374SOL    HW114021   2.058   6.282   0.380
 4374SOL    HW214022   1.897   6.276   0.410
 4375SOL     OW14023   4.498   0.673   5.209
 4375SOL    HW114024   4.494   0.669   5.109
 4375SOL    HW214025   4.537   0.760   5.238
 4376SOL     OW14026   2.092   4.556   6.883
 4376SOL    HW114027   2.161   4.493   6.921
 4376SOL    HW214028   2.068   4.624   6.953
 4377SOL     OW14029   5.568   6.063   6.915
 4377SOL    HW114030   5.485   6.114   6.937
 4377SOL    HW214031   5.571   6.048   6.816
 4378SOL     OW14032   3.010   5.121   1.063
 4378SOL    HW114033   3.065   5.049   1.106
 4378SOL    HW214034   2.917   5.088   1.048
 4379SOL     OW14035   5.791   6.652   1.007
 4379SOL    HW114036   5.714   6.599   0.972
 4379SOL    HW214037   5.826   6.711   0.935
 4380SOL     OW14038   1.691   5.863   4.686
 4380SOL    HW114039   1.624   5.936   4.697
 4380SOL    HW214040   1.781   5.894   4.718
 4381SOL     OW14041   3.416   6.122   5.049
 4381SOL    HW114042   3.338   6.181   5.030
 4381SOL    HW214043   3.384   6.029   5.069
 4382SOL     OW14044   5.859   3.373   3.329
 4382SOL    HW114045   5.784   3.309   3.313
 4382SOL    HW214046   5.830   3.466   3.307
 4383SOL     OW14047   1.069   6.866   6.902
 4383SOL    HW114048   1.131   6.940   6.926
 4383SOL    HW214049   0.995   6.901   6.844
 4384SOL     OW14050   3.794   0.050   1.762
 4384SOL    HW114051   3.879   0.059   1.711
 4384SOL    HW214052   3.759   6.976   1.753
 4385SOL     OW14053   5.686   2.813   4.509
 4385SOL    HW114054   5.699   2.718   4.537
 4385SOL    HW214055   5.697   2.820   4.410
 4386SOL     OW14056   1.618   5.408   0.229
 4386SOL    HW114057   1.564   5.352   0.166
 4386SOL    HW214058   1.640   5.495   0.185
 4387SOL     OW14059   6.695   2.708   0.964
 4387SOL    HW114060   6.621   2.746   1.019
 4387SOL    HW214061   6.703   2.761   0.879
 4388SOL     OW14062   3.962   0.625   5.709
 4388SOL    HW114063   4.048   0.668   5.684
 4388SOL    HW214064   3.887   0.689   5.696
 4389SOL     OW14065   1.199   2.957   2.594
 4389SOL    HW114066   1.113   2.930   2.638
 4389SOL    HW214067   1.215   2.899   2.514
 4390SOL     OW14068   5.213   3.945   1.193
 4390SOL    HW114069   5.249   3.938   1.100
 4390SOL    HW214070   5.223   3.857   1.240
 4391SOL     OW14071   0.559   5.604   1.469
 4391SOL    HW114072   0.571   5.620   1.371
 4391SOL    HW214073   0.480   5.657   1.502
 4392SOL     OW14074   5.546   5.502   4.745
 4392SOL    HW114075   5.542   5.594   4.707
 4392SOL    HW214076   5.477   5.445   4.702
 4393SOL     OW14077   5.235   0.074   2.714
 4393SOL    HW114078   5.316   0.132   2.717
 4393SOL    HW214079   5.249   7.014   2.774
 4394SOL     OW14080   4.796   1.052   3.090
 4394SOL    HW114081   4.862   0.981   3.113
 4394SOL    HW214082   4.838   1.142   3.103
 4395SOL     OW14083   5.399   2.780   1.299
 4395SOL    HW114084   5.336   2.711   1.335
 4395SOL    HW214085   5.395   2.862   1.356
 4396SOL     OW14086   2.219   0.807   2.298
 4396SOL    HW114087   2.281   0.864   2.243
 4396SOL    HW214088   2.251   0.805   2.393
 4397SOL     OW14089   4.343   1.974   0.534
 4397SOL    HW114090   4.394   2.058   0.552
 4397SOL    HW214091   4.333   1.961   0.435
 4398SOL     OW14092   0.768   5.218   4.974
 4398SOL    HW114093   0.755   5.184   5.067
 4398SOL    HW214094   0.685   5.264   4.944
 4399SOL     OW14095   2.774   0.267   1.624
 4399SOL    HW114096   2.769   0.168   1.607
 4399SOL    HW214097   2.784   0.315   1.537
 4400SOL     OW14098   4.010   5.145   2.623
 4400SOL    HW114099   3.924   5.135   2.573
 4400SOL    HW214100   3.991   5.183   2.714
 4401SOL     OW14101   4.682   6.702   4.489
 4401SOL    HW114102   4.745   6.667   4.558
 4401SOL    HW214103   4.619   6.630   4.461
 4402SOL     OW14104   0.100   6.424   0.726
 4402SOL    HW114105   0.065   6.416   0.632
 4402SOL    HW214106   0.091   6.336   0.772
 4403SOL     OW14107   6.563   1.663   3.309
 4403SOL    HW114108   6.624   1.696   3.381
 4403SOL    HW214109   6.609   1.670   3.220
 4404SOL     OW14110   1.546   3.659   2.843
 4404SOL    HW114111   1.569   3.567   2.873
 4404SOL    HW214112   1.617   3.692   2.780
 4405SOL     OW14113   3.326   3.856   6.940
 4405SOL    HW114114   3.387   3.936   6.941
 4405SOL    HW214115   3.309   3.826   0.014
 4406SOL     OW14116   6.312   2.425   2.995
 4406SOL    HW114117   6.309   2.403   3.093
 4406SOL    HW214118   6.228   2.393   2.951
 4407SOL     OW14119   0.742   0.800   0.481
 4407SOL    HW114120   0.777   0.854   0.404
 4407SOL    HW214121   0.811   0.735   0.511
 4408SOL     OW14122   4.937   6.357   1.255
 4408SOL    HW114123   4.977   6.298   1.185
 4408SOL    HW214124   4.938   6.452   1.223
 4409SOL     OW14125   3.819   1.519   2.985
 4409SOL    HW114126   3.789   1.565   2.902
 4409SOL    HW214127   3.749   1.452   3.013
 4410SOL     OW14128   2.054   5.778   0.452
 4410SOL    HW114129   2.090   5.706   0.392
 4410SOL    HW214130   2.079   5.759   0.546
 4411SOL     OW14131   3.508   3.139   1.772
 4411SOL    HW114132   3.436   3.071   1.759
 4411SOL    HW214133   3.547   3.166   1.684
 4412SOL     OW14134   3.228   1.018   6.709
 4412SOL    HW114135   3.205   1.078   6.632
 4412SOL    HW214136   3.287   0.944   6.677
 4413SOL     OW14137   3.868   5.954   4.136
 4413SOL    HW114138   3.932   6.009   4.082
 4413SOL    HW214139   3.812   5.898   4.074
 4414SOL     OW14140   3.426   4.487   1.380
 4414SOL    HW114141   3.465   4.478   1.472
 4414SOL    HW214142   3.483   4.439   1.314
 4415SOL     OW14143   4.824   1.397   1.901
 4415SOL    HW114144   4.887   1.372   1.975
 4415SOL    HW214145   4.877   1.414   1.818
 4416SOL     OW14146   2.821   2.306   5.177
 4416SOL    HW114147   2.920   2.312   5.165
 4416SOL    HW214148   2.777   2.292   5.088
 4417SOL     OW14149   4.946   1.026   1.320
 4417SOL    HW114150   4.975   0.955   1.385
 4417SOL    HW214151   4.895   0.984   1.245
 4418SOL     OW14152   4.253   0.530   2.895
 4418SOL    HW114153   4.322   0.558   2.828
 4418SOL    HW214154   4.299   0.485   2.972
 4419SOL     OW14155   6.327   5.305   6.462
 4419SOL    HW114156   6.251   5.245   6.437
 4419SOL    HW214157   6.301   5.360   6.542
 4420SOL     OW14158   5.412   1.388   0.665
 4420SOL    HW114159   5.383   1.317   0.729
 4420SOL    HW214160   5.502   1.365   0.628
 4421SOL     OW14161   1.028   1.388   3.233
 4421SOL    HW114162   0.957   1.413   3.299
 4421SOL    HW214163   1.095   1.463   3.227
 4422SOL     OW14164   1.757   4.112   5.401
 4422SOL    HW114165   1.826   4.184   5.402
 4422SOL    HW214166   1.697   4.121   5.480
 4423SOL     OW14167   6.781   2.272   6.191
 4423SOL    HW114168   6.842   2.272   6.111
 4423SOL    HW214169   6.835   2.254   6.273
 4424SOL     OW14170   2.187   5.304   3.124
 4424SOL    HW114171   2.212   5.360   3.045
 4424SOL    HW214172   2.095   5.328   3.154
 4425SOL     OW14173   5.545   4.107   2.994
 4425SOL    HW114174   5.500   4.156   2.920
 4425SOL    HW214175   5.573   4.016   2.962
 4426SOL     OW14176   0.192   6.550   6.748
 4426SOL    HW114177   0.142   6.608   6.811
 4426SOL    HW214178   0.269   6.506   6.795
 4427SOL     OW14179   0.477   4.980   3.946
 4427SOL    HW114180   0.477   4.883   3.924
 4427SOL    HW214181   0.487   5.034   3.863
 4428SOL     OW14182   1.576   0.202   2.151
 4428SOL    HW114183   1.487   0.246   2.139
 4428SOL    HW214184   1.579   0.157   2.240
 4429SOL     OW14185   2.074   6.959   1.320
 4429SOL    HW114186   1.988   6.984   1.275
 4429SOL    HW214187   2.055   6.927   1.413
 4430SOL     OW14188   1.906   0.293   2.176
 4430SOL    HW114189   1.853   0.239   2.110
 4430SOL    HW214190   1.847   0.321   2.251
 4431SOL     OW14191   2.384   1.639   2.442
 4431SOL    HW114192   2.353   1.704   2.512
 4431SOL    HW214193   2.312   1.574   2.422
 4432SOL     OW14194   3.617   3.727   4.507
 4432SOL    HW114195   3.617   3.691   4.600
 4432SOL    HW214196   3.599   3.825   4.509
 4433SOL     OW14197   5.745   6.991   1.324
 4433SOL    HW114198   5.819   7.017   1.386
 4433SOL    HW214199   5.754   6.894   1.300
 4434SOL     OW14200   5.634   1.965   5.852
 4434SOL    HW114201   5.622   1.958   5.753
 4434SOL    HW214202   5.548   1.940   5.897
 4435SOL     OW14203   3.690   2.520   1.665
 4435SOL    HW114204   3.709   2.608   1.707
 4435SOL    HW214205   3.686   2.449   1.736
 4436SOL     OW14206   5.676   6.894   0.074
 4436SOL    HW114207   5.626   6.916   7.011
 4436SOL    HW214208   5.774   6.894   0.055
 4437SOL     OW14209   2.950   0.048   5.634
 4437SOL    HW114210   2.945   0.095   5.546
 4437SOL    HW214211   3.009   0.100   5.696
 4438SOL     OW14212   3.847   2.400   6.710
 4438SOL    HW114213   3.755   2.371   6.683
 4438SOL    HW214214   3.842   2.489   6.755
 4439SOL     OW14215   0.892   5.515   2.867
 4439SOL    HW114216   0.926   5.487   2.777
 4439SOL    HW214217   0.966   5.506   2.934
 4440SOL     OW14218   6.336   1.636   0.291
 4440SOL    HW114219   6.362   1.571   0.363
 4440SOL    HW214220   6.246   1.674   0.312
 4441SOL     OW14221   5.990   0.972   4.269
 4441SOL    HW114222   5.921   0.902   4.246
 4441SOL    HW214223   5.944   1.059   4.284
 4442SOL     OW14224   1.773   6.229   1.661
 4442SOL    HW114225   1.811   6.211   1.571
 4442SOL    HW214226   1.754   6.143   1.708
 4443SOL     OW14227   1.784   1.320   1.172
 4443SOL    HW114228   1.871   1.271   1.159
 4443SOL    HW214229   1.731   1.317   1.087
 4444SOL     OW14230   5.089   2.053   2.816
 4444SOL    HW114231   5.022   2.013   2.878
 4444SOL    HW214232   5.131   1.982   2.761
 4445SOL     OW14233   1.199   2.099   6.049
 4445SOL    HW114234   1.229   2.180   5.998
 4445SOL    HW214235   1.133   2.048   5.994
 4446SOL     OW14236   6.475   5.590   4.301
 4446SOL    HW114237   6.507   5.658   4.235
 4446SOL    HW214238   6.514   5.610   4.391
 4447SOL     OW14239   4.891   3.800   4.823
 4447SOL    HW114240   4.891   3.718   4.881
 4447SOL    HW214241   4.832   3.870   4.863
 4448SOL     OW14242   2.479   3.318   6.659
 4448SOL    HW114243   2.433   3.343   6.573
 4448SOL    HW214244   2.497   3.220   6.659
 4449SOL     OW14245   0.367   1.913   5.755
 4449SOL    HW114246   0.271   1.890   5.739
 4449SOL    HW214247   0.409   1.842   5.811
 4450SOL     OW14248   4.102   3.357   2.957
 4450SOL    HW114249   4.096   3.323   3.050
 4450SOL    HW214250   4.199   3.364   2.930
 4451SOL     OW14251   0.436   5.546   1.170
 4451SOL    HW114252   0.376   5.482   1.123
 4451SOL    HW214253   0.382   5.621   1.209
 4452SOL     OW14254   1.089   3.820   6.669
 4452SOL    HW114255   1.100   3.790   6.574
 4452SOL    HW214256   1.007   3.778   6.708
 4453SOL     OW14257   5.479   1.017   0.614
 4453SOL    HW114258   5.392   0.971   0.596
 4453SOL    HW214259   5.544   0.950   0.651
 4454SOL     OW14260   6.072   3.340   2.235
 4454SOL    HW114261   6.003   3.382   2.176
 4454SOL    HW214262   6.094   3.248   2.200
 4455SOL     OW14263   4.869   2.539   2.572
 4455SOL    HW114264   4.830   2.470   2.510
 4455SOL    HW214265   4.967   2.551   2.552
 4456SOL     OW14266   6.845   5.686   2.760
 4456SOL    HW114267   6.749   5.666   2.740
 4456SOL    HW214268   6.900   5.675   2.677
 4457SOL     OW14269   4.929   2.720   6.472
 4457SOL    HW114270   4.987   2.785   6.425
 4457SOL    HW214271   4.938   2.630   6.429
 4458SOL     OW14272   4.403   2.010   1.303
 4458SOL    HW114273   4.358   2.060   1.378
 4458SOL    HW214274   4.397   1.912   1.320
 4459SOL     OW14275   6.551   5.139   6.383
 4459SOL    HW114276   6.481   5.208   6.396
 4459SOL    HW214277   6.515   5.049   6.410
 4460SOL     OW14278   1.707   7.017   0.044
 4460SOL    HW114279   1.807   7.007   0.044
 4460SOL    HW214280   1.672   6.995   0.135
 4461SOL     OW14281   2.131   0.010   3.380
 4461SOL    HW114282   2.100   0.036   3.288
 4461SOL    HW214283   2.208   0.068   3.407
 4462SOL     OW14284   0.600   3.015   1.442
 4462SOL    HW114285   0.597   3.098   1.386
 4462SOL    HW214286   0.542   2.945   1.401
 4463SOL     OW14287   0.460   3.591   6.444
 4463SOL    HW114288   0.447   3.622   6.539
 4463SOL    HW214289   0.550   3.620   6.412
 4464SOL     OW14290   6.991   3.546   0.916
 4464SOL    HW114291   7.009   3.499   0.830
 4464SOL    HW214292   6.963   3.640   0.898
 4465SOL     OW14293   5.958   4.541   1.441
 4465SOL    HW114294   6.005   4.587   1.366
 4465SOL    HW214295   5.860   4.556   1.434
 4466SOL     OW14296   0.036   3.168   4.089
 4466SOL    HW114297   6.980   3.118   4.046
 4466SOL    HW214298   0.033   3.264   4.061
 4467SOL     OW14299   1.382   0.287   4.252
 4467SOL    HW114300   1.444   0.259   4.324
 4467SOL    HW214301   1.308   0.221   4.244
 4468SOL     OW14302   0.820   1.262   0.379
 4468SOL    HW114303   0.883   1.330   0.342
 4468SOL    HW214304   0.869   1.200   0.440
 4469SOL     OW14305   4.677   6.635   0.349
 4469SOL    HW114306   4.581   6.612   0.365
 4469SOL    HW214307   4.720   6.566   0.292
 4470SOL     OW14308   4.822   4.405   1.326
 4470SOL    HW114309   4.789   4.315   1.352
 4470SOL    HW214310   4.826   4.412   1.226
 4471SOL     OW14311   6.578   2.367   1.721
 4471SOL    HW114312   6.565   2.373   1.820
 4471SOL    HW214313   6.565   2.273   1.690
 4472SOL     OW14314   2.437   5.260   1.616
 4472SOL    HW114315   2.405   5.211   1.697
 4472SOL    HW214316   2.529   5.230   1.593
 4473SOL     OW14317   5.325   1.004   0.267
 4473SOL    HW114318   5.392   1.072   0.295
 4473SOL    HW214319   5.238   1.022   0.312
 4474SOL     OW14320   6.882   1.615   5.098
 4474SOL    HW114321   6.810   1.676   5.064
 4474SOL    HW214322   6.921   1.652   5.182
 4475SOL     OW14323   1.486   3.119   0.686
 4475SOL    HW114324   1.494   3.184   0.762
 4475SOL    HW214325   1.569   3.065   0.679
 4476SOL     OW14326   3.274   6.454   2.659
 4476SOL    HW114327   3.282   6.436   2.757
 4476SOL    HW214328   3.182   6.427   2.629
 4477SOL     OW14329   1.354   2.116   1.165
 4477SOL    HW114330   1.428   2.102   1.099
 4477SOL    HW214331   1.363   2.051   1.240
 4478SOL     OW14332   1.105   4.318   0.630
 4478SOL    HW114333   1.184   4.309   0.690
 4478SOL    HW214334   1.027   4.353   0.682
 4479SOL     OW14335   0.891   5.696   6.219
 4479SOL    HW114336   0.855   5.675   6.310
 4479SOL    HW214337   0.974   5.751   6.228
 4480SOL     OW14338   6.817   3.004   2.955
 4480SOL    HW114339   6.916   2.995   2.940
 4480SOL    HW214340   6.785   3.089   2.913
 4481SOL     OW14341   0.587   0.873   3.970
 4481SOL    HW114342   0.645   0.893   4.049
 4481SOL    HW214343   0.613   0.786   3.930
 4482SOL     OW14344   0.686   4.208   3.592
 4482SOL    HW114345   0.688   4.119   3.548
 4482SOL    HW214346   0.607   4.213   3.654
 4483SOL     OW14347   6.581   4.373   1.155
 4483SOL    HW114348   6.574   4.274   1.153
 4483SOL    HW214349   6.666   4.401   1.110
 4484SOL     OW14350   3.741   3.908   6.440
 4484SOL    HW114351   3.765   3.984   6.500
 4484SOL    HW214352   3.739   3.939   6.345
 4485SOL     OW14353   4.371   6.643   5.356
 4485SOL    HW114354   4.391   6.558   5.308
 4485SOL    HW214355   4.301   6.694   5.306
 4486SOL     OW14356   6.098   3.529   4.120
 4486SOL    HW114357   6.181   3.546   4.174
 4486SOL    HW214358   6.023   3.508   4.182
 4487SOL     OW14359   3.642   2.656   6.071
 4487SOL    HW114360   3.566   2.699   6.023
 4487SOL    HW214361   3.709   2.726   6.096
 4488SOL     OW14362   6.925   2.619   6.725
 4488SOL    HW114363   6.890   2.526   6.717
 4488SOL    HW214364   6.993   2.636   6.653
 4489SOL     OW14365   0.744   2.157   4.138
 4489SOL    HW114366   0.812   2.228   4.123
 4489SOL    HW214367   0.788   2.077   4.180
 4490SOL     OW14368   0.042   2.009   3.521
 4490SOL    HW114369   6.993   1.990   3.451
 4490SOL    HW214370   0.116   2.063   3.481
 4491SOL     OW14371   2.132   5.157   2.142
 4491SOL    HW114372   2.173   5.230   2.197
 4491SOL    HW214373   2.176   5.070   2.164
 4492SOL     OW14374   5.593   3.876   5.034
 4492SOL    HW114375   5.680   3.874   5.083
 4492SOL    HW214376   5.605   3.923   4.946
 4493SOL     OW14377   6.097   5.047   3.765
 4493SOL    HW114378   6.035   4.980   3.806
 4493SOL    HW214379   6.162   5.079   3.834
 4494SOL     OW14380   5.060   3.354   2.103
 4494SOL    HW114381   5.120   3.377   2.180
 4494SOL    HW214382   4.988   3.292   2.135
 4495SOL     OW14383   5.626   4.397   2.319
 4495SOL    HW114384   5.655   4.333   2.248
 4495SOL    HW214385   5.656   4.362   2.408
 4496SOL     OW14386   6.092   3.424   6.301
 4496SOL    HW114387   6.167   3.491   6.299
 4496SOL    HW214388   6.031   3.440   6.224
 4497SOL     OW14389   6.024   0.281   0.498
 4497SOL    HW114390   6.067   0.280   0.588
 4497SOL    HW214391   5.972   0.365   0.486
 4498SOL     OW14392   1.425   4.724   6.121
 4498SOL    HW114393   1.329   4.752   6.117
 4498SOL    HW214394   1.461   4.739   6.213
 4499SOL     OW14395   5.734   3.743   0.243
 4499SOL    HW114396   5.788   3.663   0.215
 4499SOL    HW214397   5.636   3.722   0.234
 4500SOL     OW14398   3.296   3.876   1.711
 4500SOL    HW114399   3.285   3.917   1.802
 4500SOL    HW214400   3.287   3.777   1.717
 4501SOL     OW14401   1.296   5.497   4.904
 4501SOL    HW114402   1.380   5.491   4.958
 4501SOL    HW214403   1.285   5.414   4.849
 4502SOL     OW14404   5.949   2.717   0.490
 4502SOL    HW114405   5.953   2.722   0.590
 4502SOL    HW214406   5.864   2.761   0.458
 4503SOL     OW14407   1.069   3.955   2.553
 4503SOL    HW114408   1.019   3.870   2.534
 4503SOL    HW214409   1.088   3.961   2.651
 4504SOL     OW14410   4.557   2.154   3.993
 4504SOL    HW114411   4.523   2.088   4.059
 4504SOL    HW214412   4.657   2.157   3.998
 4505SOL     OW14413   2.583   5.605   0.045
 4505SOL    HW114414   2.563   5.621   0.141
 4505SOL    HW214415   2.650   5.672   0.013
 4506SOL     OW14416   3.454   6.209   6.049
 4506SOL    HW114417   3.447   6.109   6.040
 4506SOL    HW214418   3.416   6.237   6.137
 4507SOL     OW14419   6.493   3.987   2.583
 4507SOL    HW114420   6.497   3.954   2.489
 4507SOL    HW214421   6.576   3.959   2.632
 4508SOL     OW14422   1.783   4.704   1.279
 4508SOL    HW114423   1.751   4.708   1.184
 4508SOL    HW214424   1.737   4.773   1.333
 4509SOL     OW14425   1.051   2.426   3.758
 4509SOL    HW114426   0.979   2.361   3.732
 4509SOL    HW214427   1.140   2.382   3.745
 4510SOL     OW14428   2.820   0.267   6.992
 4510SOL    HW114429   2.735   0.254   0.022
 4510SOL    HW214430   2.897   0.255   0.035
 4511SOL     OW14431   0.148   2.545   0.357
 4511SOL    HW114432   0.182   2.605   0.430
 4511SOL    HW214433   0.219   2.530   0.289
 4512SOL     OW14434   2.121   3.671   0.494
 4512SOL    HW114435   2.073   3.643   0.411
 4512SOL    HW214436   2.107   3.602   0.566
 4513SOL     OW14437   6.437   1.936   2.451
 4513SOL    HW114438   6.492   1.855   2.474
 4513SOL    HW214439   6.381   1.916   2.370
 4514SOL     OW14440   1.551   0.288   4.464
 4514SOL    HW114441   1.633   0.281   4.406
 4514SOL    HW214442   1.514   0.381   4.457
 4515SOL     OW14443   0.428   4.082   0.609
 4515SOL    HW114444   0.511   4.109   0.561
 4515SOL    HW214445   0.354   4.071   0.543
 4516SOL     OW14446   7.016   0.328   3.940
 4516SOL    HW114447   7.008   0.351   4.037
 4516SOL    HW214448   6.993   0.408   3.885
 4517SOL     OW14449   2.582   0.857   0.502
 4517SOL    HW114450   2.635   0.937   0.476
 4517SOL    HW214451   2.644   0.783   0.527
 4518SOL     OW14452   0.864   1.288   3.543
 4518SOL    HW114453   0.802   1.324   3.612
 4518SOL    HW214454   0.845   1.191   3.529
 4519SOL     OW14455   0.227   2.514   4.405
 4519SOL    HW114456   0.257   2.532   4.311
 4519SOL    HW214457   0.129   2.494   4.404
 4520SOL     OW14458   0.047   3.750   3.420
 4520SOL    HW114459   6.984   3.748   3.477
 4520SOL    HW214460   0.105   3.672   3.444
 4521SOL     OW14461   4.939   1.404   6.212
 4521SOL    HW114462   4.905   1.447   6.128
 4521SOL    HW214463   5.038   1.392   6.205
 4522SOL     OW14464   5.046   6.627   3.372
 4522SOL    HW114465   4.947   6.625   3.384
 4522SOL    HW214466   5.088   6.677   3.448
 4523SOL     OW14467   4.976   1.723   5.784
 4523SOL    HW114468   4.993   1.791   5.713
 4523SOL    HW214469   4.906   1.658   5.753
 4524SOL     OW14470   6.072   1.957   5.150
 4524SOL    HW114471   5.979   1.951   5.116
 4524SOL    HW214472   6.117   1.868   5.142
 4525SOL     OW14473   0.289   1.263   4.118
 4525SOL    HW114474   0.254   1.169   4.115
 4525SOL    HW214475   0.216   1.327   4.096
 4526SOL     OW14476   2.109   2.238   1.001
 4526SOL    HW114477   2.021   2.279   1.024
 4526SOL    HW214478   2.154   2.293   0.930
 4527SOL     OW14479   4.668   0.103   2.866
 4527SOL    HW114480   4.709   0.052   2.790
 4527SOL    HW214481   4.569   0.089   2.865
 4528SOL     OW14482   4.505   0.117   6.427
 4528SOL    HW114483   4.415   0.161   6.432
 4528SOL    HW214484   4.534   0.109   6.332
 4529SOL     OW14485   2.786   6.960   4.073
 4529SOL    HW114486   2.740   6.873   4.055
 4529SOL    HW214487   2.847   6.950   4.152
 4530SOL     OW14488   6.656   2.230   4.416
 4530SOL    HW114489   6.671   2.203   4.320
 4530SOL    HW214490   6.698   2.319   4.432
 4531SOL     OW14491   7.017   4.187   3.411
 4531SOL    HW114492   7.015   4.208   3.314
 4531SOL    HW214493   0.068   4.119   3.430
 4532SOL     OW14494   0.478   1.947   0.611
 4532SOL    HW114495   0.397   1.961   0.667
 4532SOL    HW214496   0.552   1.911   0.667
 4533SOL     OW14497   3.646   6.154   1.592
 4533SOL    HW114498   3.726   6.096   1.578
 4533SOL    HW214499   3.586   6.150   1.512
 4534SOL     OW14500   6.402   4.119   6.385
 4534SOL    HW114501   6.376   4.215   6.392
 4534SOL    HW214502   6.488   4.104   6.433
 4535SOL     OW14503   4.739   1.588   2.367
 4535SOL    HW114504   4.681   1.598   2.448
 4535SOL    HW214505   4.729   1.496   2.330
 4536SOL     OW14506   6.645   0.091   3.609
 4536SOL    HW114507   6.737   0.127   3.627
 4536SOL    HW214508   6.648   0.034   3.526
 4537SOL     OW14509   5.025   3.060   5.377
 4537SOL    HW114510   5.072   3.148   5.387
 4537SOL    HW214511   4.949   3.070   5.313
 4538SOL     OW14512   3.394   1.933   1.374
 4538SOL    HW114513   3.445   1.849   1.396
 4538SOL    HW214514   3.370   1.979   1.459
 4539SOL     OW14515   2.433   3.929   0.710
 4539SOL    HW114516   2.525   3.946   0.675
 4539SOL    HW214517   2.429   3.954   0.807
 4540SOL     OW14518   3.742   3.262   3.998
 4540SOL    HW114519   3.708   3.314   3.919
 4540SOL    HW214520   3.669   3.202   4.031
 4541SOL     OW14521   5.988   0.983   1.651
 4541SOL    HW114522   5.971   0.885   1.645
 4541SOL    HW214523   5.948   1.028   1.571
 4542SOL     OW14524   5.503   6.284   3.299
 4542SOL    HW114525   5.415   6.297   3.344
 4542SOL    HW214526   5.575   6.327   3.353
 4543SOL     OW14527   5.125   2.836   2.705
 4543SOL    HW114528   5.166   2.775   2.637
 4543SOL    HW214529   5.147   2.931   2.683
 4544SOL     OW14530   5.591   4.659   0.422
 4544SOL    HW114531   5.551   4.590   0.482
 4544SOL    HW214532   5.625   4.735   0.477
 4545SOL     OW14533   4.746   3.632   0.518
 4545SOL    HW114534   4.761   3.731   0.519
 4545SOL    HW214535   4.825   3.586   0.560
 4546SOL     OW14536   0.756   6.050   0.600
 4546SOL    HW114537   0.801   5.962   0.613
 4546SOL    HW214538   0.825   6.122   0.593
 4547SOL     OW14539   4.556   1.576   2.578
 4547SOL    HW114540   4.579   1.479   2.589
 4547SOL    HW214541   4.457   1.586   2.566
 4548SOL     OW14542   1.198   3.173   4.249
 4548SOL    HW114543   1.219   3.081   4.218
 4548SOL    HW214544   1.280   3.216   4.286
 4549SOL     OW14545   5.857   1.585   3.021
 4549SOL    HW114546   5.951   1.557   3.000
 4549SOL    HW214547   5.859   1.673   3.069
 4550SOL     OW14548   1.822   5.166   5.882
 4550SOL    HW114549   1.745   5.178   5.818
 4550SOL    HW214550   1.907   5.195   5.837
 4551SOL     OW14551   6.454   3.200   0.847
 4551SOL    HW114552   6.359   3.229   0.848
 4551SOL    HW214553   6.470   3.138   0.770
 4552SOL     OW14554   0.194   3.833   5.168
 4552SOL    HW114555   0.104   3.794   5.185
 4552SOL    HW214556   0.263   3.782   5.219
 4553SOL     OW14557   5.271   5.445   0.136
 4553SOL    HW114558   5.234   5.426   0.045
 4553SOL    HW214559   5.229   5.383   0.203
 4554SOL     OW14560   6.438   5.928   3.979
 4554SOL    HW114561   6.385   5.966   4.056
 4554SOL    HW214562   6.378   5.875   3.920
 4555SOL     OW14563   4.151   2.630   7.006
 4555SOL    HW114564   4.194   2.682   0.061
 4555SOL    HW214565   4.137   2.690   6.928
 4556SOL     OW14566   3.777   0.615   4.829
 4556SOL    HW114567   3.831   0.654   4.755
 4556SOL    HW214568   3.683   0.599   4.798
 4557SOL     OW14569   5.208   0.929   3.587
 4557SOL    HW114570   5.113   0.935   3.620
 4557SOL    HW214571   5.233   1.016   3.544
 4558SOL     OW14572   0.586   4.089   0.101
 4558SOL    HW114573   0.625   4.063   0.189
 4558SOL    HW214574   0.638   4.044   0.028
 4559SOL     OW14575   1.557   6.826   1.349
 4559SOL    HW114576   1.461   6.844   1.370
 4559SOL    HW214577   1.615   6.881   1.410
 4560SOL     OW14578   5.834   2.402   4.201
 4560SOL    HW114579   5.843   2.499   4.179
 4560SOL    HW214580   5.914   2.352   4.166
 4561SOL     OW14581   2.481   6.228   6.555
 4561SOL    HW114582   2.415   6.236   6.629
 4561SOL    HW214583   2.566   6.273   6.581
 4562SOL     OW14584   3.437   4.066   5.433
 4562SOL    HW114585   3.349   4.027   5.406
 4562SOL    HW214586   3.454   4.046   5.529
 4563SOL     OW14587   5.423   2.672   6.901
 4563SOL    HW114588   5.364   2.719   6.835
 4563SOL    HW214589   5.387   2.687   6.993
 4564SOL     OW14590   6.522   5.339   0.333
 4564SOL    HW114591   6.611   5.319   0.294
 4564SOL    HW214592   6.456   5.355   0.259
 4565SOL     OW14593   4.646   0.754   4.293
 4565SOL    HW114594   4.629   0.795   4.203
 4565SOL    HW214595   4.576   0.685   4.312
 4566SOL     OW14596   1.924   0.574   1.520
 4566SOL    HW114597   1.943   0.476   1.523
 4566SOL    HW214598   1.996   0.620   1.467
 4567SOL     OW14599   6.110   2.647   0.293
 4567SOL    HW114600   6.051   2.657   0.373
 4567SOL    HW214601   6.054   2.622   0.214
 4568SOL     OW14602   4.210   4.720   3.856
 4568SOL    HW114603   4.262   4.787   3.804
 4568SOL    HW214604   4.114   4.749   3.861
 4569SOL     OW14605   2.141   1.271   3.420
 4569SOL    HW114606   2.219   1.212   3.439
 4569SOL    HW214607   2.057   1.217   3.424
 4570SOL     OW14608   5.391   6.237   5.059
 4570SOL    HW114609   5.404   6.184   4.975
 4570SOL    HW214610   5.476   6.234   5.113
 4571SOL     OW14611   3.928   3.146   3.745
 4571SOL    HW114612   3.966   3.070   3.798
 4571SOL    HW214613   3.988   3.225   3.752
 4572SOL     OW14614   2.586   5.118   1.164
 4572SOL    HW114615   2.647   5.101   1.087
 4572SOL    HW214616   2.622   5.073   1.246
 4573SOL     OW14617   5.224   6.726   1.849
 4573SOL    HW114618   5.228   6.725   1.749
 4573SOL    HW214619   5.260   6.640   1.885
 4574SOL     OW14620   0.125   4.764   1.985
 4574SOL    HW114621   0.144   4.745   2.081
 4574SOL    HW214622   0.026   4.765   1.970
 4575SOL     OW14623   6.031   5.674   1.318
 4575SOL    HW114624   6.130   5.673   1.326
 4575SOL    HW214625   5.999   5.768   1.305
 4576SOL     OW14626   3.696   5.992   4.611
 4576SOL    HW114627   3.693   5.960   4.517
 4576SOL    HW214628   3.680   6.091   4.614
 4577SOL     OW14629   2.453   4.763   3.450
 4577SOL    HW114630   2.479   4.821   3.374
 4577SOL    HW214631   2.495   4.673   3.439
 4578SOL     OW14632   6.002   6.266   3.475
 4578SOL    HW114633   6.078   6.202   3.483
 4578SOL    HW214634   5.922   6.219   3.437
 4579SOL     OW14635   4.702   1.549   3.141
 4579SOL    HW114636   4.605   1.541   3.166
 4579SOL    HW214637   4.746   1.614   3.203
 4580SOL     OW14638   0.624   4.746   0.562
 4580SOL    HW114639   0.680   4.814   0.609
 4580SOL    HW214640   0.567   4.698   0.629
 4581SOL     OW14641   2.917   5.505   4.649
 4581SOL    HW114642   2.836   5.463   4.691
 4581SOL    HW214643   2.910   5.498   4.549
 4582SOL     OW14644   5.186   5.846   2.419
 4582SOL    HW114645   5.212   5.781   2.491
 4582SOL    HW214646   5.105   5.897   2.448
 4583SOL     OW14647   3.906   6.926   5.238
 4583SOL    HW114648   3.965   6.970   5.169
 4583SOL    HW214649   3.826   6.888   5.192
 4584SOL     OW14650   0.065   5.313   5.405
 4584SOL    HW114651   7.005   5.312   5.344
 4584SOL    HW214652   0.113   5.400   5.395
 4585SOL     OW14653   3.393   6.892   2.151
 4585SOL    HW114654   3.307   6.927   2.189
 4585SOL    HW214655   3.470   6.941   2.192
 4586SOL     OW14656   1.334   6.129   1.699
 4586SOL    HW114657   1.361   6.162   1.608
 4586SOL    HW214658   1.379   6.183   1.769
 4587SOL     OW14659   3.366   4.741   1.322
 4587SOL    HW114660   3.415   4.660   1.354
 4587SOL    HW214661   3.424   4.822   1.336
 4588SOL     OW14662   3.489   4.020   4.870
 4588SOL    HW114663   3.585   4.026   4.897
 4588SOL    HW214664   3.470   3.930   4.832
 4589SOL     OW14665   2.073   1.978   3.938
 4589SOL    HW114666   2.143   1.926   3.987
 4589SOL    HW214667   2.107   2.003   3.848
 4590SOL     OW14668   4.055   6.548   2.477
 4590SOL    HW114669   3.986   6.482   2.506
 4590SOL    HW214670   4.014   6.614   2.414
 4591SOL     OW14671   4.695   5.591   4.762
 4591SOL    HW114672   4.650   5.521   4.706
 4591SOL    HW214673   4.626   5.654   4.797
 4592SOL     OW14674   3.477   2.258   6.305
 4592SOL    HW114675   3.491   2.161   6.323
 4592SOL    HW214676   3.538   2.288   6.231
 4593SOL     OW14677   5.056   5.213   1.704
 4593SOL    HW114678   5.107   5.298   1.696
 4593SOL    HW214679   5.008   5.195   1.618
 4594SOL     OW14680   4.574   1.989   2.522
 4594SOL    HW114681   4.658   1.998   2.577
 4594SOL    HW214682   4.495   2.016   2.578
 4595SOL     OW14683   4.157   3.178   5.221
 4595SOL    HW114684   4.187   3.269   5.191
 4595SOL    HW214685   4.235   3.128   5.260
 4596SOL     OW14686   4.678   0.848   2.345
 4596SOL    HW114687   4.610   0.831   2.274
 4596SOL    HW214688   4.770   0.839   2.306
 4597SOL     OW14689   6.821   3.475   6.528
 4597SOL    HW114690   6.916   3.490   6.553
 4597SOL    HW214691   6.802   3.377   6.524
 4598SOL     OW14692   2.405   3.832   0.135
 4598SOL    HW114693   2.400   3.918   0.187
 4598SOL    HW214694   2.394   3.851   0.037
 4599SOL     OW14695   3.282   4.447   0.786
 4599SOL    HW114696   3.341   4.528   0.789
 4599SOL    HW214697   3.252   4.424   0.878
 4600SOL     OW14698   2.404   3.601   0.741
 4600SOL    HW114699   2.461   3.586   0.660
 4600SOL    HW214700   2.411   3.697   0.769
 4601SOL     OW14701   2.114   5.390   3.553
 4601SOL    HW114702   2.178   5.396   3.630
 4601SOL    HW214703   2.038   5.454   3.567
 4602SOL     OW14704   1.105   0.456   1.515
 4602SOL    HW114705   1.083   0.466   1.418
 4602SOL    HW214706   1.094   0.360   1.542
 4603SOL     OW14707   2.756   1.478   1.466
 4603SOL    HW114708   2.813   1.442   1.393
 4603SOL    HW214709   2.780   1.434   1.553
 4604SOL     OW14710   1.102   6.573   3.093
 4604SOL    HW114711   1.039   6.551   3.019
 4604SOL    HW214712   1.055   6.632   3.160
 4605SOL     OW14713   5.343   6.777   5.587
 4605SOL    HW114714   5.311   6.710   5.655
 4605SOL    HW214715   5.409   6.838   5.630
 4606SOL     OW14716   6.103   6.256   4.534
 4606SOL    HW114717   6.128   6.235   4.439
 4606SOL    HW214718   6.036   6.330   4.535
 4607SOL     OW14719   2.563   3.285   0.405
 4607SOL    HW114720   2.624   3.346   0.355
 4607SOL    HW214721   2.469   3.319   0.399
 4608SOL     OW14722   1.682   3.675   6.195
 4608SOL    HW114723   1.649   3.581   6.205
 4608SOL    HW214724   1.782   3.676   6.201
 4609SOL     OW14725   3.475   6.984   0.149
 4609SOL    HW114726   3.375   6.974   0.146
 4609SOL    HW214727   3.517   6.893   0.144
 4610SOL     OW14728   6.640   3.429   0.783
 4610SOL    HW114729   6.617   3.409   0.879
 4610SOL    HW214730   6.726   3.385   0.760
 4611SOL     OW14731   1.493   4.930   5.633
 4611SOL    HW114732   1.569   4.866   5.616
 4611SOL    HW214733   1.496   4.959   5.729
 4612SOL     OW14734   1.189   0.385   6.741
 4612SOL    HW114735   1.206   0.379   6.643
 4612SOL    HW214736   1.228   0.306   6.787
 4613SOL     OW14737   4.083   4.668   1.299
 4613SOL    HW114738   4.079   4.768   1.298
 4613SOL    HW214739   4.170   4.638   1.338
 4614SOL     OW14740   1.746   3.716   0.729
 4614SOL    HW114741   1.828   3.773   0.733
 4614SOL    HW214742   1.717   3.705   0.634
 4615SOL     OW14743   5.779   2.941   6.446
 4615SOL    HW114744   5.689   2.963   6.483
 4615SOL    HW214745   5.790   2.841   6.443
 4616SOL     OW14746   5.241   0.682   6.581
 4616SOL    HW114747   5.289   0.738   6.648
 4616SOL    HW214748   5.302   0.611   6.546
 4617SOL     OW14749   0.501   4.220   1.947
 4617SOL    HW114750   0.567   4.159   1.903
 4617SOL    HW214751   0.540   4.255   2.032
 4618SOL     OW14752   1.633   2.444   6.669
 4618SOL    HW114753   1.629   2.398   6.580
 4618SOL    HW214754   1.632   2.543   6.655
 4619SOL     OW14755   4.480   0.975   4.415
 4619SOL    HW114756   4.415   0.987   4.341
 4619SOL    HW214757   4.555   0.916   4.385
 4620SOL     OW14758   1.664   5.712   0.736
 4620SOL    HW114759   1.586   5.730   0.676
 4620SOL    HW214760   1.749   5.720   0.683
 4621SOL     OW14761   6.454   0.971   0.348
 4621SOL    HW114762   6.400   1.045   0.308
 4621SOL    HW214763   6.397   0.890   0.359
 4622SOL     OW14764   1.740   4.290   0.648
 4622SOL    HW114765   1.696   4.379   0.646
 4622SOL    HW214766   1.817   4.293   0.712
 4623SOL     OW14767   6.848   3.645   4.462
 4623SOL    HW114768   6.853   3.738   4.428
 4623SOL    HW214769   6.777   3.594   4.413
 4624SOL     OW14770   4.287   6.342   5.610
 4624SOL    HW114771   4.230   6.423   5.595
 4624SOL    HW214772   4.309   6.299   5.522
 4625SOL     OW14773   0.527   4.341   6.386
 4625SOL    HW114774   0.582   4.375   6.462
 4625SOL    HW214775   0.525   4.241   6.388
 4626SOL     OW14776   6.605   4.665   2.165
 4626SOL    HW114777   6.613   4.764   2.174
 4626SOL    HW214778   6.509   4.640   2.153
 4627SOL     OW14779   2.476   6.676   4.495
 4627SOL    HW114780   2.457   6.702   4.401
 4627SOL    HW214781   2.572   6.695   4.516
 4628SOL     OW14782   6.460   2.639   1.869
 4628SOL    HW114783   6.513   2.556   1.883
 4628SOL    HW214784   6.374   2.633   1.919
 4629SOL     OW14785   4.721   5.609   3.994
 4629SOL    HW114786   4.701   5.514   3.971
 4629SOL    HW214787   4.658   5.640   4.065
 4630SOL     OW14788   2.455   5.922   2.534
 4630SOL    HW114789   2.544   5.917   2.579
 4630SOL    HW214790   2.466   5.955   2.441
 4631SOL     OW14791   1.742   0.457   2.373
 4631SOL    HW114792   1.650   0.483   2.402
 4631SOL    HW214793   1.782   0.531   2.318
 4632SOL     OW14794   5.982   6.039   4.347
 4632SOL    HW114795   5.888   6.023   4.377
 4632SOL    HW214796   5.982   6.065   4.250
 4633SOL     OW14797   4.538   3.143   5.984
 4633SOL    HW114798   4.603   3.152   6.059
 4633SOL    HW214799   4.586   3.107   5.903
 4634SOL     OW14800   2.301   3.567   0.142
 4634SOL    HW114801   2.327   3.663   0.152
 4634SOL    HW214802   2.296   3.524   0.232
 4635SOL     OW14803   4.541   3.010   1.241
 4635SOL    HW114804   4.584   3.034   1.328
 4635SOL    HW214805   4.473   3.079   1.217
 4636SOL     OW14806   1.033   5.169   1.580
 4636SOL    HW114807   0.995   5.081   1.552
 4636SOL    HW214808   1.130   5.173   1.555
 4637SOL     OW14809   0.282   0.836   5.477
 4637SOL    HW114810   0.337   0.769   5.427
 4637SOL    HW214811   0.287   0.816   5.575
 4638SOL     OW14812   4.427   5.190   5.677
 4638SOL    HW114813   4.342   5.195   5.730
 4638SOL    HW214814   4.494   5.137   5.729
 4639SOL     OW14815   6.918   2.463   5.460
 4639SOL    HW114816   6.830   2.501   5.430
 4639SOL    HW214817   6.943   2.505   5.548
 4640SOL     OW14818   0.939   5.705   3.489
 4640SOL    HW114819   0.896   5.790   3.519
 4640SOL    HW214820   1.037   5.708   3.509
 4641SOL     OW14821   2.155   3.866   5.253
 4641SOL    HW114822   2.103   3.927   5.193
 4641SOL    HW214823   2.252   3.887   5.245
 4642SOL     OW14824   5.983   5.280   4.679
 4642SOL    HW114825   5.895   5.248   4.643
 4642SOL    HW214826   6.036   5.321   4.605
 4643SOL     OW14827   4.226   3.869   1.086
 4643SOL    HW114828   4.296   3.814   1.041
 4643SOL    HW214829   4.250   3.966   1.079
 4644SOL     OW14830   3.509   5.057   5.427
 4644SOL    HW114831   3.530   5.125   5.498
 4644SOL    HW214832   3.545   4.968   5.454
 4645SOL     OW14833   1.830   5.611   4.749
 4645SOL    HW114834   1.756   5.664   4.708
 4645SOL    HW214835   1.871   5.551   4.680
 4646SOL     OW14836   3.611   1.281   0.937
 4646SOL    HW114837   3.558   1.326   0.865
 4646SOL    HW214838   3.682   1.224   0.895
 4647SOL     OW14839   6.118   0.532   5.346
 4647SOL    HW114840   6.130   0.474   5.427
 4647SOL    HW214841   6.107   0.474   5.265
 4648SOL     OW14842   2.286   6.572   3.630
 4648SOL    HW114843   2.333   6.632   3.695
 4648SOL    HW214844   2.198   6.544   3.668
 4649SOL     OW14845   5.280   4.993   6.133
 4649SOL    HW114846   5.341   5.071   6.114
 4649SOL    HW214847   5.262   4.989   6.231
 4650SOL     OW14848   6.476   4.857   1.668
 4650SOL    HW114849   6.431   4.770   1.648
 4650SOL    HW214850   6.536   4.847   1.747
 4651SOL     OW14851   6.125   1.367   1.227
 4651SOL    HW114852   6.025   1.365   1.235
 4651SOL    HW214853   6.150   1.398   1.135
 4652SOL     OW14854   0.340   6.321   5.799
 4652SOL    HW114855   0.356   6.340   5.702
 4652SOL    HW214856   0.409   6.257   5.832
 4653SOL     OW14857   1.798   4.820   0.376
 4653SOL    HW114858   1.784   4.838   0.473
 4653SOL    HW214859   1.844   4.898   0.334
 4654SOL     OW14860   2.051   1.589   0.289
 4654SOL    HW114861   2.070   1.657   0.218
 4654SOL    HW214862   2.101   1.505   0.268
 4655SOL     OW14863   0.425   4.813   5.072
 4655SOL    HW114864   0.466   4.723   5.056
 4655SOL    HW214865   0.410   4.825   5.170
 4656SOL     OW14866   2.286   0.180   2.720
 4656SOL    HW114867   2.301   0.133   2.633
 4656SOL    HW214868   2.307   0.277   2.710
 4657SOL     OW14869   6.420   1.175   5.359
 4657SOL    HW114870   6.441   1.131   5.272
 4657SOL    HW214871   6.473   1.260   5.366
 4658SOL     OW14872   5.163   6.783   3.559
 4658SOL    HW114873   5.221   6.861   3.534
 4658SOL    HW214874   5.219   6.713   3.602
 4659SOL     OW14875   2.105   3.068   3.565
 4659SOL    HW114876   2.085   3.141   3.500
 4659SOL    HW214877   2.024   3.011   3.578
 4660SOL     OW14878   6.677   1.275   5.194
 4660SOL    HW114879   6.752   1.306   5.136
 4660SOL    HW214880   6.667   1.337   5.272
 4661SOL     OW14881   3.365   3.041   3.774
 4661SOL    HW114882   3.450   3.001   3.741
 4661SOL    HW214883   3.380   3.136   3.800
 4662SOL     OW14884   6.440   6.975   4.774
 4662SOL    HW114885   6.485   0.043   4.790
 4662SOL    HW214886   6.452   6.917   4.855
 4663SOL     OW14887   0.766   1.674   2.720
 4663SOL    HW114888   0.764   1.577   2.745
 4663SOL    HW214889   0.684   1.698   2.668
 4664SOL     OW14890   3.770   5.037   0.148
 4664SOL    HW114891   3.681   5.002   0.119
 4664SOL    HW214892   3.757   5.109   0.217
 4665SOL     OW14893   5.718   1.070   6.072
 4665SOL    HW114894   5.747   0.989   6.020
 4665SOL    HW214895   5.657   1.041   6.146
 4666SOL     OW14896   1.630   1.053   0.640
 4666SOL    HW114897   1.559   1.088   0.578
 4666SOL    HW214898   1.704   1.120   0.646
 4667SOL     OW14899   0.206   6.058   3.898
 4667SOL    HW114900   0.223   6.043   3.801
 4667SOL    HW214901   0.292   6.047   3.949
 4668SOL     OW14902   6.038   1.084   5.105
 4668SOL    HW114903   5.976   1.060   5.030
 4668SOL    HW214904   5.995   1.062   5.192
 4669SOL     OW14905   2.479   2.194   2.379
 4669SOL    HW114906   2.470   2.118   2.315
 4669SOL    HW214907   2.545   2.260   2.344
 4670SOL     OW14908   2.762   2.397   4.697
 4670SOL    HW114909   2.688   2.413   4.631
 4670SOL    HW214910   2.788   2.484   4.739
 4671SOL     OW14911   6.605   2.389   2.993
 4671SOL    HW114912   6.659   2.456   3.044
 4671SOL    HW214913   6.508   2.413   2.999
 4672SOL     OW14914   3.026   2.440   5.388
 4672SOL    HW114915   2.993   2.347   5.406
 4672SOL    HW214916   3.096   2.437   5.317
 4673SOL     OW14917   5.430   0.720   2.356
 4673SOL    HW114918   5.383   0.661   2.290
 4673SOL    HW214919   5.376   0.725   2.440
 4674SOL     OW14920   4.407   6.933   5.733
 4674SOL    HW114921   4.396   0.008   5.765
 4674SOL    HW214922   4.408   6.932   5.633
 4675SOL     OW14923   0.813   4.280   5.944
 4675SOL    HW114924   0.764   4.323   6.021
 4675SOL    HW214925   0.852   4.193   5.974
 4676SOL     OW14926   1.230   4.464   3.593
 4676SOL    HW114927   1.141   4.485   3.633
 4676SOL    HW214928   1.281   4.549   3.579
 4677SOL     OW14929   1.366   3.494   0.963
 4677SOL    HW114930   1.404   3.402   0.974
 4677SOL    HW214931   1.430   3.550   0.910
 4678SOL     OW14932   1.067   1.833   1.093
 4678SOL    HW114933   1.060   1.867   0.999
 4678SOL    HW214934   1.068   1.910   1.157
 4679SOL     OW14935   4.618   6.795   1.791
 4679SOL    HW114936   4.616   6.895   1.793
 4679SOL    HW214937   4.588   6.760   1.880
 4680SOL     OW14938   2.844   0.994   0.246
 4680SOL    HW114939   2.819   1.023   0.339
 4680SOL    HW214940   2.901   1.064   0.204
 4681SOL     OW14941   4.960   5.127   2.129
 4681SOL    HW114942   5.043   5.112   2.182
 4681SOL    HW214943   4.958   5.064   2.052
 4682SOL     OW14944   3.615   3.578   6.710
 4682SOL    HW114945   3.598   3.628   6.795
 4682SOL    HW214946   3.704   3.531   6.716
 4683SOL     OW14947   6.918   4.077   3.959
 4683SOL    HW114948   6.951   4.004   3.899
 4683SOL    HW214949   6.878   4.036   4.041
 4684SOL     OW14950   4.948   0.439   5.967
 4684SOL    HW114951   4.866   0.495   5.984
 4684SOL    HW214952   4.970   0.443   5.869
 4685SOL     OW14953   2.912   3.740   4.374
 4685SOL    HW114954   2.909   3.756   4.275
 4685SOL    HW214955   2.917   3.641   4.391
 4686SOL     OW14956   1.676   6.733   6.190
 4686SOL    HW114957   1.592   6.783   6.207
 4686SOL    HW214958   1.740   6.791   6.140
 4687SOL     OW14959   1.316   6.976   2.467
 4687SOL    HW114960   1.285   0.011   2.545
 4687SOL    HW214961   1.385   0.007   2.415
 4688SOL     OW14962   4.906   2.198   4.671
 4688SOL    HW114963   4.934   2.260   4.598
 4688SOL    HW214964   4.814   2.222   4.701
 4689SOL     OW14965   6.663   1.136   1.263
 4689SOL    HW114966   6.617   1.177   1.342
 4689SOL    HW214967   6.697   1.045   1.288
 4690SOL     OW14968   3.626   2.086   1.223
 4690SOL    HW114969   3.691   2.085   1.147
 4690SOL    HW214970   3.573   2.001   1.223
 4691SOL     OW14971   5.904   2.906   1.795
 4691SOL    HW114972   5.950   2.969   1.858
 4691SOL    HW214973   5.940   2.813   1.808
 4692SOL     OW14974   6.693   2.815   3.296
 4692SOL    HW114975   6.598   2.830   3.322
 4692SOL    HW214976   6.720   2.884   3.229
 4693SOL     OW14977   0.190   0.706   3.982
 4693SOL    HW114978   0.248   0.631   4.014
 4693SOL    HW214979   0.094   0.685   4.004
 4694SOL     OW14980   1.374   6.412   5.625
 4694SOL    HW114981   1.472   6.398   5.625
 4694SOL    HW214982   1.333   6.369   5.545
 4695SOL     OW14983   1.551   4.694   1.925
 4695SOL    HW114984   1.591   4.760   1.863
 4695SOL    HW214985   1.623   4.644   1.973
 4696SOL     OW14986   2.108   6.212   5.990
 4696SOL    HW114987   2.110   6.150   6.068
 4696SOL    HW214988   2.181   6.280   6.000
 4697SOL     OW14989   4.637   5.558   1.251
 4697SOL    HW114990   4.557   5.498   1.251
 4697SOL    HW214991   4.655   5.590   1.158
 4698SOL     OW14992   5.908   1.531   4.740
 4698SOL    HW114993   5.983   1.466   4.737
 4698SOL    HW214994   5.822   1.484   4.723
 4699SOL     OW14995   0.852   1.836   2.918
 4699SOL    HW114996   0.866   1.927   2.879
 4699SOL    HW214997   0.798   1.781   2.855
 4700SOL     OW14998   6.689   1.952   3.573
 4700SOL    HW114999   6.746   1.919   3.498
 4700SOL    HW215000   6.725   1.919   3.660
 4701SOL     OW15001   2.340   2.851   1.818
 4701SOL    HW115002   2.436   2.849   1.791
 4701SOL    HW215003   2.288   2.908   1.755
 4702SOL     OW15004   5.988   4.594   1.080
 4702SOL    HW115005   6.017   4.690   1.079
 4702SOL    HW215006   5.889   4.589   1.066
 4703SOL     OW15007   6.830   5.603   4.163
 4703SOL    HW115008   6.833   5.534   4.091
 4703SOL    HW215009   6.752   5.664   4.148
 4704SOL     OW15010   1.722   4.573   3.916
 4704SOL    HW115011   1.648   4.538   3.973
 4704SOL    HW215012   1.707   4.670   3.898
 4705SOL     OW15013   3.306   2.545   1.344
 4705SOL    HW115014   3.265   2.455   1.328
 4705SOL    HW215015   3.395   2.534   1.388
 4706SOL     OW15016   2.068   1.621   1.122
 4706SOL    HW115017   2.109   1.539   1.083
 4706SOL    HW215018   2.041   1.602   1.217
 4707SOL     OW15019   1.973   5.738   1.966
 4707SOL    HW115020   2.035   5.798   1.915
 4707SOL    HW215021   2.007   5.728   2.060
 4708SOL     OW15022   1.891   2.983   6.563
 4708SOL    HW115023   1.922   2.905   6.616
 4708SOL    HW215024   1.968   3.023   6.514
 4709SOL     OW15025   6.189   3.733   4.452
 4709SOL    HW115026   6.111   3.694   4.502
 4709SOL    HW215027   6.246   3.785   4.515
 4710SOL     OW15028   6.252   4.528   5.635
 4710SOL    HW115029   6.208   4.566   5.553
 4710SOL    HW215030   6.185   4.477   5.689
 4711SOL     OW15031   4.962   4.569   3.000
 4711SOL    HW115032   5.020   4.531   3.072
 4711SOL    HW215033   4.949   4.501   2.928
 4712SOL     OW15034   4.257   4.802   5.756
 4712SOL    HW115035   4.160   4.824   5.741
 4712SOL    HW215036   4.284   4.728   5.694
 4713SOL     OW15037   6.015   4.442   1.696
 4713SOL    HW115038   5.996   4.462   1.600
 4713SOL    HW215039   5.931   4.408   1.740
 4714SOL     OW15040   5.042   2.184   5.748
 4714SOL    HW115041   4.972   2.143   5.807
 4714SOL    HW215042   5.127   2.195   5.800
 4715SOL     OW15043   0.282   1.068   1.872
 4715SOL    HW115044   0.208   1.121   1.913
 4715SOL    HW215045   0.370   1.103   1.904
 4716SOL     OW15046   3.936   4.457   5.379
 4716SOL    HW115047   3.949   4.362   5.349
 4716SOL    HW215048   3.854   4.495   5.337
 4717SOL     OW15049   1.319   4.464   6.043
 4717SOL    HW115050   1.398   4.408   6.020
 4717SOL    HW215051   1.349   4.551   6.082
 4718SOL     OW15052   4.913   3.664   2.216
 4718SOL    HW115053   4.910   3.645   2.118
 4718SOL    HW215054   4.899   3.578   2.267
 4719SOL     OW15055   5.400   4.246   3.734
 4719SOL    HW115056   5.402   4.155   3.774
 4719SOL    HW215057   5.395   4.239   3.634
 4720SOL     OW15058   1.052   1.689   5.805
 4720SOL    HW115059   1.044   1.678   5.706
 4720SOL    HW215060   1.131   1.636   5.838
 4721SOL     OW15061   0.724   2.777   2.517
 4721SOL    HW115062   0.650   2.841   2.494
 4721SOL    HW215063   0.689   2.684   2.517
 4722SOL     OW15064   1.269   5.505   5.925
 4722SOL    HW115065   1.293   5.567   6.001
 4722SOL    HW215066   1.170   5.510   5.909
 4723SOL     OW15067   3.255   4.546   5.920
 4723SOL    HW115068   3.158   4.542   5.943
 4723SOL    HW215069   3.267   4.606   5.841
 4724SOL     OW15070   0.370   0.470   4.014
 4724SOL    HW115071   0.399   0.374   4.021
 4724SOL    HW215072   0.382   0.514   4.103
 4725SOL     OW15073   5.305   5.868   1.227
 4725SOL    HW115074   5.311   5.957   1.273
 4725SOL    HW215075   5.381   5.859   1.163
 4726SOL     OW15076   1.951   2.470   6.250
 4726SOL    HW115077   1.928   2.546   6.311
 4726SOL    HW215078   1.874   2.407   6.243
 4727SOL     OW15079   6.671   5.292   1.782
 4727SOL    HW115080   6.585   5.342   1.791
 4727SOL    HW215081   6.674   5.247   1.693
 4728SOL     OW15082   3.962   0.846   3.553
 4728SOL    HW115083   4.053   0.825   3.519
 4728SOL    HW215084   3.952   0.812   3.647
 4729SOL     OW15085   0.598   0.877   3.325
 4729SOL    HW115086   0.504   0.881   3.358
 4729SOL    HW215087   0.621   0.782   3.303
 4730SOL     OW15088   2.941   1.229   3.227
 4730SOL    HW115089   2.983   1.231   3.136
 4730SOL    HW215090   2.945   1.321   3.267
 4731SOL     OW15091   3.555   6.643   2.571
 4731SOL    HW115092   3.551   6.741   2.593
 4731SOL    HW215093   3.573   6.591   2.655
 4732SOL     OW15094   0.541   4.958   4.243
 4732SOL    HW115095   0.495   4.956   4.154
 4732SOL    HW215096   0.562   4.864   4.271
 4733SOL     OW15097   2.336   4.257   3.286
 4733SOL    HW115098   2.274   4.201   3.231
 4733SOL    HW215099   2.318   4.241   3.383
 4734SOL     OW15100   4.370   4.554   6.061
 4734SOL    HW115101   4.451   4.516   6.106
 4734SOL    HW215102   4.379   4.653   6.053
 4735SOL     OW15103   6.907   0.890   5.294
 4735SOL    HW115104   6.923   0.933   5.382
 4735SOL    HW215105   6.833   0.938   5.246
 4736SOL     OW15106   6.039   0.091   4.155
 4736SOL    HW115107   6.002   0.107   4.247
 4736SOL    HW215108   6.113   0.024   4.160
 4737SOL     OW15109   1.962   5.020   0.263
 4737SOL    HW115110   1.904   5.090   0.304
 4737SOL    HW215111   1.933   5.004   0.169
 4738SOL     OW15112   0.254   6.027   3.630
 4738SOL    HW115113   0.272   6.081   3.547
 4738SOL    HW215114   0.335   5.974   3.653
 4739SOL     OW15115   5.805   3.632   2.899
 4739SOL    HW115116   5.763   3.554   2.946
 4739SOL    HW215117   5.863   3.682   2.964
 4740SOL     OW15118   1.785   6.245   0.560
 4740SOL    HW115119   1.780   6.145   0.565
 4740SOL    HW215120   1.702   6.285   0.600
 4741SOL     OW15121   5.733   4.261   2.558
 4741SOL    HW115122   5.653   4.201   2.560
 4741SOL    HW215123   5.738   4.314   2.643
 4742SOL     OW15124   2.394   5.576   1.923
 4742SOL    HW115125   2.362   5.635   1.849
 4742SOL    HW215126   2.335   5.589   2.003
 4743SOL     OW15127   2.843   3.151   0.717
 4743SOL    HW115128   2.760   3.188   0.759
 4743SOL    HW215129   2.844   3.052   0.727
 4744SOL     OW15130   2.953   1.756   5.934
 4744SOL    HW115131   2.923   1.845   5.970
 4744SOL    HW215132   2.873   1.697   5.922
 4745SOL     OW15133   4.658   5.828   4.290
 4745SOL    HW115134   4.582   5.890   4.271
 4745SOL    HW215135   4.623   5.740   4.321
 4746SOL     OW15136   5.509   1.526   1.112
 4746SOL    HW115137   5.511   1.524   1.012
 4746SOL    HW215138   5.459   1.607   1.142
 4747SOL     OW15139   0.840   3.101   2.228
 4747SOL    HW115140   0.874   3.162   2.156
 4747SOL    HW215141   0.911   3.087   2.297
 4748SOL     OW15142   1.720   6.664   0.461
 4748SOL    HW115143   1.621   6.656   0.474
 4748SOL    HW215144   1.765   6.653   0.550
 4749SOL     OW15145   3.845   0.869   0.172
 4749SOL    HW115146   3.889   0.897   0.087
 4749SOL    HW215147   3.814   0.951   0.221
 4750SOL     OW15148   1.167   2.291   4.999
 4750SOL    HW115149   1.090   2.227   4.989
 4750SOL    HW215150   1.138   2.382   4.970
 4751SOL     OW15151   1.636   3.896   6.357
 4751SOL    HW115152   1.667   3.840   6.280
 4751SOL    HW215153   1.712   3.955   6.387
 4752SOL     OW15154   1.914   5.798   0.907
 4752SOL    HW115155   1.920   5.737   0.829
 4752SOL    HW215156   1.929   5.747   0.991
 4753SOL     OW15157   0.198   1.272   6.831
 4753SOL    HW115158   0.203   1.341   6.759
 4753SOL    HW215159   0.119   1.213   6.815
 4754SOL     OW15160   1.533   0.493   6.628
 4754SOL    HW115161   1.459   0.550   6.592
 4754SOL    HW215162   1.500   0.441   6.707
 4755SOL     OW15163   2.886   6.864   3.109
 4755SOL    HW115164   2.788   6.882   3.094
 4755SOL    HW215165   2.921   6.928   3.177
 4756SOL     OW15166   5.518   2.296   1.198
 4756SOL    HW115167   5.531   2.199   1.219
 4756SOL    HW215168   5.535   2.351   1.279
 4757SOL     OW15169   1.935   3.278   0.784
 4757SOL    HW115170   1.886   3.361   0.808
 4757SOL    HW215171   1.993   3.249   0.861
 4758SOL     OW15172   6.647   3.658   6.466
 4758SOL    HW115173   6.724   3.628   6.523
 4758SOL    HW215174   6.581   3.583   6.458
 4759SOL     OW15175   6.954   3.961   6.866
 4759SOL    HW115176   6.974   3.980   6.962
 4759SOL    HW215177   6.874   4.014   6.837
 4760SOL     OW15178   0.788   2.600   0.005
 4760SOL    HW115179   0.852   2.593   6.949
 4760SOL    HW215180   0.833   2.642   0.084
 4761SOL     OW15181   3.097   6.196   0.008
 4761SOL    HW115182   3.015   6.254   0.010
 4761SOL    HW215183   3.107   6.154   6.938
 4762SOL     OW15184   3.367   0.898   2.972
 4762SOL    HW115185   3.373   0.831   2.898
 4762SOL    HW215186   3.350   0.989   2.935
 4763SOL     OW15187   5.126   4.936   4.874
 4763SOL    HW115188   5.192   5.011   4.870
 4763SOL    HW215189   5.035   4.972   4.895
 4764SOL     OW15190   3.169   3.616   4.007
 4764SOL    HW115191   3.196   3.545   3.941
 4764SOL    HW215192   3.243   3.628   4.074
 4765SOL     OW15193   6.766   5.376   6.741
 4765SOL    HW115194   6.839   5.357   6.675
 4765SOL    HW215195   6.729   5.290   6.776
 4766SOL     OW15196   3.487   1.804   3.222
 4766SOL    HW115197   3.463   1.736   3.153
 4766SOL    HW215198   3.420   1.802   3.296
 4767SOL     OW15199   4.591   0.386   6.226
 4767SOL    HW115200   4.564   0.434   6.310
 4767SOL    HW215201   4.689   0.363   6.231
 4768SOL     OW15202   2.176   0.267   5.326
 4768SOL    HW115203   2.125   0.345   5.361
 4768SOL    HW215204   2.273   0.292   5.317
 4769SOL     OW15205   4.765   0.651   2.085
 4769SOL    HW115206   4.805   0.730   2.039
 4769SOL    HW215207   4.670   0.640   2.055
 4770SOL     OW15208   3.082   1.445   3.828
 4770SOL    HW115209   3.156   1.409   3.771
 4770SOL    HW215210   2.995   1.439   3.777
 4771SOL     OW15211   3.743   4.987   6.477
 4771SOL    HW115212   3.772   4.894   6.452
 4771SOL    HW215213   3.665   5.013   6.421
 4772SOL     OW15214   3.968   2.429   6.978
 4772SOL    HW115215   3.930   2.446   6.887
 4772SOL    HW215216   4.045   2.490   6.995
 4773SOL     OW15217   0.127   4.835   4.263
 4773SOL    HW115218   0.104   4.744   4.229
 4773SOL    HW215219   0.171   4.887   4.190
 4774SOL     OW15220   2.146   4.173   0.113
 4774SOL    HW115221   2.090   4.147   0.191
 4774SOL    HW215222   2.130   4.109   0.037
 4775SOL     OW15223   1.758   3.071   2.549
 4775SOL    HW115224   1.658   3.075   2.551
 4775SOL    HW215225   1.790   3.009   2.620
 4776SOL     OW15226   4.806   5.338   1.296
 4776SOL    HW115227   4.726   5.302   1.248
 4776SOL    HW215228   4.791   5.434   1.319
 4777SOL     OW15229   1.645   4.015   1.590
 4777SOL    HW115230   1.704   4.077   1.641
 4777SOL    HW215231   1.680   3.922   1.596
 4778SOL     OW15232   5.842   3.315   2.692
 4778SOL    HW115233   5.807   3.402   2.660
 4778SOL    HW215234   5.878   3.325   2.785
 4779SOL     OW15235   6.410   1.713   2.687
 4779SOL    HW115236   6.430   1.642   2.620
 4779SOL    HW215237   6.317   1.747   2.674
 4780SOL     OW15238   1.352   1.288   5.245
 4780SOL    HW115239   1.266   1.293   5.296
 4780SOL    HW215240   1.428   1.279   5.309
 4781SOL     OW15241   2.422   5.826   2.929
 4781SOL    HW115242   2.419   5.924   2.948
 4781SOL    HW215243   2.432   5.776   3.015
 4782SOL     OW15244   6.023   6.232   6.831
 4782SOL    HW115245   6.094   6.241   6.900
 4782SOL    HW215246   5.971   6.318   6.825
 4783SOL     OW15247   5.524   4.815   3.231
 4783SOL    HW115248   5.525   4.914   3.249
 4783SOL    HW215249   5.612   4.787   3.193
 4784SOL     OW15250   4.740   4.078   4.694
 4784SOL    HW115251   4.816   4.083   4.758
 4784SOL    HW215252   4.729   3.984   4.662
 4785SOL     OW15253   5.898   6.063   0.354
 4785SOL    HW115254   5.838   6.088   0.430
 4785SOL    HW215255   5.845   6.014   0.285
 4786SOL     OW15256   1.463   4.537   3.188
 4786SOL    HW115257   1.447   4.463   3.253
 4786SOL    HW215258   1.558   4.532   3.155
 4787SOL     OW15259   3.886   2.166   2.568
 4787SOL    HW115260   3.860   2.192   2.661
 4787SOL    HW215261   3.955   2.231   2.533
 4788SOL     OW15262   2.264   0.971   4.641
 4788SOL    HW115263   2.190   0.911   4.612
 4788SOL    HW215264   2.347   0.917   4.656
 4789SOL     OW15265   4.526   5.839   6.500
 4789SOL    HW115266   4.495   5.839   6.405
 4789SOL    HW215267   4.523   5.745   6.535
 4790SOL     OW15268   5.501   6.787   6.615
 4790SOL    HW115269   5.550   6.822   6.695
 4790SOL    HW215270   5.545   6.704   6.582
 4791SOL     OW15271   4.753   2.268   3.256
 4791SOL    HW115272   4.673   2.276   3.196
 4791SOL    HW215273   4.830   2.229   3.205
 4792SOL     OW15274   3.227   2.960   0.321
 4792SOL    HW115275   3.282   2.879   0.298
 4792SOL    HW215276   3.132   2.934   0.333
 4793SOL     OW15277   0.799   1.031   6.884
 4793SOL    HW115278   0.766   1.045   6.791
 4793SOL    HW215279   0.734   0.974   6.934
 4794SOL     OW15280   5.845   1.407   1.634
 4794SOL    HW115281   5.791   1.374   1.712
 4794SOL    HW215282   5.824   1.352   1.553
 4795SOL     OW15283   6.636   1.967   4.503
 4795SOL    HW115284   6.606   1.934   4.413
 4795SOL    HW215285   6.672   2.059   4.494
 4796SOL     OW15286   4.827   3.874   0.427
 4796SOL    HW115287   4.826   3.815   0.346
 4796SOL    HW215288   4.767   3.953   0.411
 4797SOL     OW15289   1.293   5.812   4.669
 4797SOL    HW115290   1.348   5.877   4.721
 4797SOL    HW215291   1.343   5.726   4.659
 4798SOL     OW15292   0.372   5.618   6.512
 4798SOL    HW115293   0.369   5.686   6.584
 4798SOL    HW215294   0.429   5.651   6.437
 4799SOL     OW15295   5.235   1.322   4.985
 4799SOL    HW115296   5.275   1.244   5.034
 4799SOL    HW215297   5.135   1.318   4.991
 4800SOL     OW15298   1.677   3.000   4.169
 4800SOL    HW115299   1.683   2.938   4.248
 4800SOL    HW215300   1.630   3.084   4.197
 4801SOL     OW15301   0.109   1.818   0.923
 4801SOL    HW115302   0.069   1.729   0.947
 4801SOL    HW215303   0.112   1.876   1.004
 4802SOL     OW15304   1.554   6.942   1.870
 4802SOL    HW115305   1.473   6.943   1.930
 4802SOL    HW215306   1.528   6.974   1.779
 4803SOL     OW15307   0.408   6.832   1.305
 4803SOL    HW115308   0.393   6.925   1.270
 4803SOL    HW215309   0.389   6.766   1.232
 4804SOL     OW15310   4.441   4.983   0.001
 4804SOL    HW115311   4.418   4.904   0.057
 4804SOL    HW215312   4.504   4.955   6.948
 4805SOL     OW15313   6.542   6.712   1.272
 4805SOL    HW115314   6.468   6.778   1.287
 4805SOL    HW215315   6.621   6.759   1.234
 4806SOL     OW15316   0.432   2.038   4.052
 4806SOL    HW115317   0.458   2.106   4.121
 4806SOL    HW215318   0.498   1.963   4.053
 4807SOL     OW15319   0.993   0.013   2.548
 4807SOL    HW115320   0.944   6.953   2.512
 4807SOL    HW215321   0.994   0.009   2.648
 4808SOL     OW15322   6.330   1.432   0.495
 4808SOL    HW115323   6.410   1.485   0.524
 4808SOL    HW215324   6.354   1.335   0.490
 4809SOL     OW15325   4.699   6.679   0.989
 4809SOL    HW115326   4.694   6.720   0.898
 4809SOL    HW215327   4.611   6.691   1.035
 4810SOL     OW15328   1.648   6.932   5.386
 4810SOL    HW115329   1.568   6.991   5.404
 4810SOL    HW215330   1.722   6.958   5.447
 4811SOL     OW15331   4.810   4.275   4.407
 4811SOL    HW115332   4.757   4.324   4.476
 4811SOL    HW215333   4.882   4.222   4.451
 4812SOL     OW15334   6.659   4.789   3.414
 4812SOL    HW115335   6.733   4.855   3.427
 4812SOL    HW215336   6.672   4.741   3.327
 4813SOL     OW15337   5.919   3.631   2.634
 4813SOL    HW115338   5.855   3.658   2.562
 4813SOL    HW215339   5.870   3.628   2.721
 4814SOL     OW15340   0.273   2.774   1.542
 4814SOL    HW115341   0.364   2.735   1.532
 4814SOL    HW215342   0.281   2.867   1.579
 4815SOL     OW15343   4.836   1.251   3.571
 4815SOL    HW115344   4.873   1.201   3.648
 4815SOL    HW215345   4.857   1.203   3.486
 4816SOL     OW15346   6.200   4.173   4.225
 4816SOL    HW115347   6.163   4.084   4.253
 4816SOL    HW215348   6.264   4.160   4.149
 4817SOL     OW15349   5.617   1.778   6.972
 4817SOL    HW115350   5.656   1.687   6.986
 4817SOL    HW215351   5.614   1.798   6.874
 4818SOL     OW15352   0.042   6.356   3.019
 4818SOL    HW115353   0.105   6.283   2.994
 4818SOL    HW215354   0.081   6.412   3.092
 4819SOL     OW15355   0.694   2.877   1.003
 4819SOL    HW115356   0.787   2.884   0.967
 4819SOL    HW215357   0.690   2.918   1.094
 4820SOL     OW15358   5.957   3.186   1.894
 4820SOL    HW115359   5.936   3.163   1.989
 4820SOL    HW215360   5.871   3.197   1.843
 4821SOL     OW15361   0.304   5.658   3.663
 4821SOL    HW115362   0.398   5.654   3.698
 4821SOL    HW215363   0.240   5.649   3.739
 4822SOL     OW15364   3.228   5.748   4.742
 4822SOL    HW115365   3.265   5.825   4.689
 4822SOL    HW215366   3.176   5.784   4.819
 4823SOL     OW15367   1.184   1.896   0.323
 4823SOL    HW115368   1.205   1.827   0.254
 4823SOL    HW215369   1.227   1.982   0.299
 4824SOL     OW15370   6.145   2.200   6.674
 4824SOL    HW115371   6.163   2.225   6.579
 4824SOL    HW215372   6.228   2.209   6.728
 4825SOL     OW15373   1.061   5.627   3.784
 4825SOL    HW115374   1.130   5.611   3.854
 4825SOL    HW215375   1.046   5.542   3.732
 4826SOL     OW15376   4.429   6.567   0.360
 4826SOL    HW115377   4.367   6.609   0.294
 4826SOL    HW215378   4.422   6.615   0.447
 4827SOL     OW15379   5.401   1.190   1.966
 4827SOL    HW115380   5.375   1.256   1.896
 4827SOL    HW215381   5.439   1.238   2.045
 4828SOL     OW15382   5.413   1.219   6.037
 4828SOL    HW115383   5.449   1.147   6.097
 4828SOL    HW215384   5.476   1.297   6.038
 4829SOL     OW15385   4.553   5.708   5.120
 4829SOL    HW115386   4.584   5.713   5.025
 4829SOL    HW215387   4.598   5.631   5.166
 4830SOL     OW15388   1.524   6.494   3.001
 4830SOL    HW115389   1.522   6.394   3.005
 4830SOL    HW215390   1.584   6.523   2.927
 4831SOL     OW15391   2.555   4.309   6.087
 4831SOL    HW115392   2.586   4.291   6.180
 4831SOL    HW215393   2.574   4.230   6.030
 4832SOL     OW15394   3.800   3.528   3.555
 4832SOL    HW115395   3.898   3.515   3.541
 4832SOL    HW215396   3.756   3.544   3.466
 4833SOL     OW15397   5.825   2.463   5.182
 4833SOL    HW115398   5.885   2.394   5.142
 4833SOL    HW215399   5.747   2.479   5.121
 4834SOL     OW15400   1.119   3.949   0.974
 4834SOL    HW115401   1.065   3.868   0.996
 4834SOL    HW215402   1.214   3.934   1.001
 4835SOL     OW15403   1.002   3.643   6.368
 4835SOL    HW115404   1.036   3.552   6.390
 4835SOL    HW215405   1.078   3.709   6.374
 4836SOL     OW15406   3.905   0.248   5.775
 4836SOL    HW115407   3.901   0.283   5.681
 4836SOL    HW215408   3.913   0.325   5.838
 4837SOL     OW15409   1.780   3.586   4.424
 4837SOL    HW115410   1.863   3.587   4.370
 4837SOL    HW215411   1.770   3.497   4.469
 4838SOL     OW15412   1.498   4.557   6.536
 4838SOL    HW115413   1.415   4.540   6.590
 4838SOL    HW215414   1.516   4.479   6.476
 4839SOL     OW15415   2.837   1.078   2.192
 4839SOL    HW115416   2.867   0.983   2.199
 4839SOL    HW215417   2.743   1.086   2.225
 4840SOL     OW15418   5.224   2.415   3.485
 4840SOL    HW115419   5.218   2.497   3.429
 4840SOL    HW215420   5.312   2.369   3.468
 4841SOL     OW15421   2.826   5.017   3.435
 4841SOL    HW115422   2.921   5.048   3.435
 4841SOL    HW215423   2.823   4.920   3.411
 4842SOL     OW15424   4.071   4.942   3.638
 4842SOL    HW115425   4.063   4.964   3.541
 4842SOL    HW215426   3.979   4.926   3.676
 4843SOL     OW15427   5.920   2.337   6.662
 4843SOL    HW115428   5.986   2.263   6.670
 4843SOL    HW215429   5.960   2.412   6.610
 4844SOL     OW15430   1.035   4.760   6.519
 4844SOL    HW115431   0.962   4.798   6.575
 4844SOL    HW215432   1.123   4.797   6.547
 4845SOL     OW15433   5.775   4.274   5.592
 4845SOL    HW115434   5.740   4.351   5.646
 4845SOL    HW215435   5.754   4.289   5.495
 4846SOL     OW15436   6.160   3.910   4.247
 4846SOL    HW115437   6.132   3.849   4.321
 4846SOL    HW215438   6.129   3.874   4.159
 4847SOL     OW15439   2.017   6.907   6.501
 4847SOL    HW115440   2.058   6.828   6.547
 4847SOL    HW215441   1.929   6.880   6.461
 4848SOL     OW15442   5.074   1.244   3.283
 4848SOL    HW115443   5.047   1.156   3.323
 4848SOL    HW215444   5.088   1.311   3.356
 4849SOL     OW15445   1.314   5.489   1.530
 4849SOL    HW115446   1.350   5.582   1.538
 4849SOL    HW215447   1.268   5.464   1.616
 4850SOL     OW15448   3.321   0.279   2.401
 4850SOL    HW115449   3.297   0.189   2.438
 4850SOL    HW215450   3.419   0.294   2.409
 4851SOL     OW15451   4.680   4.619   6.794
 4851SOL    HW115452   4.777   4.608   6.771
 4851SOL    HW215453   4.670   4.690   6.864
 4852SOL     OW15454   4.208   4.152   6.013
 4852SOL    HW115455   4.261   4.164   5.928
 4852SOL    HW215456   4.127   4.210   6.010
 4853SOL     OW15457   4.381   0.310   2.561
 4853SOL    HW115458   4.417   0.228   2.518
 4853SOL    HW215459   4.425   0.323   2.650
 4854SOL     OW15460   3.711   6.788   1.790
 4854SOL    HW115461   3.781   6.719   1.806
 4854SOL    HW215462   3.668   6.813   1.876
 4855SOL     OW15463   4.321   5.000   5.447
 4855SOL    HW115464   4.272   5.081   5.478
 4855SOL    HW215465   4.320   4.996   5.347
 4856SOL     OW15466   0.716   2.881   3.335
 4856SOL    HW115467   0.766   2.948   3.280
 4856SOL    HW215468   0.666   2.927   3.408
 4857SOL     OW15469   2.622   1.110   5.848
 4857SOL    HW115470   2.622   1.044   5.773
 4857SOL    HW215471   2.650   1.064   5.932
 4858SOL     OW15472   2.883   5.524   5.305
 4858SOL    HW115473   2.948   5.539   5.230
 4858SOL    HW215474   2.896   5.432   5.342
 4859SOL     OW15475   7.015   5.350   3.226
 4859SOL    HW115476   6.948   5.322   3.157
 4859SOL    HW215477   0.062   5.412   3.184
 4860SOL     OW15478   3.926   5.417   0.532
 4860SOL    HW115479   3.973   5.447   0.449
 4860SOL    HW215480   3.853   5.482   0.554
 4861SOL     OW15481   4.941   4.956   4.481
 4861SOL    HW115482   4.966   4.865   4.516
 4861SOL    HW215483   4.842   4.966   4.483
 4862SOL     OW15484   1.713   5.080   4.081
 4862SOL    HW115485   1.614   5.098   4.085
 4862SOL    HW215486   1.746   5.057   4.172
 4863SOL     OW15487   5.789   1.386   2.165
 4863SOL    HW115488   5.863   1.364   2.100
 4863SOL    HW215489   5.726   1.451   2.122
 4864SOL     OW15490   2.557   3.124   1.682
 4864SOL    HW115491   2.576   3.222   1.682
 4864SOL    HW215492   2.643   3.073   1.686
 4865SOL     OW15493   3.504   0.062   5.116
 4865SOL    HW115494   3.569   0.124   5.071
 4865SOL    HW215495   3.411   0.088   5.090
 4866SOL     OW15496   1.302   4.995   1.812
 4866SOL    HW115497   1.297   4.900   1.844
 4866SOL    HW215498   1.299   4.996   1.712
 4867SOL     OW15499   5.751   4.726   6.220
 4867SOL    HW115500   5.716   4.759   6.308
 4867SOL    HW215501   5.780   4.630   6.230
 4868SOL     OW15502   1.550   5.881   1.869
 4868SOL    HW115503   1.606   5.954   1.829
 4868SOL    HW215504   1.610   5.809   1.904
 4869SOL     OW15505   0.706   1.879   1.798
 4869SOL    HW115506   0.649   1.812   1.751
 4869SOL    HW215507   0.801   1.850   1.795
 4870SOL     OW15508   6.103   1.480   1.716
 4870SOL    HW115509   6.003   1.478   1.720
 4870SOL    HW215510   6.139   1.387   1.727
 4871SOL     OW15511   1.446   2.345   5.652
 4871SOL    HW115512   1.360   2.322   5.607
 4871SOL    HW215513   1.520   2.345   5.584
 4872SOL     OW15514   2.348   2.754   2.724
 4872SOL    HW115515   2.392   2.754   2.814
 4872SOL    HW215516   2.256   2.718   2.732
 4873SOL     OW15517   0.955   6.551   5.699
 4873SOL    HW115518   0.919   6.480   5.638
 4873SOL    HW215519   0.982   6.510   5.786
 4874SOL     OW15520   6.361   1.987   4.582
 4874SOL    HW115521   6.458   1.993   4.608
 4874SOL    HW215522   6.353   1.996   4.483
 4875SOL     OW15523   0.185   3.337   0.659
 4875SOL    HW115524   0.210   3.426   0.698
 4875SOL    HW215525   0.166   3.272   0.733
 4876SOL     OW15526   6.880   1.378   6.987
 4876SOL    HW115527   6.840   1.365   6.896
 4876SOL    HW215528   6.893   1.289   0.011
 4877SOL     OW15529   4.419   2.100   2.162
 4877SOL    HW115530   4.430   2.008   2.125
 4877SOL    HW215531   4.382   2.094   2.255
 4878SOL     OW15532   1.374   2.613   2.761
 4878SOL    HW115533   1.325   2.535   2.799
 4878SOL    HW215534   1.365   2.613   2.662
 4879SOL     OW15535   3.292   6.495   2.951
 4879SOL    HW115536   3.338   6.572   2.908
 4879SOL    HW215537   3.238   6.526   3.029
 4880SOL     OW15538   0.061   2.265   6.075
 4880SOL    HW115539   0.153   2.235   6.047
 4880SOL    HW215540   7.019   2.259   5.997
 4881SOL     OW15541   3.146   6.368   5.961
 4881SOL    HW115542   3.061   6.392   5.915
 4881SOL    HW215543   3.171   6.441   6.025
 4882SOL     OW15544   5.410   6.275   6.516
 4882SOL    HW115545   5.421   6.374   6.512
 4882SOL    HW215546   5.362   6.243   6.435
 4883SOL     OW15547   6.254   5.782   0.229
 4883SOL    HW115548   6.188   5.747   0.163
 4883SOL    HW215549   6.222   5.868   0.267
 4884SOL     OW15550   4.430   6.130   2.180
 4884SOL    HW115551   4.402   6.225   2.190
 4884SOL    HW215552   4.525   6.120   2.211
 4885SOL     OW15553   0.759   0.132   1.775
 4885SOL    HW115554   0.745   0.035   1.792
 4885SOL    HW215555   0.692   0.164   1.708
 4886SOL     OW15556   6.106   1.369   5.609
 4886SOL    HW115557   6.011   1.387   5.584
 4886SOL    HW215558   6.135   1.281   5.570
 4887SOL     OW15559   0.302   2.853   5.740
 4887SOL    HW115560   0.341   2.761   5.748
 4887SOL    HW215561   0.335   2.896   5.656
 4888SOL     OW15562   4.762   5.859   0.958
 4888SOL    HW115563   4.751   5.760   0.968
 4888SOL    HW215564   4.672   5.902   0.951
 4889SOL     OW15565   1.195   3.268   5.814
 4889SOL    HW115566   1.194   3.362   5.848
 4889SOL    HW215567   1.261   3.214   5.867
 4890SOL     OW15568   5.936   0.491   3.955
 4890SOL    HW115569   6.013   0.478   3.893
 4890SOL    HW215570   5.893   0.403   3.974
 4891SOL     OW15571   0.408   4.937   0.722
 4891SOL    HW115572   0.313   4.911   0.709
 4891SOL    HW215573   0.449   4.881   0.795
 4892SOL     OW15574   1.953   5.440   1.869
 4892SOL    HW115575   1.896   5.388   1.805
 4892SOL    HW215576   1.914   5.532   1.880
 4893SOL     OW15577   6.875   4.295   6.778
 4893SOL    HW115578   6.848   4.229   6.708
 4893SOL    HW215579   6.961   4.267   6.820
 4894SOL     OW15580   6.932   6.811   3.474
 4894SOL    HW115581   7.010   6.788   3.417
 4894SOL    HW215582   6.962   6.872   3.549
 4895SOL     OW15583   6.648   3.615   6.846
 4895SOL    HW115584   6.721   3.598   6.781
 4895SOL    HW215585   6.683   3.671   6.922
 4896SOL     OW15586   4.400   1.485   5.506
 4896SOL    HW115587   4.314   1.533   5.490
 4896SOL    HW215588   4.426   1.435   5.424
 4897SOL     OW15589   2.653   5.768   0.408
 4897SOL    HW115590   2.665   5.796   0.503
 4897SOL    HW215591   2.667   5.846   0.347
 4898SOL     OW15592   4.775   2.999   4.524
 4898SOL    HW115593   4.775   3.092   4.487
 4898SOL    HW215594   4.814   2.936   4.457
 4899SOL     OW15595   0.430   3.301   4.219
 4899SOL    HW115596   0.468   3.240   4.288
 4899SOL    HW215597   0.350   3.348   4.256
 4900SOL     OW15598   0.283   6.431   6.365
 4900SOL    HW115599   0.370   6.384   6.380
 4900SOL    HW215600   0.233   6.437   6.452
 4901SOL     OW15601   6.339   6.373   2.955
 4901SOL    HW115602   6.429   6.341   2.926
 4901SOL    HW215603   6.270   6.343   2.888
 4902SOL     OW15604   3.040   6.055   0.229
 4902SOL    HW115605   3.030   6.082   0.133
 4902SOL    HW215606   3.127   6.006   0.241
 4903SOL     OW15607   5.892   4.612   6.595
 4903SOL    HW115608   5.926   4.519   6.584
 4903SOL    HW215609   5.937   4.672   6.529
 4904SOL     OW15610   2.567   0.843   3.839
 4904SOL    HW115611   2.572   0.904   3.918
 4904SOL    HW215612   2.659   0.812   3.815
 4905SOL     OW15613   5.842   4.289   3.185
 4905SOL    HW115614   5.875   4.379   3.215
 4905SOL    HW215615   5.743   4.292   3.172
 4906SOL     OW15616   5.401   0.385   1.895
 4906SOL    HW115617   5.346   0.396   1.977
 4906SOL    HW215618   5.498   0.399   1.917
 4907SOL     OW15619   3.054   2.652   1.401
 4907SOL    HW115620   3.149   2.622   1.400
 4907SOL    HW215621   2.996   2.582   1.357
 4908SOL     OW15622   5.129   4.467   6.181
 4908SOL    HW115623   5.121   4.517   6.268
 4908SOL    HW215624   5.103   4.371   6.196
 4909SOL     OW15625   6.104   6.846   5.472
 4909SOL    HW115626   6.016   6.834   5.427
 4909SOL    HW215627   6.128   6.943   5.473
 4910SOL     OW15628   5.495   6.981   5.167
 4910SOL    HW115629   5.443   0.003   5.093
 4910SOL    HW215630   5.446   6.900   5.201
 4911SOL     OW15631   0.123   3.609   0.065
 4911SOL    HW115632   0.147   3.645   6.995
 4911SOL    HW215633   0.205   3.604   0.122
 4912SOL     OW15634   1.474   3.121   1.861
 4912SOL    HW115635   1.486   3.060   1.782
 4912SOL    HW215636   1.452   3.066   1.941
 4913SOL     OW15637   2.798   3.387   1.882
 4913SOL    HW115638   2.861   3.459   1.851
 4913SOL    HW215639   2.831   3.350   1.969
 4914SOL     OW15640   1.256   0.158   2.834
 4914SOL    HW115641   1.242   0.063   2.804
 4914SOL    HW215642   1.259   0.161   2.934
 4915SOL     OW15643   4.165   6.662   3.803
 4915SOL    HW115644   4.108   6.656   3.721
 4915SOL    HW215645   4.216   6.577   3.814
 4916SOL     OW15646   1.758   1.523   1.929
 4916SOL    HW115647   1.740   1.426   1.914
 4916SOL    HW215648   1.820   1.558   1.859
 4917SOL     OW15649   0.849   5.596   6.551
 4917SOL    HW115650   0.770   5.657   6.551
 4917SOL    HW215651   0.829   5.516   6.494
 4918SOL     OW15652   2.337   6.427   3.956
 4918SOL    HW115653   2.255   6.370   3.953
 4918SOL    HW215654   2.318   6.514   3.911
 4919SOL     OW15655   2.312   2.764   1.163
 4919SOL    HW115656   2.260   2.828   1.220
 4919SOL    HW215657   2.358   2.697   1.221
 4920SOL     OW15658   3.814   2.266   6.323
 4920SOL    HW115659   3.755   2.332   6.274
 4920SOL    HW215660   3.895   2.314   6.358
 4921SOL     OW15661   6.633   4.533   1.896
 4921SOL    HW115662   6.650   4.465   1.967
 4921SOL    HW215663   6.619   4.623   1.938
 4922SOL     OW15664   1.569   3.712   5.907
 4922SOL    HW115665   1.590   3.629   5.856
 4922SOL    HW215666   1.529   3.688   5.996
 4923SOL     OW15667   3.923   1.955   0.372
 4923SOL    HW115668   3.985   1.950   0.293
 4923SOL    HW215669   3.903   2.051   0.392
 4924SOL     OW15670   1.070   3.028   4.443
 4924SOL    HW115671   1.114   3.079   4.368
 4924SOL    HW215672   0.987   3.076   4.472
 4925SOL     OW15673   4.844   5.024   4.845
 4925SOL    HW115674   4.907   5.087   4.799
 4925SOL    HW215675   4.842   4.937   4.796
 4926SOL     OW15676   4.154   3.668   0.641
 4926SOL    HW115677   4.157   3.644   0.738
 4926SOL    HW215678   4.115   3.592   0.589
 4927SOL     OW15679   2.866   3.231   2.080
 4927SOL    HW115680   2.956   3.190   2.095
 4927SOL    HW215681   2.800   3.160   2.058
 4928SOL     OW15682   6.614   1.852   5.937
 4928SOL    HW115683   6.644   1.757   5.950
 4928SOL    HW215684   6.629   1.903   6.022
 4929SOL     OW15685   1.492   4.437   4.058
 4929SOL    HW115686   1.431   4.478   4.126
 4929SOL    HW215687   1.446   4.435   3.969
 4930SOL     OW15688   0.812   3.157   0.362
 4930SOL    HW115689   0.819   3.177   0.460
 4930SOL    HW215690   0.734   3.206   0.324
 4931SOL     OW15691   5.558   6.855   0.836
 4931SOL    HW115692   5.657   6.856   0.819
 4931SOL    HW215693   5.510   6.900   0.761
 4932SOL     OW15694   3.037   2.188   0.860
 4932SOL    HW115695   3.033   2.213   0.763
 4932SOL    HW215696   2.964   2.123   0.881
 4933SOL     OW15697   2.373   0.215   4.654
 4933SOL    HW115698   2.357   0.282   4.726
 4933SOL    HW215699   2.396   0.127   4.695
 4934SOL     OW15700   1.687   6.371   5.584
 4934SOL    HW115701   1.668   6.362   5.681
 4934SOL    HW215702   1.720   6.463   5.564
 4935SOL     OW15703   0.985   2.708   1.114
 4935SOL    HW115704   0.917   2.670   1.052
 4935SOL    HW215705   1.043   2.635   1.150
 4936SOL     OW15706   6.493   3.719   1.558
 4936SOL    HW115707   6.421   3.715   1.627
 4936SOL    HW215708   6.470   3.659   1.481
 4937SOL     OW15709   0.984   3.547   5.232
 4937SOL    HW115710   0.964   3.492   5.313
 4937SOL    HW215711   1.083   3.544   5.213
 4938SOL     OW15712   2.980   3.815   0.955
 4938SOL    HW115713   3.034   3.732   0.972
 4938SOL    HW215714   2.883   3.792   0.953
 4939SOL     OW15715   0.994   1.416   1.771
 4939SOL    HW115716   1.058   1.385   1.842
 4939SOL    HW215717   1.002   1.357   1.691
 4940SOL     OW15718   1.785   1.746   5.349
 4940SOL    HW115719   1.797   1.842   5.325
 4940SOL    HW215720   1.793   1.690   5.267
 4941SOL     OW15721   3.080   1.934   6.254
 4941SOL    HW115722   3.124   2.018   6.288
 4941SOL    HW215723   3.138   1.856   6.276
 4942SOL     OW15724   0.514   0.919   2.744
 4942SOL    HW115725   0.533   0.886   2.836
 4942SOL    HW215726   0.527   1.019   2.741
 4943SOL     OW15727   5.207   2.151   6.927
 4943SOL    HW115728   5.201   2.149   6.827
 4943SOL    HW215729   5.257   2.233   6.955
 4944SOL     OW15730   1.169   4.452   0.372
 4944SOL    HW115731   1.144   4.426   0.466
 4944SOL    HW215732   1.094   4.430   0.311
 4945SOL     OW15733   2.804   0.540   6.544
 4945SOL    HW115734   2.763   0.464   6.495
 4945SOL    HW215735   2.733   0.595   6.587
 4946SOL     OW15736   2.001   6.110   6.996
 4946SOL    HW115737   1.934   6.161   0.030
 4946SOL    HW215738   1.999   6.014   0.004
 4947SOL     OW15739   1.222   6.965   1.100
 4947SOL    HW115740   1.304   7.011   1.066
 4947SOL    HW215741   1.165   0.010   1.150
 4948SOL     OW15742   1.462   3.589   2.060
 4948SOL    HW115743   1.506   3.663   2.010
 4948SOL    HW215744   1.516   3.505   2.049
 4949SOL     OW15745   6.184   4.934   6.689
 4949SOL    HW115746   6.227   4.961   6.775
 4949SOL    HW215747   6.215   4.842   6.663
 4950SOL     OW15748   4.041   3.923   5.995
 4950SOL    HW115749   4.091   4.006   6.019
 4950SOL    HW215750   4.049   3.857   6.070
 4951SOL     OW15751   4.445   5.382   3.679
 4951SOL    HW115752   4.448   5.323   3.760
 4951SOL    HW215753   4.532   5.378   3.631
 4952SOL     OW15754   0.687   0.648   6.384
 4952SOL    HW115755   0.773   0.609   6.352
 4952SOL    HW215756   0.638   0.581   6.440
 4953SOL     OW15757   1.050   1.341   5.842
 4953SOL    HW115758   1.101   1.428   5.839
 4953SOL    HW215759   0.990   1.341   5.922
 4954SOL     OW15760   3.569   3.592   5.839
 4954SOL    HW115761   3.653   3.539   5.849
 4954SOL    HW215762   3.491   3.530   5.828
 4955SOL     OW15763   3.906   6.256   6.959
 4955SOL    HW115764   3.906   6.247   0.039
 4955SOL    HW215765   3.996   6.287   6.929
 4956SOL     OW15766   2.462   0.303   3.721
 4956SOL    HW115767   2.483   0.398   3.744
 4956SOL    HW215768   2.428   0.255   3.802
 4957SOL     OW15769   5.870   5.404   0.248
 4957SOL    HW115770   5.844   5.345   0.171
 4957SOL    HW215771   5.891   5.347   0.328
 4958SOL     OW15772   3.070   5.264   0.838
 4958SOL    HW115773   3.098   5.187   0.780
 4958SOL    HW215774   3.049   5.230   0.930
 4959SOL     OW15775   2.153   1.241   2.438
 4959SOL    HW115776   2.104   1.327   2.423
 4959SOL    HW215777   2.092   1.173   2.478
 4960SOL     OW15778   5.345   4.031   4.837
 4960SOL    HW115779   5.263   3.982   4.806
 4960SOL    HW215780   5.410   4.037   4.762
 4961SOL     OW15781   3.932   3.405   2.610
 4961SOL    HW115782   3.888   3.402   2.699
 4961SOL    HW215783   3.923   3.496   2.570
 4962SOL     OW15784   1.513   2.659   0.721
 4962SOL    HW115785   1.571   2.716   0.663
 4962SOL    HW215786   1.424   2.647   0.676
 4963SOL     OW15787   0.691   3.772   6.697
 4963SOL    HW115788   0.592   3.757   6.695
 4963SOL    HW215789   0.716   3.837   6.625
 4964SOL     OW15790   1.398   5.072   3.636
 4964SOL    HW115791   1.370   5.108   3.548
 4964SOL    HW215792   1.449   5.142   3.687
 4965SOL     OW15793   2.449   0.186   2.935
 4965SOL    HW115794   2.388   0.189   2.855
 4965SOL    HW215795   2.406   0.232   3.012
 4966SOL     OW15796   4.111   6.903   5.525
 4966SOL    HW115797   4.057   6.916   5.441
 4966SOL    HW215798   4.207   6.922   5.506
 4967SOL     OW15799   4.612   4.364   3.100
 4967SOL    HW115800   4.564   4.367   3.187
 4967SOL    HW215801   4.654   4.453   3.081
 4968SOL     OW15802   6.558   3.004   3.606
 4968SOL    HW115803   6.625   3.055   3.553
 4968SOL    HW215804   6.467   3.020   3.568
 4969SOL     OW15805   1.483   5.516   3.841
 4969SOL    HW115806   1.395   5.556   3.866
 4969SOL    HW215807   1.547   5.528   3.917
 4970SOL     OW15808   2.722   0.647   0.831
 4970SOL    HW115809   2.739   0.637   0.733
 4970SOL    HW215810   2.695   0.558   0.869
 4971SOL     OW15811   0.447   6.019   2.291
 4971SOL    HW115812   0.385   6.098   2.292
 4971SOL    HW215813   0.516   6.030   2.363
 4972SOL     OW15814   0.454   3.529   0.993
 4972SOL    HW115815   0.498   3.610   1.031
 4972SOL    HW215816   0.363   3.519   1.034
 4973SOL     OW15817   5.155   2.672   0.288
 4973SOL    HW115818   5.168   2.661   0.387
 4973SOL    HW215819   5.226   2.621   0.240
 4974SOL     OW15820   3.193   0.541   5.335
 4974SOL    HW115821   3.286   0.536   5.372
 4974SOL    HW215822   3.196   0.576   5.242
 4975SOL     OW15823   6.166   4.126   0.934
 4975SOL    HW115824   6.152   4.103   0.837
 4975SOL    HW215825   6.106   4.202   0.960
 4976SOL     OW15826   1.801   0.131   4.046
 4976SOL    HW115827   1.721   0.186   4.068
 4976SOL    HW215828   1.834   0.156   3.955
 4977SOL     OW15829   1.479   3.498   4.413
 4977SOL    HW115830   1.395   3.549   4.430
 4977SOL    HW215831   1.557   3.559   4.422
 4978SOL     OW15832   6.644   5.381   4.660
 4978SOL    HW115833   6.687   5.431   4.735
 4978SOL    HW215834   6.546   5.397   4.661
 4979SOL     OW15835   3.321   0.018   5.754
 4979SOL    HW115836   3.328   0.032   5.655
 4979SOL    HW215837   3.411   0.027   5.795
 4980SOL     OW15838   5.734   2.906   4.218
 4980SOL    HW115839   5.788   2.857   4.149
 4980SOL    HW215840   5.788   2.983   4.253
 4981SOL     OW15841   3.082   6.938   2.737
 4981SOL    HW115842   3.132   6.855   2.710
 4981SOL    HW215843   2.985   6.925   2.719
 4982SOL     OW15844   3.683   2.034   5.131
 4982SOL    HW115845   3.613   2.069   5.069
 4982SOL    HW215846   3.772   2.036   5.086
 4983SOL     OW15847   5.411   3.645   3.237
 4983SOL    HW115848   5.381   3.729   3.281
 4983SOL    HW215849   5.507   3.654   3.209
 4984SOL     OW15850   4.950   3.761   5.225
 4984SOL    HW115851   4.987   3.833   5.166
 4984SOL    HW215852   4.910   3.689   5.168
 4985SOL     OW15853   4.797   0.234   2.322
 4985SOL    HW115854   4.813   0.194   2.232
 4985SOL    HW215855   4.843   0.323   2.328
 4986SOL     OW15856   1.383   5.628   1.259
 4986SOL    HW115857   1.405   5.661   1.167
 4986SOL    HW215858   1.359   5.531   1.255
 4987SOL     OW15859   2.202   4.121   2.092
 4987SOL    HW115860   2.182   4.121   1.994
 4987SOL    HW215861   2.127   4.164   2.142
 4988SOL     OW15862   6.468   4.863   4.099
 4988SOL    HW115863   6.538   4.891   4.165
 4988SOL    HW215864   6.430   4.775   4.127
 4989SOL     OW15865   6.734   0.423   4.296
 4989SOL    HW115866   6.654   0.445   4.351
 4989SOL    HW215867   6.764   0.330   4.316
 4990SOL     OW15868   4.427   1.307   5.953
 4990SOL    HW115869   4.353   1.294   5.887
 4990SOL    HW215870   4.495   1.234   5.941
 4991SOL     OW15871   2.096   5.089   5.425
 4991SOL    HW115872   2.080   5.188   5.428
 4991SOL    HW215873   2.194   5.071   5.439
 4992SOL     OW15874   2.911   2.686   5.343
 4992SOL    HW115875   2.928   2.587   5.348
 4992SOL    HW215876   2.909   2.724   5.435
 4993SOL     OW15877   2.420   5.106   3.727
 4993SOL    HW115878   2.395   5.160   3.646
 4993SOL    HW215879   2.483   5.033   3.699
 4994SOL     OW15880   3.498   4.860   5.958
 4994SOL    HW115881   3.522   4.787   5.894
 4994SOL    HW215882   3.399   4.861   5.973
 4995SOL     OW15883   0.453   2.122   6.465
 4995SOL    HW115884   0.357   2.096   6.474
 4995SOL    HW215885   0.510   2.060   6.519
 4996SOL     OW15886   0.158   0.875   4.633
 4996SOL    HW115887   0.250   0.846   4.661
 4996SOL    HW215888   0.094   0.862   4.709
 4997SOL     OW15889   3.610   1.807   1.030
 4997SOL    HW115890   3.530   1.779   1.082
 4997SOL    HW215891   3.693   1.780   1.080
 4998SOL     OW15892   1.125   4.175   3.300
 4998SOL    HW115893   1.069   4.105   3.345
 4998SOL    HW215894   1.197   4.131   3.247
 4999SOL     OW15895   6.875   3.045   3.208
 4999SOL    HW115896   6.924   3.127   3.179
 4999SOL    HW215897   6.846   2.994   3.127
 5000SOL     OW15898   2.490   6.344   2.817
 5000SOL    HW115899   2.495   6.425   2.758
 5000SOL    HW215900   2.462   6.372   2.909
 5001SOL     OW15901   0.203   6.162   2.906
 5001SOL    HW115902   0.276   6.217   2.865
 5001SOL    HW215903   0.239   6.115   2.987
 5002SOL     OW15904   1.450   5.201   4.041
 5002SOL    HW115905   1.480   5.208   3.946
 5002SOL    HW215906   1.401   5.284   4.067
 5003SOL     OW15907   4.095   1.517   1.198
 5003SOL    HW115908   4.134   1.602   1.233
 5003SOL    HW215909   4.169   1.458   1.166
 5004SOL     OW15910   3.669   6.066   0.403
 5004SOL    HW115911   3.736   6.023   0.462
 5004SOL    HW215912   3.662   6.163   0.425
 5005SOL     OW15913   4.609   3.103   0.860
 5005SOL    HW115914   4.550   3.032   0.898
 5005SOL    HW215915   4.595   3.110   0.762
 5006SOL     OW15916   4.446   0.825   2.529
 5006SOL    HW115917   4.407   0.791   2.444
 5006SOL    HW215918   4.543   0.847   2.516
 5007SOL     OW15919   6.817   5.296   3.058
 5007SOL    HW115920   6.719   5.300   3.081
 5007SOL    HW215921   6.853   5.206   3.083
 5008SOL     OW15922   4.328   0.378   3.877
 5008SOL    HW115923   4.401   0.444   3.863
 5008SOL    HW215924   4.272   0.373   3.794
 5009SOL     OW15925   0.945   1.812   6.124
 5009SOL    HW115926   1.030   1.810   6.175
 5009SOL    HW215927   0.960   1.855   6.035
 5010SOL     OW15928   5.456   4.605   0.943
 5010SOL    HW115929   5.449   4.579   1.039
 5010SOL    HW215930   5.551   4.596   0.913
 5011SOL     OW15931   1.540   2.104   5.764
 5011SOL    HW115932   1.518   2.048   5.684
 5011SOL    HW215933   1.495   2.193   5.755
 5012SOL     OW15934   5.669   2.748   5.516
 5012SOL    HW115935   5.735   2.795   5.457
 5012SOL    HW215936   5.655   2.655   5.483
 5013SOL     OW15937   6.178   5.785   5.604
 5013SOL    HW115938   6.152   5.866   5.657
 5013SOL    HW215939   6.212   5.714   5.665
 5014SOL     OW15940   6.337   2.944   0.344
 5014SOL    HW115941   6.308   2.877   0.413
 5014SOL    HW215942   6.394   2.898   0.276
 5015SOL     OW15943   6.569   5.069   4.629
 5015SOL    HW115944   6.596   5.123   4.549
 5015SOL    HW215945   6.545   4.976   4.600
 5016SOL     OW15946   1.170   2.047   6.424
 5016SOL    HW115947   1.268   2.060   6.436
 5016SOL    HW215948   1.138   2.105   6.349
 5017SOL     OW15949   1.164   2.872   1.936
 5017SOL    HW115950   1.261   2.892   1.955
 5017SOL    HW215951   1.158   2.798   1.869
 5018SOL     OW15952   0.461   0.397   0.580
 5018SOL    HW115953   0.363   0.417   0.585
 5018SOL    HW215954   0.504   0.456   0.511
 5019SOL     OW15955   1.756   4.199   4.017
 5019SOL    HW115956   1.788   4.288   4.051
 5019SOL    HW215957   1.703   4.154   4.089
 5020SOL     OW15958   1.613   0.143   2.442
 5020SOL    HW115959   1.679   0.214   2.469
 5020SOL    HW215960   1.550   0.126   2.518
 5021SOL     OW15961   2.481   0.427   1.151
 5021SOL    HW115962   2.433   0.454   1.234
 5021SOL    HW215963   2.504   0.508   1.097
 5022SOL     OW15964   0.282   3.522   1.699
 5022SOL    HW115965   0.224   3.598   1.728
 5022SOL    HW215966   0.343   3.553   1.626
 5023SOL     OW15967   0.613   2.020   3.285
 5023SOL    HW115968   0.629   2.015   3.384
 5023SOL    HW215969   0.684   2.076   3.243
 5024SOL     OW15970   4.257   3.924   0.149
 5024SOL    HW115971   4.254   4.019   0.177
 5024SOL    HW215972   4.221   3.866   0.221
 5025SOL     OW15973   4.527   2.041   4.503
 5025SOL    HW115974   4.545   2.138   4.519
 5025SOL    HW215975   4.445   2.013   4.553
 5026SOL     OW15976   5.099   6.017   4.948
 5026SOL    HW115977   5.110   6.097   4.890
 5026SOL    HW215978   5.008   6.018   4.990
 5027SOL     OW15979   5.478   6.481   1.587
 5027SOL    HW115980   5.510   6.475   1.492
 5027SOL    HW215981   5.538   6.542   1.638
 5028SOL     OW15982   0.404   2.204   2.662
 5028SOL    HW115983   0.446   2.126   2.616
 5028SOL    HW215984   0.438   2.210   2.756
 5029SOL     OW15985   5.974   2.721   3.124
 5029SOL    HW115986   5.947   2.798   3.067
 5029SOL    HW215987   5.996   2.753   3.216
 5030SOL     OW15988   0.636   3.130   0.834
 5030SOL    HW115989   0.554   3.185   0.850
 5030SOL    HW215990   0.611   3.033   0.834
 5031SOL     OW15991   5.831   0.674   6.353
 5031SOL    HW115992   5.888   0.739   6.303
 5031SOL    HW215993   5.880   0.642   6.434
 5032SOL     OW15994   2.046   4.426   6.620
 5032SOL    HW115995   2.123   4.411   6.558
 5032SOL    HW215996   2.078   4.428   6.714
 5033SOL     OW15997   2.192   6.891   3.936
 5033SOL    HW115998   2.096   6.862   3.939
 5033SOL    HW215999   2.210   6.953   4.012
 5034SOL     OW16000   4.244   6.022   3.607
 5034SOL    HW116001   4.317   6.016   3.539
 5034SOL    HW216002   4.156   6.025   3.561
 5035SOL     OW16003   1.925   4.088   3.833
 5035SOL    HW116004   1.853   4.138   3.882
 5035SOL    HW216005   1.887   4.005   3.792
 5036SOL     OW16006   1.331   2.753   4.403
 5036SOL    HW116007   1.259   2.762   4.471
 5036SOL    HW216008   1.420   2.749   4.449
 5037SOL     OW16009   5.247   4.655   1.418
 5037SOL    HW116010   5.265   4.673   1.515
 5037SOL    HW216011   5.193   4.731   1.380
 5038SOL     OW16012   2.960   3.893   4.823
 5038SOL    HW116013   2.950   3.802   4.864
 5038SOL    HW216014   2.957   3.962   4.895
 5039SOL     OW16015   0.361   2.746   6.570
 5039SOL    HW116016   0.363   2.726   6.668
 5039SOL    HW216017   0.389   2.841   6.555
 5040SOL     OW16018   1.016   1.476   4.992
 5040SOL    HW116019   1.108   1.467   4.953
 5040SOL    HW216020   0.976   1.385   5.004
 5041SOL     OW16021   6.569   2.450   1.181
 5041SOL    HW116022   6.576   2.454   1.280
 5041SOL    HW216023   6.633   2.381   1.146
 5042SOL     OW16024   1.011   1.665   5.552
 5042SOL    HW116025   0.998   1.741   5.489
 5042SOL    HW216026   1.044   1.585   5.502
 5043SOL     OW16027   2.432   0.057   1.356
 5043SOL    HW116028   2.365   0.070   1.283
 5043SOL    HW216029   2.485   0.141   1.367
 5044SOL     OW16030   6.831   6.003   1.215
 5044SOL    HW116031   6.787   6.083   1.175
 5044SOL    HW216032   6.860   5.941   1.142
 5045SOL     OW16033   5.899   2.728   2.316
 5045SOL    HW116034   5.964   2.767   2.250
 5045SOL    HW216035   5.842   2.660   2.271
 5046SOL     OW16036   4.172   3.174   1.793
 5046SOL    HW116037   4.082   3.134   1.810
 5046SOL    HW216038   4.163   3.273   1.782
 5047SOL     OW16039   2.327   4.682   3.704
 5047SOL    HW116040   2.383   4.606   3.738
 5047SOL    HW216041   2.376   4.729   3.631
 5048SOL     OW16042   1.565   6.790   5.789
 5048SOL    HW116043   1.575   6.834   5.878
 5048SOL    HW216044   1.486   6.728   5.791
 5049SOL     OW16045   4.094   1.678   6.413
 5049SOL    HW116046   3.996   1.673   6.432
 5049SOL    HW216047   4.144   1.696   6.497
 5050SOL     OW16048   1.167   0.279   1.024
 5050SOL    HW116049   1.229   0.234   0.960
 5050SOL    HW216050   1.218   0.307   1.106
 5051SOL     OW16051   4.314   4.140   1.040
 5051SOL    HW116052   4.397   4.166   1.091
 5051SOL    HW216053   4.244   4.210   1.054
 5052SOL     OW16054   1.926   3.830   4.284
 5052SOL    HW116055   1.921   3.795   4.190
 5052SOL    HW216056   1.846   3.887   4.302
 5053SOL     OW16057   0.080   0.825   0.446
 5053SOL    HW116058   7.000   0.827   0.444
 5053SOL    HW216059   0.116   0.904   0.396
 5054SOL     OW16060   4.063   5.569   3.114
 5054SOL    HW116061   4.125   5.550   3.190
 5054SOL    HW216062   4.112   5.617   3.042
 5055SOL     OW16063   6.065   4.372   5.759
 5055SOL    HW116064   6.042   4.309   5.685
 5055SOL    HW216065   6.057   4.325   5.847
 5056SOL     OW16066   6.753   5.109   3.294
 5056SOL    HW116067   6.754   5.106   3.394
 5056SOL    HW216068   6.659   5.106   3.261
 5057SOL     OW16069   6.841   6.491   2.600
 5057SOL    HW116070   6.917   6.504   2.664
 5057SOL    HW216071   6.859   6.410   2.543
 5058SOL     OW16072   2.618   5.632   5.724
 5058SOL    HW116073   2.623   5.728   5.753
 5058SOL    HW216074   2.642   5.626   5.627
 5059SOL     OW16075   6.538   6.450   2.585
 5059SOL    HW116076   6.636   6.452   2.566
 5059SOL    HW216077   6.508   6.539   2.618
 5060SOL     OW16078   6.673   2.955   0.044
 5060SOL    HW116079   6.688   3.054   0.053
 5060SOL    HW216080   6.754   2.913   0.004
 5061SOL     OW16081   5.589   3.317   0.728
 5061SOL    HW116082   5.641   3.400   0.747
 5061SOL    HW216083   5.494   3.329   0.756
 5062SOL     OW16084   6.516   0.197   6.869
 5062SOL    HW116085   6.578   0.222   6.794
 5062SOL    HW216086   6.502   0.277   6.929
 5063SOL     OW16087   1.118   6.411   2.498
 5063SOL    HW116088   1.124   6.504   2.463
 5063SOL    HW216089   1.198   6.392   2.556
 5064SOL     OW16090   5.202   4.574   6.847
 5064SOL    HW116091   5.195   4.492   6.904
 5064SOL    HW216092   5.296   4.584   6.815
 5065SOL     OW16093   1.914   6.808   5.772
 5065SOL    HW116094   1.963   6.832   5.856
 5065SOL    HW216095   1.893   6.710   5.772
 5066SOL     OW16096   5.103   4.760   0.314
 5066SOL    HW116097   5.056   4.687   0.363
 5066SOL    HW216098   5.053   4.846   0.326
 5067SOL     OW16099   5.479   1.065   6.692
 5067SOL    HW116100   5.579   1.057   6.688
 5067SOL    HW216101   5.441   1.050   6.601
 5068SOL     OW16102   3.377   5.077   1.463
 5068SOL    HW116103   3.462   5.047   1.506
 5068SOL    HW216104   3.300   5.031   1.507
 5069SOL     OW16105   0.187   5.153   2.879
 5069SOL    HW116106   0.191   5.216   2.956
 5069SOL    HW216107   0.269   5.096   2.879
 5070SOL     OW16108   5.280   2.639   3.114
 5070SOL    HW116109   5.256   2.658   3.019
 5070SOL    HW216110   5.377   2.660   3.129
 5071SOL     OW16111   4.940   1.132   1.715
 5071SOL    HW116112   5.035   1.160   1.704
 5071SOL    HW216113   4.888   1.205   1.758
 5072SOL     OW16114   0.902   4.146   2.411
 5072SOL    HW116115   0.838   4.112   2.343
 5072SOL    HW216116   0.977   4.080   2.422
 5073SOL     OW16117   4.386   2.336   3.394
 5073SOL    HW116118   4.359   2.370   3.304
 5073SOL    HW216119   4.421   2.243   3.385
 5074SOL     OW16120   4.095   3.478   4.997
 5074SOL    HW116121   4.056   3.442   5.082
 5074SOL    HW216122   4.091   3.578   4.998
 5075SOL     OW16123   6.442   0.271   4.144
 5075SOL    HW116124   6.524   0.311   4.103
 5075SOL    HW216125   6.387   0.227   4.073
 5076SOL     OW16126   5.447   0.436   0.248
 5076SOL    HW116127   5.376   0.466   0.184
 5076SOL    HW216128   5.406   0.374   0.315
 5077SOL     OW16129   0.408   1.486   2.810
 5077SOL    HW116130   0.328   1.426   2.808
 5077SOL    HW216131   0.482   1.441   2.860
 5078SOL     OW16132   0.409   2.150   4.809
 5078SOL    HW116133   0.363   2.153   4.897
 5078SOL    HW216134   0.342   2.165   4.736
 5079SOL     OW16135   4.937   5.224   4.689
 5079SOL    HW116136   4.924   5.296   4.758
 5079SOL    HW216137   4.888   5.249   4.605
 5080SOL     OW16138   4.748   0.403   5.685
 5080SOL    HW116139   4.729   0.337   5.612
 5080SOL    HW216140   4.663   0.433   5.727
 5081SOL     OW16141   2.923   3.653   3.175
 5081SOL    HW116142   2.946   3.608   3.261
 5081SOL    HW216143   2.846   3.715   3.189
 5082SOL     OW16144   1.105   1.666   5.153
 5082SOL    HW116145   1.088   1.588   5.092
 5082SOL    HW216146   1.122   1.748   5.099
 5083SOL     OW16147   0.910   3.711   2.596
 5083SOL    HW116148   0.857   3.632   2.628
 5083SOL    HW216149   0.850   3.772   2.544
 5084SOL     OW16150   1.503   5.611   2.601
 5084SOL    HW116151   1.464   5.652   2.518
 5084SOL    HW216152   1.601   5.597   2.589
 5085SOL     OW16153   6.799   2.880   0.761
 5085SOL    HW116154   6.794   2.933   0.846
 5085SOL    HW216155   6.842   2.935   0.690
 5086SOL     OW16156   6.719   4.568   5.106
 5086SOL    HW116157   6.806   4.618   5.114
 5086SOL    HW216158   6.658   4.618   5.045
 5087SOL     OW16159   5.464   5.395   5.714
 5087SOL    HW116160   5.559   5.378   5.738
 5087SOL    HW216161   5.429   5.319   5.658
 5088SOL     OW16162   5.697   1.250   6.526
 5088SOL    HW116163   5.730   1.167   6.480
 5088SOL    HW216164   5.679   1.320   6.457
 5089SOL     OW16165   5.459   3.008   4.373
 5089SOL    HW116166   5.434   3.088   4.428
 5089SOL    HW216167   5.555   2.985   4.389
 5090SOL     OW16168   1.098   4.646   0.013
 5090SOL    HW116169   1.096   4.569   6.969
 5090SOL    HW216170   1.004   4.673   0.035
 5091SOL     OW16171   0.746   5.867   4.004
 5091SOL    HW116172   0.824   5.868   3.940
 5091SOL    HW216173   0.753   5.944   4.066
 5092SOL     OW16174   3.615   3.017   0.525
 5092SOL    HW116175   3.567   3.099   0.495
 5092SOL    HW216176   3.555   2.938   0.515
 5093SOL     OW16177   0.893   0.913   2.576
 5093SOL    HW116178   0.804   0.868   2.570
 5093SOL    HW216179   0.903   0.955   2.666
 5094SOL     OW16180   1.046   6.933   6.085
 5094SOL    HW116181   1.095   6.987   6.016
 5094SOL    HW216182   0.972   6.989   6.123
 5095SOL     OW16183   3.181   6.468   4.835
 5095SOL    HW116184   3.091   6.435   4.807
 5095SOL    HW216185   3.243   6.467   4.757
 5096SOL     OW16186   3.309   5.964   2.113
 5096SOL    HW116187   3.389   5.916   2.079
 5096SOL    HW216188   3.303   6.054   2.069
 5097SOL     OW16189   0.909   2.161   6.779
 5097SOL    HW116190   0.888   2.242   6.725
 5097SOL    HW216191   0.902   2.184   6.877
 5098SOL     OW16192   1.412   2.842   2.966
 5098SOL    HW116193   1.472   2.910   2.923
 5098SOL    HW216194   1.374   2.782   2.896
 5099SOL     OW16195   0.924   1.548   4.352
 5099SOL    HW116196   0.852   1.480   4.338
 5099SOL    HW216197   0.887   1.626   4.402
 5100SOL     OW16198   4.846   4.596   5.389
 5100SOL    HW116199   4.922   4.662   5.394
 5100SOL    HW216200   4.846   4.539   5.471
 5101SOL     OW16201   5.605   6.144   0.448
 5101SOL    HW116202   5.510   6.175   0.445
 5101SOL    HW216203   5.610   6.049   0.416
 5102SOL     OW16204   3.825   5.960   3.318
 5102SOL    HW116205   3.746   6.008   3.278
 5102SOL    HW216206   3.798   5.867   3.343
 5103SOL     OW16207   1.855   2.100   3.538
 5103SOL    HW116208   1.794   2.053   3.603
 5103SOL    HW216209   1.950   2.074   3.557
 5104SOL     OW16210   0.734   0.413   0.723
 5104SOL    HW116211   0.649   0.456   0.751
 5104SOL    HW216212   0.755   0.337   0.785
 5105SOL     OW16213   1.258   3.379   0.504
 5105SOL    HW116214   1.331   3.341   0.447
 5105SOL    HW216215   1.178   3.319   0.499
 5106SOL     OW16216   2.077   6.743   2.025
 5106SOL    HW116217   2.152   6.771   2.084
 5106SOL    HW216218   1.995   6.728   2.080
 5107SOL     OW16219   1.566   6.924   6.034
 5107SOL    HW116220   1.519   6.938   6.121
 5107SOL    HW216221   1.600   7.012   6.000
 5108SOL     OW16222   3.859   3.474   4.655
 5108SOL    HW116223   3.814   3.453   4.742
 5108SOL    HW216224   3.957   3.485   4.669
 5109SOL     OW16225   0.871   2.312   2.079
 5109SOL    HW116226   0.939   2.381   2.053
 5109SOL    HW216227   0.781   2.341   2.049
 5110SOL     OW16228   1.332   6.075   5.309
 5110SOL    HW116229   1.425   6.108   5.327
 5110SOL    HW216230   1.337   5.989   5.257
 5111SOL     OW16231   1.086   0.952   6.614
 5111SOL    HW116232   1.018   1.025   6.599
 5111SOL    HW216233   1.040   0.863   6.609
 5112SOL     OW16234   0.328   7.004   3.462
 5112SOL    HW116235   0.304   0.050   3.534
 5112SOL    HW216236   0.346   0.034   3.377
 5113SOL     OW16237   0.413   1.829   6.660
 5113SOL    HW116238   0.469   1.906   6.690
 5113SOL    HW216239   0.446   1.795   6.572
 5114SOL     OW16240   5.174   4.911   6.579
 5114SOL    HW116241   5.093   4.870   6.536
 5114SOL    HW216242   5.232   4.951   6.508
 5115SOL     OW16243   2.612   3.851   5.303
 5115SOL    HW116244   2.602   3.754   5.322
 5115SOL    HW216245   2.537   3.882   5.245
 5116SOL     OW16246   6.682   3.961   1.513
 5116SOL    HW116247   6.590   3.999   1.507
 5116SOL    HW216248   6.680   3.863   1.491
 5117SOL     OW16249   2.482   6.057   2.311
 5117SOL    HW116250   2.550   6.095   2.248
 5117SOL    HW216251   2.391   6.087   2.284
 5118SOL     OW16252   4.165   6.884   1.811
 5118SOL    HW116253   4.169   6.903   1.713
 5118SOL    HW216254   4.190   6.966   1.862
 5119SOL     OW16255   6.752   1.068   3.357
 5119SOL    HW116256   6.833   1.012   3.372
 5119SOL    HW216257   6.710   1.044   3.270
 5120SOL     OW16258   3.686   1.455   1.123
 5120SOL    HW116259   3.774   1.415   1.147
 5120SOL    HW216260   3.639   1.397   1.056
 5121SOL     OW16261   0.905   3.787   4.406
 5121SOL    HW116262   0.950   3.803   4.493
 5121SOL    HW216263   0.973   3.757   4.339
 5122SOL     OW16264   2.706   5.713   2.878
 5122SOL    HW116265   2.661   5.727   2.966
 5122SOL    HW216266   2.680   5.785   2.814
 5123SOL     OW16267   6.315   2.920   1.882
 5123SOL    HW116268   6.357   2.962   1.962
 5123SOL    HW216269   6.263   2.839   1.911
 5124SOL     OW16270   3.543   6.823   6.800
 5124SOL    HW116271   3.585   6.891   6.740
 5124SOL    HW216272   3.501   6.751   6.744
 5125SOL     OW16273   0.770   2.077   6.412
 5125SOL    HW116274   0.778   2.173   6.441
 5125SOL    HW216275   0.756   2.074   6.313
 5126SOL     OW16276   4.234   1.418   0.719
 5126SOL    HW116277   4.186   1.423   0.631
 5126SOL    HW216278   4.175   1.455   0.791
 5127SOL     OW16279   4.768   3.687   5.744
 5127SOL    HW116280   4.820   3.608   5.776
 5127SOL    HW216281   4.680   3.656   5.707
 5128SOL     OW16282   0.631   0.529   6.993
 5128SOL    HW116283   0.555   0.527   6.928
 5128SOL    HW216284   0.606   0.585   0.052
 5129SOL     OW16285   4.510   2.621   4.028
 5129SOL    HW116286   4.601   2.659   4.045
 5129SOL    HW216287   4.483   2.563   4.106
 5130SOL     OW16288   1.850   6.705   4.670
 5130SOL    HW116289   1.775   6.729   4.731
 5130SOL    HW216290   1.831   6.617   4.626
 5131SOL     OW16291   3.689   5.250   2.696
 5131SOL    HW116292   3.707   5.152   2.691
 5131SOL    HW216293   3.607   5.266   2.752
 5132SOL     OW16294   3.304   1.596   6.223
 5132SOL    HW116295   3.369   1.532   6.264
 5132SOL    HW216296   3.211   1.562   6.236
 5133SOL     OW16297   2.814   3.980   6.243
 5133SOL    HW116298   2.856   3.910   6.300
 5133SOL    HW216299   2.880   4.052   6.224
 5134SOL     OW16300   5.358   6.004   1.498
 5134SOL    HW116301   5.364   5.934   1.569
 5134SOL    HW216302   5.444   6.055   1.492
 5135SOL     OW16303   1.238   2.641   2.158
 5135SOL    HW116304   1.256   2.717   2.222
 5135SOL    HW216305   1.154   2.659   2.108
 5136SOL     OW16306   0.008   0.170   5.054
 5136SOL    HW116307   0.086   0.134   5.106
 5136SOL    HW216308   0.038   0.194   4.961
 5137SOL     OW16309   5.531   0.940   3.495
 5137SOL    HW116310   5.464   1.001   3.453
 5137SOL    HW216311   5.611   0.933   3.436
 5138SOL     OW16312   3.271   3.736   2.636
 5138SOL    HW116313   3.327   3.758   2.557
 5138SOL    HW216314   3.327   3.742   2.719
 5139SOL     OW16315   5.271   0.858   4.756
 5139SOL    HW116316   5.175   0.884   4.751
 5139SOL    HW216317   5.279   0.771   4.806
 5140SOL     OW16318   2.826   3.452   5.400
 5140SOL    HW116319   2.868   3.508   5.472
 5140SOL    HW216320   2.788   3.369   5.441
 5141SOL     OW16321   0.878   2.611   1.826
 5141SOL    HW116322   0.866   2.671   1.747
 5141SOL    HW216323   0.944   2.539   1.803
 5142SOL     OW16324   6.886   6.124   3.023
 5142SOL    HW116325   6.930   6.047   3.068
 5142SOL    HW216326   6.953   6.197   3.008
 5143SOL     OW16327   5.996   5.925   2.522
 5143SOL    HW116328   6.020   5.853   2.587
 5143SOL    HW216329   6.079   5.963   2.481
 5144SOL     OW16330   1.473   2.686   5.109
 5144SOL    HW116331   1.385   2.733   5.120
 5144SOL    HW216332   1.541   2.727   5.170
 5145SOL     OW16333   0.962   5.062   6.643
 5145SOL    HW116334   0.869   5.096   6.636
 5145SOL    HW216335   1.027   5.137   6.630
 5146SOL     OW16336   5.207   5.892   6.309
 5146SOL    HW116337   5.226   5.990   6.307
 5146SOL    HW216338   5.292   5.841   6.294
 5147SOL     OW16339   3.887   1.096   3.408
 5147SOL    HW116340   3.952   1.047   3.465
 5147SOL    HW216341   3.913   1.088   3.312
 5148SOL     OW16342   6.088   1.121   0.836
 5148SOL    HW116343   6.173   1.173   0.822
 5148SOL    HW216344   6.044   1.105   0.747
 5149SOL     OW16345   2.864   0.068   3.554
 5149SOL    HW116346   2.766   0.085   3.556
 5149SOL    HW216347   2.894   0.035   3.644
 5150SOL     OW16348   6.776   1.139   4.526
 5150SOL    HW116349   6.794   1.165   4.431
 5150SOL    HW216350   6.859   1.149   4.580
 5151SOL     OW16351   5.173   4.752   1.981
 5151SOL    HW116352   5.253   4.725   2.035
 5151SOL    HW216353   5.186   4.845   1.947
 5152SOL     OW16354   2.303   1.274   0.665
 5152SOL    HW116355   2.266   1.298   0.575
 5152SOL    HW216356   2.270   1.184   0.692
 5153SOL     OW16357   2.220   2.028   0.026
 5153SOL    HW116358   2.316   2.007   0.046
 5153SOL    HW216359   2.199   2.121   0.058
 5154SOL     OW16360   0.824   2.924   6.590
 5154SOL    HW116361   0.918   2.915   6.623
 5154SOL    HW216362   0.780   2.835   6.589
 5155SOL     OW16363   1.436   0.721   0.439
 5155SOL    HW116364   1.520   0.680   0.404
 5155SOL    HW216365   1.389   0.770   0.366
 5156SOL     OW16366   5.255   3.676   5.785
 5156SOL    HW116367   5.252   3.775   5.769
 5156SOL    HW216368   5.349   3.644   5.777
 5157SOL     OW16369   3.346   0.805   2.277
 5157SOL    HW116370   3.331   0.738   2.204
 5157SOL    HW216371   3.395   0.884   2.239
 5158SOL     OW16372   1.177   3.145   1.902
 5158SOL    HW116373   1.169   3.175   1.808
 5158SOL    HW216374   1.137   3.053   1.912
 5159SOL     OW16375   6.426   3.204   5.952
 5159SOL    HW116376   6.512   3.157   5.967
 5159SOL    HW216377   6.369   3.198   6.034
 5160SOL     OW16378   6.010   1.140   3.306
 5160SOL    HW116379   6.076   1.180   3.370
 5160SOL    HW216380   6.059   1.087   3.237
 5161SOL     OW16381   1.477   1.689   6.755
 5161SOL    HW116382   1.553   1.688   6.689
 5161SOL    HW216383   1.506   1.647   6.840
 5162SOL     OW16384   0.399   0.598   6.077
 5162SOL    HW116385   0.469   0.648   6.026
 5162SOL    HW216386   0.442   0.522   6.127
 5163SOL     OW16387   3.508   1.721   1.469
 5163SOL    HW116388   3.516   1.626   1.438
 5163SOL    HW216389   3.593   1.748   1.515
 5164SOL     OW16390   2.246   2.739   0.145
 5164SOL    HW116391   2.208   2.685   0.071
 5164SOL    HW216392   2.193   2.723   0.229
 5165SOL     OW16393   1.286   5.809   5.268
 5165SOL    HW116394   1.347   5.730   5.279
 5165SOL    HW216395   1.244   5.805   5.177
 5166SOL     OW16396   6.284   5.907   6.057
 5166SOL    HW116397   6.281   5.937   6.153
 5166SOL    HW216398   6.379   5.899   6.028
 5167SOL     OW16399   5.893   3.249   5.777
 5167SOL    HW116400   5.850   3.167   5.738
 5167SOL    HW216401   5.957   3.221   5.849
 5168SOL     OW16402   5.893   0.977   3.485
 5168SOL    HW116403   5.882   0.886   3.444
 5168SOL    HW216404   5.944   1.035   3.422
 5169SOL     OW16405   4.880   5.765   4.624
 5169SOL    HW116406   4.823   5.708   4.682
 5169SOL    HW216407   4.904   5.715   4.540
 5170SOL     OW16408   2.701   2.893   6.709
 5170SOL    HW116409   2.697   2.979   6.658
 5170SOL    HW216410   2.764   2.830   6.665
 5171SOL     OW16411   1.365   6.619   5.809
 5171SOL    HW116412   1.341   6.588   5.901
 5171SOL    HW216413   1.362   6.541   5.747
 5172SOL     OW16414   4.946   4.996   5.552
 5172SOL    HW116415   4.866   5.054   5.534
 5172SOL    HW216416   4.918   4.918   5.608
 5173SOL     OW16417   4.513   6.289   4.055
 5173SOL    HW116418   4.456   6.207   4.053
 5173SOL    HW216419   4.603   6.268   4.017
 5174SOL     OW16420   0.942   5.900   3.809
 5174SOL    HW116421   1.008   5.953   3.861
 5174SOL    HW216422   0.987   5.820   3.769
 5175SOL     OW16423   2.885   2.035   6.086
 5175SOL    HW116424   2.925   2.094   6.016
 5175SOL    HW216425   2.958   2.001   6.146
 5176SOL     OW16426   5.792   6.803   5.822
 5176SOL    HW116427   5.797   6.806   5.922
 5176SOL    HW216428   5.781   6.895   5.786
 5177SOL     OW16429   5.049   4.918   1.121
 5177SOL    HW116430   5.104   4.846   1.079
 5177SOL    HW216431   5.016   4.887   1.211
 5178SOL     OW16432   0.866   3.895   1.252
 5178SOL    HW116433   0.862   3.992   1.225
 5178SOL    HW216434   0.919   3.844   1.186
 5179SOL     OW16435   3.784   5.735   2.613
 5179SOL    HW116436   3.761   5.640   2.590
 5179SOL    HW216437   3.864   5.764   2.561
 5180SOL     OW16438   3.116   5.130   2.431
 5180SOL    HW116439   3.066   5.213   2.410
 5180SOL    HW216440   3.190   5.117   2.364
 5181SOL     OW16441   6.681   1.782   5.408
 5181SOL    HW116442   6.718   1.697   5.369
 5181SOL    HW216443   6.733   1.806   5.490
 5182SOL     OW16444   2.242   6.070   1.973
 5182SOL    HW116445   2.218   6.049   1.878
 5182SOL    HW216446   2.329   6.120   1.975
 5183SOL     OW16447   5.293   1.997   3.191
 5183SOL    HW116448   5.228   1.924   3.172
 5183SOL    HW216449   5.386   1.966   3.169
 5184SOL     OW16450   3.039   1.150   2.028
 5184SOL    HW116451   3.017   1.245   2.006
 5184SOL    HW216452   2.958   1.105   2.065
 5185SOL     OW16453   6.404   0.648   0.996
 5185SOL    HW116454   6.445   0.736   1.019
 5185SOL    HW216455   6.329   0.628   1.059
 5186SOL     OW16456   6.413   2.388   6.571
 5186SOL    HW116457   6.505   2.424   6.553
 5186SOL    HW216458   6.398   2.306   6.517
 5187SOL     OW16459   1.323   4.786   4.992
 5187SOL    HW116460   1.408   4.812   5.037
 5187SOL    HW216461   1.304   4.690   5.009
 5188SOL     OW16462   6.657   0.450   1.566
 5188SOL    HW116463   6.699   0.484   1.482
 5188SOL    HW216464   6.728   0.409   1.624
 5189SOL     OW16465   5.446   6.063   6.040
 5189SOL    HW116466   5.544   6.082   6.029
 5189SOL    HW216467   5.399   6.083   5.954
 5190SOL     OW16468   1.459   5.305   0.963
 5190SOL    HW116469   1.416   5.221   0.929
 5190SOL    HW216470   1.435   5.318   1.059
 5191SOL     OW16471   3.018   4.079   1.012
 5191SOL    HW116472   2.998   3.981   1.008
 5191SOL    HW216473   3.108   4.093   1.053
 5192SOL     OW16474   0.683   4.531   2.709
 5192SOL    HW116475   0.732   4.445   2.699
 5192SOL    HW216476   0.623   4.526   2.789
 5193SOL     OW16477   4.091   0.595   4.811
 5193SOL    HW116478   4.099   0.632   4.903
 5193SOL    HW216479   4.066   0.499   4.816
 5194SOL     OW16480   4.024   1.506   5.550
 5194SOL    HW116481   4.073   1.593   5.559
 5194SOL    HW216482   3.966   1.492   5.630
 5195SOL     OW16483   1.992   0.954   5.090
 5195SOL    HW116484   2.022   0.933   4.997
 5195SOL    HW216485   1.896   0.929   5.100
 5196SOL     OW16486   6.250   6.099   2.993
 5196SOL    HW116487   6.349   6.091   2.986
 5196SOL    HW216488   6.209   6.095   2.902
 5197SOL     OW16489   2.514   3.710   5.607
 5197SOL    HW116490   2.516   3.652   5.526
 5197SOL    HW216491   2.555   3.799   5.585
 5198SOL     OW16492   6.875   5.508   3.407
 5198SOL    HW116493   6.849   5.450   3.485
 5198SOL    HW216494   6.903   5.449   3.331
 5199SOL     OW16495   0.634   5.313   1.211
 5199SOL    HW116496   0.707   5.327   1.278
 5199SOL    HW216497   0.561   5.379   1.227
 5200SOL     OW16498   6.981   4.646   6.065
 5200SOL    HW116499   6.979   4.568   6.003
 5200SOL    HW216500   0.024   4.626   6.141
 5201SOL     OW16501   1.059   5.555   4.485
 5201SOL    HW116502   0.986   5.620   4.503
 5201SOL    HW216503   1.061   5.486   4.558
 5202SOL     OW16504   0.011   5.008   1.775
 5202SOL    HW116505   0.007   5.093   1.723
 5202SOL    HW216506   0.098   4.962   1.758
 5203SOL     OW16507   6.665   3.243   0.038
 5203SOL    HW116508   6.597   3.303   7.015
 5203SOL    HW216509   6.649   3.241   0.137
 5204SOL     OW16510   5.402   5.333   6.390
 5204SOL    HW116511   5.307   5.360   6.402
 5204SOL    HW216512   5.429   5.345   6.294
 5205SOL     OW16513   2.470   6.034   0.447
 5205SOL    HW116514   2.497   6.088   0.526
 5205SOL    HW216515   2.527   6.059   0.368
 5206SOL     OW16516   0.191   4.313   4.786
 5206SOL    HW116517   0.204   4.333   4.689
 5206SOL    HW216518   0.248   4.374   4.841
 5207SOL     OW16519   1.464   6.594   1.964
 5207SOL    HW116520   1.427   6.639   2.045
 5207SOL    HW216521   1.409   6.618   1.884
 5208SOL     OW16522   4.584   2.162   0.399
 5208SOL    HW116523   4.582   2.062   0.391
 5208SOL    HW216524   4.550   2.188   0.490
 5209SOL     OW16525   6.531   5.332   3.417
 5209SOL    HW116526   6.459   5.402   3.428
 5209SOL    HW216527   6.608   5.355   3.476
 5210SOL     OW16528   5.285   3.463   3.842
 5210SOL    HW116529   5.337   3.442   3.925
 5210SOL    HW216530   5.300   3.391   3.774
 5211SOL     OW16531   2.815   4.405   1.625
 5211SOL    HW116532   2.830   4.446   1.714
 5211SOL    HW216533   2.793   4.476   1.558
 5212SOL     OW16534   0.176   6.939   6.377
 5212SOL    HW116535   0.228   6.863   6.417
 5212SOL    HW216536   0.083   6.907   6.356
 5213SOL     OW16537   4.673   1.942   6.718
 5213SOL    HW116538   4.648   2.033   6.685
 5213SOL    HW216539   4.757   1.912   6.674
 5214SOL     OW16540   4.613   2.079   6.971
 5214SOL    HW116541   4.692   2.140   6.960
 5214SOL    HW216542   4.599   2.027   6.886
 5215SOL     OW16543   5.837   5.700   4.660
 5215SOL    HW116544   5.881   5.645   4.731
 5215SOL    HW216545   5.903   5.763   4.620
 5216SOL     OW16546   2.825   6.506   1.256
 5216SOL    HW116547   2.745   6.461   1.296
 5216SOL    HW216548   2.826   6.491   1.157
 5217SOL     OW16549   2.964   5.670   3.723
 5217SOL    HW116550   2.940   5.626   3.810
 5217SOL    HW216551   2.913   5.756   3.714
 5218SOL     OW16552   0.902   0.313   3.726
 5218SOL    HW116553   0.905   0.406   3.692
 5218SOL    HW216554   0.920   0.312   3.824
 5219SOL     OW16555   3.096   6.682   0.857
 5219SOL    HW116556   3.081   6.589   0.889
 5219SOL    HW216557   3.099   6.683   0.757
 5220SOL     OW16558   0.916   6.757   1.966
 5220SOL    HW116559   0.831   6.778   2.015
 5220SOL    HW216560   0.936   6.659   1.975
 5221SOL     OW16561   4.669   0.833   0.154
 5221SOL    HW116562   4.678   0.735   0.173
 5221SOL    HW216563   4.756   0.869   0.120
 5222SOL     OW16564   6.335   5.297   2.351
 5222SOL    HW116565   6.301   5.221   2.406
 5222SOL    HW216566   6.287   5.381   2.376
 5223SOL     OW16567   4.005   6.657   1.454
 5223SOL    HW116568   3.943   6.585   1.422
 5223SOL    HW216569   4.062   6.622   1.527
 5224SOL     OW16570   5.560   0.437   3.319
 5224SOL    HW116571   5.516   0.433   3.408
 5224SOL    HW216572   5.495   0.470   3.251
 5225SOL     OW16573   0.014   0.002   6.015
 5225SOL    HW116574   6.963   0.070   6.034
 5225SOL    HW216575   0.104   0.047   6.014
 5226SOL     OW16576   2.194   0.748   3.271
 5226SOL    HW116577   2.191   0.652   3.246
 5226SOL    HW216578   2.252   0.798   3.207
 5227SOL     OW16579   5.347   4.204   4.419
 5227SOL    HW116580   5.365   4.111   4.385
 5227SOL    HW216581   5.317   4.262   4.344
 5228SOL     OW16582   5.076   0.027   2.487
 5228SOL    HW116583   5.119   0.050   2.574
 5228SOL    HW216584   5.146   0.012   2.418
 5229SOL     OW16585   0.955   3.944   3.948
 5229SOL    HW116586   0.906   3.891   4.017
 5229SOL    HW216587   0.896   4.018   3.916
 5230SOL     OW16588   0.545   1.570   6.657
 5230SOL    HW116589   0.485   1.639   6.698
 5230SOL    HW216590   0.634   1.571   6.704
 5231SOL     OW16591   3.070   3.787   3.499
 5231SOL    HW116592   3.109   3.743   3.418
 5231SOL    HW216593   3.016   3.720   3.550
 5232SOL     OW16594   5.185   2.717   4.689
 5232SOL    HW116595   5.285   2.717   4.679
 5232SOL    HW216596   5.152   2.622   4.685
 5233SOL     OW16597   0.650   0.051   2.583
 5233SOL    HW116598   0.704   0.094   2.510
 5233SOL    HW216599   0.659   6.972   2.578
 5234SOL     OW16600   3.441   4.118   1.296
 5234SOL    HW116601   3.370   4.127   1.365
 5234SOL    HW216602   3.530   4.138   1.336
 5235SOL     OW16603   0.736   1.450   1.801
 5235SOL    HW116604   0.834   1.434   1.792
 5235SOL    HW216605   0.720   1.521   1.870
 5236SOL     OW16606   6.976   2.994   1.062
 5236SOL    HW116607   7.007   2.908   1.102
 5236SOL    HW216608   6.884   2.982   1.025
 5237SOL     OW16609   1.809   2.064   2.552
 5237SOL    HW116610   1.860   2.025   2.628
 5237SOL    HW216611   1.721   2.098   2.585
 5238SOL     OW16612   1.793   3.408   1.589
 5238SOL    HW116613   1.708   3.355   1.578
 5238SOL    HW216614   1.817   3.411   1.686
 5239SOL     OW16615   2.996   3.082   5.163
 5239SOL    HW116616   3.030   2.988   5.160
 5239SOL    HW216617   3.003   3.123   5.072
 5240SOL     OW16618   4.296   2.352   3.684
 5240SOL    HW116619   4.357   2.429   3.701
 5240SOL    HW216620   4.307   2.322   3.589
 5241SOL     OW16621   4.547   5.789   4.859
 5241SOL    HW116622   4.617   5.858   4.846
 5241SOL    HW216623   4.459   5.823   4.826
 5242SOL     OW16624   2.898   0.630   6.310
 5242SOL    HW116625   2.828   0.693   6.343
 5242SOL    HW216626   2.907   0.553   6.374
 5243SOL     OW16627   1.850   3.507   6.837
 5243SOL    HW116628   1.772   3.520   6.898
 5243SOL    HW216629   1.873   3.410   6.832
 5244SOL     OW16630   6.105   2.910   6.848
 5244SOL    HW116631   6.121   3.000   6.808
 5244SOL    HW216632   6.159   2.900   6.932
 5245SOL     OW16633   4.313   4.378   5.850
 5245SOL    HW116634   4.329   4.456   5.910
 5245SOL    HW216635   4.238   4.399   5.787
 5246SOL     OW16636   1.521   3.650   3.276
 5246SOL    HW116637   1.459   3.708   3.327
 5246SOL    HW216638   1.470   3.596   3.209
 5247SOL     OW16639   0.749   3.932   6.932
 5247SOL    HW116640   0.767   4.016   6.880
 5247SOL    HW216641   0.757   3.853   6.871
 5248SOL     OW16642   4.714   1.303   0.657
 5248SOL    HW116643   4.740   1.357   0.737
 5248SOL    HW216644   4.624   1.333   0.624
 5249SOL     OW16645   0.894   5.319   0.248
 5249SOL    HW116646   0.818   5.294   0.308
 5249SOL    HW216647   0.866   5.312   0.153
 5250SOL     OW16648   1.132   1.440   5.461
 5250SOL    HW116649   1.143   1.358   5.518
 5250SOL    HW216650   1.213   1.498   5.470
 5251SOL     OW16651   0.698   2.166   1.815
 5251SOL    HW116652   0.685   2.169   1.914
 5251SOL    HW216653   0.727   2.075   1.788
 5252SOL     OW16654   5.391   5.382   1.382
 5252SOL    HW116655   5.489   5.402   1.375
 5252SOL    HW216656   5.377   5.283   1.386
 5253SOL     OW16657   5.823   3.176   4.331
 5253SOL    HW116658   5.920   3.178   4.354
 5253SOL    HW216659   5.771   3.222   4.404
 5254SOL     OW16660   5.280   0.640   4.922
 5254SOL    HW116661   5.209   0.572   4.941
 5254SOL    HW216662   5.370   0.599   4.935
 5255SOL     OW16663   2.082   5.450   2.248
 5255SOL    HW116664   2.044   5.407   2.166
 5255SOL    HW216665   2.089   5.381   2.321
 5256SOL     OW16666   4.925   5.957   2.539
 5256SOL    HW116667   4.887   5.871   2.504
 5256SOL    HW216668   4.861   6.032   2.522
 5257SOL     OW16669   2.475   1.582   1.915
 5257SOL    HW116670   2.541   1.643   1.958
 5257SOL    HW216671   2.421   1.634   1.848
 5258SOL     OW16672   5.514   2.082   1.499
 5258SOL    HW116673   5.501   2.031   1.414
 5258SOL    HW216674   5.501   2.020   1.577
 5259SOL     OW16675   5.897   5.033   0.987
 5259SOL    HW116676   5.910   5.018   0.889
 5259SOL    HW216677   5.974   4.993   1.037
 5260SOL     OW16678   5.416   3.405   1.887
 5260SOL    HW116679   5.497   3.455   1.855
 5260SOL    HW216680   5.373   3.456   1.961
 5261SOL     OW16681   2.255   2.732   4.957
 5261SOL    HW116682   2.294   2.820   4.984
 5261SOL    HW216683   2.329   2.672   4.926
 5262SOL     OW16684   1.368   0.608   2.212
 5262SOL    HW116685   1.303   0.642   2.144
 5262SOL    HW216686   1.461   0.611   2.174
 5263SOL     OW16687   1.504   6.584   6.613
 5263SOL    HW116688   1.466   6.492   6.621
 5263SOL    HW216689   1.598   6.584   6.648
 5264SOL     OW16690   1.188   0.797   0.875
 5264SOL    HW116691   1.091   0.784   0.856
 5264SOL    HW216692   1.203   0.890   0.908
 5265SOL     OW16693   4.907   5.254   3.794
 5265SOL    HW116694   4.971   5.307   3.851
 5265SOL    HW216695   4.959   5.199   3.729
 5266SOL     OW16696   0.827   6.556   1.341
 5266SOL    HW116697   0.893   6.498   1.292
 5266SOL    HW216698   0.801   6.633   1.284
 5267SOL     OW16699   3.568   3.373   4.661
 5267SOL    HW116700   3.599   3.414   4.747
 5267SOL    HW216701   3.614   3.417   4.584
 5268SOL     OW16702   5.808   4.367   6.480
 5268SOL    HW116703   5.800   4.279   6.526
 5268SOL    HW216704   5.719   4.412   6.478
 5269SOL     OW16705   2.778   5.274   5.401
 5269SOL    HW116706   2.767   5.178   5.376
 5269SOL    HW216707   2.751   5.287   5.497
 5270SOL     OW16708   0.232   1.343   3.007
 5270SOL    HW116709   0.196   1.352   3.099
 5270SOL    HW216710   0.239   1.246   2.983
 5271SOL     OW16711   5.663   3.996   4.754
 5271SOL    HW116712   5.616   4.069   4.704
 5271SOL    HW216713   5.762   4.006   4.742
 5272SOL     OW16714   2.239   2.442   3.557
 5272SOL    HW116715   2.291   2.526   3.571
 5272SOL    HW216716   2.166   2.458   3.491
 5273SOL     OW16717   6.895   1.056   5.513
 5273SOL    HW116718   6.945   1.057   5.599
 5273SOL    HW216719   6.796   1.056   5.531
 5274SOL     OW16720   0.486   4.984   4.903
 5274SOL    HW116721   0.444   4.937   4.981
 5274SOL    HW216722   0.566   4.933   4.872
 5275SOL     OW16723   2.256   6.453   6.633
 5275SOL    HW116724   2.311   6.463   6.551
 5275SOL    HW216725   2.190   6.379   6.620
 5276SOL     OW16726   6.953   1.115   6.666
 5276SOL    HW116727   6.882   1.056   6.627
 5276SOL    HW216728   7.000   1.164   6.592
 5277SOL     OW16729   0.815   0.733   1.048
 5277SOL    HW116730   0.725   0.699   1.022
 5277SOL    HW216731   0.882   0.659   1.039
 5278SOL     OW16732   7.018   4.957   6.901
 5278SOL    HW116733   0.034   4.937   6.992
 5278SOL    HW216734   6.994   4.871   6.855
 5279SOL     OW16735   2.484   6.373   0.218
 5279SOL    HW116736   2.581   6.394   0.231
 5279SOL    HW216737   2.474   6.305   0.145
 5280SOL     OW16738   4.774   6.381   6.062
 5280SOL    HW116739   4.687   6.419   6.032
 5280SOL    HW216740   4.759   6.320   6.140
 5281SOL     OW16741   2.072   6.391   4.513
 5281SOL    HW116742   2.101   6.484   4.538
 5281SOL    HW216743   2.083   6.378   4.415
 5282SOL     OW16744   6.281   6.109   1.212
 5282SOL    HW116745   6.349   6.151   1.151
 5282SOL    HW216746   6.253   6.021   1.175
 5283SOL     OW16747   1.551   0.249   4.022
 5283SOL    HW116748   1.523   0.188   3.947
 5283SOL    HW216749   1.472   0.272   4.078
 5284SOL     OW16750   4.878   3.301   1.880
 5284SOL    HW116751   4.951   3.307   1.947
 5284SOL    HW216752   4.826   3.217   1.895
 5285SOL     OW16753   2.287   1.407   4.001
 5285SOL    HW116754   2.268   1.451   4.088
 5285SOL    HW216755   2.257   1.465   3.926
 5286SOL     OW16756   0.589   2.784   1.804
 5286SOL    HW116757   0.542   2.783   1.892
 5286SOL    HW216758   0.571   2.871   1.757
 5287SOL     OW16759   0.284   5.578   2.116
 5287SOL    HW116760   0.219   5.628   2.058
 5287SOL    HW216761   0.236   5.537   2.193
 5288SOL     OW16762   4.216   0.701   1.728
 5288SOL    HW116763   4.129   0.666   1.693
 5288SOL    HW216764   4.235   0.661   1.817
 5289SOL     OW16765   1.352   5.429   6.614
 5289SOL    HW116766   1.427   5.469   6.667
 5289SOL    HW216767   1.388   5.352   6.560
 5290SOL     OW16768   1.836   2.344   5.261
 5290SOL    HW116769   1.803   2.301   5.177
 5290SOL    HW216770   1.913   2.292   5.297
 5291SOL     OW16771   3.044   6.448   4.535
 5291SOL    HW116772   3.049   6.547   4.545
 5291SOL    HW216773   3.117   6.417   4.473
 5292SOL     OW16774   0.810   4.163   4.185
 5292SOL    HW116775   0.791   4.179   4.088
 5292SOL    HW216776   0.907   4.145   4.198
 5293SOL     OW16777   2.387   0.690   3.470
 5293SOL    HW116778   2.310   0.709   3.409
 5293SOL    HW216779   2.358   0.705   3.565
 5294SOL     OW16780   4.972   0.051   4.227
 5294SOL    HW116781   4.915   6.994   4.200
 5294SOL    HW216782   5.047   0.062   4.162
 5295SOL     OW16783   2.106   0.188   1.004
 5295SOL    HW116784   2.171   0.189   1.079
 5295SOL    HW216785   2.110   0.100   0.957
 5296SOL     OW16786   4.626   4.979   1.952
 5296SOL    HW116787   4.657   4.891   1.917
 5296SOL    HW216788   4.689   5.051   1.924
 5297SOL     OW16789   3.774   5.114   5.723
 5297SOL    HW116790   3.836   5.192   5.729
 5297SOL    HW216791   3.680   5.147   5.726
 5298SOL     OW16792   3.468   0.908   6.982
 5298SOL    HW116793   3.545   0.847   6.963
 5298SOL    HW216794   3.399   0.898   6.910
 5299SOL     OW16795   1.591   0.179   1.291
 5299SOL    HW116796   1.596   0.279   1.287
 5299SOL    HW216797   1.650   0.145   1.364
 5300SOL     OW16798   2.557   4.965   6.533
 5300SOL    HW116799   2.554   4.939   6.436
 5300SOL    HW216800   2.562   5.065   6.540
 5301SOL     OW16801   6.314   0.174   5.731
 5301SOL    HW116802   6.310   0.075   5.742
 5301SOL    HW216803   6.331   0.217   5.820
 5302SOL     OW16804   4.890   5.554   3.584
 5302SOL    HW116805   4.930   5.487   3.521
 5302SOL    HW216806   4.814   5.600   3.539
 5303SOL     OW16807   1.733   6.204   5.096
 5303SOL    HW116808   1.681   6.200   5.181
 5303SOL    HW216809   1.811   6.141   5.101
 5304SOL     OW16810   0.289   0.136   3.233
 5304SOL    HW116811   0.269   0.152   3.136
 5304SOL    HW216812   0.203   0.130   3.284
 5305SOL     OW16813   6.375   5.406   4.701
 5305SOL    HW116814   6.345   5.316   4.732
 5305SOL    HW216815   6.316   5.437   4.627
 5306SOL     OW16816   0.769   1.771   6.757
 5306SOL    HW116817   0.718   1.856   6.768
 5306SOL    HW216818   0.834   1.781   6.682
 5307SOL     OW16819   1.362   1.201   1.580
 5307SOL    HW116820   1.357   1.296   1.549
 5307SOL    HW216821   1.287   1.184   1.645
 5308SOL     OW16822   2.063   4.376   3.257
 5308SOL    HW116823   2.030   4.283   3.243
 5308SOL    HW216824   2.014   4.419   3.333
 5309SOL     OW16825   6.338   6.059   2.672
 5309SOL    HW116826   6.298   6.020   2.589
 5309SOL    HW216827   6.430   6.021   2.685
 5310SOL     OW16828   6.095   2.141   3.810
 5310SOL    HW116829   6.134   2.134   3.719
 5310SOL    HW216830   6.040   2.060   3.830
 5311SOL     OW16831   5.812   0.245   7.006
 5311SOL    HW116832   5.821   0.190   0.069
 5311SOL    HW216833   5.753   0.324   0.005
 5312SOL     OW16834   5.245   6.782   1.152
 5312SOL    HW116835   5.342   6.804   1.157
 5312SOL    HW216836   5.192   6.859   1.187
 5313SOL     OW16837   0.656   6.705   5.531
 5313SOL    HW116838   0.658   6.684   5.433
 5313SOL    HW216839   0.614   6.629   5.580
 5314SOL     OW16840   5.685   1.834   2.359
 5314SOL    HW116841   5.669   1.745   2.401
 5314SOL    HW216842   5.769   1.874   2.395
 5315SOL     OW16843   4.200   1.644   3.614
 5315SOL    HW116844   4.293   1.624   3.647
 5315SOL    HW216845   4.157   1.711   3.674
 5316SOL     OW16846   0.405   2.928   5.468
 5316SOL    HW116847   0.358   2.859   5.413
 5316SOL    HW216848   0.368   3.019   5.446
 5317SOL     OW16849   5.446   2.886   1.799
 5317SOL    HW116850   5.367   2.880   1.738
 5317SOL    HW216851   5.482   2.980   1.798
 5318SOL     OW16852   6.833   4.580   6.438
 5318SOL    HW116853   6.871   4.519   6.368
 5318SOL    HW216854   6.879   4.562   6.525
 5319SOL     OW16855   4.202   5.689   2.372
 5319SOL    HW116856   4.168   5.693   2.278
 5319SOL    HW216857   4.277   5.622   2.377
 5320SOL     OW16858   4.680   5.948   0.234
 5320SOL    HW116859   4.650   5.989   0.148
 5320SOL    HW216860   4.751   5.880   0.217
 5321SOL     OW16861   1.536   4.073   5.240
 5321SOL    HW116862   1.631   4.082   5.272
 5321SOL    HW216863   1.532   4.006   5.167
 5322SOL     OW16864   4.375   5.627   1.746
 5322SOL    HW116865   4.312   5.551   1.726
 5322SOL    HW216866   4.332   5.713   1.720
 5323SOL     OW16867   4.056   0.140   6.148
 5323SOL    HW116868   4.082   0.049   6.115
 5323SOL    HW216869   4.028   0.133   6.244
 5324SOL     OW16870   0.949   1.105   1.876
 5324SOL    HW116871   0.892   1.114   1.795
 5324SOL    HW216872   0.912   1.161   1.950
 5325SOL     OW16873   2.104   2.924   4.257
 5325SOL    HW116874   2.036   2.865   4.213
 5325SOL    HW216875   2.191   2.916   4.209
 5326SOL     OW16876   5.938   0.377   0.912
 5326SOL    HW116877   5.846   0.377   0.873
 5326SOL    HW216878   6.001   0.332   0.849
 5327SOL     OW16879   0.195   2.036   6.470
 5327SOL    HW116880   0.155   2.004   6.385
 5327SOL    HW216881   0.149   1.991   6.547
 5328SOL     OW16882   3.609   4.973   0.463
 5328SOL    HW116883   3.658   5.036   0.523
 5328SOL    HW216884   3.528   4.938   0.510
 5329SOL     OW16885   2.373   5.928   6.181
 5329SOL    HW116886   2.415   5.854   6.129
 5329SOL    HW216887   2.389   6.015   6.134
 5330SOL     OW16888   2.343   5.252   0.758
 5330SOL    HW116889   2.337   5.290   0.850
 5330SOL    HW216890   2.424   5.288   0.711
 5331SOL     OW16891   6.246   1.521   6.848
 5331SOL    HW116892   6.341   1.552   6.834
 5331SOL    HW216893   6.185   1.599   6.842
 5332SOL     OW16894   1.141   4.934   2.550
 5332SOL    HW116895   1.209   4.978   2.609
 5332SOL    HW216896   1.172   4.843   2.525
 5333SOL     OW16897   0.676   6.398   4.386
 5333SOL    HW116898   0.763   6.448   4.388
 5333SOL    HW216899   0.683   6.317   4.444
 5334SOL     OW16900   3.167   6.814   5.208
 5334SOL    HW116901   3.212   6.774   5.128
 5334SOL    HW216902   3.068   6.800   5.202
 5335SOL     OW16903   5.905   6.816   0.799
 5335SOL    HW116904   5.915   6.906   0.841
 5335SOL    HW216905   5.951   6.814   0.711
 5336SOL     OW16906   1.281   3.789   1.372
 5336SOL    HW116907   1.250   3.716   1.312
 5336SOL    HW216908   1.380   3.802   1.361
 5337SOL     OW16909   5.645   4.908   1.646
 5337SOL    HW116910   5.696   4.959   1.715
 5337SOL    HW216911   5.626   4.967   1.568
 5338SOL     OW16912   5.496   2.758   1.049
 5338SOL    HW116913   5.472   2.722   1.139
 5338SOL    HW216914   5.502   2.858   1.053
 5339SOL     OW16915   6.230   0.542   2.054
 5339SOL    HW116916   6.184   0.568   2.139
 5339SOL    HW216917   6.193   0.454   2.022
 5340SOL     OW16918   5.080   2.322   0.181
 5340SOL    HW116919   5.148   2.389   0.210
 5340SOL    HW216920   5.073   2.323   0.082
 5341SOL     OW16921   4.069   0.779   1.372
 5341SOL    HW116922   4.156   0.730   1.368
 5341SOL    HW216923   4.028   0.782   1.281
 5342SOL     OW16924   1.740   0.045   5.813
 5342SOL    HW116925   1.786   6.991   5.764
 5342SOL    HW216926   1.648   0.058   5.776
 5343SOL     OW16927   2.934   4.033   1.411
 5343SOL    HW116928   2.986   3.954   1.376
 5343SOL    HW216929   2.951   4.112   1.353
 5344SOL     OW16930   2.078   2.706   3.099
 5344SOL    HW116931   2.072   2.677   3.004
 5344SOL    HW216932   2.000   2.764   3.122
 5345SOL     OW16933   5.131   0.617   3.248
 5345SOL    HW116934   5.223   0.586   3.225
 5345SOL    HW216935   5.066   0.581   3.181
 5346SOL     OW16936   3.825   0.663   4.290
 5346SOL    HW116937   3.780   0.749   4.314
 5346SOL    HW216938   3.884   0.633   4.365
 5347SOL     OW16939   6.689   1.254   2.217
 5347SOL    HW116940   6.734   1.231   2.303
 5347SOL    HW216941   6.737   1.329   2.172
 5348SOL     OW16942   6.392   2.083   0.196
 5348SOL    HW116943   6.478   2.126   0.168
 5348SOL    HW216944   6.349   2.039   0.117
 5349SOL     OW16945   4.980   0.894   0.557
 5349SOL    HW116946   5.040   0.935   0.489
 5349SOL    HW216947   4.884   0.904   0.529
 5350SOL     OW16948   2.934   0.748   0.033
 5350SOL    HW116949   2.996   0.823   0.008
 5350SOL    HW216950   2.887   0.771   0.118
 5351SOL     OW16951   4.668   1.315   2.323
 5351SOL    HW116952   4.638   1.264   2.404
 5351SOL    HW216953   4.594   1.321   2.257
 5352SOL     OW16954   3.961   0.797   4.088
 5352SOL    HW116955   3.923   0.736   4.158
 5352SOL    HW216956   3.887   0.827   4.028
 5353SOL     OW16957   6.429   0.250   6.393
 5353SOL    HW116958   6.423   0.187   6.470
 5353SOL    HW216959   6.383   0.210   6.314
 5354SOL     OW16960   0.807   2.775   1.629
 5354SOL    HW116961   0.714   2.770   1.667
 5354SOL    HW216962   0.810   2.730   1.540
 5355SOL     OW16963   4.693   1.280   5.382
 5355SOL    HW116964   4.624   1.325   5.326
 5355SOL    HW216965   4.650   1.248   5.467
 5356SOL     OW16966   6.655   3.829   1.799
 5356SOL    HW116967   6.662   3.925   1.771
 5356SOL    HW216968   6.649   3.771   1.718
 5357SOL     OW16969   4.275   5.605   6.990
 5357SOL    HW116970   4.180   5.634   6.983
 5357SOL    HW216971   4.283   5.510   6.957
 5358SOL     OW16972   5.568   4.383   1.552
 5358SOL    HW116973   5.478   4.356   1.584
 5358SOL    HW216974   5.593   4.472   1.592
 5359SOL     OW16975   3.217   0.568   5.748
 5359SOL    HW116976   3.246   0.473   5.737
 5359SOL    HW216977   3.137   0.585   5.690
 5360SOL     OW16978   4.124   2.371   0.434
 5360SOL    HW116979   4.162   2.462   0.446
 5360SOL    HW216980   4.184   2.317   0.374
 5361SOL     OW16981   0.515   1.402   0.015
 5361SOL    HW116982   0.456   1.473   6.997
 5361SOL    HW216983   0.459   1.322   0.040
 5362SOL     OW16984   4.371   6.048   4.042
 5362SOL    HW116985   4.316   6.086   3.968
 5362SOL    HW216986   4.424   5.971   4.008
 5363SOL     OW16987   0.416   5.889   4.526
 5363SOL    HW116988   0.339   5.857   4.581
 5363SOL    HW216989   0.467   5.810   4.491
 5364SOL     OW16990   0.997   5.839   6.615
 5364SOL    HW116991   0.955   5.752   6.589
 5364SOL    HW216992   1.024   5.888   6.532
 5365SOL     OW16993   4.078   2.721   6.172
 5365SOL    HW116994   4.032   2.632   6.165
 5365SOL    HW216995   4.174   2.710   6.148
 5366SOL     OW16996   4.070   4.055   5.698
 5366SOL    HW116997   4.021   4.079   5.782
 5366SOL    HW216998   4.012   4.075   5.619
 5367SOL     OW16999   0.513   3.801   0.968
 5367SOL    HW117000   0.522   3.820   0.870
 5367SOL    HW217001   0.427   3.840   1.002
 5368SOL     OW17002   0.422   6.812   3.652
 5368SOL    HW117003   0.372   6.881   3.601
 5368SOL    HW217004   0.520   6.822   3.636
 5369SOL     OW17005   1.556   3.572   2.368
 5369SOL    HW117006   1.549   3.551   2.270
 5369SOL    HW217007   1.624   3.644   2.382
 5370SOL     OW17008   3.693   2.750   1.840
 5370SOL    HW117009   3.694   2.845   1.871
 5370SOL    HW217010   3.603   2.710   1.858
 5371SOL     OW17011   2.335   4.372   5.045
 5371SOL    HW117012   2.252   4.376   5.101
 5371SOL    HW217013   2.376   4.281   5.054
 5372SOL     OW17014   3.520   6.271   2.341
 5372SOL    HW117015   3.468   6.355   2.356
 5372SOL    HW217016   3.553   6.269   2.246
 5373SOL     OW17017   2.768   4.806   3.838
 5373SOL    HW117018   2.703   4.839   3.770
 5373SOL    HW217019   2.861   4.830   3.810
 5374SOL     OW17020   3.118   2.447   0.724
 5374SOL    HW117021   3.146   2.542   0.725
 5374SOL    HW217022   3.018   2.442   0.731
 5375SOL     OW17023   1.689   4.348   4.485
 5375SOL    HW117024   1.655   4.359   4.578
 5375SOL    HW217025   1.612   4.337   4.422
 5376SOL     OW17026   2.944   4.809   5.963
 5376SOL    HW117027   2.888   4.830   5.883
 5376SOL    HW217028   3.040   4.801   5.935
 5377SOL     OW17029   1.370   2.215   1.647
 5377SOL    HW117030   1.377   2.306   1.607
 5377SOL    HW217031   1.357   2.223   1.746
 5378SOL     OW17032   5.109   6.852   6.830
 5378SOL    HW117033   5.036   6.904   6.872
 5378SOL    HW217034   5.082   6.824   6.738
 5379SOL     OW17035   0.166   0.328   0.080
 5379SOL    HW117036   0.256   0.285   0.080
 5379SOL    HW217037   0.095   0.257   0.078
 5380SOL     OW17038   2.019   1.605   5.256
 5380SOL    HW117039   2.068   1.661   5.189
 5380SOL    HW217040   1.940   1.562   5.213
 5381SOL     OW17041   5.983   3.814   2.068
 5381SOL    HW117042   5.886   3.813   2.095
 5381SOL    HW217043   6.031   3.882   2.123
 5382SOL     OW17044   2.167   6.594   1.458
 5382SOL    HW117045   2.090   6.534   1.438
 5382SOL    HW217046   2.229   6.549   1.523
 5383SOL     OW17047   2.684   2.267   4.938
 5383SOL    HW117048   2.601   2.215   4.955
 5383SOL    HW217049   2.687   2.294   4.841
 5384SOL     OW17050   5.347   6.540   4.995
 5384SOL    HW117051   5.365   6.614   4.930
 5384SOL    HW217052   5.331   6.455   4.946
 5385SOL     OW17053   3.406   4.040   2.180
 5385SOL    HW117054   3.358   4.008   2.098
 5385SOL    HW217055   3.342   4.041   2.258
 5386SOL     OW17056   5.641   6.296   5.621
 5386SOL    HW117057   5.663   6.199   5.629
 5386SOL    HW217058   5.724   6.350   5.636
 5387SOL     OW17059   4.052   5.089   0.451
 5387SOL    HW117060   3.998   5.020   0.498
 5387SOL    HW217061   4.149   5.077   0.472
 5388SOL     OW17062   6.066   5.628   3.221
 5388SOL    HW117063   6.073   5.533   3.250
 5388SOL    HW217064   6.107   5.687   3.291
 5389SOL     OW17065   5.808   3.214   1.464
 5389SOL    HW117066   5.755   3.134   1.435
 5389SOL    HW217067   5.905   3.191   1.465
 5390SOL     OW17068   6.571   4.815   6.678
 5390SOL    HW117069   6.654   4.806   6.624
 5390SOL    HW217070   6.559   4.911   6.704
 5391SOL     OW17071   3.120   5.091   6.729
 5391SOL    HW117072   3.064   5.109   6.810
 5391SOL    HW217073   3.093   5.004   6.688
 5392SOL     OW17074   0.730   2.424   3.278
 5392SOL    HW117075   0.743   2.326   3.289
 5392SOL    HW217076   0.817   2.467   3.254
 5393SOL     OW17077   6.736   0.249   6.366
 5393SOL    HW117078   6.647   0.279   6.331
 5393SOL    HW217079   6.724   0.209   6.457
 5394SOL     OW17080   2.411   3.648   6.263
 5394SOL    HW117081   2.455   3.729   6.226
 5394SOL    HW217082   2.320   3.672   6.298
 5395SOL     OW17083   4.768   0.503   1.788
 5395SOL    HW117084   4.749   0.422   1.732
 5395SOL    HW217085   4.856   0.492   1.834
 5396SOL     OW17086   4.356   2.232   0.910
 5396SOL    HW117087   4.393   2.141   0.889
 5396SOL    HW217088   4.304   2.227   0.996
 5397SOL     OW17089   1.399   2.239   1.927
 5397SOL    HW117090   1.400   2.202   2.020
 5397SOL    HW217091   1.491   2.232   1.887
 5398SOL     OW17092   2.925   3.693   2.215
 5398SOL    HW117093   2.888   3.652   2.132
 5398SOL    HW217094   2.901   3.636   2.294
 5399SOL     OW17095   0.408   4.923   0.382
 5399SOL    HW117096   0.506   4.941   0.367
 5399SOL    HW217097   0.397   4.854   0.453
 5400SOL     OW17098   2.353   3.949   6.895
 5400SOL    HW117099   2.261   3.988   6.906
 5400SOL    HW217100   2.420   4.023   6.893
 5401SOL     OW17101   6.120   1.582   1.022
 5401SOL    HW117102   6.165   1.619   1.103
 5401SOL    HW217103   6.076   1.657   0.972
 5402SOL     OW17104   0.560   6.020   2.022
 5402SOL    HW117105   0.541   6.008   2.120
 5402SOL    HW217106   0.605   5.938   1.986
 5403SOL     OW17107   0.480   2.223   6.232
 5403SOL    HW117108   0.480   2.176   6.320
 5403SOL    HW217109   0.529   2.309   6.241
 5404SOL     OW17110   0.438   2.710   3.067
 5404SOL    HW117111   0.512   2.710   3.000
 5404SOL    HW217112   0.476   2.712   3.159
 5405SOL     OW17113   6.524   4.112   4.919
 5405SOL    HW117114   6.439   4.163   4.908
 5405SOL    HW217115   6.531   4.079   5.013
 5406SOL     OW17116   2.124   0.131   3.136
 5406SOL    HW117117   2.194   0.198   3.161
 5406SOL    HW217118   2.142   0.098   3.043
 5407SOL     OW17119   4.172   2.756   6.733
 5407SOL    HW117120   4.143   2.774   6.639
 5407SOL    HW217121   4.215   2.838   6.770
 5408SOL     OW17122   4.471   1.230   6.820
 5408SOL    HW117123   4.459   1.298   6.892
 5408SOL    HW217124   4.414   1.150   6.839
 5409SOL     OW17125   4.520   0.617   1.959
 5409SOL    HW117126   4.573   0.606   1.875
 5409SOL    HW217127   4.422   0.620   1.937
 5410SOL     OW17128   1.781   2.718   2.579
 5410SOL    HW117129   1.812   2.623   2.576
 5410SOL    HW217130   1.860   2.778   2.584
 5411SOL     OW17131   2.949   4.928   5.097
 5411SOL    HW117132   2.940   4.874   5.181
 5411SOL    HW217133   2.931   4.870   5.018
 5412SOL     OW17134   6.802   1.616   2.391
 5412SOL    HW117135   6.802   1.716   2.388
 5412SOL    HW217136   6.864   1.585   2.463
 5413SOL     OW17137   1.335   6.729   2.167
 5413SOL    HW117138   1.400   6.689   2.231
 5413SOL    HW217139   1.249   6.746   2.214
 5414SOL     OW17140   4.510   0.009   6.143
 5414SOL    HW117141   4.465   6.947   6.105
 5414SOL    HW217142   4.459   0.090   6.117
 5415SOL     OW17143   6.179   3.588   3.023
 5415SOL    HW117144   6.212   3.495   3.010
 5415SOL    HW217145   6.153   3.628   2.935
 5416SOL     OW17146   4.282   5.021   4.533
 5416SOL    HW117147   4.194   5.068   4.522
 5416SOL    HW217148   4.269   4.923   4.522
 5417SOL     OW17149   2.704   0.028   5.776
 5417SOL    HW117150   2.797   0.020   5.742
 5417SOL    HW217151   2.691   6.982   5.851
 5418SOL     OW17152   3.633   1.528   3.504
 5418SOL    HW117153   3.667   1.443   3.463
 5418SOL    HW217154   3.664   1.606   3.450
 5419SOL     OW17155   3.122   4.172   6.935
 5419SOL    HW117156   3.156   4.154   0.008
 5419SOL    HW217157   3.090   4.087   6.894
 5420SOL     OW17158   1.377   2.288   2.590
 5420SOL    HW117159   1.458   2.343   2.569
 5420SOL    HW217160   1.322   2.278   2.507
 5421SOL     OW17161   2.562   3.229   0.706
 5421SOL    HW117162   2.501   3.154   0.681
 5421SOL    HW217163   2.576   3.288   0.626
 5422SOL     OW17164   0.572   3.248   0.255
 5422SOL    HW117165   0.497   3.182   0.259
 5422SOL    HW217166   0.553   3.323   0.318
 5423SOL     OW17167   3.833   3.533   5.600
 5423SOL    HW117168   3.870   3.601   5.664
 5423SOL    HW217169   3.907   3.472   5.570
 5424SOL     OW17170   5.575   3.395   5.368
 5424SOL    HW117171   5.631   3.466   5.410
 5424SOL    HW217172   5.480   3.405   5.397
 5425SOL     OW17173   5.304   1.595   4.934
 5425SOL    HW117174   5.248   1.633   5.008
 5425SOL    HW217175   5.264   1.509   4.902
 5426SOL     OW17176   0.269   0.417   4.452
 5426SOL    HW117177   0.193   0.459   4.502
 5426SOL    HW217178   0.241   0.327   4.418
 5427SOL     OW17179   4.251   6.629   0.174
 5427SOL    HW117180   4.296   6.703   0.124
 5427SOL    HW217181   4.152   6.634   0.160
 5428SOL     OW17182   1.796   0.061   0.489
 5428SOL    HW117183   1.748   0.123   0.551
 5428SOL    HW217184   1.730   0.012   0.432
 5429SOL     OW17185   1.076   2.493   5.785
 5429SOL    HW117186   0.978   2.482   5.799
 5429SOL    HW217187   1.095   2.587   5.758
 5430SOL     OW17188   2.453   2.499   5.172
 5430SOL    HW117189   2.459   2.593   5.205
 5430SOL    HW217190   2.535   2.449   5.201
 5431SOL     OW17191   3.099   5.197   4.165
 5431SOL    HW117192   3.084   5.099   4.150
 5431SOL    HW217193   3.196   5.213   4.185
 5432SOL     OW17194   6.351   4.246   0.616
 5432SOL    HW117195   6.298   4.326   0.644
 5432SOL    HW217196   6.413   4.220   0.690
 5433SOL     OW17197   2.042   1.701   3.501
 5433SOL    HW117198   1.997   1.760   3.434
 5433SOL    HW217199   2.037   1.743   3.592
 5434SOL     OW17200   1.977   6.391   4.958
 5434SOL    HW117201   1.886   6.422   4.987
 5434SOL    HW217202   2.046   6.425   5.022
 5435SOL     OW17203   4.589   2.235   1.873
 5435SOL    HW117204   4.550   2.273   1.957
 5435SOL    HW217205   4.518   2.188   1.821
 5436SOL     OW17206   5.272   4.285   3.428
 5436SOL    HW117207   5.207   4.229   3.479
 5436SOL    HW217208   5.229   4.372   3.402
 5437SOL     OW17209   3.389   5.182   6.169
 5437SOL    HW117210   3.426   5.128   6.245
 5437SOL    HW217211   3.369   5.121   6.092
 5438SOL     OW17212   6.236   1.161   0.219
 5438SOL    HW117213   6.259   1.087   0.156
 5438SOL    HW217214   6.228   1.247   0.168
 5439SOL     OW17215   1.542   2.079   0.659
 5439SOL    HW117216   1.477   2.151   0.682
 5439SOL    HW217217   1.544   2.066   0.560
 5440SOL     OW17218   2.022   0.426   0.898
 5440SOL    HW117219   2.097   0.485   0.869
 5440SOL    HW217220   2.059   0.337   0.928
 5441SOL     OW17221   3.583   1.927   5.398
 5441SOL    HW117222   3.614   1.973   5.315
 5441SOL    HW217223   3.587   1.991   5.475
 5442SOL     OW17224   3.998   1.164   1.887
 5442SOL    HW117225   4.069   1.094   1.900
 5442SOL    HW217226   3.989   1.185   1.790
 5443SOL     OW17227   0.777   5.820   5.628
 5443SOL    HW117228   0.777   5.740   5.569
 5443SOL    HW217229   0.865   5.868   5.619
 5444SOL     OW17230   0.481   0.751   3.597
 5444SOL    HW117231   0.407   0.780   3.536
 5444SOL    HW217232   0.536   0.831   3.623
 5445SOL     OW17233   5.664   3.488   2.223
 5445SOL    HW117234   5.737   3.516   2.159
 5445SOL    HW217235   5.647   3.390   2.213
 5446SOL     OW17236   6.297   6.896   5.754
 5446SOL    HW117237   6.234   6.819   5.745
 5446SOL    HW217238   6.371   6.886   5.688
 5447SOL     OW17239   3.369   2.752   1.186
 5447SOL    HW117240   3.347   2.678   1.250
 5447SOL    HW217241   3.291   2.767   1.125
 5448SOL     OW17242   5.431   1.740   6.515
 5448SOL    HW117243   5.408   1.801   6.590
 5448SOL    HW217244   5.421   1.787   6.428
 5449SOL     OW17245   6.882   3.032   6.795
 5449SOL    HW117246   6.884   2.953   6.857
 5449SOL    HW217247   6.897   3.116   6.847
 5450SOL     OW17248   1.911   6.000   0.629
 5450SOL    HW117249   1.993   6.032   0.581
 5450SOL    HW217250   1.916   5.901   0.643
 5451SOL     OW17251   2.598   0.179   2.543
 5451SOL    HW117252   2.553   0.136   2.621
 5451SOL    HW217253   2.580   0.125   2.461
 5452SOL     OW17254   2.701   3.644   6.126
 5452SOL    HW117255   2.645   3.653   6.044
 5452SOL    HW217256   2.787   3.694   6.114
 5453SOL     OW17257   0.214   5.575   5.367
 5453SOL    HW117258   0.267   5.652   5.331
 5453SOL    HW217259   0.145   5.608   5.431
 5454SOL     OW17260   1.118   3.840   6.056
 5454SOL    HW117261   1.184   3.900   6.101
 5454SOL    HW217262   1.132   3.745   6.085
 5455SOL     OW17263   5.987   1.764   1.235
 5455SOL    HW117264   5.918   1.726   1.173
 5455SOL    HW217265   6.027   1.691   1.289
 5456SOL     OW17266   3.898   0.135   1.375
 5456SOL    HW117267   3.901   0.170   1.282
 5456SOL    HW217268   3.871   0.039   1.374
 5457SOL     OW17269   6.564   3.045   1.241
 5457SOL    HW117270   6.521   3.022   1.329
 5457SOL    HW217271   6.656   3.079   1.257
 5458SOL     OW17272   1.587   4.158   5.621
 5458SOL    HW117273   1.576   4.058   5.616
 5458SOL    HW217274   1.524   4.202   5.557
 5459SOL     OW17275   1.996   4.519   5.915
 5459SOL    HW117276   2.077   4.535   5.971
 5459SOL    HW217277   1.916   4.509   5.975
 5460SOL     OW17278   4.405   0.527   4.646
 5460SOL    HW117279   4.406   0.609   4.588
 5460SOL    HW217280   4.332   0.466   4.615
 5461SOL     OW17281   3.745   6.734   4.620
 5461SOL    HW117282   3.844   6.732   4.609
 5461SOL    HW217283   3.721   6.738   4.717
 5462SOL     OW17284   0.119   1.048   2.292
 5462SOL    HW117285   0.144   1.016   2.200
 5462SOL    HW217286   0.078   1.139   2.286
 5463SOL     OW17287   6.840   3.135   1.284
 5463SOL    HW117288   6.904   3.168   1.353
 5463SOL    HW217289   6.849   3.190   1.201
 5464SOL     OW17290   1.470   6.420   4.456
 5464SOL    HW117291   1.417   6.501   4.431
 5464SOL    HW217292   1.557   6.448   4.497
 5465SOL     OW17293   2.615   6.037   6.006
 5465SOL    HW117294   2.655   5.998   6.090
 5465SOL    HW217295   2.617   6.136   6.011
 5466SOL     OW17296   4.324   6.422   3.728
 5466SOL    HW117297   4.356   6.445   3.636
 5466SOL    HW217298   4.402   6.416   3.790
 5467SOL     OW17299   6.523   1.292   1.462
 5467SOL    HW117300   6.578   1.255   1.536
 5467SOL    HW217301   6.513   1.391   1.474
 5468SOL     OW17302   4.496   1.525   6.272
 5468SOL    HW117303   4.549   1.440   6.267
 5468SOL    HW217304   4.404   1.505   6.304
 5469SOL     OW17305   5.029   4.466   1.040
 5469SOL    HW117306   5.109   4.446   1.097
 5469SOL    HW217307   5.041   4.556   0.997
 5470SOL     OW17308   0.704   4.818   3.148
 5470SOL    HW117309   0.723   4.783   3.239
 5470SOL    HW217310   0.657   4.748   3.094
 5471SOL     OW17311   6.506   3.197   2.694
 5471SOL    HW117312   6.502   3.226   2.790
 5471SOL    HW217313   6.458   3.264   2.637
 5472SOL     OW17314   3.767   5.509   5.219
 5472SOL    HW117315   3.695   5.495   5.151
 5472SOL    HW217316   3.817   5.424   5.232
 5473SOL     OW17317   2.488   4.447   3.774
 5473SOL    HW117318   2.448   4.363   3.811
 5473SOL    HW217319   2.546   4.489   3.843
 5474SOL     OW17320   1.468   6.235   3.030
 5474SOL    HW117321   1.412   6.157   3.004
 5474SOL    HW217322   1.466   6.246   3.129
 5475SOL     OW17323   3.214   1.881   2.095
 5475SOL    HW117324   3.289   1.815   2.098
 5475SOL    HW217325   3.157   1.862   2.014
 5476SOL     OW17326   1.910   3.240   6.816
 5476SOL    HW117327   1.998   3.241   6.769
 5476SOL    HW217328   1.870   3.149   6.810
 5477SOL     OW17329   2.128   2.389   2.469
 5477SOL    HW117330   2.084   2.309   2.429
 5477SOL    HW217331   2.208   2.360   2.522
 5478SOL     OW17332   0.466   5.265   4.962
 5478SOL    HW117333   0.467   5.168   4.938
 5478SOL    HW217334   0.441   5.276   5.058
 5479SOL     OW17335   4.349   6.996   4.978
 5479SOL    HW117336   4.311   0.056   4.931
 5479SOL    HW217337   4.399   0.005   5.059
 5480SOL     OW17338   0.244   1.942   6.002
 5480SOL    HW117339   0.167   1.915   5.945
 5480SOL    HW217340   0.321   1.969   5.944
 5481SOL     OW17341   4.695   6.648   3.025
 5481SOL    HW117342   4.709   6.734   3.075
 5481SOL    HW217343   4.600   6.641   2.996
 5482SOL     OW17344   1.440   6.270   1.963
 5482SOL    HW117345   1.409   6.360   1.994
 5482SOL    HW217346   1.512   6.237   2.024
 5483SOL     OW17347   0.895   2.653   6.444
 5483SOL    HW117348   0.854   2.728   6.393
 5483SOL    HW217349   0.824   2.604   6.495
 5484SOL     OW17350   5.061   6.566   5.270
 5484SOL    HW117351   5.150   6.520   5.266
 5484SOL    HW217352   5.023   6.557   5.361
 5485SOL     OW17353   3.691   0.424   4.492
 5485SOL    HW117354   3.654   0.502   4.543
 5485SOL    HW217355   3.642   0.415   4.405
 5486SOL     OW17356   2.951   5.560   3.980
 5486SOL    HW117357   2.963   5.461   3.972
 5486SOL    HW217358   2.871   5.579   4.037
 5487SOL     OW17359   3.626   5.989   5.247
 5487SOL    HW117360   3.560   6.061   5.225
 5487SOL    HW217361   3.648   5.937   5.165
 5488SOL     OW17362   4.657   2.256   6.370
 5488SOL    HW117363   4.595   2.231   6.296
 5488SOL    HW217364   4.740   2.200   6.365
 5489SOL     OW17365   6.890   2.462   4.117
 5489SOL    HW117366   6.941   2.376   4.121
 5489SOL    HW217367   6.921   2.517   4.040
 5490SOL     OW17368   0.706   4.990   1.730
 5490SOL    HW117369   0.792   4.972   1.681
 5490SOL    HW217370   0.720   5.064   1.796
 5491SOL     OW17371   0.126   4.057   0.768
 5491SOL    HW117372   0.111   4.070   0.670
 5491SOL    HW217373   0.118   4.145   0.815
 5492SOL     OW17374   0.965   1.710   6.960
 5492SOL    HW117375   1.028   1.788   6.964
 5492SOL    HW217376   0.892   1.729   6.894
 5493SOL     OW17377   4.381   3.761   5.518
 5493SOL    HW117378   4.346   3.854   5.504
 5493SOL    HW217379   4.472   3.754   5.478
 5494SOL     OW17380   6.168   2.059   4.731
 5494SOL    HW117381   6.167   2.154   4.761
 5494SOL    HW217382   6.252   2.040   4.680
 5495SOL     OW17383   5.528   1.300   0.007
 5495SOL    HW117384   5.559   1.294   6.932
 5495SOL    HW217385   5.435   1.265   0.014
 5496SOL     OW17386   4.153   6.474   6.184
 5496SOL    HW117387   4.082   6.403   6.187
 5496SOL    HW217388   4.166   6.504   6.090
 5497SOL     OW17389   1.084   0.353   5.860
 5497SOL    HW117390   1.140   0.350   5.778
 5497SOL    HW217391   1.106   0.435   5.913
 5498SOL     OW17392   0.130   5.708   1.865
 5498SOL    HW117393   0.146   5.783   1.930
 5498SOL    HW217394   0.103   5.746   1.777
 5499SOL     OW17395   2.607   0.140   3.549
 5499SOL    HW117396   2.574   0.203   3.620
 5499SOL    HW217397   2.531   0.084   3.516
 5500SOL     OW17398   0.579   6.287   1.736
 5500SOL    HW117399   0.638   6.314   1.812
 5500SOL    HW217400   0.632   6.290   1.651
 5501SOL     OW17401   4.913   3.574   1.205
 5501SOL    HW117402   4.932   3.483   1.241
 5501SOL    HW217403   4.913   3.572   1.105
 5502SOL     OW17404   4.379   3.423   0.496
 5502SOL    HW117405   4.429   3.433   0.582
 5502SOL    HW217406   4.283   3.445   0.511
 5503SOL     OW17407   6.045   2.767   1.351
 5503SOL    HW117408   6.005   2.821   1.425
 5503SOL    HW217409   5.971   2.721   1.301
 5504SOL     OW17410   3.749   2.478   0.159
 5504SOL    HW117411   3.843   2.466   0.127
 5504SOL    HW217412   3.746   2.460   0.258
 5505SOL     OW17413   2.957   5.757   2.985
 5505SOL    HW117414   2.879   5.729   2.929
 5505SOL    HW217415   3.016   5.678   3.002
 5506SOL     OW17416   6.610   3.020   6.711
 5506SOL    HW117417   6.562   3.095   6.756
 5506SOL    HW217418   6.700   3.007   6.754
 5507SOL     OW17419   4.117   6.052   6.589
 5507SOL    HW117420   4.093   5.991   6.513
 5507SOL    HW217421   4.076   6.142   6.574
 5508SOL     OW17422   6.679   3.105   6.064
 5508SOL    HW117423   6.716   3.063   5.982
 5508SOL    HW217424   6.714   3.056   6.145
 5509SOL     OW17425   6.243   4.184   0.348
 5509SOL    HW117426   6.175   4.257   0.336
 5509SOL    HW217427   6.303   4.207   0.425
 5510SOL     OW17428   4.951   6.198   6.893
 5510SOL    HW117429   4.964   6.264   6.820
 5510SOL    HW217430   5.009   6.118   6.876
 5511SOL     OW17431   0.530   2.804   5.973
 5511SOL    HW117432   0.472   2.803   5.892
 5511SOL    HW217433   0.497   2.874   6.037
 5512SOL     OW17434   3.144   0.151   2.076
 5512SOL    HW117435   3.163   0.154   1.978
 5512SOL    HW217436   3.105   0.238   2.105
 5513SOL     OW17437   3.497   5.078   6.397
 5513SOL    HW117438   3.491   5.145   6.471
 5513SOL    HW217439   3.445   4.996   6.422
 5514SOL     OW17440   3.871   1.591   0.186
 5514SOL    HW117441   3.920   1.667   0.144
 5514SOL    HW217442   3.913   1.505   0.158
 5515SOL     OW17443   3.735   4.981   2.602
 5515SOL    HW117444   3.645   4.952   2.635
 5515SOL    HW217445   3.725   5.020   2.510
 5516SOL     OW17446   1.209   2.713   6.032
 5516SOL    HW117447   1.167   2.630   5.995
 5516SOL    HW217448   1.265   2.757   5.962
 5517SOL     OW17449   1.512   2.178   4.620
 5517SOL    HW117450   1.424   2.224   4.626
 5517SOL    HW217451   1.498   2.082   4.596
 5518SOL     OW17452   3.871   3.849   5.470
 5518SOL    HW117453   3.854   3.948   5.466
 5518SOL    HW217454   3.964   3.833   5.505
 5519SOL     OW17455   5.200   2.363   5.558
 5519SOL    HW117456   5.152   2.319   5.635
 5519SOL    HW217457   5.140   2.364   5.478
 5520SOL     OW17458   4.826   5.726   1.390
 5520SOL    HW117459   4.748   5.679   1.347
 5520SOL    HW217460   4.904   5.726   1.327
 5521SOL     OW17461   5.055   6.946   1.886
 5521SOL    HW117462   5.115   6.866   1.898
 5521SOL    HW217463   5.086   6.998   1.807
 5522SOL     OW17464   4.949   6.081   6.530
 5522SOL    HW117465   4.925   6.034   6.445
 5522SOL    HW217466   5.039   6.123   6.519
 5523SOL     OW17467   5.496   1.586   0.449
 5523SOL    HW117468   5.400   1.566   0.470
 5523SOL    HW217469   5.510   1.585   0.350
 5524SOL     OW17470   2.352   1.813   2.653
 5524SOL    HW117471   2.328   1.750   2.727
 5524SOL    HW217472   2.419   1.880   2.686
 5525SOL     OW17473   6.372   1.252   0.776
 5525SOL    HW117474   6.462   1.291   0.795
 5525SOL    HW217475   6.368   1.223   0.680
 5526SOL     OW17476   4.636   4.261   4.178
 5526SOL    HW117477   4.679   4.240   4.265
 5526SOL    HW217478   4.669   4.198   4.108
 5527SOL     OW17479   6.789   0.109   2.647
 5527SOL    HW117480   6.727   0.032   2.639
 5527SOL    HW217481   6.736   0.193   2.663
 5528SOL     OW17482   2.362   1.503   0.339
 5528SOL    HW117483   2.389   1.529   0.246
 5528SOL    HW217484   2.434   1.531   0.403
 5529SOL     OW17485   3.241   1.064   1.840
 5529SOL    HW117486   3.272   1.114   1.759
 5529SOL    HW217487   3.178   1.122   1.892
 5530SOL     OW17488   1.123   1.450   1.452
 5530SOL    HW117489   1.073   1.371   1.486
 5530SOL    HW217490   1.100   1.465   1.356
 5531SOL     OW17491   0.980   4.461   6.443
 5531SOL    HW117492   1.015   4.425   6.356
 5531SOL    HW217493   0.982   4.561   6.440
 5532SOL     OW17494   0.026   4.883   5.937
 5532SOL    HW117495   0.020   4.957   6.004
 5532SOL    HW217496   7.007   4.799   5.976
 5533SOL     OW17497   3.764   1.108   4.130
 5533SOL    HW117498   3.755   1.038   4.060
 5533SOL    HW217499   3.849   1.159   4.115
 5534SOL     OW17500   1.467   6.929   4.372
 5534SOL    HW117501   1.378   6.973   4.386
 5534SOL    HW217502   1.534   6.969   4.435
 5535SOL     OW17503   1.067   1.591   2.831
 5535SOL    HW117504   0.997   1.519   2.835
 5535SOL    HW217505   1.023   1.680   2.818
 5536SOL     OW17506   4.659   0.809   4.909
 5536SOL    HW117507   4.695   0.869   4.980
 5536SOL    HW217508   4.733   0.757   4.867
 5537SOL     OW17509   2.590   2.483   2.858
 5537SOL    HW117510   2.620   2.531   2.940
 5537SOL    HW217511   2.655   2.410   2.837
 5538SOL     OW17512   3.724   5.645   4.040
 5538SOL    HW117513   3.818   5.643   4.006
 5538SOL    HW217514   3.701   5.556   4.079
 5539SOL     OW17515   2.239   3.934   0.515
 5539SOL    HW117516   2.313   3.937   0.583
 5539SOL    HW217517   2.216   3.838   0.496
 5540SOL     OW17518   3.532   5.346   1.456
 5540SOL    HW117519   3.500   5.436   1.483
 5540SOL    HW217520   3.462   5.278   1.478
 5541SOL     OW17521   4.563   0.512   6.470
 5541SOL    HW117522   4.589   0.585   6.406
 5541SOL    HW217523   4.581   0.541   6.564
 5542SOL     OW17524   5.547   3.734   6.675
 5542SOL    HW117525   5.623   3.771   6.729
 5542SOL    HW217526   5.523   3.643   6.709
 5543SOL     OW17527   0.706   2.979   4.758
 5543SOL    HW117528   0.769   3.057   4.765
 5543SOL    HW217529   0.722   2.932   4.671
 5544SOL     OW17530   5.090   6.595   0.252
 5544SOL    HW117531   5.105   6.692   0.231
 5544SOL    HW217532   4.999   6.568   0.221
 5545SOL     OW17533   2.758   2.291   1.721
 5545SOL    HW117534   2.803   2.285   1.632
 5545SOL    HW217535   2.814   2.346   1.783
 5546SOL     OW17536   3.381   6.001   4.558
 5546SOL    HW117537   3.472   5.961   4.543
 5546SOL    HW217538   3.388   6.074   4.625
 5547SOL     OW17539   3.025   5.327   3.731
 5547SOL    HW117540   2.961   5.379   3.676
 5547SOL    HW217541   2.985   5.309   3.821
 5548SOL     OW17542   6.350   1.659   4.389
 5548SOL    HW117543   6.285   1.685   4.461
 5548SOL    HW217544   6.404   1.739   4.363
 5549SOL     OW17545   3.664   4.945   5.087
 5549SOL    HW117546   3.579   4.904   5.054
 5549SOL    HW217547   3.702   4.888   5.159
 5550SOL     OW17548   2.984   5.714   1.726
 5550SOL    HW117549   3.062   5.738   1.668
 5550SOL    HW217550   2.909   5.778   1.709
 5551SOL     OW17551   0.710   1.287   2.409
 5551SOL    HW117552   0.804   1.299   2.441
 5551SOL    HW217553   0.681   1.370   2.360
 5552SOL     OW17554   2.482   2.534   2.121
 5552SOL    HW117555   2.512   2.626   2.097
 5552SOL    HW217556   2.427   2.537   2.204
 5553SOL     OW17557   4.773   6.734   5.990
 5553SOL    HW117558   4.830   6.680   6.052
 5553SOL    HW217559   4.677   6.705   5.999
 5554SOL     OW17560   3.139   0.101   6.222
 5554SOL    HW117561   3.185   0.146   6.298
 5554SOL    HW217562   3.078   0.167   6.176
 5555SOL     OW17563   0.929   5.900   1.778
 5555SOL    HW117564   0.862   5.857   1.718
 5555SOL    HW217565   1.020   5.894   1.735
 5556SOL     OW17566   0.047   1.498   4.795
 5556SOL    HW117567   0.065   1.588   4.758
 5556SOL    HW217568   0.120   1.472   4.859
 5557SOL     OW17569   3.687   0.828   2.722
 5557SOL    HW117570   3.779   0.863   2.742
 5557SOL    HW217571   3.627   0.904   2.696
 5558SOL     OW17572   5.507   2.285   6.806
 5558SOL    HW117573   5.526   2.264   6.710
 5558SOL    HW217574   5.425   2.341   6.812
 5559SOL     OW17575   3.538   1.448   1.359
 5559SOL    HW117576   3.453   1.399   1.341
 5559SOL    HW217577   3.590   1.458   1.275
 5560SOL     OW17578   0.132   2.598   4.784
 5560SOL    HW117579   0.094   2.508   4.805
 5560SOL    HW217580   0.060   2.657   4.746
 5561SOL     OW17581   1.970   4.951   2.684
 5561SOL    HW117582   1.941   5.015   2.614
 5561SOL    HW217583   1.939   4.859   2.660
 5562SOL     OW17584   4.946   3.295   0.308
 5562SOL    HW117585   4.850   3.273   0.322
 5562SOL    HW217586   5.003   3.222   0.345
 5563SOL     OW17587   4.139   4.602   0.989
 5563SOL    HW117588   4.071   4.596   1.061
 5563SOL    HW217589   4.119   4.681   0.930
 5564SOL     OW17590   6.002   0.951   2.554
 5564SOL    HW117591   5.986   1.045   2.524
 5564SOL    HW217592   5.923   0.919   2.608
 5565SOL     OW17593   1.699   2.616   5.923
 5565SOL    HW117594   1.764   2.560   5.872
 5565SOL    HW217595   1.735   2.709   5.932
 5566SOL     OW17596   2.398   4.240   0.563
 5566SOL    HW117597   2.368   4.308   0.496
 5566SOL    HW217598   2.329   4.168   0.570
 5567SOL     OW17599   1.365   5.874   3.220
 5567SOL    HW117600   1.417   5.925   3.289
 5567SOL    HW217601   1.325   5.938   3.154
 5568SOL     OW17602   4.868   2.892   0.077
 5568SOL    HW117603   4.780   2.847   0.063
 5568SOL    HW217604   4.858   2.990   0.056
 5569SOL     OW17605   4.258   1.100   5.815
 5569SOL    HW117606   4.271   1.153   5.731
 5569SOL    HW217607   4.161   1.077   5.824
 5570SOL     OW17608   1.786   1.695   6.014
 5570SOL    HW117609   1.775   1.605   6.057
 5570SOL    HW217610   1.858   1.690   5.946
 5571SOL     OW17611   0.738   4.871   6.759
 5571SOL    HW117612   0.734   4.930   6.839
 5571SOL    HW217613   0.829   4.831   6.751
 5572SOL     OW17614   1.283   3.494   5.210
 5572SOL    HW117615   1.354   3.515   5.277
 5572SOL    HW217616   1.280   3.567   5.141
 5573SOL     OW17617   0.540   4.164   6.656
 5573SOL    HW117618   0.458   4.214   6.628
 5573SOL    HW217619   0.513   4.074   6.691
 5574SOL     OW17620   1.670   5.958   4.391
 5574SOL    HW117621   1.583   5.954   4.341
 5574SOL    HW217622   1.678   5.878   4.451
 5575SOL     OW17623   1.117   1.976   2.816
 5575SOL    HW117624   1.156   1.917   2.888
 5575SOL    HW217625   1.083   1.919   2.741
 5576SOL     OW17626   5.044   6.585   6.895
 5576SOL    HW117627   4.961   6.535   6.869
 5576SOL    HW217628   5.038   6.679   6.863
 5577SOL     OW17629   1.674   5.308   5.427
 5577SOL    HW117630   1.714   5.393   5.394
 5577SOL    HW217631   1.697   5.233   5.365
 5578SOL     OW17632   4.149   1.688   6.151
 5578SOL    HW117633   4.237   1.641   6.145
 5578SOL    HW217634   4.115   1.682   6.245
 5579SOL     OW17635   5.121   4.895   2.513
 5579SOL    HW117636   5.126   4.796   2.500
 5579SOL    HW217637   5.049   4.915   2.580
 5580SOL     OW17638   6.537   0.805   2.355
 5580SOL    HW117639   6.546   0.793   2.454
 5580SOL    HW217640   6.599   0.743   2.308
 5581SOL     OW17641   3.351   3.020   0.901
 5581SOL    HW117642   3.278   3.006   0.833
 5581SOL    HW217643   3.428   3.065   0.857
 5582SOL     OW17644   3.178   3.924   5.347
 5582SOL    HW117645   3.157   3.827   5.339
 5582SOL    HW217646   3.147   3.972   5.265
 5583SOL     OW17647   4.038   0.804   6.807
 5583SOL    HW117648   4.108   0.816   6.737
 5583SOL    HW217649   3.967   0.742   6.772
 5584SOL     OW17650   5.502   3.660   4.827
 5584SOL    HW117651   5.507   3.693   4.921
 5584SOL    HW217652   5.410   3.625   4.809
 5585SOL     OW17653   0.319   0.948   3.966
 5585SOL    HW117654   0.419   0.943   3.975
 5585SOL    HW217655   0.281   0.856   3.974
 5586SOL     OW17656   1.739   0.900   0.416
 5586SOL    HW117657   1.742   0.933   0.510
 5586SOL    HW217658   1.662   0.943   0.368
 5587SOL     OW17659   3.909   0.293   2.999
 5587SOL    HW117660   3.839   0.222   2.990
 5587SOL    HW217661   3.945   0.293   3.092
 5588SOL     OW17662   4.317   5.665   0.229
 5588SOL    HW117663   4.386   5.627   0.290
 5588SOL    HW217664   4.328   5.625   0.138
 5589SOL     OW17665   1.384   2.493   6.350
 5589SOL    HW117666   1.379   2.592   6.334
 5589SOL    HW217667   1.300   2.450   6.317
 5590SOL     OW17668   5.725   6.971   3.553
 5590SOL    HW117669   5.644   6.913   3.548
 5590SOL    HW217670   5.698   0.047   3.545
 5591SOL     OW17671   4.987   1.240   5.905
 5591SOL    HW117672   4.896   1.273   5.880
 5591SOL    HW217673   5.052   1.316   5.903
 5592SOL     OW17674   1.068   3.888   3.065
 5592SOL    HW117675   0.999   3.919   3.131
 5592SOL    HW217676   1.119   3.812   3.104
 5593SOL     OW17677   2.554   3.573   5.342
 5593SOL    HW117678   2.643   3.528   5.338
 5593SOL    HW217679   2.482   3.508   5.319
 5594SOL     OW17680   3.378   0.753   5.851
 5594SOL    HW117681   3.345   0.842   5.818
 5594SOL    HW217682   3.320   0.680   5.815
 5595SOL     OW17683   6.569   3.463   1.046
 5595SOL    HW117684   6.493   3.420   1.095
 5595SOL    HW217685   6.587   3.553   1.087
 5596SOL     OW17686   5.186   4.485   4.540
 5596SOL    HW117687   5.278   4.502   4.574
 5596SOL    HW217688   5.189   4.422   4.462
 5597SOL     OW17689   0.501   2.426   6.672
 5597SOL    HW117690   0.427   2.401   6.610
 5597SOL    HW217691   0.507   2.359   6.746
 5598SOL     OW17692   6.991   0.229   3.251
 5598SOL    HW117693   6.898   0.256   3.276
 5598SOL    HW217694   6.999   0.129   3.258
 5599SOL     OW17695   4.877   3.434   2.352
 5599SOL    HW117696   4.851   3.355   2.297
 5599SOL    HW217697   4.873   3.410   2.449
 5600SOL     OW17698   2.091   3.587   2.232
 5600SOL    HW117699   1.993   3.606   2.228
 5600SOL    HW217700   2.125   3.568   2.140
 5601SOL     OW17701   5.351   2.531   6.595
 5601SOL    HW117702   5.323   2.620   6.631
 5601SOL    HW217703   5.330   2.460   6.663
 5602SOL     OW17704   5.242   1.138   2.631
 5602SOL    HW117705   5.274   1.159   2.724
 5602SOL    HW217706   5.142   1.138   2.629
 5603SOL     OW17707   3.611   1.428   6.806
 5603SOL    HW117708   3.590   1.447   6.902
 5603SOL    HW217709   3.535   1.377   6.766
 5604SOL     OW17710   2.177   4.549   4.359
 5604SOL    HW117711   2.099   4.487   4.355
 5604SOL    HW217712   2.260   4.498   4.382
 5605SOL     OW17713   3.386   6.859   4.055
 5605SOL    HW117714   3.447   6.780   4.061
 5605SOL    HW217715   3.314   6.841   3.987
 5606SOL     OW17716   4.037   4.828   0.596
 5606SOL    HW117717   3.954   4.773   0.582
 5606SOL    HW217718   4.117   4.775   0.568
 5607SOL     OW17719   1.647   1.811   1.621
 5607SOL    HW117720   1.564   1.803   1.678
 5607SOL    HW217721   1.663   1.907   1.599
 5608SOL     OW17722   6.411   6.301   3.464
 5608SOL    HW117723   6.400   6.280   3.367
 5608SOL    HW217724   6.503   6.274   3.494
 5609SOL     OW17725   0.101   0.714   0.681
 5609SOL    HW117726   0.080   0.765   0.765
 5609SOL    HW217727   0.095   0.775   0.602
 5610SOL     OW17728   5.050   6.368   6.436
 5610SOL    HW117729   5.026   6.465   6.443
 5610SOL    HW217730   5.071   6.332   6.527
 5611SOL     OW17731   0.143   3.708   1.888
 5611SOL    HW117732   0.088   3.657   1.954
 5611SOL    HW217733   0.086   3.779   1.846
 5612SOL     OW17734   4.995   2.247   0.926
 5612SOL    HW117735   5.030   2.324   0.979
 5612SOL    HW217736   4.917   2.278   0.871
 5613SOL     OW17737   0.025   5.142   5.062
 5613SOL    HW117738   6.957   5.172   5.025
 5613SOL    HW217739   0.013   5.057   5.112
 5614SOL     OW17740   6.111   2.373   4.451
 5614SOL    HW117741   6.041   2.355   4.519
 5614SOL    HW217742   6.077   2.440   4.385
 5615SOL     OW17743   0.852   3.917   3.245
 5615SOL    HW117744   0.890   3.965   3.325
 5615SOL    HW217745   0.877   3.820   3.251
 5616SOL     OW17746   1.416   2.948   2.055
 5616SOL    HW117747   1.433   3.006   2.135
 5616SOL    HW217748   1.435   2.853   2.078
 5617SOL     OW17749   0.867   5.579   5.513
 5617SOL    HW117750   0.949   5.565   5.568
 5617SOL    HW217751   0.885   5.552   5.419
 5618SOL     OW17752   5.171   1.411   3.466
 5618SOL    HW117753   5.135   1.431   3.557
 5618SOL    HW217754   5.236   1.482   3.440
 5619SOL     OW17755   3.702   4.157   4.208
 5619SOL    HW117756   3.766   4.096   4.160
 5619SOL    HW217757   3.671   4.228   4.146
 5620SOL     OW17758   4.794   4.310   5.315
 5620SOL    HW117759   4.750   4.347   5.397
 5620SOL    HW217760   4.892   4.297   5.333
 5621SOL     OW17761   0.578   3.627   0.606
 5621SOL    HW117762   0.620   3.562   0.670
 5621SOL    HW217763   0.550   3.709   0.655
 5622SOL     OW17764   5.846   4.909   4.166
 5622SOL    HW117765   5.814   4.994   4.124
 5622SOL    HW217766   5.899   4.930   4.248
 5623SOL     OW17767   4.735   4.207   3.550
 5623SOL    HW117768   4.759   4.135   3.615
 5623SOL    HW217769   4.688   4.282   3.598
 5624SOL     OW17770   4.862   3.867   4.340
 5624SOL    HW117771   4.848   3.801   4.414
 5624SOL    HW217772   4.823   3.831   4.255
 5625SOL     OW17773   4.003   0.390   6.706
 5625SOL    HW117774   3.904   0.392   6.720
 5625SOL    HW217775   4.023   0.403   6.609
 5626SOL     OW17776   1.829   4.169   5.984
 5626SOL    HW117777   1.892   4.147   6.058
 5626SOL    HW217778   1.786   4.086   5.949
 5627SOL     OW17779   0.799   5.177   1.032
 5627SOL    HW117780   0.769   5.082   1.031
 5627SOL    HW217781   0.744   5.229   1.097
 5628SOL     OW17782   0.998   2.522   6.851
 5628SOL    HW117783   1.058   2.468   6.909
 5628SOL    HW217784   1.014   2.498   6.755
 5629SOL     OW17785   1.059   3.304   4.876
 5629SOL    HW117786   1.082   3.230   4.938
 5629SOL    HW217787   1.144   3.342   4.837
 5630SOL     OW17788   0.790   4.208   6.784
 5630SOL    HW117789   0.717   4.171   6.727
 5630SOL    HW217790   0.877   4.206   6.733
 5631SOL     OW17791   2.329   0.767   3.711
 5631SOL    HW117792   2.402   0.824   3.749
 5631SOL    HW217793   2.241   0.811   3.725
 5632SOL     OW17794   2.633   6.318   6.105
 5632SOL    HW117795   2.719   6.339   6.152
 5632SOL    HW217796   2.557   6.331   6.168
 5633SOL     OW17797   1.503   5.220   4.932
 5633SOL    HW117798   1.424   5.213   4.871
 5633SOL    HW217799   1.548   5.308   4.919
 5634SOL     OW17800   1.214   0.187   1.312
 5634SOL    HW117801   1.163   0.186   1.398
 5634SOL    HW217802   1.303   0.143   1.326
 5635SOL     OW17803   3.998   0.610   3.204
 5635SOL    HW117804   3.939   0.637   3.128
 5635SOL    HW217805   4.028   0.692   3.253
 5636SOL     OW17806   4.860   0.189   4.897
 5636SOL    HW117807   4.942   0.142   4.930
 5636SOL    HW217808   4.832   0.257   4.965
 5637SOL     OW17809   5.742   6.997   5.357
 5637SOL    HW117810   5.662   6.971   5.303
 5637SOL    HW217811   5.820   6.939   5.333
 5638SOL     OW17812   1.812   6.246   0.140
 5638SOL    HW117813   1.784   6.336   0.106
 5638SOL    HW217814   1.893   6.257   0.198
 5639SOL     OW17815   3.374   0.053   1.509
 5639SOL    HW117816   3.275   0.058   1.494
 5639SOL    HW217817   3.394   6.999   1.573
 5640SOL     OW17818   4.413   6.486   4.200
 5640SOL    HW117819   4.408   6.572   4.149
 5640SOL    HW217820   4.450   6.414   4.141
 5641SOL     OW17821   6.405   5.176   3.690
 5641SOL    HW117822   6.370   5.090   3.729
 5641SOL    HW217823   6.432   5.161   3.595
 5642SOL     OW17824   1.966   1.657   6.680
 5642SOL    HW117825   2.003   1.646   6.588
 5642SOL    HW217826   2.023   1.720   6.732
 5643SOL     OW17827   4.915   2.248   3.475
 5643SOL    HW117828   4.865   2.255   3.389
 5643SOL    HW217829   4.999   2.195   3.461
 5644SOL     OW17830   2.667   0.775   5.356
 5644SOL    HW117831   2.765   0.793   5.358
 5644SOL    HW217832   2.649   0.688   5.403
 5645SOL     OW17833   0.087   6.069   4.391
 5645SOL    HW117834   7.010   6.079   4.416
 5645SOL    HW217835   0.098   5.986   4.336
 5646SOL     OW17836   6.321   0.941   2.368
 5646SOL    HW117837   6.250   0.871   2.371
 5646SOL    HW217838   6.411   0.897   2.366
 5647SOL     OW17839   5.801   3.208   6.698
 5647SOL    HW117840   5.820   3.307   6.700
 5647SOL    HW217841   5.881   3.159   6.664
 5648SOL     OW17842   1.811   1.837   4.570
 5648SOL    HW117843   1.823   1.931   4.602
 5648SOL    HW217844   1.835   1.773   4.643
 5649SOL     OW17845   6.689   0.697   4.922
 5649SOL    HW117846   6.686   0.786   4.969
 5649SOL    HW217847   6.619   0.637   4.959
 5650SOL     OW17848   6.172   4.736   5.982
 5650SOL    HW117849   6.250   4.783   6.023
 5650SOL    HW217850   6.162   4.765   5.887
 5651SOL     OW17851   5.906   0.507   3.051
 5651SOL    HW117852   5.809   0.502   3.073
 5651SOL    HW217853   5.958   0.452   3.115
 5652SOL     OW17854   3.736   4.382   6.450
 5652SOL    HW117855   3.778   4.432   6.526
 5652SOL    HW217856   3.726   4.286   6.474
 5653SOL     OW17857   1.867   6.947   5.528
 5653SOL    HW117858   1.892   6.890   5.605
 5653SOL    HW217859   1.950   6.986   5.487
 5654SOL     OW17860   3.273   6.763   0.006
 5654SOL    HW117861   3.218   6.805   0.078
 5654SOL    HW217862   3.250   6.666   7.018
 5655SOL     OW17863   5.688   4.763   2.000
 5655SOL    HW117864   5.689   4.855   1.961
 5655SOL    HW217865   5.780   4.724   1.997
 5656SOL     OW17866   2.805   4.394   6.439
 5656SOL    HW117867   2.778   4.490   6.425
 5656SOL    HW217868   2.905   4.387   6.435
 5657SOL     OW17869   5.264   5.403   1.709
 5657SOL    HW117870   5.324   5.330   1.678
 5657SOL    HW217871   5.313   5.463   1.772
 5658SOL     OW17872   4.340   6.677   6.241
 5658SOL    HW117873   4.398   6.675   6.159
 5658SOL    HW217874   4.267   6.610   6.231
 5659SOL     OW17875   2.953   3.192   2.584
 5659SOL    HW117876   3.031   3.182   2.645
 5659SOL    HW217877   2.871   3.213   2.638
 5660SOL     OW17878   1.018   4.260   2.124
 5660SOL    HW117879   1.011   4.316   2.207
 5660SOL    HW217880   1.018   4.320   2.044
 5661SOL     OW17881   5.709   5.517   5.485
 5661SOL    HW117882   5.787   5.577   5.500
 5661SOL    HW217883   5.737   5.422   5.498
 5662SOL     OW17884   1.749   4.465   5.079
 5662SOL    HW117885   1.738   4.556   5.039
 5662SOL    HW217886   1.842   4.432   5.061
 5663SOL     OW17887   2.332   3.445   0.392
 5663SOL    HW117888   2.345   3.516   0.461
 5663SOL    HW217889   2.241   3.405   0.401
 5664SOL     OW17890   6.105   6.953   1.330
 5664SOL    HW117891   6.063   0.004   1.273
 5664SOL    HW217892   6.035   6.887   1.357
 5665SOL     OW17893   1.188   0.426   6.217
 5665SOL    HW117894   1.182   0.497   6.147
 5665SOL    HW217895   1.249   0.354   6.186
 5666SOL     OW17896   4.730   6.200   6.262
 5666SOL    HW117897   4.718   6.103   6.240
 5666SOL    HW217898   4.648   6.233   6.310
 5667SOL     OW17899   5.537   5.089   3.306
 5667SOL    HW117900   5.538   5.189   3.294
 5667SOL    HW217901   5.622   5.061   3.350
 5668SOL     OW17902   6.566   2.745   6.301
 5668SOL    HW117903   6.516   2.792   6.375
 5668SOL    HW217904   6.519   2.761   6.214
 5669SOL     OW17905   1.013   2.077   5.632
 5669SOL    HW117906   1.092   2.139   5.630
 5669SOL    HW217907   1.019   2.014   5.555
 5670SOL     OW17908   1.408   2.623   2.486
 5670SOL    HW117909   1.455   2.535   2.486
 5670SOL    HW217910   1.441   2.678   2.410
 5671SOL     OW17911   0.469   0.940   6.006
 5671SOL    HW117912   0.372   0.920   6.016
 5671SOL    HW217913   0.500   0.915   5.914
 5672SOL     OW17914   4.116   4.724   6.253
 5672SOL    HW117915   4.037   4.749   6.197
 5672SOL    HW217916   4.120   4.625   6.263
 5673SOL     OW17917   1.963   6.145   1.429
 5673SOL    HW117918   1.896   6.096   1.485
 5673SOL    HW217919   1.990   6.087   1.351
 5674SOL     OW17920   0.344   3.122   0.204
 5674SOL    HW117921   0.345   3.023   0.185
 5674SOL    HW217922   0.279   3.141   0.278
 5675SOL     OW17923   4.254   1.346   5.710
 5675SOL    HW117924   4.290   1.403   5.636
 5675SOL    HW217925   4.162   1.377   5.734
 5676SOL     OW17926   2.129   5.907   1.772
 5676SOL    HW117927   2.212   5.852   1.758
 5676SOL    HW217928   2.060   5.882   1.704
 5677SOL     OW17929   6.184   0.980   3.496
 5677SOL    HW117930   6.121   1.037   3.549
 5677SOL    HW217931   6.244   0.930   3.559
 5678SOL     OW17932   1.240   5.297   2.649
 5678SOL    HW117933   1.168   5.259   2.593
 5678SOL    HW217934   1.314   5.332   2.590
 5679SOL     OW17935   3.916   5.929   5.662
 5679SOL    HW117936   3.965   5.880   5.734
 5679SOL    HW217937   3.980   5.986   5.610
 5680SOL     OW17938   0.945   0.266   6.515
 5680SOL    HW117939   0.889   0.274   6.597
 5680SOL    HW217940   1.025   0.326   6.523
 5681SOL     OW17941   3.145   3.452   0.400
 5681SOL    HW117942   3.145   3.431   0.498
 5681SOL    HW217943   3.159   3.367   0.348
 5682SOL     OW17944   2.130   4.798   4.479
 5682SOL    HW117945   2.168   4.712   4.444
 5682SOL    HW217946   2.196   4.842   4.540
 5683SOL     OW17947   3.089   3.505   4.718
 5683SOL    HW117948   3.019   3.504   4.647
 5683SOL    HW217949   3.166   3.449   4.689
 5684SOL     OW17950   3.215   4.085   2.356
 5684SOL    HW117951   3.148   4.012   2.372
 5684SOL    HW217952   3.166   4.169   2.330
 5685SOL     OW17953   6.726   0.402   1.952
 5685SOL    HW117954   6.818   0.409   1.992
 5685SOL    HW217955   6.734   0.389   1.853
 5686SOL     OW17956   3.189   4.664   6.225
 5686SOL    HW117957   3.090   4.672   6.238
 5686SOL    HW217958   3.228   4.607   6.297
 5687SOL     OW17959   4.807   0.065   5.772
 5687SOL    HW117960   4.778   6.990   5.760
 5687SOL    HW217961   4.730   0.119   5.806
 5688SOL     OW17962   5.226   1.290   2.207
 5688SOL    HW117963   5.296   1.360   2.191
 5688SOL    HW217964   5.261   1.222   2.271
 5689SOL     OW17965   3.964   3.470   5.266
 5689SOL    HW117966   3.892   3.402   5.253
 5689SOL    HW217967   3.996   3.467   5.360
 5690SOL     OW17968   3.097   0.372   3.186
 5690SOL    HW117969   3.132   0.463   3.210
 5690SOL    HW217970   3.047   0.334   3.263
 5691SOL     OW17971   3.115   0.250   4.816
 5691SOL    HW117972   3.071   0.169   4.856
 5691SOL    HW217973   3.048   0.323   4.807
 5692SOL     OW17974   6.245   2.759   0.510
 5692SOL    HW117975   6.244   2.743   0.609
 5692SOL    HW217976   6.174   2.705   0.466
 5693SOL     OW17977   5.655   3.508   1.822
 5693SOL    HW117978   5.660   3.570   1.744
 5693SOL    HW217979   5.731   3.528   1.885
 5694SOL     OW17980   1.791   2.453   4.886
 5694SOL    HW117981   1.767   2.380   4.950
 5694SOL    HW217982   1.872   2.502   4.919
 5695SOL     OW17983   1.734   3.293   2.782
 5695SOL    HW117984   1.684   3.318   2.699
 5695SOL    HW217985   1.828   3.267   2.758
 5696SOL     OW17986   3.287   1.197   6.484
 5696SOL    HW117987   3.294   1.175   6.387
 5696SOL    HW217988   3.195   1.229   6.504
 5697SOL     OW17989   6.563   3.746   1.064
 5697SOL    HW117990   6.484   3.788   1.110
 5697SOL    HW217991   6.569   3.780   0.970
 5698SOL     OW17992   2.121   4.966   4.268
 5698SOL    HW117993   2.121   4.887   4.329
 5698SOL    HW217994   2.205   5.019   4.281
 5699SOL     OW17995   1.067   2.257   5.353
 5699SOL    HW117996   1.040   2.351   5.330
 5699SOL    HW217997   0.985   2.202   5.366
 5700SOL     OW17998   1.635   5.212   4.358
 5700SOL    HW117999   1.600   5.158   4.435
 5700SOL    HW218000   1.726   5.179   4.333
 5701SOL     OW18001   4.952   2.004   2.560
 5701SOL    HW118002   4.947   1.905   2.566
 5701SOL    HW218003   4.912   2.044   2.642
 5702SOL     OW18004   4.261   0.730   0.249
 5702SOL    HW118005   4.207   0.717   0.165
 5702SOL    HW218006   4.288   0.641   0.285
 5703SOL     OW18007   4.754   4.125   2.448
 5703SOL    HW118008   4.819   4.171   2.388
 5703SOL    HW218009   4.714   4.047   2.400
 5704SOL     OW18010   5.664   3.359   3.723
 5704SOL    HW118011   5.743   3.407   3.685
 5704SOL    HW218012   5.616   3.419   3.786
 5705SOL     OW18013   6.408   1.211   4.295
 5705SOL    HW118014   6.364   1.132   4.337
 5705SOL    HW218015   6.494   1.182   4.253
 5706SOL     OW18016   1.999   1.510   5.867
 5706SOL    HW118017   1.939   1.529   5.789
 5706SOL    HW218018   2.073   1.577   5.869
 5707SOL     OW18019   4.413   0.359   1.587
 5707SOL    HW118020   4.423   0.457   1.606
 5707SOL    HW218021   4.331   0.324   1.631
 5708SOL     OW18022   1.203   6.632   0.512
 5708SOL    HW118023   1.301   6.636   0.491
 5708SOL    HW218024   1.163   6.722   0.496
 5709SOL     OW18025   0.399   2.658   0.797
 5709SOL    HW118026   0.450   2.572   0.798
 5709SOL    HW218027   0.328   2.655   0.868
 5710SOL     OW18028   3.086   5.068   6.329
 5710SOL    HW118029   3.108   5.146   6.388
 5710SOL    HW218030   3.070   4.987   6.385
 5711SOL     OW18031   5.258   1.290   5.442
 5711SOL    HW118032   5.288   1.285   5.347
 5711SOL    HW218033   5.158   1.287   5.446
 5712SOL     OW18034   5.022   6.986   5.931
 5712SOL    HW118035   5.028   6.898   5.883
 5712SOL    HW218036   4.953   0.023   5.888
 5713SOL     OW18037   0.239   3.652   2.559
 5713SOL    HW118038   0.211   3.748   2.557
 5713SOL    HW218039   0.228   3.617   2.652
 5714SOL     OW18040   2.309   0.730   1.055
 5714SOL    HW118041   2.246   0.792   1.101
 5714SOL    HW218042   2.403   0.753   1.079
 5715SOL     OW18043   0.496   5.962   3.891
 5715SOL    HW118044   0.588   5.934   3.919
 5715SOL    HW218045   0.483   5.941   3.794
 5716SOL     OW18046   1.422   2.929   4.765
 5716SOL    HW118047   1.467   2.957   4.680
 5716SOL    HW218048   1.434   2.830   4.778
 5717SOL     OW18049   0.400   4.537   5.451
 5717SOL    HW118050   0.418   4.623   5.498
 5717SOL    HW218051   0.324   4.549   5.387
 5718SOL     OW18052   2.360   5.759   5.836
 5718SOL    HW118053   2.382   5.853   5.810
 5718SOL    HW218054   2.423   5.728   5.907
 5719SOL     OW18055   1.512   1.047   0.312
 5719SOL    HW118056   1.566   1.103   0.249
 5719SOL    HW218057   1.440   1.103   0.353
 5720SOL     OW18058   1.961   5.835   3.975
 5720SOL    HW118059   2.015   5.899   3.920
 5720SOL    HW218060   1.983   5.847   4.071
 5721SOL     OW18061   6.007   5.267   6.755
 5721SOL    HW118062   6.070   5.341   6.730
 5721SOL    HW218063   6.045   5.180   6.725
 5722SOL     OW18064   5.264   0.980   3.901
 5722SOL    HW118065   5.233   0.983   3.996
 5722SOL    HW218066   5.207   0.917   3.848
 5723SOL     OW18067   6.016   5.323   0.497
 5723SOL    HW118068   6.064   5.409   0.514
 5723SOL    HW218069   6.080   5.247   0.503
 5724SOL     OW18070   4.648   2.970   5.663
 5724SOL    HW118071   4.714   2.936   5.730
 5724SOL    HW218072   4.650   2.913   5.581
 5725SOL     OW18073   6.155   0.088   5.430
 5725SOL    HW118074   6.147   0.115   5.334
 5725SOL    HW218075   6.138   0.167   5.488
 5726SOL     OW18076   4.183   5.899   5.119
 5726SOL    HW118077   4.265   5.884   5.174
 5726SOL    HW218078   4.108   5.930   5.178
 5727SOL     OW18079   5.602   3.247   3.233
 5727SOL    HW118080   5.601   3.239   3.332
 5727SOL    HW218081   5.552   3.171   3.192
 5728SOL     OW18082   3.719   1.096   5.278
 5728SOL    HW118083   3.801   1.108   5.221
 5728SOL    HW218084   3.665   1.020   5.243
 5729SOL     OW18085   3.207   1.674   4.122
 5729SOL    HW118086   3.262   1.655   4.204
 5729SOL    HW218087   3.186   1.772   4.119
 5730SOL     OW18088   4.054   5.129   7.017
 5730SOL    HW118089   3.989   5.149   0.072
 5730SOL    HW218090   4.050   5.032   6.994
 5731SOL     OW18091   4.132   1.398   5.028
 5731SOL    HW118092   4.117   1.435   5.120
 5731SOL    HW218093   4.045   1.390   4.980
 5732SOL     OW18094   6.461   3.872   4.428
 5732SOL    HW118095   6.451   3.878   4.329
 5732SOL    HW218096   6.437   3.959   4.469
 5733SOL     OW18097   1.773   6.423   0.761
 5733SOL    HW118098   1.801   6.519   0.764
 5733SOL    HW218099   1.809   6.380   0.679
 5734SOL     OW18100   1.829   0.190   6.550
 5734SOL    HW118101   1.791   0.271   6.596
 5734SOL    HW218102   1.929   0.195   6.550
 5735SOL     OW18103   5.585   1.262   1.114
 5735SOL    HW118104   5.536   1.349   1.112
 5735SOL    HW218105   5.519   1.187   1.113
 5736SOL     OW18106   4.114   3.569   6.395
 5736SOL    HW118107   4.175   3.617   6.459
 5736SOL    HW218108   4.019   3.580   6.425
 5737SOL     OW18109   5.185   5.327   2.432
 5737SOL    HW118110   5.126   5.328   2.514
 5737SOL    HW218111   5.272   5.371   2.454
 5738SOL     OW18112   3.223   1.543   1.230
 5738SOL    HW118113   3.279   1.461   1.238
 5738SOL    HW218114   3.144   1.536   1.290
 5739SOL     OW18115   2.042   1.050   5.951
 5739SOL    HW118116   1.975   0.981   5.924
 5739SOL    HW218117   2.131   1.029   5.909
 5740SOL     OW18118   5.645   2.878   2.670
 5740SOL    HW118119   5.581   2.872   2.747
 5740SOL    HW218120   5.639   2.794   2.615
 5741SOL     OW18121   1.442   3.310   3.973
 5741SOL    HW118122   1.430   3.318   4.072
 5741SOL    HW218123   1.444   3.214   3.947
 5742SOL     OW18124   6.575   4.452   2.392
 5742SOL    HW118125   6.585   4.387   2.317
 5742SOL    HW218126   6.491   4.432   2.443
 5743SOL     OW18127   3.216   6.742   5.842
 5743SOL    HW118128   3.233   6.798   5.923
 5743SOL    HW218129   3.302   6.701   5.812
 5744SOL     OW18130   5.471   5.625   4.064
 5744SOL    HW118131   5.452   5.601   4.159
 5744SOL    HW218132   5.536   5.559   4.026
 5745SOL     OW18133   2.128   3.872   2.539
 5745SOL    HW118134   2.146   3.875   2.440
 5745SOL    HW218135   2.184   3.940   2.585
 5746SOL     OW18136   5.055   0.727   3.504
 5746SOL    HW118137   5.139   0.771   3.536
 5746SOL    HW218138   5.078   0.657   3.436
 5747SOL     OW18139   0.895   6.833   1.677
 5747SOL    HW118140   0.908   6.814   1.775
 5747SOL    HW218141   0.804   6.802   1.649
 5748SOL     OW18142   6.250   6.905   7.009
 5748SOL    HW118143   6.271   6.865   0.079
 5748SOL    HW218144   6.323   6.967   6.982
 5749SOL     OW18145   1.911   6.517   5.968
 5749SOL    HW118146   1.995   6.463   5.976
 5749SOL    HW218147   1.853   6.478   5.897
 5750SOL     OW18148   6.350   2.279   4.041
 5750SOL    HW118149   6.393   2.342   3.976
 5750SOL    HW218150   6.392   2.291   4.131
 5751SOL     OW18151   6.740   3.894   4.413
 5751SOL    HW118152   6.790   3.948   4.481
 5751SOL    HW218153   6.642   3.916   4.418
 5752SOL     OW18154   5.639   1.934   6.703
 5752SOL    HW118155   5.641   1.925   6.604
 5752SOL    HW218156   5.548   1.965   6.731
 5753SOL     OW18157   3.689   3.722   3.692
 5753SOL    HW118158   3.601   3.748   3.652
 5753SOL    HW218159   3.720   3.636   3.651
 5754SOL     OW18160   5.990   0.688   0.727
 5754SOL    HW118161   6.088   0.703   0.732
 5754SOL    HW218162   5.954   0.670   0.818
 5755SOL     OW18163   0.989   4.044   6.382
 5755SOL    HW118164   1.064   3.996   6.428
 5755SOL    HW218165   1.019   4.073   6.292
 5756SOL     OW18166   5.447   0.058   1.630
 5756SOL    HW118167   5.475   0.021   1.542
 5756SOL    HW218168   5.495   0.144   1.647
 5757SOL     OW18169   1.788   1.881   4.022
 5757SOL    HW118170   1.881   1.850   4.000
 5757SOL    HW218171   1.790   1.932   4.108
 5758SOL     OW18172   6.553   6.659   2.922
 5758SOL    HW118173   6.637   6.709   2.945
 5758SOL    HW218174   6.492   6.660   3.001
 5759SOL     OW18175   2.949   6.364   2.988
 5759SOL    HW118176   2.960   6.406   2.898
 5759SOL    HW218177   2.888   6.420   3.044
 5760SOL     OW18178   0.342   2.561   0.144
 5760SOL    HW118179   0.294   2.532   0.061
 5760SOL    HW218180   0.433   2.519   0.147
 5761SOL     OW18181   6.989   6.889   5.516
 5761SOL    HW118182   6.992   6.791   5.539
 5761SOL    HW218183   6.919   6.904   5.446
 5762SOL     OW18184   0.516   6.536   5.990
 5762SOL    HW118185   0.456   6.608   6.023
 5762SOL    HW218186   0.462   6.457   5.960
 5763SOL     OW18187   4.779   0.530   6.957
 5763SOL    HW118188   4.800   0.438   6.989
 5763SOL    HW218189   4.862   0.586   6.960
 5764SOL     OW18190   3.992   6.125   3.939
 5764SOL    HW118191   3.962   6.203   3.994
 5764SOL    HW218192   4.072   6.151   3.885
 5765SOL     OW18193   6.339   6.664   2.699
 5765SOL    HW118194   6.257   6.608   2.712
 5765SOL    HW218195   6.407   6.642   2.768
 5766SOL     OW18196   0.992   0.783   4.522
 5766SOL    HW118197   0.929   0.832   4.582
 5766SOL    HW218198   0.951   0.771   4.432
 5767SOL     OW18199   6.141   0.065   0.386
 5767SOL    HW118200   6.094   0.153   0.394
 5767SOL    HW218201   6.147   0.022   0.476
 5768SOL     OW18202   1.468   0.214   5.099
 5768SOL    HW118203   1.390   0.239   5.157
 5768SOL    HW218204   1.471   0.115   5.088
 5769SOL     OW18205   1.083   2.226   6.249
 5769SOL    HW118206   1.113   2.179   6.165
 5769SOL    HW218207   1.020   2.300   6.225
 5770SOL     OW18208   1.094   3.376   2.302
 5770SOL    HW118209   1.142   3.332   2.226
 5770SOL    HW218210   1.134   3.466   2.320
 5771SOL     OW18211   3.164   6.137   3.227
 5771SOL    HW118212   3.107   6.208   3.186
 5771SOL    HW218213   3.120   6.048   3.214
 5772SOL     OW18214   2.649   1.282   3.485
 5772SOL    HW118215   2.603   1.368   3.505
 5772SOL    HW218216   2.691   1.286   3.395
 5773SOL     OW18217   5.532   0.462   4.021
 5773SOL    HW118218   5.554   0.445   3.925
 5773SOL    HW218219   5.458   0.529   4.027
 5774SOL     OW18220   1.069   6.592   3.478
 5774SOL    HW118221   0.992   6.599   3.542
 5774SOL    HW218222   1.108   6.500   3.484
 5775SOL     OW18223   5.998   5.055   2.526
 5775SOL    HW118224   5.973   5.002   2.607
 5775SOL    HW218225   6.007   4.994   2.447
 5776SOL     OW18226   4.035   0.942   4.465
 5776SOL    HW118227   4.065   1.030   4.427
 5776SOL    HW218228   3.948   0.954   4.512
 5777SOL     OW18229   0.121   0.832   1.801
 5777SOL    HW118230   0.142   0.928   1.785
 5777SOL    HW218231   0.198   0.775   1.771
 5778SOL     OW18232   0.163   1.088   6.464
 5778SOL    HW118233   0.227   1.118   6.393
 5778SOL    HW218234   0.198   1.005   6.508
 5779SOL     OW18235   5.789   1.410   0.266
 5779SOL    HW118236   5.870   1.386   0.320
 5779SOL    HW218237   5.710   1.419   0.326
 5780SOL     OW18238   5.471   4.935   4.469
 5780SOL    HW118239   5.377   4.967   4.453
 5780SOL    HW218240   5.535   5.007   4.442
 5781SOL     OW18241   1.334   6.116   5.635
 5781SOL    HW118242   1.399   6.042   5.653
 5781SOL    HW218243   1.302   6.111   5.541
 5782SOL     OW18244   5.307   0.965   1.447
 5782SOL    HW118245   5.385   1.020   1.478
 5782SOL    HW218246   5.275   0.908   1.523
 5783SOL     OW18247   2.216   2.222   6.567
 5783SOL    HW118248   2.186   2.306   6.522
 5783SOL    HW218249   2.309   2.233   6.601
 5784SOL     OW18250   6.624   6.129   0.710
 5784SOL    HW118251   6.714   6.107   0.746
 5784SOL    HW218252   6.591   6.053   0.654
 5785SOL     OW18253   1.685   1.215   2.276
 5785SOL    HW118254   1.713   1.270   2.355
 5785SOL    HW218255   1.756   1.217   2.207
 5786SOL     OW18256   5.502   4.676   2.303
 5786SOL    HW118257   5.481   4.657   2.207
 5786SOL    HW218258   5.523   4.590   2.351
 5787SOL     OW18259   2.317   2.633   6.302
 5787SOL    HW118260   2.398   2.664   6.351
 5787SOL    HW218261   2.345   2.575   6.225
 5788SOL     OW18262   3.415   0.910   4.160
 5788SOL    HW118263   3.377   0.965   4.087
 5788SOL    HW218264   3.399   0.955   4.248
 5789SOL     OW18265   3.215   4.924   6.047
 5789SOL    HW118266   3.165   5.000   6.090
 5789SOL    HW218267   3.215   4.845   6.109
 5790SOL     OW18268   2.094   3.231   3.931
 5790SOL    HW118269   2.161   3.156   3.926
 5790SOL    HW218270   2.045   3.238   3.845
 5791SOL     OW18271   1.199   1.228   3.589
 5791SOL    HW118272   1.258   1.288   3.642
 5791SOL    HW218273   1.104   1.259   3.597
 5792SOL     OW18274   1.193   1.181   3.315
 5792SOL    HW118275   1.138   1.256   3.279
 5792SOL    HW218276   1.218   1.201   3.410
 5793SOL     OW18277   6.528   1.402   5.424
 5793SOL    HW118278   6.452   1.457   5.456
 5793SOL    HW218279   6.605   1.409   5.488
 5794SOL     OW18280   6.909   3.729   6.707
 5794SOL    HW118281   6.921   3.815   6.756
 5794SOL    HW218282   6.984   3.667   6.730
 5795SOL     OW18283   6.879   4.263   0.070
 5795SOL    HW118284   6.787   4.274   0.033
 5795SOL    HW218285   6.934   4.343   0.045
 5796SOL     OW18286   2.936   2.147   0.578
 5796SOL    HW118287   2.842   2.178   0.591
 5796SOL    HW218288   2.936   2.055   0.539
 5797SOL     OW18289   3.188   3.445   5.796
 5797SOL    HW118290   3.257   3.424   5.726
 5797SOL    HW218291   3.147   3.534   5.776
 5798SOL     OW18292   6.177   4.793   4.206
 5798SOL    HW118293   6.238   4.732   4.155
 5798SOL    HW218294   6.107   4.738   4.252
 5799SOL     OW18295   5.159   0.232   4.040
 5799SOL    HW118296   5.178   0.330   4.044
 5799SOL    HW218297   5.077   0.216   3.984
 5800SOL     OW18298   5.522   6.453   6.304
 5800SOL    HW118299   5.438   6.442   6.250
 5800SOL    HW218300   5.568   6.364   6.313
 5801SOL     OW18301   1.881   0.890   1.873
 5801SOL    HW118302   1.959   0.896   1.935
 5801SOL    HW218303   1.913   0.862   1.783
 5802SOL     OW18304   0.488   2.848   4.453
 5802SOL    HW118305   0.430   2.851   4.372
 5802SOL    HW218306   0.474   2.762   4.502
 5803SOL     OW18307   1.104   4.875   0.920
 5803SOL    HW118308   1.076   4.783   0.946
 5803SOL    HW218309   1.090   4.888   0.822
 5804SOL     OW18310   0.349   3.046   6.562
 5804SOL    HW118311   0.385   3.091   6.644
 5804SOL    HW218312   0.250   3.035   6.571
 5805SOL     OW18313   4.682   3.570   6.885
 5805SOL    HW118314   4.624   3.591   6.806
 5805SOL    HW218315   4.762   3.630   6.885
 5806SOL     OW18316   5.695   6.167   5.994
 5806SOL    HW118317   5.656   6.254   5.962
 5806SOL    HW218318   5.785   6.154   5.954
 5807SOL     OW18319   2.441   4.485   1.386
 5807SOL    HW118320   2.341   4.483   1.381
 5807SOL    HW218321   2.479   4.470   1.295
 5808SOL     OW18322   6.773   1.862   3.821
 5808SOL    HW118323   6.865   1.822   3.823
 5808SOL    HW218324   6.708   1.798   3.861
 5809SOL     OW18325   1.001   3.473   3.383
 5809SOL    HW118326   1.042   3.395   3.336
 5809SOL    HW218327   0.905   3.452   3.405
 5810SOL     OW18328   3.659   1.949   3.058
 5810SOL    HW118329   3.606   1.905   3.131
 5810SOL    HW218330   3.681   1.881   2.988
 5811SOL     OW18331   2.797   0.069   1.259
 5811SOL    HW118332   2.737   0.140   1.297
 5811SOL    HW218333   2.747   0.017   1.191
 5812SOL     OW18334   5.157   0.786   4.347
 5812SOL    HW118335   5.063   0.772   4.380
 5812SOL    HW218336   5.220   0.730   4.401
 5813SOL     OW18337   1.415   2.178   4.959
 5813SOL    HW118338   1.409   2.110   4.887
 5813SOL    HW218339   1.324   2.213   4.979
 5814SOL     OW18340   0.661   5.050   1.432
 5814SOL    HW118341   0.734   5.063   1.365
 5814SOL    HW218342   0.696   4.997   1.509
 5815SOL     OW18343   4.341   6.412   5.201
 5815SOL    HW118344   4.312   6.460   5.118
 5815SOL    HW218345   4.260   6.376   5.248
 5816SOL     OW18346   5.078   6.320   6.695
 5816SOL    HW118347   5.091   6.414   6.724
 5816SOL    HW218348   5.158   6.265   6.723
 5817SOL     OW18349   6.397   2.586   6.106
 5817SOL    HW118350   6.437   2.534   6.181
 5817SOL    HW218351   6.381   2.525   6.028
 5818SOL     OW18352   5.920   6.718   5.055
 5818SOL    HW118353   5.834   6.720   5.004
 5818SOL    HW218354   5.978   6.794   5.025
 5819SOL     OW18355   6.693   0.850   1.257
 5819SOL    HW118356   6.736   0.786   1.194
 5819SOL    HW218357   6.642   0.799   1.327
 5820SOL     OW18358   5.554   4.656   1.675
 5820SOL    HW118359   5.456   4.655   1.698
 5820SOL    HW218360   5.580   4.747   1.645
 5821SOL     OW18361   2.914   6.480   2.744
 5821SOL    HW118362   2.857   6.549   2.789
 5821SOL    HW218363   2.939   6.511   2.653
 5822SOL     OW18364   0.273   0.710   3.149
 5822SOL    HW118365   0.282   0.617   3.113
 5822SOL    HW218366   0.255   0.773   3.073
 5823SOL     OW18367   1.340   2.407   3.673
 5823SOL    HW118368   1.291   2.440   3.593
 5823SOL    HW218369   1.374   2.485   3.726
 5824SOL     OW18370   5.012   0.568   3.775
 5824SOL    HW118371   4.957   0.491   3.743
 5824SOL    HW218372   5.023   0.634   3.701
 5825SOL     OW18373   3.075   1.351   1.776
 5825SOL    HW118374   3.089   1.423   1.844
 5825SOL    HW218375   3.144   1.359   1.704
 5826SOL     OW18376   0.227   6.844   3.088
 5826SOL    HW118377   0.211   6.782   3.011
 5826SOL    HW218378   0.319   6.882   3.081
 5827SOL     OW18379   1.814   5.369   6.073
 5827SOL    HW118380   1.793   5.301   6.003
 5827SOL    HW218381   1.766   5.347   6.158
 5828SOL     OW18382   6.490   1.618   1.351
 5828SOL    HW118383   6.420   1.638   1.283
 5828SOL    HW218384   6.466   1.661   1.437
 5829SOL     OW18385   1.958   1.084   1.657
 5829SOL    HW118386   1.978   0.987   1.644
 5829SOL    HW218387   1.859   1.096   1.670
 5830SOL     OW18388   1.260   1.001   5.956
 5830SOL    HW118389   1.317   0.972   6.033
 5830SOL    HW218390   1.227   0.920   5.907
 5831SOL     OW18391   5.851   5.612   2.760
 5831SOL    HW118392   5.811   5.553   2.690
 5831SOL    HW218393   5.786   5.622   2.836
 5832SOL     OW18394   3.837   3.453   4.363
 5832SOL    HW118395   3.812   3.527   4.301
 5832SOL    HW218396   3.816   3.480   4.457
 5833SOL     OW18397   3.121   3.016   4.375
 5833SOL    HW118398   3.209   2.970   4.390
 5833SOL    HW218399   3.069   3.017   4.459
 5834SOL     OW18400   5.644   1.392   6.296
 5834SOL    HW118401   5.625   1.337   6.214
 5834SOL    HW218402   5.686   1.478   6.269
 5835SOL     OW18403   5.518   2.746   4.191
 5835SOL    HW118404   5.465   2.784   4.115
 5835SOL    HW218405   5.579   2.816   4.227
 5836SOL     OW18406   3.759   6.864   4.010
 5836SOL    HW118407   3.848   6.830   4.042
 5836SOL    HW218408   3.765   6.884   3.912
 5837SOL     OW18409   3.948   4.375   6.911
 5837SOL    HW118410   4.010   4.309   6.954
 5837SOL    HW218411   3.853   4.350   6.934
 5838SOL     OW18412   0.738   1.364   5.810
 5838SOL    HW118413   0.825   1.366   5.859
 5838SOL    HW218414   0.678   1.295   5.851
 5839SOL     OW18415   0.226   2.703   2.193
 5839SOL    HW118416   0.137   2.746   2.180
 5839SOL    HW218417   0.226   2.612   2.150
 5840SOL     OW18418   3.148   5.536   0.392
 5840SOL    HW118419   3.179   5.546   0.298
 5840SOL    HW218420   3.107   5.622   0.424
 5841SOL     OW18421   6.331   2.384   3.260
 5841SOL    HW118422   6.277   2.324   3.319
 5841SOL    HW218423   6.413   2.413   3.308
 5842SOL     OW18424   3.855   2.516   1.046
 5842SOL    HW118425   3.908   2.552   1.123
 5842SOL    HW218426   3.758   2.536   1.060
 5843SOL     OW18427   0.313   1.911   1.668
 5843SOL    HW118428   0.334   1.831   1.724
 5843SOL    HW218429   0.379   1.917   1.593
 5844SOL     OW18430   1.655   6.320   6.272
 5844SOL    HW118431   1.609   6.233   6.253
 5844SOL    HW218432   1.625   6.389   6.205
 5845SOL     OW18433   2.353   2.813   4.262
 5845SOL    HW118434   2.337   2.755   4.341
 5845SOL    HW218435   2.398   2.897   4.290
 5846SOL     OW18436   0.344   3.445   6.776
 5846SOL    HW118437   0.346   3.415   6.871
 5846SOL    HW218438   0.264   3.405   6.730
 5847SOL     OW18439   1.473   2.370   4.139
 5847SOL    HW118440   1.566   2.386   4.172
 5847SOL    HW218441   1.476   2.302   4.065
 5848SOL     OW18442   1.056   4.682   3.373
 5848SOL    HW118443   1.064   4.755   3.441
 5848SOL    HW218444   1.132   4.688   3.309
 5849SOL     OW18445   2.058   0.327   5.711
 5849SOL    HW118446   2.130   0.261   5.690
 5849SOL    HW218447   1.997   0.287   5.780
 5850SOL     OW18448   1.132   5.182   3.085
 5850SOL    HW118449   1.190   5.101   3.097
 5850SOL    HW218450   1.184   5.253   3.036
 5851SOL     OW18451   6.944   3.418   1.693
 5851SOL    HW118452   6.954   3.503   1.642
 5851SOL    HW218453   6.969   3.433   1.789
 5852SOL     OW18454   3.901   6.303   2.466
 5852SOL    HW118455   3.882   6.208   2.442
 5852SOL    HW218456   3.845   6.330   2.544
 5853SOL     OW18457   5.062   3.975   5.087
 5853SOL    HW118458   4.975   4.005   5.047
 5853SOL    HW218459   5.126   4.052   5.089
 5854SOL     OW18460   1.458   1.040   6.763
 5854SOL    HW118461   1.426   1.085   6.680
 5854SOL    HW218462   1.381   0.992   6.806
 5855SOL     OW18463   1.856   2.012   5.275
 5855SOL    HW118464   1.948   2.013   5.235
 5855SOL    HW218465   1.790   2.044   5.207
 5856SOL     OW18466   0.927   6.695   3.268
 5856SOL    HW118467   0.839   6.650   3.284
 5856SOL    HW218468   0.985   6.684   3.348
 5857SOL     OW18469   0.639   2.372   5.345
 5857SOL    HW118470   0.704   2.353   5.271
 5857SOL    HW218471   0.641   2.297   5.411
 5858SOL     OW18472   3.122   0.336   3.889
 5858SOL    HW118473   3.136   0.364   3.984
 5858SOL    HW218474   3.204   0.290   3.855
 5859SOL     OW18475   5.702   5.049   1.921
 5859SOL    HW118476   5.685   5.115   1.847
 5859SOL    HW218477   5.797   5.017   1.917
 5860SOL     OW18478   6.839   4.529   0.328
 5860SOL    HW118479   6.752   4.480   0.324
 5860SOL    HW218480   6.870   4.549   0.236
 5861SOL     OW18481   6.353   2.211   4.386
 5861SOL    HW118482   6.308   2.299   4.396
 5861SOL    HW218483   6.452   2.224   4.384
 5862SOL     OW18484   6.168   5.357   4.485
 5862SOL    HW118485   6.151   5.454   4.466
 5862SOL    HW218486   6.210   5.315   4.404
 5863SOL     OW18487   1.662   1.540   0.642
 5863SOL    HW118488   1.750   1.543   0.594
 5863SOL    HW218489   1.623   1.632   0.645
 5864SOL     OW18490   4.852   5.243   0.325
 5864SOL    HW118491   4.773   5.300   0.347
 5864SOL    HW218492   4.849   5.218   0.229
 5865SOL     OW18493   4.449   0.130   3.230
 5865SOL    HW118494   4.548   0.143   3.226
 5865SOL    HW218495   4.424   0.052   3.173
 5866SOL     OW18496   3.627   2.055   6.605
 5866SOL    HW118497   3.688   2.027   6.532
 5866SOL    HW218498   3.582   1.974   6.643
 5867SOL     OW18499   6.633   2.784   2.100
 5867SOL    HW118500   6.586   2.701   2.070
 5867SOL    HW218501   6.670   2.832   2.020
 5868SOL     OW18502   0.178   6.216   5.516
 5868SOL    HW118503   0.095   6.266   5.542
 5868SOL    HW218504   0.157   6.119   5.509
 5869SOL     OW18505   2.392   5.194   4.820
 5869SOL    HW118506   2.394   5.282   4.867
 5869SOL    HW218507   2.344   5.205   4.732
 5870SOL     OW18508   5.694   6.022   4.142
 5870SOL    HW118509   5.610   6.063   4.105
 5870SOL    HW218510   5.704   6.049   4.237
 5871SOL     OW18511   3.503   4.624   0.854
 5871SOL    HW118512   3.512   4.698   0.920
 5871SOL    HW218513   3.591   4.578   0.842
 5872SOL     OW18514   4.163   5.827   3.816
 5872SOL    HW118515   4.255   5.836   3.852
 5872SOL    HW218516   4.162   5.852   3.719
 5873SOL     OW18517   2.156   3.316   1.003
 5873SOL    HW118518   2.147   3.277   1.094
 5873SOL    HW218519   2.250   3.306   0.970
 5874SOL     OW18520   0.570   4.466   6.045
 5874SOL    HW118521   0.487   4.484   6.097
 5874SOL    HW218522   0.550   4.471   5.947
 5875SOL     OW18523   4.108   2.434   1.479
 5875SOL    HW118524   4.075   2.524   1.505
 5875SOL    HW218525   4.133   2.382   1.561
 5876SOL     OW18526   3.993   4.480   6.049
 5876SOL    HW118527   3.970   4.526   5.963
 5876SOL    HW218528   3.933   4.512   6.121
 5877SOL     OW18529   5.829   6.135   3.068
 5877SOL    HW118530   5.864   6.223   3.036
 5877SOL    HW218531   5.804   6.078   2.989
 5878SOL     OW18532   4.818   3.850   2.865
 5878SOL    HW118533   4.785   3.938   2.898
 5878SOL    HW218534   4.916   3.842   2.880
 5879SOL     OW18535   3.257   4.644   5.672
 5879SOL    HW118536   3.190   4.689   5.614
 5879SOL    HW218537   3.230   4.549   5.687
 5880SOL     OW18538   5.900   2.259   0.617
 5880SOL    HW118539   5.943   2.336   0.570
 5880SOL    HW218540   5.818   2.230   0.567
 5881SOL     OW18541   0.861   6.238   3.682
 5881SOL    HW118542   0.805   6.272   3.606
 5881SOL    HW218543   0.807   6.239   3.766
 5882SOL     OW18544   1.043   5.875   4.773
 5882SOL    HW118545   1.002   5.819   4.845
 5882SOL    HW218546   1.127   5.831   4.740
 5883SOL     OW18547   0.180   5.582   0.060
 5883SOL    HW118548   0.106   5.639   0.096
 5883SOL    HW218549   0.258   5.587   0.122
 5884SOL     OW18550   0.917   0.936   1.429
 5884SOL    HW118551   0.824   0.972   1.426
 5884SOL    HW218552   0.921   0.859   1.493
 5885SOL     OW18553   6.646   5.697   1.816
 5885SOL    HW118554   6.628   5.632   1.890
 5885SOL    HW218555   6.678   5.783   1.855
 5886SOL     OW18556   1.707   4.380   3.133
 5886SOL    HW118557   1.753   4.307   3.183
 5886SOL    HW218558   1.667   4.344   3.049
 5887SOL     OW18559   2.179   3.659   1.565
 5887SOL    HW118560   2.249   3.654   1.637
 5887SOL    HW218561   2.166   3.569   1.524
 5888SOL     OW18562   3.255   6.270   1.939
 5888SOL    HW118563   3.268   6.260   1.840
 5888SOL    HW218564   3.159   6.292   1.958
 5889SOL     OW18565   4.585   0.980   1.551
 5889SOL    HW118566   4.642   1.062   1.550
 5889SOL    HW218567   4.643   0.899   1.559
 5890SOL     OW18568   2.524   4.956   3.281
 5890SOL    HW118569   2.503   5.036   3.225
 5890SOL    HW218570   2.621   4.957   3.306
 5891SOL     OW18571   2.187   2.987   6.795
 5891SOL    HW118572   2.167   3.082   6.771
 5891SOL    HW218573   2.167   2.972   6.892
 5892SOL     OW18574   0.650   2.337   1.630
 5892SOL    HW118575   0.703   2.308   1.550
 5892SOL    HW218576   0.656   2.267   1.701
 5893SOL     OW18577   6.994   6.463   1.254
 5893SOL    HW118578   0.054   6.413   1.287
 5893SOL    HW218579   7.013   6.561   1.255
 5894SOL     OW18580   3.127   5.445   0.019
 5894SOL    HW118581   3.176   5.416   6.956
 5894SOL    HW218582   3.034   5.473   7.013
 5895SOL     OW18583   6.183   2.556   4.173
 5895SOL    HW118584   6.132   2.578   4.256
 5895SOL    HW218585   6.264   2.502   4.197
 5896SOL     OW18586   5.653   2.440   0.718
 5896SOL    HW118587   5.693   2.350   0.739
 5896SOL    HW218588   5.626   2.443   0.622
 5897SOL     OW18589   3.242   3.697   0.131
 5897SOL    HW118590   3.283   3.680   0.221
 5897SOL    HW218591   3.150   3.660   0.129
 5898SOL     OW18592   4.057   0.472   6.999
 5898SOL    HW118593   3.969   0.457   0.024
 5898SOL    HW218594   4.045   0.470   6.900
 5899SOL     OW18595   0.170   0.197   0.680
 5899SOL    HW118596   0.072   0.180   0.688
 5899SOL    HW218597   0.185   0.294   0.659
 5900SOL     OW18598   5.402   5.918   2.246
 5900SOL    HW118599   5.320   5.898   2.299
 5900SOL    HW218600   5.377   5.962   2.160
 5901SOL     OW18601   1.162   0.361   4.800
 5901SOL    HW118602   1.261   0.370   4.798
 5901SOL    HW218603   1.137   0.267   4.776
 5902SOL     OW18604   4.282   3.852   5.802
 5902SOL    HW118605   4.240   3.767   5.771
 5902SOL    HW218606   4.217   3.903   5.858
 5903SOL     OW18607   5.346   1.012   6.448
 5903SOL    HW118608   5.334   0.927   6.397
 5903SOL    HW218609   5.262   1.066   6.444
 5904SOL     OW18610   6.975   5.656   1.260
 5904SOL    HW118611   6.957   5.592   1.335
 5904SOL    HW218612   6.899   5.654   1.196
 5905SOL     OW18613   6.689   1.977   4.815
 5905SOL    HW118614   6.658   1.966   4.721
 5905SOL    HW218615   6.636   2.048   4.860
 5906SOL     OW18616   4.206   0.349   4.599
 5906SOL    HW118617   4.136   0.319   4.664
 5906SOL    HW218618   4.164   0.362   4.509
 5907SOL     OW18619   1.241   3.547   5.844
 5907SOL    HW118620   1.169   3.600   5.801
 5907SOL    HW218621   1.330   3.573   5.805
 5908SOL     OW18622   4.793   3.006   6.757
 5908SOL    HW118623   4.862   2.933   6.759
 5908SOL    HW218624   4.809   3.069   6.834
 5909SOL     OW18625   6.921   5.046   3.099
 5909SOL    HW118626   7.013   5.041   3.137
 5909SOL    HW218627   6.855   5.056   3.173
 5910SOL     OW18628   2.064   4.213   2.525
 5910SOL    HW118629   2.152   4.178   2.557
 5910SOL    HW218630   2.005   4.233   2.603
 5911SOL     OW18631   0.060   1.207   5.092
 5911SOL    HW118632   0.087   1.118   5.056
 5911SOL    HW218633   0.044   1.199   5.190
 5912SOL     OW18634   0.829   3.645   5.909
 5912SOL    HW118635   0.743   3.628   5.860
 5912SOL    HW218636   0.898   3.676   5.843
 5913SOL     OW18637   1.679   3.003   5.019
 5913SOL    HW118638   1.776   3.005   5.042
 5913SOL    HW218639   1.666   2.948   4.937
 5914SOL     OW18640   1.053   5.706   0.262
 5914SOL    HW118641   1.066   5.638   0.190
 5914SOL    HW218642   1.053   5.660   0.351
 5915SOL     OW18643   5.844   4.206   4.916
 5915SOL    HW118644   5.872   4.149   4.839
 5915SOL    HW218645   5.745   4.201   4.927
 5916SOL     OW18646   3.687   0.763   6.946
 5916SOL    HW118647   3.713   0.732   0.017
 5916SOL    HW218648   3.738   0.711   6.877
 5917SOL     OW18649   3.404   3.608   1.787
 5917SOL    HW118650   3.449   3.654   1.864
 5917SOL    HW218651   3.473   3.566   1.728
 5918SOL     OW18652   3.307   2.079   3.949
 5918SOL    HW118653   3.382   2.020   3.979
 5918SOL    HW218654   3.335   2.128   3.867
 5919SOL     OW18655   1.471   1.464   6.123
 5919SOL    HW118656   1.568   1.465   6.101
 5919SOL    HW218657   1.438   1.370   6.124
 5920SOL     OW18658   2.270   3.814   6.650
 5920SOL    HW118659   2.235   3.893   6.601
 5920SOL    HW218660   2.300   3.842   6.741
 5921SOL     OW18661   3.580   6.625   4.093
 5921SOL    HW118662   3.601   6.589   4.184
 5921SOL    HW218663   3.640   6.702   4.073
 5922SOL     OW18664   6.551   5.390   2.154
 5922SOL    HW118665   6.471   5.332   2.171
 5922SOL    HW218666   6.632   5.332   2.146
 5923SOL     OW18667   1.187   7.001   3.075
 5923SOL    HW118668   1.261   6.974   3.014
 5923SOL    HW218669   1.220   7.001   3.169
 5924SOL     OW18670   5.940   2.390   4.657
 5924SOL    HW118671   5.896   2.320   4.714
 5924SOL    HW218672   5.961   2.470   4.714
 5925SOL     OW18673   6.420   6.514   1.095
 5925SOL    HW118674   6.389   6.585   1.033
 5925SOL    HW218675   6.491   6.550   1.156
 5926SOL     OW18676   2.887   6.972   2.046
 5926SOL    HW118677   2.851   6.968   2.139
 5926SOL    HW218678   2.952   0.028   2.038
 5927SOL     OW18679   1.797   5.365   1.173
 5927SOL    HW118680   1.804   5.398   1.079
 5927SOL    HW218681   1.735   5.424   1.225
 5928SOL     OW18682   5.951   6.323   0.981
 5928SOL    HW118683   5.990   6.267   1.053
 5928SOL    HW218684   5.968   6.420   1.001
 5929SOL     OW18685   0.400   0.399   6.380
 5929SOL    HW118686   0.443   0.366   6.296
 5929SOL    HW218687   0.356   0.323   6.427
 5930SOL     OW18688   6.760   1.671   4.723
 5930SOL    HW118689   6.710   1.588   4.751
 5930SOL    HW218690   6.746   1.742   4.792
 5931SOL     OW18691   6.081   4.423   0.569
 5931SOL    HW118692   5.983   4.435   0.553
 5931SOL    HW218693   6.100   4.426   0.667
 5932SOL     OW18694   2.246   0.582   0.837
 5932SOL    HW118695   2.280   0.631   0.918
 5932SOL    HW218696   2.316   0.516   0.807
 5933SOL     OW18697   5.521   2.679   3.183
 5933SOL    HW118698   5.544   2.769   3.145
 5933SOL    HW218699   5.586   2.611   3.151
 5934SOL     OW18700   4.182   3.449   1.814
 5934SOL    HW118701   4.256   3.404   1.863
 5934SOL    HW218702   4.154   3.531   1.863
 5935SOL     OW18703   3.832   3.359   2.886
 5935SOL    HW118704   3.795   3.321   2.971
 5935SOL    HW218705   3.932   3.357   2.890
 5936SOL     OW18706   6.585   5.734   0.069
 5936SOL    HW118707   6.513   5.798   0.096
 5936SOL    HW218708   6.637   5.773   7.013
 5937SOL     OW18709   0.972   3.551   1.216
 5937SOL    HW118710   0.874   3.558   1.236
 5937SOL    HW218711   1.000   3.455   1.224
 5938SOL     OW18712   3.067   5.182   1.383
 5938SOL    HW118713   3.129   5.181   1.304
 5938SOL    HW218714   3.106   5.126   1.456
 5939SOL     OW18715   0.512   0.281   2.313
 5939SOL    HW118716   0.555   0.367   2.342
 5939SOL    HW218717   0.574   0.205   2.332
 5940SOL     OW18718   4.361   4.729   2.715
 5940SOL    HW118719   4.431   4.798   2.727
 5940SOL    HW218720   4.348   4.710   2.617
 5941SOL     OW18721   6.380   2.913   4.051
 5941SOL    HW118722   6.448   2.850   4.089
 5941SOL    HW218723   6.296   2.908   4.105
 5942SOL     OW18724   0.302   1.906   5.199
 5942SOL    HW118725   0.258   1.859   5.123
 5942SOL    HW218726   0.400   1.913   5.182
 5943SOL     OW18727   1.732   6.273   1.144
 5943SOL    HW118728   1.699   6.198   1.087
 5943SOL    HW218729   1.703   6.361   1.105
 5944SOL     OW18730   5.046   2.858   2.976
 5944SOL    HW118731   5.091   2.879   2.889
 5944SOL    HW218732   4.978   2.785   2.962
 5945SOL     OW18733   6.338   6.199   6.318
 5945SOL    HW118734   6.419   6.151   6.284
 5945SOL    HW218735   6.270   6.206   6.245
 5946SOL     OW18736   3.968   2.112   5.443
 5946SOL    HW118737   3.916   2.187   5.484
 5946SOL    HW218738   3.991   2.045   5.514
 5947SOL     OW18739   5.834   4.027   3.175
 5947SOL    HW118740   5.740   3.998   3.154
 5947SOL    HW218741   5.836   4.126   3.190
 5948SOL     OW18742   2.426   5.671   3.147
 5948SOL    HW118743   2.519   5.641   3.168
 5948SOL    HW218744   2.372   5.673   3.231
 5949SOL     OW18745   5.129   3.917   3.147
 5949SOL    HW118746   5.123   3.875   3.057
 5949SOL    HW218747   5.037   3.946   3.176
 5950SOL     OW18748   0.635   1.924   5.159
 5950SOL    HW118749   0.592   2.015   5.158
 5950SOL    HW218750   0.633   1.888   5.253
 5951SOL     OW18751   2.133   0.500   3.187
 5951SOL    HW118752   2.117   0.411   3.231
 5951SOL    HW218753   2.046   0.547   3.173
 5952SOL     OW18754   6.829   6.607   4.420
 5952SOL    HW118755   6.886   6.534   4.381
 5952SOL    HW218756   6.787   6.576   4.504
 5953SOL     OW18757   1.388   4.031   5.888
 5953SOL    HW118758   1.418   3.992   5.975
 5953SOL    HW218759   1.452   4.005   5.816
 5954SOL     OW18760   1.301   4.212   6.408
 5954SOL    HW118761   1.372   4.280   6.391
 5954SOL    HW218762   1.331   4.150   6.480
 5955SOL     OW18763   3.489   5.302   2.120
 5955SOL    HW118764   3.483   5.274   2.024
 5955SOL    HW218765   3.496   5.401   2.126
 5956SOL     OW18766   0.438   1.521   1.014
 5956SOL    HW118767   0.437   1.488   0.920
 5956SOL    HW218768   0.470   1.615   1.016
 5957SOL     OW18769   3.921   6.746   6.378
 5957SOL    HW118770   3.953   6.811   6.447
 5957SOL    HW218771   3.931   6.786   6.287
 5958SOL     OW18772   0.816   5.928   2.297
 5958SOL    HW118773   0.900   5.973   2.326
 5958SOL    HW218774   0.822   5.904   2.200
 5959SOL     OW18775   1.500   0.432   5.546
 5959SOL    HW118776   1.432   0.506   5.537
 5959SOL    HW218777   1.463   0.348   5.507
 5960SOL     OW18778   3.286   6.017   5.328
 5960SOL    HW118779   3.218   6.036   5.257
 5960SOL    HW218780   3.335   6.101   5.351
 5961SOL     OW18781   3.217   0.621   5.061
 5961SOL    HW118782   3.270   0.560   5.003
 5961SOL    HW218783   3.257   0.713   5.059
 5962SOL     OW18784   5.516   4.202   3.436
 5962SOL    HW118785   5.420   4.230   3.429
 5962SOL    HW218786   5.527   4.111   3.398
 5963SOL     OW18787   4.190   3.972   1.759
 5963SOL    HW118788   4.112   4.032   1.742
 5963SOL    HW218789   4.248   4.012   1.830
 5964SOL     OW18790   1.509   3.411   5.010
 5964SOL    HW118791   1.449   3.428   4.932
 5964SOL    HW218792   1.496   3.317   5.042
 5965SOL     OW18793   2.222   2.361   4.599
 5965SOL    HW118794   2.171   2.442   4.627
 5965SOL    HW218795   2.281   2.331   4.673
 5966SOL     OW18796   1.309   5.433   4.086
 5966SOL    HW118797   1.219   5.453   4.124
 5966SOL    HW218798   1.347   5.516   4.045
 5967SOL     OW18799   5.059   5.726   0.902
 5967SOL    HW118800   5.002   5.645   0.888
 5967SOL    HW218801   5.155   5.699   0.907
 5968SOL     OW18802   2.241   1.990   4.462
 5968SOL    HW118803   2.330   2.035   4.451
 5968SOL    HW218804   2.233   1.915   4.396
 5969SOL     OW18805   0.683   2.438   2.977
 5969SOL    HW118806   0.744   2.511   2.947
 5969SOL    HW218807   0.716   2.398   3.062
 5970SOL     OW18808   1.828   4.159   3.219
 5970SOL    HW118809   1.778   4.109   3.148
 5970SOL    HW218810   1.795   4.131   3.309
 5971SOL     OW18811   3.201   5.618   3.520
 5971SOL    HW118812   3.137   5.611   3.596
 5971SOL    HW218813   3.285   5.663   3.551
 5972SOL     OW18814   4.904   6.978   1.480
 5972SOL    HW118815   4.819   0.010   1.489
 5972SOL    HW218816   4.891   6.886   1.515
 5973SOL     OW18817   2.806   4.754   3.421
 5973SOL    HW118818   2.840   4.685   3.484
 5973SOL    HW218819   2.756   4.710   3.346
 5974SOL     OW18820   0.757   4.002   6.540
 5974SOL    HW118821   0.841   4.022   6.490
 5974SOL    HW218822   0.680   4.047   6.495
 5975SOL     OW18823   1.976   2.762   6.706
 5975SOL    HW118824   2.067   2.727   6.727
 5975SOL    HW218825   1.910   2.726   6.772
 5976SOL     OW18826   3.234   4.109   4.184
 5976SOL    HW118827   3.225   4.199   4.226
 5976SOL    HW218828   3.205   4.039   4.250
 5977SOL     OW18829   0.394   3.757   2.922
 5977SOL    HW118830   0.325   3.739   2.852
 5977SOL    HW218831   0.480   3.781   2.878
 5978SOL     OW18832   5.292   5.067   1.136
 5978SOL    HW118833   5.307   5.065   1.037
 5978SOL    HW218834   5.221   5.001   1.160
 5979SOL     OW18835   1.217   1.118   1.806
 5979SOL    HW118836   1.284   1.131   1.879
 5979SOL    HW218837   1.128   1.095   1.846
 5980SOL     OW18838   5.768   2.776   4.960
 5980SOL    HW118839   5.782   2.847   4.891
 5980SOL    HW218840   5.674   2.778   4.993
 5981SOL     OW18841   3.485   2.087   0.762
 5981SOL    HW118842   3.422   2.093   0.839
 5981SOL    HW218843   3.542   2.169   0.760
 5982SOL     OW18844   6.120   2.719   6.636
 5982SOL    HW118845   6.102   2.803   6.688
 5982SOL    HW218846   6.154   2.648   6.698
 5983SOL     OW18847   0.124   1.022   4.168
 5983SOL    HW118848   0.208   0.996   4.120
 5983SOL    HW218849   0.045   1.003   4.110
 5984SOL     OW18850   0.151   0.175   6.277
 5984SOL    HW118851   0.165   0.171   6.178
 5984SOL    HW218852   0.130   0.082   6.310
 5985SOL     OW18853   5.975   3.536   3.828
 5985SOL    HW118854   5.956   3.552   3.731
 5985SOL    HW218855   5.978   3.438   3.846
 5986SOL     OW18856   3.378   3.599   2.192
 5986SOL    HW118857   3.366   3.648   2.279
 5986SOL    HW218858   3.348   3.504   2.204
 5987SOL     OW18859   3.987   0.177   5.061
 5987SOL    HW118860   4.003   0.248   5.129
 5987SOL    HW218861   3.888   0.162   5.052
 5988SOL     OW18862   2.922   6.792   5.772
 5988SOL    HW118863   2.994   6.757   5.833
 5988SOL    HW218864   2.950   6.879   5.733
 5989SOL     OW18865   3.333   1.496   6.566
 5989SOL    HW118866   3.344   1.405   6.608
 5989SOL    HW218867   3.241   1.530   6.586
 5990SOL     OW18868   2.545   6.238   3.228
 5990SOL    HW118869   2.494   6.196   3.302
 5990SOL    HW218870   2.587   6.323   3.260
 5991SOL     OW18871   4.136   4.760   2.869
 5991SOL    HW118872   4.217   4.762   2.811
 5991SOL    HW218873   4.054   4.773   2.813
 5992SOL     OW18874   3.813   1.797   4.041
 5992SOL    HW118875   3.742   1.806   4.111
 5992SOL    HW218876   3.777   1.833   3.954
 5993SOL     OW18877   2.732   5.668   4.116
 5993SOL    HW118878   2.672   5.589   4.130
 5993SOL    HW218879   2.747   5.714   4.204
 5994SOL     OW18880   6.323   2.292   0.760
 5994SOL    HW118881   6.376   2.335   0.687
 5994SOL    HW218882   6.369   2.305   0.848
 5995SOL     OW18883   0.398   3.815   1.743
 5995SOL    HW118884   0.321   3.797   1.805
 5995SOL    HW218885   0.373   3.888   1.679
 5996SOL     OW18886   1.440   6.084   5.907
 5996SOL    HW118887   1.376   6.015   5.940
 5996SOL    HW218888   1.401   6.131   5.828
 5997SOL     OW18889   0.252   0.241   1.603
 5997SOL    HW118890   0.236   0.300   1.524
 5997SOL    HW218891   0.202   0.276   1.682
 5998SOL     OW18892   5.010   3.639   3.054
 5998SOL    HW118893   4.959   3.603   2.976
 5998SOL    HW218894   4.947   3.665   3.126
 5999SOL     OW18895   2.178   3.107   3.118
 5999SOL    HW118896   2.103   3.071   3.062
 5999SOL    HW218897   2.188   3.051   3.201
 6000SOL     OW18898   5.296   1.197   3.677
 6000SOL    HW118899   5.282   1.284   3.723
 6000SOL    HW218900   5.269   1.122   3.738
 6001SOL     OW18901   4.906   1.273   0.049
 6001SOL    HW118902   4.983   1.337   0.046
 6001SOL    HW218903   4.865   1.266   6.978
 6002SOL     OW18904   2.132   0.096   2.054
 6002SOL    HW118905   2.175   0.187   2.048
 6002SOL    HW218906   2.073   0.082   1.975
 6003SOL     OW18907   5.201   4.631   3.622
 6003SOL    HW118908   5.292   4.591   3.617
 6003SOL    HW218909   5.171   4.633   3.717
 6004SOL     OW18910   0.686   3.477   2.041
 6004SOL    HW118911   0.720   3.386   2.022
 6004SOL    HW218912   0.747   3.524   2.105
 6005SOL     OW18913   2.213   6.498   2.176
 6005SOL    HW118914   2.237   6.595   2.187
 6005SOL    HW218915   2.266   6.444   2.241
 6006SOL     OW18916   2.173   6.417   6.301
 6006SOL    HW118917   2.156   6.515   6.301
 6006SOL    HW218918   2.101   6.370   6.352
 6007SOL     OW18919   5.530   3.781   4.563
 6007SOL    HW118920   5.522   3.753   4.659
 6007SOL    HW218921   5.617   3.830   4.551
 6008SOL     OW18922   5.345   3.862   2.020
 6008SOL    HW118923   5.295   3.802   2.083
 6008SOL    HW218924   5.437   3.877   2.055
 6009SOL     OW18925   3.378   1.587   4.802
 6009SOL    HW118926   3.322   1.510   4.769
 6009SOL    HW218927   3.326   1.672   4.792
 6010SOL     OW18928   1.887   5.095   3.473
 6010SOL    HW118929   1.921   5.122   3.564
 6010SOL    HW218930   1.864   4.998   3.474
 6011SOL     OW18931   6.570   2.424   1.453
 6011SOL    HW118932   6.603   2.332   1.475
 6011SOL    HW218933   6.527   2.464   1.533
 6012SOL     OW18934   0.555   2.404   0.809
 6012SOL    HW118935   0.540   2.374   0.715
 6012SOL    HW218936   0.580   2.325   0.866
 6013SOL     OW18937   5.372   1.132   2.396
 6013SOL    HW118938   5.305   1.147   2.468
 6013SOL    HW218939   5.464   1.129   2.435
 6014SOL     OW18940   6.032   1.668   0.220
 6014SOL    HW118941   5.981   1.746   0.183
 6014SOL    HW218942   5.978   1.625   0.292
 6015SOL     OW18943   6.047   6.692   4.312
 6015SOL    HW118944   6.071   6.772   4.257
 6015SOL    HW218945   6.075   6.707   4.407
 6016SOL     OW18946   1.037   0.076   5.499
 6016SOL    HW118947   0.980   0.052   5.578
 6016SOL    HW218948   1.048   7.015   5.441
 6017SOL     OW18949   0.146   3.530   2.328
 6017SOL    HW118950   0.200   3.557   2.248
 6017SOL    HW218951   0.167   3.591   2.404
 6018SOL     OW18952   3.303   4.827   1.999
 6018SOL    HW118953   3.258   4.769   1.931
 6018SOL    HW218954   3.402   4.814   1.993
 6019SOL     OW18955   0.016   6.856   3.843
 6019SOL    HW118956   0.014   6.781   3.908
 6019SOL    HW218957   6.944   6.871   3.806
 6020SOL     OW18958   2.783   6.617   3.071
 6020SOL    HW118959   2.751   6.630   2.978
 6020SOL    HW218960   2.835   6.698   3.101
 6021SOL     OW18961   3.004   1.049   3.446
 6021SOL    HW118962   2.960   1.091   3.367
 6021SOL    HW218963   2.939   0.991   3.495
 6022SOL     OW18964   3.508   1.889   6.003
 6022SOL    HW118965   3.607   1.882   6.009
 6022SOL    HW218966   3.476   1.835   5.925
 6023SOL     OW18967   0.521   1.952   2.014
 6023SOL    HW118968   0.425   1.937   1.989
 6023SOL    HW218969   0.580   1.928   1.936
 6024SOL     OW18970   5.899   4.580   2.033
 6024SOL    HW118971   5.981   4.576   1.977
 6024SOL    HW218972   5.925   4.590   2.129
 6025SOL     OW18973   4.641   2.565   2.315
 6025SOL    HW118974   4.733   2.527   2.304
 6025SOL    HW218975   4.644   2.664   2.296
 6026SOL     OW18976   1.124   4.189   5.412
 6026SOL    HW118977   1.034   4.173   5.371
 6026SOL    HW218978   1.129   4.283   5.445
 6027SOL     OW18979   3.994   4.210   0.346
 6027SOL    HW118980   3.972   4.149   0.423
 6027SOL    HW218981   3.915   4.216   0.285
 6028SOL     OW18982   1.059   3.984   5.628
 6028SOL    HW118983   1.097   4.031   5.549
 6028SOL    HW218984   1.077   4.037   5.711
 6029SOL     OW18985   1.179   5.034   1.351
 6029SOL    HW118986   1.273   5.064   1.366
 6029SOL    HW218987   1.145   5.072   1.265
 6030SOL     OW18988   1.873   6.483   1.771
 6030SOL    HW118989   1.792   6.507   1.825
 6030SOL    HW218990   1.877   6.384   1.759
 6031SOL     OW18991   4.459   0.810   4.632
 6031SOL    HW118992   4.462   0.861   4.546
 6031SOL    HW218993   4.514   0.857   4.701
 6032SOL     OW18994   1.340   2.387   2.152
 6032SOL    HW118995   1.322   2.347   2.062
 6032SOL    HW218996   1.288   2.471   2.163
 6033SOL     OW18997   0.061   0.012   4.357
 6033SOL    HW118998   0.124   6.976   4.411
 6033SOL    HW218999   0.037   6.982   4.273
 6034SOL     OW19000   2.818   4.838   4.493
 6034SOL    HW119001   2.918   4.848   4.500
 6034SOL    HW219002   2.775   4.883   4.571
 6035SOL     OW19003   4.928   0.224   3.900
 6035SOL    HW119004   4.949   0.277   3.818
 6035SOL    HW219005   4.849   0.263   3.946
 6036SOL     OW19006   5.396   1.053   5.553
 6036SOL    HW119007   5.340   0.971   5.553
 6036SOL    HW219008   5.345   1.128   5.510
 6037SOL     OW19009   0.043   5.163   4.704
 6037SOL    HW119010   0.112   5.112   4.756
 6037SOL    HW219011   0.041   5.130   4.610
 6038SOL     OW19012   0.084   3.300   6.725
 6038SOL    HW119013   0.090   3.207   6.688
 6038SOL    HW219014   0.043   3.297   6.816
 6039SOL     OW19015   3.201   3.544   3.728
 6039SOL    HW119016   3.122   3.601   3.706
 6039SOL    HW219017   3.251   3.522   3.644
 6040SOL     OW19018   1.469   1.027   0.893
 6040SOL    HW119019   1.468   0.973   0.810
 6040SOL    HW219020   1.532   1.104   0.882
 6041SOL     OW19021   0.819   3.092   6.368
 6041SOL    HW119022   0.843   3.035   6.447
 6041SOL    HW219023   0.815   3.188   6.396
 6042SOL     OW19024   5.670   5.870   5.053
 6042SOL    HW119025   5.580   5.912   5.066
 6042SOL    HW219026   5.737   5.942   5.031
 6043SOL     OW19027   6.654   4.638   3.197
 6043SOL    HW119028   6.716   4.560   3.203
 6043SOL    HW219029   6.641   4.663   3.101
 6044SOL     OW19030   1.359   0.907   0.665
 6044SOL    HW119031   1.349   0.869   0.573
 6044SOL    HW219032   1.326   0.841   0.732
 6045SOL     OW19033   6.125   3.649   6.552
 6045SOL    HW119034   6.209   3.661   6.499
 6045SOL    HW219035   6.107   3.731   6.607
 6046SOL     OW19036   1.042   3.745   0.132
 6046SOL    HW119037   0.960   3.694   0.158
 6046SOL    HW219038   1.022   3.843   0.133
 6047SOL     OW19039   0.962   6.365   4.985
 6047SOL    HW119040   0.974   6.296   5.056
 6047SOL    HW219041   1.022   6.443   5.005
 6048SOL     OW19042   4.998   6.586   4.165
 6048SOL    HW119043   5.022   6.583   4.262
 6048SOL    HW219044   4.945   6.504   4.142
 6049SOL     OW19045   0.062   5.646   0.469
 6049SOL    HW119046   0.131   5.574   0.472
 6049SOL    HW219047   0.006   5.642   0.552
 6050SOL     OW19048   5.484   4.384   5.203
 6050SOL    HW119049   5.414   4.372   5.273
 6050SOL    HW219050   5.519   4.478   5.207
 6051SOL     OW19051   2.623   1.893   3.320
 6051SOL    HW119052   2.655   1.902   3.414
 6051SOL    HW219053   2.542   1.834   3.317
 6052SOL     OW19054   0.605   2.048   6.687
 6052SOL    HW119055   0.698   2.063   6.653
 6052SOL    HW219056   0.579   2.125   6.746
 6053SOL     OW19057   0.899   0.477   6.304
 6053SOL    HW119058   0.925   0.437   6.217
 6053SOL    HW219059   0.907   0.409   6.377
 6054SOL     OW19060   0.710   3.679   6.306
 6054SOL    HW119061   0.711   3.740   6.227
 6054SOL    HW219062   0.798   3.683   6.353
 6055SOL     OW19063   5.510   6.417   2.667
 6055SOL    HW119064   5.543   6.323   2.674
 6055SOL    HW219065   5.501   6.442   2.571
 6056SOL     OW19066   5.194   2.944   6.479
 6056SOL    HW119067   5.172   3.039   6.500
 6056SOL    HW219068   5.276   2.940   6.422
 6057SOL     OW19069   4.991   0.642   6.670
 6057SOL    HW119070   5.087   0.631   6.643
 6057SOL    HW219071   4.933   0.587   6.610
 6058SOL     OW19072   5.361   2.597   5.587
 6058SOL    HW119073   5.290   2.527   5.585
 6058SOL    HW219074   5.393   2.616   5.494
 6059SOL     OW19075   0.332   6.213   6.719
 6059SOL    HW119076   0.359   6.280   6.789
 6059SOL    HW219077   0.279   6.139   6.761
 6060SOL     OW19078   3.183   5.741   6.541
 6060SOL    HW119079   3.272   5.779   6.568
 6060SOL    HW219080   3.191   5.698   6.451
 6061SOL     OW19081   2.344   1.454   6.674
 6061SOL    HW119082   2.381   1.517   6.743
 6061SOL    HW219083   2.386   1.473   6.585
 6062SOL     OW19084   1.342   6.563   3.233
 6062SOL    HW119085   1.255   6.556   3.184
 6062SOL    HW219086   1.346   6.651   3.281
 6063SOL     OW19087   5.854   6.181   6.611
 6063SOL    HW119088   5.765   6.153   6.648
 6063SOL    HW219089   5.919   6.194   6.686
 6064SOL     OW19090   0.750   5.602   2.113
 6064SOL    HW119091   0.729   5.528   2.049
 6064SOL    HW219092   0.671   5.618   2.172
 6065SOL     OW19093   4.901   6.872   1.111
 6065SOL    HW119094   4.957   6.845   1.033
 6065SOL    HW219095   4.948   6.942   1.164
 6066SOL     OW19096   4.863   2.035   5.920
 6066SOL    HW119097   4.808   2.118   5.935
 6066SOL    HW219098   4.816   1.956   5.959
 6067SOL     OW19099   5.113   1.436   0.144
 6067SOL    HW119100   5.155   1.443   0.053
 6067SOL    HW219101   5.137   1.348   0.185
 6068SOL     OW19102   4.991   1.031   5.448
 6068SOL    HW119103   4.997   0.936   5.420
 6068SOL    HW219104   4.977   1.036   5.547
 6069SOL     OW19105   0.104   5.133   3.409
 6069SOL    HW119106   0.150   5.200   3.467
 6069SOL    HW219107   0.041   5.182   3.347
 6070SOL     OW19108   4.915   3.312   1.303
 6070SOL    HW119109   4.922   3.275   1.395
 6070SOL    HW219110   4.820   3.305   1.271
 6071SOL     OW19111   5.598   0.872   5.376
 6071SOL    HW119112   5.646   0.785   5.381
 6071SOL    HW219113   5.614   0.924   5.460
 6072SOL     OW19114   5.873   1.168   1.840
 6072SOL    HW119115   5.799   1.116   1.882
 6072SOL    HW219116   5.930   1.107   1.785
 6073SOL     OW19117   5.657   0.964   0.893
 6073SOL    HW119118   5.685   0.909   0.815
 6073SOL    HW219119   5.676   1.060   0.876
 6074SOL     OW19120   0.350   1.111   5.667
 6074SOL    HW119121   0.407   1.162   5.603
 6074SOL    HW219122   0.408   1.054   5.725
 6075SOL     OW19123   5.127   3.353   5.873
 6075SOL    HW119124   5.091   3.259   5.878
 6075SOL    HW219125   5.213   3.353   5.821
 6076SOL     OW19126   3.480   0.381   3.857
 6076SOL    HW119127   3.562   0.371   3.913
 6076SOL    HW219128   3.427   0.296   3.861
 6077SOL     OW19129   5.284   5.041   3.091
 6077SOL    HW119130   5.332   5.039   3.178
 6077SOL    HW219131   5.312   5.121   3.039
 6078SOL     OW19132   2.350   4.920   4.615
 6078SOL    HW119133   2.386   4.827   4.625
 6078SOL    HW219134   2.300   4.945   4.698
 6079SOL     OW19135   3.247   2.254   0.613
 6079SOL    HW119136   3.183   2.181   0.587
 6079SOL    HW219137   3.196   2.331   0.651
 6080SOL     OW19138   6.416   3.434   3.682
 6080SOL    HW119139   6.473   3.397   3.756
 6080SOL    HW219140   6.320   3.421   3.704
 6081SOL     OW19141   1.061   4.370   1.848
 6081SOL    HW119142   1.117   4.424   1.785
 6081SOL    HW219143   1.000   4.311   1.796
 6082SOL     OW19144   4.641   1.833   5.420
 6082SOL    HW119145   4.639   1.930   5.444
 6082SOL    HW219146   4.726   1.813   5.370
 6083SOL     OW19147   1.452   6.245   6.870
 6083SOL    HW119148   1.531   6.261   6.810
 6083SOL    HW219149   1.476   6.272   6.964
 6084SOL     OW19150   0.387   5.874   6.304
 6084SOL    HW119151   0.447   5.951   6.285
 6084SOL    HW219152   0.397   5.806   6.231
 6085SOL     OW19153   5.465   4.619   2.036
 6085SOL    HW119154   5.484   4.530   1.993
 6085SOL    HW219155   5.544   4.680   2.022
 6086SOL     OW19156   3.203   2.167   1.883
 6086SOL    HW119157   3.133   2.132   1.945
 6086SOL    HW219158   3.291   2.125   1.903
 6087SOL     OW19159   3.311   0.823   0.536
 6087SOL    HW119160   3.366   0.901   0.568
 6087SOL    HW219161   3.266   0.848   0.450
 6088SOL     OW19162   0.841   1.131   4.454
 6088SOL    HW119163   0.910   1.200   4.474
 6088SOL    HW219164   0.820   1.080   4.537
 6089SOL     OW19165   0.207   3.519   1.399
 6089SOL    HW119166   0.275   3.577   1.441
 6089SOL    HW219167   0.116   3.545   1.431
 6090SOL     OW19168   6.356   6.623   4.037
 6090SOL    HW119169   6.453   6.610   4.015
 6090SOL    HW219170   6.346   6.646   4.134
 6091SOL     OW19171   6.711   1.904   2.327
 6091SOL    HW119172   6.659   1.986   2.348
 6091SOL    HW219173   6.778   1.924   2.256
 6092SOL     OW19174   0.350   3.206   1.137
 6092SOL    HW119175   0.289   3.126   1.140
 6092SOL    HW219176   0.295   3.289   1.138
 6093SOL     OW19177   0.961   4.087   0.799
 6093SOL    HW119178   0.965   4.187   0.800
 6093SOL    HW219179   1.034   4.050   0.856
 6094SOL     OW19180   0.497   1.387   1.256
 6094SOL    HW119181   0.478   1.440   1.173
 6094SOL    HW219182   0.547   1.304   1.231
 6095SOL     OW19183   0.619   4.106   5.079
 6095SOL    HW119184   0.639   4.038   5.150
 6095SOL    HW219185   0.524   4.137   5.088
 6096SOL     OW19186   5.722   2.066   2.722
 6096SOL    HW119187   5.642   2.109   2.680
 6096SOL    HW219188   5.791   2.049   2.652
 6097SOL     OW19189   4.096   1.153   2.891
 6097SOL    HW119190   4.116   1.179   2.797
 6097SOL    HW219191   4.127   1.059   2.907
 6098SOL     OW19192   0.528   0.966   6.952
 6098SOL    HW119193   0.476   1.048   6.975
 6098SOL    HW219194   0.488   0.922   6.872
 6099SOL     OW19195   5.728   4.361   4.611
 6099SOL    HW119196   5.747   4.459   4.619
 6099SOL    HW219197   5.806   4.315   4.567
 6100SOL     OW19198   0.110   2.752   1.327
 6100SOL    HW119199   0.170   2.739   1.406
 6100SOL    HW219200   0.024   2.793   1.357
 6101SOL     OW19201   6.336   6.622   3.376
 6101SOL    HW119202   6.376   6.531   3.382
 6101SOL    HW219203   6.258   6.628   3.437
 6102SOL     OW19204   3.619   6.310   5.003
 6102SOL    HW119205   3.587   6.398   5.039
 6102SOL    HW219206   3.561   6.237   5.039
 6103SOL     OW19207   5.300   2.018   4.871
 6103SOL    HW119208   5.380   2.057   4.826
 6103SOL    HW219209   5.312   1.920   4.882
 6104SOL     OW19210   2.608   2.510   1.057
 6104SOL    HW119211   2.691   2.513   1.113
 6104SOL    HW219212   2.529   2.495   1.116
 6105SOL     OW19213   3.653   5.181   4.677
 6105SOL    HW119214   3.571   5.125   4.681
 6105SOL    HW219215   3.703   5.173   4.764
 6106SOL     OW19216   1.784   5.360   4.102
 6106SOL    HW119217   1.881   5.337   4.111
 6106SOL    HW219218   1.734   5.280   4.071
 6107SOL     OW19219   2.089   4.799   6.082
 6107SOL    HW119220   2.002   4.803   6.033
 6107SOL    HW219221   2.073   4.817   6.179
 6108SOL     OW19222   5.681   1.764   4.707
 6108SOL    HW119223   5.772   1.798   4.729
 6108SOL    HW219224   5.642   1.717   4.786
 6109SOL     OW19225   0.561   4.598   1.928
 6109SOL    HW119226   0.497   4.607   2.005
 6109SOL    HW219227   0.635   4.537   1.954
 6110SOL     OW19228   3.099   2.068   3.554
 6110SOL    HW119229   3.066   1.980   3.520
 6110SOL    HW219230   3.144   2.117   3.479
 6111SOL     OW19231   0.632   4.903   3.562
 6111SOL    HW119232   0.650   4.820   3.509
 6111SOL    HW219233   0.643   4.983   3.503
 6112SOL     OW19234   1.881   0.629   1.145
 6112SOL    HW119235   1.846   0.715   1.180
 6112SOL    HW219236   1.808   0.579   1.099
 6113SOL     OW19237   0.812   4.871   6.078
 6113SOL    HW119238   0.818   4.964   6.114
 6113SOL    HW219239   0.845   4.870   5.983
 6114SOL     OW19240   3.678   4.409   1.225
 6114SOL    HW119241   3.738   4.489   1.223
 6114SOL    HW219242   3.713   4.343   1.291
 6115SOL     OW19243   0.210   3.989   2.640
 6115SOL    HW119244   0.169   4.080   2.636
 6115SOL    HW219245   0.147   3.926   2.686
 6116SOL     OW19246   4.296   2.508   1.183
 6116SOL    HW119247   4.264   2.414   1.196
 6116SOL    HW219248   4.315   2.524   1.086
 6117SOL     OW19249   5.032   6.576   4.446
 6117SOL    HW119250   5.098   6.507   4.476
 6117SOL    HW219251   5.056   6.665   4.485
 6118SOL     OW19252   6.511   0.476   3.431
 6118SOL    HW119253   6.514   0.421   3.514
 6118SOL    HW219254   6.468   0.423   3.358
 6119SOL     OW19255   6.033   4.889   5.235
 6119SOL    HW119256   6.017   4.961   5.168
 6119SOL    HW219257   6.098   4.823   5.198
 6120SOL     OW19258   2.582   2.018   2.668
 6120SOL    HW119259   2.651   2.054   2.605
 6120SOL    HW219260   2.506   2.082   2.673
 6121SOL     OW19261   7.008   1.836   3.069
 6121SOL    HW119262   6.970   1.894   3.140
 6121SOL    HW219263   0.057   1.887   3.017
 6122SOL     OW19264   3.972   5.786   4.338
 6122SOL    HW119265   3.922   5.848   4.278
 6122SOL    HW219266   3.908   5.724   4.383
 6123SOL     OW19267   6.734   2.122   3.014
 6123SOL    HW119268   6.699   2.207   3.055
 6123SOL    HW219269   6.801   2.145   2.943
 6124SOL     OW19270   2.914   0.455   4.721
 6124SOL    HW119271   2.920   0.509   4.637
 6124SOL    HW219272   2.894   0.514   4.798
 6125SOL     OW19273   1.212   4.234   2.572
 6125SOL    HW119274   1.146   4.297   2.614
 6125SOL    HW219275   1.205   4.144   2.614
 6126SOL     OW19276   3.428   6.888   2.938
 6126SOL    HW119277   3.474   6.841   3.014
 6126SOL    HW219278   3.331   6.895   2.958
 6127SOL     OW19279   2.001   5.674   1.161
 6127SOL    HW119280   2.064   5.602   1.189
 6127SOL    HW219281   2.040   5.764   1.184
 6128SOL     OW19282   5.798   3.860   1.626
 6128SOL    HW119283   5.858   3.884   1.702
 6128SOL    HW219284   5.839   3.889   1.540
 6129SOL     OW19285   6.551   3.898   3.642
 6129SOL    HW119286   6.568   3.964   3.569
 6129SOL    HW219287   6.534   3.947   3.728
 6130SOL     OW19288   6.221   3.505   2.725
 6130SOL    HW119289   6.187   3.467   2.639
 6130SOL    HW219290   6.195   3.601   2.731
 6131SOL     OW19291   0.071   1.964   5.392
 6131SOL    HW119292   0.162   1.963   5.350
 6131SOL    HW219293   0.037   2.058   5.393
 6132SOL     OW19294   7.010   2.956   0.501
 6132SOL    HW119295   0.012   2.902   0.420
 6132SOL    HW219296   0.019   2.906   0.583
 6133SOL     OW19297   1.430   4.817   0.999
 6133SOL    HW119298   1.333   4.799   0.984
 6133SOL    HW219299   1.440   4.904   1.049
 6134SOL     OW19300   4.379   4.159   6.222
 6134SOL    HW119301   4.322   4.150   6.140
 6134SOL    HW219302   4.455   4.221   6.203
 6135SOL     OW19303   5.596   6.277   1.927
 6135SOL    HW119304   5.638   6.235   2.007
 6135SOL    HW219305   5.660   6.343   1.886
 6136SOL     OW19306   1.449   2.108   2.170
 6136SOL    HW119307   1.487   2.194   2.201
 6136SOL    HW219308   1.522   2.049   2.134
 6137SOL     OW19309   2.970   0.295   6.156
 6137SOL    HW119310   2.974   0.368   6.224
 6137SOL    HW219311   2.937   0.332   6.069
 6138SOL     OW19312   4.560   0.649   3.555
 6138SOL    HW119313   4.597   0.640   3.647
 6138SOL    HW219314   4.635   0.667   3.491
 6139SOL     OW19315   2.627   6.321   3.638
 6139SOL    HW119316   2.604   6.391   3.571
 6139SOL    HW219317   2.668   6.242   3.591
 6140SOL     OW19318   2.271   5.570   1.497
 6140SOL    HW119319   2.267   5.536   1.591
 6140SOL    HW219320   2.238   5.499   1.434
 6141SOL     OW19321   0.732   6.220   4.651
 6141SOL    HW119322   0.807   6.171   4.695
 6141SOL    HW219323   0.646   6.171   4.669
 6142SOL     OW19324   0.290   3.048   4.097
 6142SOL    HW119325   0.365   3.114   4.100
 6142SOL    HW219326   0.203   3.096   4.105
 6143SOL     OW19327   6.537   5.767   6.785
 6143SOL    HW119328   6.636   5.775   6.794
 6143SOL    HW219329   6.497   5.858   6.777
 6144SOL     OW19330   0.271   5.586   4.766
 6144SOL    HW119331   0.282   5.657   4.696
 6144SOL    HW219332   0.207   5.619   4.836
 6145SOL     OW19333   5.781   5.337   3.610
 6145SOL    HW119334   5.796   5.424   3.562
 6145SOL    HW219335   5.837   5.266   3.569
 6146SOL     OW19336   6.030   1.628   3.753
 6146SOL    HW119337   6.037   1.545   3.697
 6146SOL    HW219338   5.938   1.633   3.793
 6147SOL     OW19339   1.141   3.975   3.765
 6147SOL    HW119340   1.071   3.948   3.831
 6147SOL    HW219341   1.122   4.067   3.732
 6148SOL     OW19342   5.700   6.588   3.646
 6148SOL    HW119343   5.795   6.571   3.620
 6148SOL    HW219344   5.647   6.609   3.564
 6149SOL     OW19345   0.570   5.702   4.398
 6149SOL    HW119346   0.608   5.679   4.308
 6149SOL    HW219347   0.555   5.618   4.451
 6150SOL     OW19348   4.686   6.887   6.483
 6150SOL    HW119349   4.771   6.911   6.436
 6150SOL    HW219350   4.614   6.951   6.455
 6151SOL     OW19351   3.989   0.338   4.808
 6151SOL    HW119352   3.897   0.303   4.786
 6151SOL    HW219353   4.027   0.286   4.885
 6152SOL     OW19354   6.271   3.380   6.600
 6152SOL    HW119355   6.215   3.462   6.587
 6152SOL    HW219356   6.310   3.382   6.693
 6153SOL     OW19357   3.986   5.553   5.629
 6153SOL    HW119358   4.062   5.553   5.564
 6153SOL    HW219359   3.908   5.602   5.589
 6154SOL     OW19360   5.031   2.827   3.475
 6154SOL    HW119361   4.963   2.758   3.502
 6154SOL    HW219362   5.060   2.809   3.381
 6155SOL     OW19363   3.065   4.824   4.675
 6155SOL    HW119364   3.136   4.868   4.731
 6155SOL    HW219365   2.987   4.801   4.733
 6156SOL     OW19366   5.373   0.702   4.041
 6156SOL    HW119367   5.424   0.741   4.118
 6156SOL    HW219368   5.363   0.771   3.969
 6157SOL     OW19369   1.236   0.047   4.455
 6157SOL    HW119370   1.213   0.081   4.363
 6157SOL    HW219371   1.156   0.055   4.514
 6158SOL     OW19372   4.725   6.266   0.250
 6158SOL    HW119373   4.642   6.281   0.304
 6158SOL    HW219374   4.774   6.188   0.288
 6159SOL     OW19375   4.584   3.468   6.324
 6159SOL    HW119376   4.661   3.530   6.332
 6159SOL    HW219377   4.561   3.432   6.415
 6160SOL     OW19378   6.216   4.843   0.354
 6160SOL    HW119379   6.249   4.922   0.302
 6160SOL    HW219380   6.249   4.847   0.448
 6161SOL     OW19381   5.240   0.804   6.332
 6161SOL    HW119382   5.185   0.785   6.251
 6161SOL    HW219383   5.197   0.763   6.412
 6162SOL     OW19384   5.576   6.141   3.569
 6162SOL    HW119385   5.567   6.058   3.623
 6162SOL    HW219386   5.488   6.164   3.528
 6163SOL     OW19387   0.455   3.944   3.124
 6163SOL    HW119388   0.413   3.880   3.059
 6163SOL    HW219389   0.400   3.949   3.207
 6164SOL     OW19390   4.673   3.291   1.182
 6164SOL    HW119391   4.609   3.338   1.241
 6164SOL    HW219392   4.631   3.207   1.146
 6165SOL     OW19393   3.598   0.135   1.153
 6165SOL    HW119394   3.536   0.106   1.080
 6165SOL    HW219395   3.592   0.234   1.163
 6166SOL     OW19396   3.318   0.640   0.911
 6166SOL    HW119397   3.328   0.703   0.987
 6166SOL    HW219398   3.404   0.591   0.896
 6167SOL     OW19399   0.383   5.247   3.327
 6167SOL    HW119400   0.333   5.193   3.395
 6167SOL    HW219401   0.432   5.321   3.373
 6168SOL     OW19402   0.182   2.262   1.929
 6168SOL    HW119403   0.171   2.270   1.830
 6168SOL    HW219404   0.202   2.167   1.952
 6169SOL     OW19405   1.836   4.151   1.199
 6169SOL    HW119406   1.804   4.068   1.154
 6169SOL    HW219407   1.792   4.230   1.157
 6170SOL     OW19408   5.791   2.112   3.751
 6170SOL    HW119409   5.756   2.044   3.687
 6170SOL    HW219410   5.852   2.068   3.816
 6171SOL     OW19411   6.103   2.543   6.430
 6171SOL    HW119412   6.116   2.620   6.493
 6171SOL    HW219413   6.158   2.557   6.348
 6172SOL     OW19414   6.851   4.448   3.187
 6172SOL    HW119415   6.866   4.349   3.193
 6172SOL    HW219416   6.919   4.489   3.126
 6173SOL     OW19417   5.359   6.401   2.361
 6173SOL    HW119418   5.352   6.326   2.427
 6173SOL    HW219419   5.293   6.472   2.384
 6174SOL     OW19420   0.705   1.985   3.554
 6174SOL    HW119421   0.634   1.927   3.594
 6174SOL    HW219422   0.693   2.079   3.585
 6175SOL     OW19423   4.581   2.230   6.628
 6175SOL    HW119424   4.489   2.256   6.657
 6175SOL    HW219425   4.594   2.255   6.531
 6176SOL     OW19426   2.464   5.442   6.133
 6176SOL    HW119427   2.533   5.372   6.152
 6176SOL    HW219428   2.460   5.458   6.034
 6177SOL     OW19429   5.915   5.085   1.367
 6177SOL    HW119430   6.014   5.097   1.379
 6177SOL    HW219431   5.885   5.137   1.287
 6178SOL     OW19432   4.138   4.570   1.725
 6178SOL    HW119433   4.067   4.550   1.792
 6178SOL    HW219434   4.194   4.488   1.711
 6179SOL     OW19435   4.815   5.373   4.499
 6179SOL    HW119436   4.827   5.456   4.446
 6179SOL    HW219437   4.728   5.378   4.549
 6180SOL     OW19438   1.358   3.284   6.506
 6180SOL    HW119439   1.443   3.317   6.464
 6180SOL    HW219440   1.328   3.348   6.576
 6181SOL     OW19441   0.380   6.479   0.146
 6181SOL    HW119442   0.443   6.448   0.216
 6181SOL    HW219443   0.288   6.487   0.184
 6182SOL     OW19444   2.836   2.596   5.980
 6182SOL    HW119445   2.888   2.629   5.902
 6182SOL    HW219446   2.898   2.554   6.046
 6183SOL     OW19447   0.198   0.483   0.601
 6183SOL    HW119448   0.164   0.568   0.642
 6183SOL    HW219449   0.145   0.462   0.519
 6184SOL     OW19450   3.785   6.480   5.283
 6184SOL    HW119451   3.699   6.485   5.334
 6184SOL    HW219452   3.851   6.425   5.334
 6185SOL     OW19453   3.319   3.189   3.169
 6185SOL    HW119454   3.371   3.116   3.123
 6185SOL    HW219455   3.355   3.202   3.261
 6186SOL     OW19456   0.880   1.244   2.083
 6186SOL    HW119457   0.953   1.259   2.149
 6186SOL    HW219458   0.792   1.237   2.130
 6187SOL     OW19459   3.877   2.369   5.934
 6187SOL    HW119460   3.873   2.448   5.873
 6187SOL    HW219461   3.813   2.382   6.010
 6188SOL     OW19462   0.729   1.449   5.556
 6188SOL    HW119463   0.660   1.520   5.566
 6188SOL    HW219464   0.735   1.397   5.641
 6189SOL     OW19465   6.842   5.092   0.711
 6189SOL    HW119466   6.757   5.119   0.757
 6189SOL    HW219467   6.838   5.120   0.615
 6190SOL     OW19468   1.387   3.199   3.516
 6190SOL    HW119469   1.412   3.296   3.510
 6190SOL    HW219470   1.466   3.144   3.489
 6191SOL     OW19471   2.284   4.992   6.976
 6191SOL    HW119472   2.240   5.057   0.017
 6191SOL    HW219473   2.278   4.900   7.015
 6192SOL     OW19474   2.562   1.529   1.092
 6192SOL    HW119475   2.515   1.599   1.039
 6192SOL    HW219476   2.539   1.439   1.056
 6193SOL     OW19477   4.963   5.357   6.758
 6193SOL    HW119478   4.928   5.357   6.664
 6193SOL    HW219479   4.889   5.338   6.822
 6194SOL     OW19480   5.276   0.030   6.111
 6194SOL    HW119481   5.186   0.025   6.068
 6194SOL    HW219482   5.319   0.117   6.088
 6195SOL     OW19483   5.214   5.554   5.532
 6195SOL    HW119484   5.304   5.513   5.517
 6195SOL    HW219485   5.221   5.653   5.532
 6196SOL     OW19486   6.891   3.944   2.903
 6196SOL    HW119487   6.812   3.908   2.954
 6196SOL    HW219488   6.864   4.028   2.854
 6197SOL     OW19489   0.039   5.514   1.494
 6197SOL    HW119490   0.071   5.578   1.563
 6197SOL    HW219491   0.114   5.453   1.468
 6198SOL     OW19492   6.639   2.162   5.801
 6198SOL    HW119493   6.561   2.127   5.853
 6198SOL    HW219494   6.624   2.146   5.703
 6199SOL     OW19495   2.359   6.952   5.825
 6199SOL    HW119496   2.308   6.880   5.871
 6199SOL    HW219497   2.455   6.924   5.816
 6200SOL     OW19498   1.701   6.453   6.976
 6200SOL    HW119499   1.721   6.550   6.962
 6200SOL    HW219500   1.762   6.397   6.919
 6201SOL     OW19501   1.176   4.900   3.507
 6201SOL    HW119502   1.160   4.968   3.578
 6201SOL    HW219503   1.247   4.932   3.445
 6202SOL     OW19504   4.806   1.989   1.589
 6202SOL    HW119505   4.877   1.942   1.535
 6202SOL    HW219506   4.830   1.986   1.686
 6203SOL     OW19507   0.633   1.180   2.662
 6203SOL    HW119508   0.590   1.269   2.644
 6203SOL    HW219509   0.666   1.141   2.576
 6204SOL     OW19510   0.974   5.880   4.370
 6204SOL    HW119511   0.921   5.920   4.294
 6204SOL    HW219512   0.912   5.833   4.432
 6205SOL     OW19513   0.368   4.474   3.159
 6205SOL    HW119514   0.327   4.504   3.245
 6205SOL    HW219515   0.425   4.393   3.175
 6206SOL     OW19516   5.464   2.446   3.863
 6206SOL    HW119517   5.394   2.399   3.810
 6206SOL    HW219518   5.470   2.541   3.833
 6207SOL     OW19519   1.831   5.876   3.278
 6207SOL    HW119520   1.874   5.899   3.191
 6207SOL    HW219521   1.812   5.777   3.281
 6208SOL     OW19522   4.279   4.191   6.484
 6208SOL    HW119523   4.293   4.285   6.515
 6208SOL    HW219524   4.325   4.178   6.396
 6209SOL     OW19525   3.319   1.158   2.870
 6209SOL    HW119526   3.259   1.193   2.943
 6209SOL    HW219527   3.291   1.197   2.783
 6210SOL     OW19528   5.755   0.357   4.135
 6210SOL    HW119529   5.770   0.411   4.217
 6210SOL    HW219530   5.679   0.396   4.082
 6211SOL     OW19531   5.112   2.798   5.437
 6211SOL    HW119532   5.093   2.891   5.404
 6211SOL    HW219533   5.206   2.773   5.412
 6212SOL     OW19534   4.831   4.083   4.968
 6212SOL    HW119535   4.836   4.177   5.001
 6212SOL    HW219536   4.778   4.028   5.032
 6213SOL     OW19537   5.198   5.917   0.724
 6213SOL    HW119538   5.231   5.848   0.660
 6213SOL    HW219539   5.145   5.872   0.796
 6214SOL     OW19540   6.753   6.404   6.026
 6214SOL    HW119541   6.729   6.462   5.948
 6214SOL    HW219542   6.689   6.421   6.101
 6215SOL     OW19543   5.339   2.813   5.297
 6215SOL    HW119544   5.369   2.905   5.318
 6215SOL    HW219545   5.360   2.792   5.202
 6216SOL     OW19546   5.439   2.748   6.388
 6216SOL    HW119547   5.465   2.772   6.294
 6216SOL    HW219548   5.444   2.648   6.399
 6217SOL     OW19549   0.274   4.164   2.409
 6217SOL    HW119550   0.272   4.158   2.309
 6217SOL    HW219551   0.352   4.113   2.444
 6218SOL     OW19552   5.004   6.451   1.739
 6218SOL    HW119553   5.031   6.369   1.687
 6218SOL    HW219554   4.914   6.481   1.707
 6219SOL     OW19555   2.191   0.591   0.365
 6219SOL    HW119556   2.238   0.679   0.352
 6219SOL    HW219557   2.257   0.517   0.361
 6220SOL     OW19558   2.246   0.999   2.731
 6220SOL    HW119559   2.158   1.043   2.716
 6220SOL    HW219560   2.299   1.052   2.797
 6221SOL     OW19561   4.390   5.250   5.226
 6221SOL    HW119562   4.381   5.331   5.167
 6221SOL    HW219563   4.301   5.205   5.233
 6222SOL     OW19564   0.537   1.164   1.926
 6222SOL    HW119565   0.563   1.237   1.989
 6222SOL    HW219566   0.598   1.164   1.847
 6223SOL     OW19567   6.446   4.916   3.575
 6223SOL    HW119568   6.497   4.867   3.505
 6223SOL    HW219569   6.487   4.900   3.664
 6224SOL     OW19570   4.104   0.094   0.219
 6224SOL    HW119571   4.026   0.031   0.216
 6224SOL    HW219572   4.072   0.185   0.243
 6225SOL     OW19573   6.118   5.316   6.061
 6225SOL    HW119574   6.201   5.338   6.009
 6225SOL    HW219575   6.119   5.220   6.086
 6226SOL     OW19576   1.776   1.127   3.953
 6226SOL    HW119577   1.735   1.087   3.871
 6226SOL    HW219578   1.836   1.203   3.926
 6227SOL     OW19579   2.052   4.232   5.732
 6227SOL    HW119580   1.977   4.170   5.752
 6227SOL    HW219581   2.065   4.295   5.810
 6228SOL     OW19582   1.478   3.037   3.912
 6228SOL    HW119583   1.570   3.055   3.876
 6228SOL    HW219584   1.473   2.943   3.946
 6229SOL     OW19585   0.341   5.114   4.337
 6229SOL    HW119586   0.330   5.175   4.259
 6229SOL    HW219587   0.389   5.031   4.308
 6230SOL     OW19588   0.903   1.073   0.586
 6230SOL    HW119589   0.859   1.064   0.675
 6230SOL    HW219590   0.920   0.983   0.547
 6231SOL     OW19591   1.504   5.918   5.607
 6231SOL    HW119592   1.584   5.976   5.588
 6231SOL    HW219593   1.519   5.827   5.568
 6232SOL     OW19594   4.012   0.990   6.301
 6232SOL    HW119595   3.982   1.040   6.220
 6232SOL    HW219596   3.969   0.899   6.302
 6233SOL     OW19597   6.784   4.132   1.293
 6233SOL    HW119598   6.798   4.231   1.292
 6233SOL    HW219599   6.774   4.101   1.387
 6234SOL     OW19600   4.822   4.673   2.647
 6234SOL    HW119601   4.834   4.620   2.563
 6234SOL    HW219602   4.754   4.628   2.705
 6235SOL     OW19603   0.846   1.251   1.169
 6235SOL    HW119604   0.881   1.239   1.076
 6235SOL    HW219605   0.809   1.344   1.179
 6236SOL     OW19606   6.012   6.113   1.898
 6236SOL    HW119607   6.034   6.185   1.965
 6236SOL    HW219608   5.969   6.036   1.945
 6237SOL     OW19609   4.183   0.826   3.347
 6237SOL    HW119610   4.206   0.922   3.330
 6237SOL    HW219611   4.253   0.767   3.307
 6238SOL     OW19612   2.263   6.378   3.176
 6238SOL    HW119613   2.328   6.454   3.167
 6238SOL    HW219614   2.309   6.299   3.215
 6239SOL     OW19615   4.677   1.539   4.091
 6239SOL    HW119616   4.630   1.493   4.167
 6239SOL    HW219617   4.617   1.608   4.051
 6240SOL     OW19618   4.110   3.682   4.006
 6240SOL    HW119619   4.155   3.706   3.920
 6240SOL    HW219620   4.027   3.628   3.987
 6241SOL     OW19621   3.995   0.494   2.819
 6241SOL    HW119622   4.086   0.527   2.845
 6241SOL    HW219623   3.980   0.404   2.859
 6242SOL     OW19624   3.345   1.861   4.591
 6242SOL    HW119625   3.297   1.939   4.550
 6242SOL    HW219626   3.324   1.857   4.689
 6243SOL     OW19627   3.414   0.374   0.394
 6243SOL    HW119628   3.367   0.340   0.475
 6243SOL    HW219629   3.501   0.326   0.383
 6244SOL     OW19630   5.425   2.402   1.485
 6244SOL    HW119631   5.519   2.392   1.518
 6244SOL    HW219632   5.393   2.315   1.448
 6245SOL     OW19633   6.832   4.990   1.468
 6245SOL    HW119634   6.922   5.016   1.501
 6245SOL    HW219635   6.812   4.896   1.495
 6246SOL     OW19636   0.733   6.243   5.231
 6246SOL    HW119637   0.752   6.340   5.216
 6246SOL    HW219638   0.722   6.198   5.142
 6247SOL     OW19639   5.721   4.958   2.239
 6247SOL    HW119640   5.688   4.867   2.213
 6247SOL    HW219641   5.651   5.003   2.294
 6248SOL     OW19642   4.620   2.782   6.003
 6248SOL    HW119643   4.534   2.808   5.960
 6248SOL    HW219644   4.610   2.787   6.103
 6249SOL     OW19645   5.493   2.579   3.453
 6249SOL    HW119646   5.588   2.556   3.472
 6249SOL    HW219647   5.484   2.603   3.356
 6250SOL     OW19648   4.994   6.927   4.943
 6250SOL    HW119649   5.022   6.831   4.950
 6250SOL    HW219650   5.033   6.967   4.860
 6251SOL     OW19651   2.934   0.828   4.061
 6251SOL    HW119652   2.923   0.785   3.971
 6251SOL    HW219653   2.927   0.927   4.051
 6252SOL     OW19654   2.309   4.743   0.109
 6252SOL    HW119655   2.373   4.670   0.085
 6252SOL    HW219656   2.342   4.792   0.190
 6253SOL     OW19657   4.880   6.017   4.247
 6253SOL    HW119658   4.797   5.969   4.275
 6253SOL    HW219659   4.942   5.953   4.200
 6254SOL     OW19660   6.667   6.738   1.982
 6254SOL    HW119661   6.730   6.703   2.051
 6254SOL    HW219662   6.602   6.666   1.956
 6255SOL     OW19663   3.057   6.991   1.216
 6255SOL    HW119664   3.095   0.005   1.302
 6255SOL    HW219665   2.965   0.010   1.203
 6256SOL     OW19666   7.012   4.405   2.176
 6256SOL    HW119667   0.033   4.482   2.225
 6256SOL    HW219668   0.056   4.374   2.105
 6257SOL     OW19669   3.868   4.123   0.624
 6257SOL    HW119670   3.918   4.038   0.611
 6257SOL    HW219671   3.798   4.132   0.553
 6258SOL     OW19672   4.291   5.319   4.016
 6258SOL    HW119673   4.231   5.389   3.977
 6258SOL    HW219674   4.309   5.249   3.947
 6259SOL     OW19675   4.995   7.000   4.496
 6259SOL    HW119676   4.994   7.010   4.397
 6259SOL    HW219677   5.039   6.914   4.521
 6260SOL     OW19678   3.440   2.030   6.984
 6260SOL    HW119679   3.422   2.107   0.025
 6260SOL    HW219680   3.531   1.992   7.003
 6261SOL     OW19681   4.584   6.096   1.298
 6261SOL    HW119682   4.613   6.049   1.381
 6261SOL    HW219683   4.485   6.112   1.301
 6262SOL     OW19684   5.946   1.941   3.925
 6262SOL    HW119685   6.023   1.908   3.980
 6262SOL    HW219686   5.876   1.979   3.985
 6263SOL     OW19687   6.628   6.194   5.742
 6263SOL    HW119688   6.666   6.105   5.717
 6263SOL    HW219689   6.588   6.237   5.661
 6264SOL     OW19690   0.880   6.414   0.828
 6264SOL    HW119691   0.789   6.414   0.871
 6264SOL    HW219692   0.871   6.393   0.731
 6265SOL     OW19693   4.032   6.031   6.862
 6265SOL    HW119694   3.969   6.108   6.867
 6265SOL    HW219695   4.075   6.029   6.772
 6266SOL     OW19696   2.822   5.426   3.574
 6266SOL    HW119697   2.833   5.519   3.540
 6266SOL    HW219698   2.747   5.381   3.524
 6267SOL     OW19699   6.985   6.664   4.026
 6267SOL    HW119700   6.907   6.666   4.088
 6267SOL    HW219701   7.009   6.569   4.005
 6268SOL     OW19702   3.324   2.157   0.957
 6268SOL    HW119703   3.351   2.253   0.962
 6268SOL    HW219704   3.235   2.150   0.912
 6269SOL     OW19705   0.408   5.254   0.491
 6269SOL    HW119706   0.477   5.215   0.553
 6269SOL    HW219707   0.345   5.183   0.462
 6270SOL     OW19708   1.561   5.695   1.034
 6270SOL    HW119709   1.653   5.660   1.013
 6270SOL    HW219710   1.567   5.758   1.112
 6271SOL     OW19711   6.657   3.391   5.413
 6271SOL    HW119712   6.618   3.299   5.406
 6271SOL    HW219713   6.583   3.458   5.418
 6272SOL     OW19714   6.670   0.776   0.729
 6272SOL    HW119715   6.608   0.849   0.756
 6272SOL    HW219716   6.646   0.743   0.637
 6273SOL     OW19717   0.392   6.724   2.346
 6273SOL    HW119718   0.299   6.730   2.383
 6273SOL    HW219719   0.443   6.654   2.396
 6274SOL     OW19720   3.186   6.154   4.424
 6274SOL    HW119721   3.258   6.089   4.446
 6274SOL    HW219722   3.102   6.104   4.401
 6275SOL     OW19723   3.238   5.501   1.229
 6275SOL    HW119724   3.249   5.403   1.244
 6275SOL    HW219725   3.153   5.533   1.272
 6276SOL     OW19726   2.214   4.500   2.596
 6276SOL    HW119727   2.245   4.408   2.621
 6276SOL    HW219728   2.200   4.554   2.679
 6277SOL     OW19729   5.455   1.853   0.989
 6277SOL    HW119730   5.383   1.910   0.950
 6277SOL    HW219731   5.432   1.756   0.976
 6278SOL     OW19732   3.920   3.232   0.052
 6278SOL    HW119733   3.928   3.331   0.057
 6278SOL    HW219734   3.848   3.201   0.113
 6279SOL     OW19735   0.920   6.488   1.897
 6279SOL    HW119736   0.967   6.476   1.810
 6279SOL    HW219737   0.865   6.407   1.917
 6280SOL     OW19738   4.908   1.001   0.113
 6280SOL    HW119739   4.977   0.946   0.066
 6280SOL    HW219740   4.903   1.091   0.071
 6281SOL     OW19741   5.717   3.846   6.268
 6281SOL    HW119742   5.730   3.840   6.169
 6281SOL    HW219743   5.750   3.762   6.311
 6282SOL     OW19744   6.808   4.688   5.824
 6282SOL    HW119745   6.818   4.694   5.923
 6282SOL    HW219746   6.756   4.606   5.801
 6283SOL     OW19747   3.298   6.382   4.409
 6283SOL    HW119748   3.346   6.395   4.495
 6283SOL    HW219749   3.262   6.289   4.404
 6284SOL     OW19750   2.190   4.562   6.228
 6284SOL    HW119751   2.097   4.555   6.263
 6284SOL    HW219752   2.195   4.634   6.159
 6285SOL     OW19753   1.881   4.686   4.268
 6285SOL    HW119754   1.898   4.743   4.188
 6285SOL    HW219755   1.962   4.686   4.327
 6286SOL     OW19756   0.840   3.385   6.840
 6286SOL    HW119757   0.907   3.318   6.808
 6286SOL    HW219758   0.822   3.370   6.937
 6287SOL     OW19759   4.058   5.157   4.801
 6287SOL    HW119760   3.964   5.191   4.808
 6287SOL    HW219761   4.121   5.235   4.800
 6288SOL     OW19762   3.014   4.162   5.813
 6288SOL    HW119763   3.015   4.127   5.719
 6288SOL    HW219764   2.967   4.250   5.815
 6289SOL     OW19765   3.055   5.681   5.868
 6289SOL    HW119766   3.009   5.738   5.800
 6289SOL    HW219767   3.105   5.608   5.822
 6290SOL     OW19768   6.895   0.547   3.049
 6290SOL    HW119769   6.953   0.475   3.010
 6290SOL    HW219770   6.802   0.512   3.062
 6291SOL     OW19771   3.253   3.217   1.879
 6291SOL    HW119772   3.310   3.160   1.821
 6291SOL    HW219773   3.243   3.308   1.838
 6292SOL     OW19774   0.948   3.870   4.900
 6292SOL    HW119775   0.981   3.858   4.994
 6292SOL    HW219776   0.912   3.963   4.889
 6293SOL     OW19777   3.358   1.827   0.521
 6293SOL    HW119778   3.392   1.918   0.498
 6293SOL    HW219779   3.359   1.769   0.439
 6294SOL     OW19780   1.049   0.209   1.852
 6294SOL    HW119781   1.125   0.269   1.880
 6294SOL    HW219782   1.051   0.196   1.753
 6295SOL     OW19783   4.408   3.127   5.614
 6295SOL    HW119784   4.433   3.221   5.637
 6295SOL    HW219785   4.467   3.064   5.665
 6296SOL     OW19786   6.644   2.493   0.414
 6296SOL    HW119787   6.624   2.563   0.483
 6296SOL    HW219788   6.583   2.504   0.336
 6297SOL     OW19789   0.626   2.038   4.656
 6297SOL    HW119790   0.530   2.066   4.663
 6297SOL    HW219791   0.655   1.998   4.743
 6298SOL     OW19792   0.191   1.253   6.168
 6298SOL    HW119793   0.229   1.279   6.079
 6298SOL    HW219794   0.163   1.335   6.218
 6299SOL     OW19795   3.438   1.672   3.894
 6299SOL    HW119796   3.518   1.640   3.844
 6299SOL    HW219797   3.410   1.604   3.961
 6300SOL     OW19798   2.631   2.247   0.852
 6300SOL    HW119799   2.697   2.322   0.842
 6300SOL    HW219800   2.676   2.161   0.831
 6301SOL     OW19801   4.408   5.805   0.603
 6301SOL    HW119802   4.461   5.877   0.559
 6301SOL    HW219803   4.390   5.732   0.537
 6302SOL     OW19804   1.545   3.394   0.615
 6302SOL    HW119805   1.645   3.383   0.621
 6302SOL    HW219806   1.501   3.305   0.615
 6303SOL     OW19807   6.628   4.414   5.305
 6303SOL    HW119808   6.535   4.400   5.271
 6303SOL    HW219809   6.676   4.479   5.246
 6304SOL     OW19810   2.006   2.645   4.990
 6304SOL    HW119811   1.956   2.721   4.948
 6304SOL    HW219812   2.103   2.671   5.000
 6305SOL     OW19813   1.256   6.071   4.965
 6305SOL    HW119814   1.192   6.113   5.029
 6305SOL    HW219815   1.230   5.976   4.949
 6306SOL     OW19816   1.882   4.452   4.101
 6306SOL    HW119817   1.842   4.501   4.024
 6306SOL    HW219818   1.881   4.510   4.182
 6307SOL     OW19819   3.740   3.291   2.298
 6307SOL    HW119820   3.776   3.383   2.283
 6307SOL    HW219821   3.816   3.226   2.306
 6308SOL     OW19822   1.501   0.823   1.068
 6308SOL    HW119823   1.486   0.887   0.993
 6308SOL    HW219824   1.417   0.812   1.120
 6309SOL     OW19825   1.941   5.949   4.774
 6309SOL    HW119826   1.952   6.047   4.790
 6309SOL    HW219827   1.995   5.898   4.841
 6310SOL     OW19828   0.845   6.801   2.406
 6310SOL    HW119829   0.876   6.860   2.331
 6310SOL    HW219830   0.832   6.708   2.372
 6311SOL     OW19831   5.236   1.377   5.926
 6311SOL    HW119832   5.273   1.293   5.967
 6311SOL    HW219833   5.311   1.430   5.886
 6312SOL     OW19834   4.345   4.735   1.394
 6312SOL    HW119835   4.396   4.684   1.463
 6312SOL    HW219836   4.401   4.747   1.313
 6313SOL     OW19837   5.522   5.350   3.264
 6313SOL    HW119838   5.519   5.375   3.360
 6313SOL    HW219839   5.435   5.373   3.220
 6314SOL     OW19840   1.644   5.345   2.827
 6314SOL    HW119841   1.721   5.406   2.806
 6314SOL    HW219842   1.674   5.250   2.819
 6315SOL     OW19843   2.052   2.478   3.352
 6315SOL    HW119844   2.086   2.434   3.269
 6315SOL    HW219845   1.957   2.451   3.368
 6316SOL     OW19846   4.990   0.753   5.401
 6316SOL    HW119847   4.937   0.725   5.321
 6316SOL    HW219848   4.956   0.704   5.481
 6317SOL     OW19849   4.862   4.008   3.197
 6317SOL    HW119850   4.822   3.918   3.185
 6317SOL    HW219851   4.823   4.071   3.130
 6318SOL     OW19852   5.709   6.265   0.072
 6318SOL    HW119853   5.673   6.331   0.006
 6318SOL    HW219854   5.692   6.172   0.039
 6319SOL     OW19855   5.094   2.337   4.006
 6319SOL    HW119856   5.122   2.346   3.911
 6319SOL    HW219857   5.174   2.315   4.063
 6320SOL     OW19858   5.818   2.675   6.437
 6320SOL    HW119859   5.750   2.633   6.498
 6320SOL    HW219860   5.861   2.604   6.382
 6321SOL     OW19861   0.254   3.121   6.900
 6321SOL    HW119862   0.349   3.109   6.873
 6321SOL    HW219863   0.244   3.208   6.948
 6322SOL     OW19864   2.003   1.100   2.702
 6322SOL    HW119865   2.013   1.198   2.722
 6322SOL    HW219866   1.910   1.071   2.722
 6323SOL     OW19867   1.743   5.977   0.978
 6323SOL    HW119868   1.801   5.902   0.950
 6323SOL    HW219869   1.733   6.042   0.903
 6324SOL     OW19870   5.123   4.267   2.365
 6324SOL    HW119871   5.125   4.339   2.434
 6324SOL    HW219872   5.029   4.254   2.332
 6325SOL     OW19873   0.767   3.404   3.473
 6325SOL    HW119874   0.743   3.424   3.568
 6325SOL    HW219875   0.684   3.380   3.422
 6326SOL     OW19876   5.576   5.840   4.760
 6326SOL    HW119877   5.645   5.835   4.687
 6326SOL    HW219878   5.621   5.855   4.848
 6327SOL     OW19879   0.670   0.780   2.538
 6327SOL    HW119880   0.638   0.689   2.510
 6327SOL    HW219881   0.593   0.836   2.566
 6328SOL     OW19882   3.992   3.789   4.728
 6328SOL    HW119883   4.033   3.725   4.663
 6328SOL    HW219884   3.979   3.878   4.683
 6329SOL     OW19885   0.127   3.198   4.465
 6329SOL    HW119886   0.064   3.228   4.538
 6329SOL    HW219887   0.138   3.099   4.470
 6330SOL     OW19888   4.342   1.777   3.365
 6330SOL    HW119889   4.440   1.793   3.372
 6330SOL    HW219890   4.312   1.716   3.438
 6331SOL     OW19891   1.565   2.712   3.660
 6331SOL    HW119892   1.470   2.715   3.629
 6331SOL    HW219893   1.568   2.704   3.759
 6332SOL     OW19894   4.269   1.730   0.286
 6332SOL    HW119895   4.188   1.786   0.270
 6332SOL    HW219896   4.327   1.730   0.205
 6333SOL     OW19897   6.036   1.720   6.847
 6333SOL    HW119898   6.030   1.818   6.829
 6333SOL    HW219899   5.960   1.692   6.906
 6334SOL     OW19900   2.894   1.365   2.182
 6334SOL    HW119901   2.871   1.268   2.171
 6334SOL    HW219902   2.818   1.421   2.149
 6335SOL     OW19903   5.932   2.524   5.560
 6335SOL    HW119904   5.973   2.483   5.478
 6335SOL    HW219905   5.844   2.565   5.535
 6336SOL     OW19906   1.014   5.612   5.942
 6336SOL    HW119907   0.947   5.682   5.966
 6336SOL    HW219908   0.991   5.526   5.986
 6337SOL     OW19909   6.389   0.822   5.855
 6337SOL    HW119910   6.358   0.795   5.763
 6337SOL    HW219911   6.391   0.922   5.861
 6338SOL     OW19912   1.208   1.025   2.176
 6338SOL    HW119913   1.234   0.976   2.260
 6338SOL    HW219914   1.148   0.967   2.120
 6339SOL     OW19915   0.475   4.287   3.747
 6339SOL    HW119916   0.384   4.262   3.782
 6339SOL    HW219917   0.467   4.363   3.683
 6340SOL     OW19918   2.884   5.600   0.115
 6340SOL    HW119919   2.850   5.638   0.029
 6340SOL    HW219920   2.922   5.674   0.171
 6341SOL     OW19921   1.363   4.510   2.936
 6341SOL    HW119922   1.366   4.530   3.034
 6341SOL    HW219923   1.335   4.415   2.923
 6342SOL     OW19924   2.745   6.776   1.256
 6342SOL    HW119925   2.763   6.679   1.267
 6342SOL    HW219926   2.654   6.798   1.291
 6343SOL     OW19927   1.661   3.618   0.003
 6343SOL    HW119928   1.575   3.605   6.973
 6343SOL    HW219929   1.642   3.643   0.097
 6344SOL     OW19930   1.921   0.930   4.107
 6344SOL    HW119931   2.014   0.930   4.069
 6344SOL    HW219932   1.857   0.965   4.039
 6345SOL     OW19933   6.980   3.675   3.937
 6345SOL    HW119934   0.022   3.705   4.010
 6345SOL    HW219935   6.979   3.744   3.865
 6346SOL     OW19936   0.639   4.714   4.291
 6346SOL    HW119937   0.708   4.668   4.347
 6346SOL    HW219938   0.631   4.669   4.202
 6347SOL     OW19939   1.737   1.598   2.414
 6347SOL    HW119940   1.732   1.505   2.450
 6347SOL    HW219941   1.671   1.608   2.339
 6348SOL     OW19942   0.584   2.403   0.191
 6348SOL    HW119943   0.575   2.490   0.239
 6348SOL    HW219944   0.673   2.362   0.214
 6349SOL     OW19945   5.990   1.041   1.083
 6349SOL    HW119946   6.034   1.052   0.994
 6349SOL    HW219947   5.973   1.130   1.123
 6350SOL     OW19948   6.985   0.127   1.448
 6350SOL    HW119949   6.993   0.037   1.492
 6350SOL    HW219950   0.054   0.173   1.448
 6351SOL     OW19951   6.592   2.310   2.731
 6351SOL    HW119952   6.588   2.340   2.826
 6351SOL    HW219953   6.550   2.220   2.723
 6352SOL     OW19954   3.503   0.943   5.194
 6352SOL    HW119955   3.409   0.975   5.183
 6352SOL    HW219956   3.529   0.886   5.116
 6353SOL     OW19957   3.948   6.347   5.502
 6353SOL    HW119958   3.987   6.391   5.582
 6353SOL    HW219959   3.867   6.294   5.528
 6354SOL     OW19960   6.276   4.659   3.498
 6354SOL    HW119961   6.259   4.616   3.587
 6354SOL    HW219962   6.269   4.758   3.507
 6355SOL     OW19963   4.156   6.303   6.901
 6355SOL    HW119964   4.179   6.289   6.805
 6355SOL    HW219965   4.232   6.271   6.958
 6356SOL     OW19966   6.924   6.785   6.730
 6356SOL    HW119967   6.987   6.839   6.673
 6356SOL    HW219968   6.875   6.719   6.672
 6357SOL     OW19969   5.184   2.122   3.446
 6357SOL    HW119970   5.228   2.202   3.485
 6357SOL    HW219971   5.233   2.093   3.364
 6358SOL     OW19972   1.257   0.639   4.905
 6358SOL    HW119973   1.164   0.622   4.871
 6358SOL    HW219974   1.321   0.576   4.860
 6359SOL     OW19975   6.858   4.387   1.336
 6359SOL    HW119976   6.911   4.455   1.285
 6359SOL    HW219977   6.764   4.421   1.349
 6360SOL     OW19978   2.994   2.727   0.539
 6360SOL    HW119979   2.971   2.630   0.526
 6360SOL    HW219980   2.993   2.774   0.451
 6361SOL     OW19981   0.183   1.583   3.328
 6361SOL    HW119982   0.234   1.608   3.410
 6361SOL    HW219983   0.224   1.629   3.249
 6362SOL     OW19984   1.813   5.211   0.372
 6362SOL    HW119985   1.767   5.288   0.329
 6362SOL    HW219986   1.745   5.154   0.420
 6363SOL     OW19987   0.485   1.853   1.437
 6363SOL    HW119988   0.413   1.837   1.371
 6363SOL    HW219989   0.556   1.783   1.427
 6364SOL     OW19990   2.791   2.181   3.470
 6364SOL    HW119991   2.761   2.271   3.501
 6364SOL    HW219992   2.811   2.184   3.372
 6365SOL     OW19993   6.054   6.894   2.045
 6365SOL    HW119994   6.053   6.971   1.982
 6365SOL    HW219995   5.965   6.885   2.089
 6366SOL     OW19996   6.457   1.709   5.285
 6366SOL    HW119997   6.462   1.771   5.206
 6366SOL    HW219998   6.541   1.715   5.338
 6367SOL     OW19999   1.886   3.360   4.547
 6367SOL    HW120000   1.966   3.416   4.570
 6367SOL    HW220001   1.892   3.273   4.596
 6368SOL     OW20002   5.547   3.480   5.089
 6368SOL    HW120003   5.448   3.465   5.089
 6368SOL    HW220004   5.577   3.504   5.181
 6369SOL     OW20005   2.960   4.327   0.818
 6369SOL    HW120006   2.991   4.235   0.792
 6369SOL    HW220007   2.940   4.380   0.736
 6370SOL     OW20008   6.266   3.469   4.963
 6370SOL    HW120009   6.327   3.421   5.026
 6370SOL    HW220010   6.175   3.477   5.004
 6371SOL     OW20011   6.086   4.449   0.880
 6371SOL    HW120012   6.043   4.486   0.962
 6371SOL    HW220013   6.183   4.474   0.879
 6372SOL     OW20014   5.578   1.464   1.923
 6372SOL    HW120015   5.536   1.515   1.999
 6372SOL    HW220016   5.506   1.437   1.859
 6373SOL     OW20017   5.476   1.817   1.615
 6373SOL    HW120018   5.560   1.775   1.648
 6373SOL    HW220019   5.408   1.818   1.688
 6374SOL     OW20020   3.714   3.470   6.299
 6374SOL    HW120021   3.748   3.544   6.356
 6374SOL    HW220022   3.628   3.498   6.256
 6375SOL     OW20023   5.211   1.603   1.975
 6375SOL    HW120024   5.187   1.660   2.054
 6375SOL    HW220025   5.131   1.596   1.915
 6376SOL     OW20026   3.401   6.412   6.781
 6376SOL    HW120027   3.483   6.394   6.835
 6376SOL    HW220028   3.336   6.464   6.835
 6377SOL     OW20029   0.245   1.860   0.366
 6377SOL    HW120030   0.328   1.915   0.353
 6377SOL    HW220031   0.271   1.767   0.393
 6378SOL     OW20032   6.242   4.005   2.783
 6378SOL    HW120033   6.186   4.065   2.725
 6378SOL    HW220034   6.335   4.042   2.790
 6379SOL     OW20035   2.297   4.328   6.748
 6379SOL    HW120036   2.348   4.406   6.710
 6379SOL    HW220037   2.296   4.334   6.847
 6380SOL     OW20038   1.902   2.508   4.484
 6380SOL    HW120039   1.940   2.504   4.576
 6380SOL    HW220040   1.822   2.447   4.479
 6381SOL     OW20041   3.459   4.711   0.538
 6381SOL    HW120042   3.390   4.643   0.563
 6381SOL    HW220043   3.548   4.667   0.527
 6382SOL     OW20044   2.037   1.209   1.152
 6382SOL    HW120045   2.084   1.224   1.238
 6382SOL    HW220046   2.077   1.267   1.081
 6383SOL     OW20047   2.978   2.079   2.065
 6383SOL    HW120048   2.959   2.037   2.154
 6383SOL    HW220049   2.950   2.175   2.067
 6384SOL     OW20050   0.555   1.392   2.086
 6384SOL    HW120051   0.480   1.401   2.021
 6384SOL    HW220052   0.624   1.463   2.068
 6385SOL     OW20053   0.666   3.820   1.740
 6385SOL    HW120054   0.569   3.845   1.737
 6385SOL    HW220055   0.676   3.723   1.717
 6386SOL     OW20056   3.145   4.928   1.208
 6386SOL    HW120057   3.214   4.905   1.139
 6386SOL    HW220058   3.133   4.850   1.270
 6387SOL     OW20059   6.372   1.937   5.820
 6387SOL    HW120060   6.315   1.859   5.793
 6387SOL    HW220061   6.446   1.905   5.879
 6388SOL     OW20062   6.621   4.960   2.153
 6388SOL    HW120063   6.526   4.974   2.182
 6388SOL    HW220064   6.660   5.047   2.124
 6389SOL     OW20065   6.894   0.394   0.267
 6389SOL    HW120066   6.898   0.443   0.354
 6389SOL    HW220067   6.881   0.296   0.285
 6390SOL     OW20068   4.296   6.191   0.319
 6390SOL    HW120069   4.389   6.199   0.356
 6390SOL    HW220070   4.272   6.095   0.309
 6391SOL     OW20071   0.849   1.669   4.876
 6391SOL    HW120072   0.919   1.607   4.913
 6391SOL    HW220073   0.892   1.731   4.811
 6392SOL     OW20074   4.583   6.294   2.993
 6392SOL    HW120075   4.609   6.350   2.914
 6392SOL    HW220076   4.490   6.260   2.980
 6393SOL     OW20077   2.371   4.067   0.270
 6393SOL    HW120078   2.340   4.003   0.341
 6393SOL    HW220079   2.296   4.130   0.248
 6394SOL     OW20080   1.487   5.325   2.041
 6394SOL    HW120081   1.472   5.372   2.128
 6394SOL    HW220082   1.420   5.357   1.974
 6395SOL     OW20083   1.369   3.439   4.769
 6395SOL    HW120084   1.314   3.522   4.762
 6395SOL    HW220085   1.351   3.380   4.690
 6396SOL     OW20086   1.265   3.769   3.966
 6396SOL    HW120087   1.261   3.670   3.971
 6396SOL    HW220088   1.258   3.798   3.870
 6397SOL     OW20089   1.220   3.624   4.469
 6397SOL    HW120090   1.134   3.587   4.433
 6397SOL    HW220091   1.216   3.625   4.569
 6398SOL     OW20092   0.292   0.115   2.187
 6398SOL    HW120093   0.344   0.078   2.265
 6398SOL    HW220094   0.347   0.106   2.104
 6399SOL     OW20095   2.318   6.895   6.308
 6399SOL    HW120096   2.266   6.820   6.268
 6399SOL    HW220097   2.334   6.877   6.404
 6400SOL     OW20098   1.791   6.940   2.910
 6400SOL    HW120099   1.844   6.869   2.956
 6400SOL    HW220100   1.828   0.010   2.934
 6401SOL     OW20101   4.024   4.937   1.211
 6401SOL    HW120102   4.007   5.031   1.240
 6401SOL    HW220103   4.094   4.936   1.140
 6402SOL     OW20104   3.315   3.302   6.653
 6402SOL    HW120105   3.240   3.238   6.673
 6402SOL    HW220106   3.395   3.276   6.707
 6403SOL     OW20107   4.015   5.302   6.045
 6403SOL    HW120108   3.989   5.229   6.109
 6403SOL    HW220109   3.989   5.390   6.084
 6404SOL     OW20110   4.729   6.301   6.567
 6404SOL    HW120111   4.745   6.388   6.519
 6404SOL    HW220112   4.803   6.237   6.546
 6405SOL     OW20113   4.119   1.188   3.813
 6405SOL    HW120114   4.078   1.249   3.745
 6405SOL    HW220115   4.141   1.101   3.771
 6406SOL     OW20116   0.162   3.188   2.407
 6406SOL    HW120117   0.125   3.265   2.459
 6406SOL    HW220118   0.150   3.206   2.309
 6407SOL     OW20119   0.880   0.013   2.811
 6407SOL    HW120120   0.847   0.030   2.904
 6407SOL    HW220121   0.816   0.053   2.745
 6408SOL     OW20122   0.299   0.786   2.663
 6408SOL    HW120123   0.375   0.833   2.709
 6408SOL    HW220124   0.336   0.722   2.595
 6409SOL     OW20125   6.401   4.591   4.130
 6409SOL    HW120126   6.449   4.558   4.211
 6409SOL    HW220127   6.439   4.546   4.049
 6410SOL     OW20128   2.378   0.799   0.044
 6410SOL    HW120129   2.474   0.799   0.017
 6410SOL    HW220130   2.324   0.852   6.998
 6411SOL     OW20131   1.779   2.106   4.291
 6411SOL    HW120132   1.856   2.125   4.229
 6411SOL    HW220133   1.774   2.008   4.308
 6412SOL     OW20134   4.694   0.205   0.279
 6412SOL    HW120135   4.602   0.208   0.319
 6412SOL    HW220136   4.738   0.119   0.302
 6413SOL     OW20137   4.445   5.963   3.403
 6413SOL    HW120138   4.436   5.896   3.328
 6413SOL    HW220139   4.495   6.043   3.371
 6414SOL     OW20140   3.411   0.028   6.898
 6414SOL    HW120141   3.449   0.025   6.991
 6414SOL    HW220142   3.392   6.954   6.868
 6415SOL     OW20143   6.998   1.739   3.884
 6415SOL    HW120144   0.030   1.659   3.855
 6415SOL    HW220145   0.040   1.807   3.923
 6416SOL     OW20146   2.715   4.484   0.885
 6416SOL    HW120147   2.634   4.426   0.891
 6416SOL    HW220148   2.796   4.426   0.874
 6417SOL     OW20149   4.776   3.169   5.267
 6417SOL    HW120150   4.827   3.198   5.186
 6417SOL    HW220151   4.773   3.244   5.333
 6418SOL     OW20152   4.623   5.562   6.830
 6418SOL    HW120153   4.632   5.549   6.731
 6418SOL    HW220154   4.601   5.658   6.849
 6419SOL     OW20155   1.741   6.716   6.967
 6419SOL    HW120156   1.686   6.794   6.937
 6419SOL    HW220157   1.838   6.743   6.969
 6420SOL     OW20158   2.622   4.936   3.622
 6420SOL    HW120159   2.702   4.963   3.568
 6420SOL    HW220160   2.559   4.886   3.564
 6421SOL     OW20161   4.515   6.179   1.750
 6421SOL    HW120162   4.497   6.177   1.848
 6421SOL    HW220163   4.512   6.086   1.713
 6422SOL     OW20164   1.034   0.795   5.855
 6422SOL    HW120165   1.027   0.840   5.766
 6422SOL    HW220166   0.971   0.840   5.919
 6423SOL     OW20167   1.183   3.410   3.697
 6423SOL    HW120168   1.165   3.427   3.600
 6423SOL    HW220169   1.237   3.327   3.707
 6424SOL     OW20170   5.825   4.214   5.935
 6424SOL    HW120171   5.851   4.190   6.028
 6424SOL    HW220172   5.775   4.301   5.936
 6425SOL     OW20173   1.066   6.883   3.658
 6425SOL    HW120174   1.004   6.837   3.594
 6425SOL    HW220175   1.012   6.925   3.732
 6426SOL     OW20176   3.360   5.268   4.187
 6426SOL    HW120177   3.412   5.271   4.272
 6426SOL    HW220178   3.422   5.275   4.109
 6427SOL     OW20179   3.085   3.403   2.452
 6427SOL    HW120180   3.047   3.496   2.452
 6427SOL    HW220181   3.014   3.338   2.478
 6428SOL     OW20182   0.157   3.774   6.841
 6428SOL    HW120183   0.074   3.810   6.883
 6428SOL    HW220184   0.183   3.831   6.763
 6429SOL     OW20185   3.191   1.415   4.650
 6429SOL    HW120186   3.117   1.348   4.655
 6429SOL    HW220187   3.225   1.420   4.556
 6430SOL     OW20188   6.211   1.429   4.325
 6430SOL    HW120189   6.273   1.353   4.302
 6430SOL    HW220190   6.265   1.512   4.339
 6431SOL     OW20191   3.489   5.414   3.088
 6431SOL    HW120192   3.566   5.405   3.151
 6431SOL    HW220193   3.506   5.361   3.005
 6432SOL     OW20194   3.552   3.267   0.433
 6432SOL    HW120195   3.623   3.266   0.363
 6432SOL    HW220196   3.546   3.358   0.473
 6433SOL     OW20197   4.205   5.475   6.331
 6433SOL    HW120198   4.120   5.519   6.302
 6433SOL    HW220199   4.206   5.381   6.298
 6434SOL     OW20200   6.382   4.689   6.960
 6434SOL    HW120201   6.296   4.737   6.942
 6434SOL    HW220202   6.456   4.756   6.965
 6435SOL     OW20203   4.484   0.726   0.518
 6435SOL    HW120204   4.443   0.689   0.435
 6435SOL    HW220205   4.573   0.766   0.497
 6436SOL     OW20206   1.390   1.395   3.706
 6436SOL    HW120207   1.384   1.451   3.624
 6436SOL    HW220208   1.382   1.454   3.787
 6437SOL     OW20209   1.093   2.544   6.579
 6437SOL    HW120210   1.173   2.604   6.573
 6437SOL    HW220211   1.013   2.591   6.544
 6438SOL     OW20212   0.889   5.625   1.794
 6438SOL    HW120213   0.838   5.554   1.842
 6438SOL    HW220214   0.834   5.658   1.717
 6439SOL     OW20215   3.930   5.797   3.110
 6439SOL    HW120216   3.979   5.710   3.120
 6439SOL    HW220217   3.968   5.864   3.174
 6440SOL     OW20218   2.224   2.338   5.233
 6440SOL    HW120219   2.313   2.383   5.228
 6440SOL    HW220220   2.225   2.267   5.303
 6441SOL     OW20221   1.450   1.368   2.151
 6441SOL    HW120222   1.426   1.299   2.083
 6441SOL    HW220223   1.504   1.327   2.223
 6442SOL     OW20224   3.101   1.942   4.086
 6442SOL    HW120225   3.020   1.999   4.099
 6442SOL    HW220226   3.169   1.992   4.033
 6443SOL     OW20227   2.473   1.639   6.248
 6443SOL    HW120228   2.404   1.620   6.178
 6443SOL    HW220229   2.539   1.705   6.212
 6444SOL     OW20230   6.547   4.047   5.552
 6444SOL    HW120231   6.632   4.092   5.578
 6444SOL    HW220232   6.560   3.948   5.552
 6445SOL     OW20233   3.162   3.039   3.444
 6445SOL    HW120234   3.156   3.034   3.543
 6445SOL    HW220235   3.251   3.003   3.414
 6446SOL     OW20236   0.334   0.653   1.693
 6446SOL    HW120237   0.424   0.696   1.703
 6446SOL    HW220238   0.346   0.554   1.683
 6447SOL     OW20239   0.548   3.871   2.219
 6447SOL    HW120240   0.451   3.852   2.236
 6447SOL    HW220241   0.580   3.815   2.143
 6448SOL     OW20242   3.735   4.211   1.419
 6448SOL    HW120243   3.747   4.112   1.409
 6448SOL    HW220244   3.761   4.239   1.511
 6449SOL     OW20245   4.268   6.507   6.530
 6449SOL    HW120246   4.306   6.576   6.591
 6449SOL    HW220247   4.336   6.435   6.513
 6450SOL     OW20248   4.446   3.774   0.792
 6450SOL    HW120249   4.531   3.722   0.788
 6450SOL    HW220250   4.368   3.711   0.792
 6451SOL     OW20251   4.391   3.656   1.419
 6451SOL    HW120252   4.361   3.683   1.510
 6451SOL    HW220253   4.424   3.736   1.369
 6452SOL     OW20254   4.909   1.728   4.056
 6452SOL    HW120255   4.932   1.710   4.152
 6452SOL    HW220256   4.810   1.734   4.046
 6453SOL     OW20257   3.177   0.613   2.879
 6453SOL    HW120258   3.147   0.704   2.907
 6453SOL    HW220259   3.276   0.606   2.890
 6454SOL     OW20260   4.631   3.412   5.589
 6454SOL    HW120261   4.712   3.364   5.622
 6454SOL    HW220262   4.593   3.468   5.663
 6455SOL     OW20263   0.140   3.300   5.580
 6455SOL    HW120264   0.069   3.245   5.623
 6455SOL    HW220265   0.207   3.329   5.648
 6456SOL     OW20266   5.952   2.207   3.166
 6456SOL    HW120267   6.044   2.169   3.168
 6456SOL    HW220268   5.948   2.288   3.224
 6457SOL     OW20269   1.732   6.197   3.589
 6457SOL    HW120270   1.830   6.213   3.577
 6457SOL    HW220271   1.684   6.284   3.599
 6458SOL     OW20272   1.058   0.125   4.658
 6458SOL    HW120273   1.129   0.072   4.704
 6458SOL    HW220274   0.978   0.068   4.642
 6459SOL     OW20275   0.161   3.157   3.595
 6459SOL    HW120276   0.225   3.110   3.533
 6459SOL    HW220277   0.208   3.178   3.681
 6460SOL     OW20278   1.396   5.503   5.579
 6460SOL    HW120279   1.369   5.407   5.576
 6460SOL    HW220280   1.324   5.557   5.622
 6461SOL     OW20281   6.187   0.480   2.337
 6461SOL    HW120282   6.093   0.446   2.338
 6461SOL    HW220283   6.250   0.405   2.316
 6462SOL     OW20284   2.792   4.206   5.508
 6462SOL    HW120285   2.738   4.132   5.547
 6462SOL    HW220286   2.889   4.183   5.514
 6463SOL     OW20287   4.746   3.529   1.777
 6463SOL    HW120288   4.781   3.436   1.793
 6463SOL    HW220289   4.657   3.523   1.731
 6464SOL     OW20290   0.889   3.660   3.250
 6464SOL    HW120291   0.952   3.595   3.294
 6464SOL    HW220292   0.811   3.610   3.213
 6465SOL     OW20293   2.864   1.275   2.726
 6465SOL    HW120294   2.835   1.252   2.633
 6465SOL    HW220295   2.792   1.327   2.772
 6466SOL     OW20296   6.251   4.972   6.937
 6466SOL    HW120297   6.190   5.035   6.985
 6466SOL    HW220298   6.342   5.013   6.931
 6467SOL     OW20299   2.846   3.414   6.103
 6467SOL    HW120300   2.784   3.489   6.123
 6467SOL    HW220301   2.933   3.429   6.151
 6468SOL     OW20302   0.691   0.790   6.606
 6468SOL    HW120303   0.717   0.887   6.610
 6468SOL    HW220304   0.672   0.765   6.511
 6469SOL     OW20305   3.047   0.991   1.215
 6469SOL    HW120306   3.097   1.072   1.243
 6469SOL    HW220307   3.011   1.004   1.122
 6470SOL     OW20308   6.323   1.032   0.008
 6470SOL    HW120309   6.374   0.980   6.959
 6470SOL    HW220310   6.225   1.016   7.015
 6471SOL     OW20311   0.190   6.574   5.312
 6471SOL    HW120312   0.264   6.527   5.359
 6471SOL    HW220313   0.136   6.626   5.379
 6472SOL     OW20314   0.941   5.926   0.851
 6472SOL    HW120315   0.988   5.925   0.939
 6472SOL    HW220316   0.905   5.835   0.831
 6473SOL     OW20317   3.351   1.572   3.468
 6473SOL    HW120318   3.399   1.522   3.395
 6473SOL    HW220319   3.418   1.607   3.534
 6474SOL     OW20320   4.310   0.204   4.351
 6474SOL    HW120321   4.221   0.235   4.318
 6474SOL    HW220322   4.298   0.126   4.413
 6475SOL     OW20323   5.790   5.725   4.209
 6475SOL    HW120324   5.744   5.800   4.162
 6475SOL    HW220325   5.728   5.687   4.278
 6476SOL     OW20326   5.213   4.351   4.229
 6476SOL    HW120327   5.259   4.438   4.247
 6476SOL    HW220328   5.194   4.343   4.131
 6477SOL     OW20329   0.791   6.956   0.969
 6477SOL    HW120330   0.830   6.880   1.020
 6477SOL    HW220331   0.803   6.942   0.871
 6478SOL     OW20332   2.102   6.507   0.138
 6478SOL    HW120333   2.168   6.484   0.210
 6478SOL    HW220334   2.018   6.541   0.180
 6479SOL     OW20335   4.604   5.367   4.642
 6479SOL    HW120336   4.628   5.275   4.674
 6479SOL    HW220337   4.522   5.362   4.585
 6480SOL     OW20338   2.622   0.496   4.578
 6480SOL    HW120339   2.597   0.406   4.543
 6480SOL    HW220340   2.544   0.537   4.625
 6481SOL     OW20341   4.072   3.634   1.156
 6481SOL    HW120342   4.022   3.624   1.243
 6481SOL    HW220343   4.117   3.723   1.153
 6482SOL     OW20344   5.549   3.388   4.071
 6482SOL    HW120345   5.497   3.404   4.155
 6482SOL    HW220346   5.547   3.470   4.014
 6483SOL     OW20347   2.139   6.533   5.713
 6483SOL    HW120348   2.171   6.570   5.626
 6483SOL    HW220349   2.132   6.433   5.707
 6484SOL     OW20350   3.683   0.612   3.968
 6484SOL    HW120351   3.661   0.598   3.872
 6484SOL    HW220352   3.677   0.710   3.989
 6485SOL     OW20353   2.451   4.852   5.245
 6485SOL    HW120354   2.404   4.764   5.257
 6485SOL    HW220355   2.402   4.908   5.178
 6486SOL     OW20356   6.778   3.276   2.408
 6486SOL    HW120357   6.866   3.305   2.446
 6486SOL    HW220358   6.756   3.185   2.443
 6487SOL     OW20359   6.128   5.810   4.710
 6487SOL    HW120360   6.180   5.788   4.628
 6487SOL    HW220361   6.191   5.842   4.781
 6488SOL     OW20362   3.918   5.336   2.830
 6488SOL    HW120363   3.893   5.359   2.924
 6488SOL    HW220364   3.835   5.328   2.774
 6489SOL     OW20365   6.829   3.845   5.170
 6489SOL    HW120366   6.772   3.927   5.175
 6489SOL    HW220367   6.830   3.810   5.077
 6490SOL     OW20368   2.064   3.267   5.807
 6490SOL    HW120369   2.092   3.347   5.859
 6490SOL    HW220370   2.055   3.292   5.711
 6491SOL     OW20371   0.773   0.140   2.345
 6491SOL    HW120372   0.830   0.094   2.277
 6491SOL    HW220373   0.828   0.209   2.393
 6492SOL     OW20374   4.107   3.652   2.852
 6492SOL    HW120375   4.132   3.556   2.863
 6492SOL    HW220376   4.032   3.674   2.915
 6493SOL     OW20377   2.234   4.983   3.908
 6493SOL    HW120378   2.198   4.899   3.867
 6493SOL    HW220379   2.287   5.034   3.839
 6494SOL     OW20380   6.669   0.876   1.686
 6494SOL    HW120381   6.630   0.847   1.598
 6494SOL    HW220382   6.598   0.924   1.739
 6495SOL     OW20383   6.610   5.957   2.745
 6495SOL    HW120384   6.694   6.011   2.758
 6495SOL    HW220385   6.557   5.956   2.830
 6496SOL     OW20386   2.749   2.674   1.288
 6496SOL    HW120387   2.828   2.613   1.277
 6496SOL    HW220388   2.724   2.677   1.385
 6497SOL     OW20389   0.115   3.128   1.304
 6497SOL    HW120390   0.193   3.066   1.310
 6497SOL    HW220391   0.047   3.090   1.241
 6498SOL     OW20392   2.651   4.973   4.660
 6498SOL    HW120393   2.601   4.891   4.632
 6498SOL    HW220394   2.623   5.000   4.752
 6499SOL     OW20395   5.546   1.867   3.026
 6499SOL    HW120396   5.552   1.835   2.932
 6499SOL    HW220397   5.631   1.915   3.051
 6500SOL     OW20398   1.794   3.724   2.747
 6500SOL    HW120399   1.869   3.659   2.744
 6500SOL    HW220400   1.815   3.802   2.688
 6501SOL     OW20401   6.416   1.062   2.815
 6501SOL    HW120402   6.360   1.125   2.761
 6501SOL    HW220403   6.511   1.071   2.787
 6502SOL     OW20404   0.790   3.270   2.984
 6502SOL    HW120405   0.818   3.206   2.912
 6502SOL    HW220406   0.694   3.295   2.972
 6503SOL     OW20407   1.022   3.052   5.490
 6503SOL    HW120408   1.037   3.150   5.475
 6503SOL    HW220409   1.049   3.002   5.408
 6504SOL     OW20410   4.129   6.575   5.550
 6504SOL    HW120411   4.054   6.618   5.499
 6504SOL    HW220412   4.216   6.602   5.508
 6505SOL     OW20413   0.823   6.779   6.743
 6505SOL    HW120414   0.873   6.811   6.662
 6505SOL    HW220415   0.888   6.746   6.811
 6506SOL     OW20416   0.992   5.221   2.500
 6506SOL    HW120417   0.977   5.163   2.420
 6506SOL    HW220418   0.904   5.255   2.534
 6507SOL     OW20419   5.329   5.407   0.458
 6507SOL    HW120420   5.269   5.458   0.396
 6507SOL    HW220421   5.347   5.461   0.540
 6508SOL     OW20422   6.846   1.410   4.576
 6508SOL    HW120423   6.750   1.412   4.601
 6508SOL    HW220424   6.900   1.454   4.648
 6509SOL     OW20425   2.792   1.660   6.432
 6509SOL    HW120426   2.852   1.642   6.354
 6509SOL    HW220427   2.801   1.755   6.460
 6510SOL     OW20428   4.003   5.078   4.109
 6510SOL    HW120429   3.999   5.129   4.024
 6510SOL    HW220430   4.066   5.124   4.172
 6511SOL     OW20431   3.698   3.176   0.180
 6511SOL    HW120432   3.623   3.235   0.150
 6511SOL    HW220433   3.662   3.086   0.206
 6512SOL     OW20434   5.306   1.574   2.281
 6512SOL    HW120435   5.274   1.667   2.265
 6512SOL    HW220436   5.246   1.529   2.347
 6513SOL     OW20437   3.225   4.476   1.649
 6513SOL    HW120438   3.204   4.520   1.561
 6513SOL    HW220439   3.323   4.463   1.657
 6514SOL     OW20440   5.485   5.708   5.417
 6514SOL    HW120441   5.502   5.792   5.468
 6514SOL    HW220442   5.569   5.653   5.416
 6515SOL     OW20443   0.550   4.631   2.462
 6515SOL    HW120444   0.630   4.638   2.521
 6515SOL    HW220445   0.498   4.549   2.486
 6516SOL     OW20446   5.839   1.454   3.592
 6516SOL    HW120447   5.886   1.504   3.519
 6516SOL    HW220448   5.773   1.391   3.552
 6517SOL     OW20449   0.072   3.861   1.390
 6517SOL    HW120450   0.029   3.872   1.301
 6517SOL    HW220451   0.172   3.859   1.378
 6518SOL     OW20452   0.992   1.822   2.589
 6518SOL    HW120453   0.947   1.877   2.519
 6518SOL    HW220454   0.931   1.748   2.617
 6519SOL     OW20455   2.344   1.849   3.317
 6519SOL    HW120456   2.285   1.777   3.352
 6519SOL    HW220457   2.346   1.844   3.217
 6520SOL     OW20458   5.934   6.760   6.542
 6520SOL    HW120459   5.996   6.824   6.498
 6520SOL    HW220460   5.848   6.807   6.565
 6521SOL     OW20461   1.871   4.824   4.876
 6521SOL    HW120462   1.853   4.841   4.779
 6521SOL    HW220463   1.937   4.749   4.884
 6522SOL     OW20464   2.378   3.159   5.378
 6522SOL    HW120465   2.386   3.241   5.321
 6522SOL    HW220466   2.413   3.080   5.327
 6523SOL     OW20467   4.646   6.795   0.715
 6523SOL    HW120468   4.574   6.740   0.672
 6523SOL    HW220469   4.731   6.786   0.663
 6524SOL     OW20470   3.673   2.241   1.435
 6524SOL    HW120471   3.665   2.182   1.355
 6524SOL    HW220472   3.644   2.334   1.410
 6525SOL     OW20473   3.062   5.155   3.488
 6525SOL    HW120474   3.132   5.084   3.491
 6525SOL    HW220475   3.032   5.176   3.581
 6526SOL     OW20476   5.886   6.516   0.571
 6526SOL    HW120477   5.961   6.452   0.589
 6526SOL    HW220478   5.799   6.467   0.577
 6527SOL     OW20479   5.705   2.213   0.950
 6527SOL    HW120480   5.685   2.300   0.995
 6527SOL    HW220481   5.783   2.170   0.995
 6528SOL     OW20482   4.712   0.259   0.756
 6528SOL    HW120483   4.703   0.326   0.682
 6528SOL    HW220484   4.648   0.184   0.740
 6529SOL     OW20485   3.497   6.132   1.379
 6529SOL    HW120486   3.560   6.182   1.319
 6529SOL    HW220487   3.418   6.102   1.325
 6530SOL     OW20488   0.872   2.856   4.304
 6530SOL    HW120489   0.912   2.765   4.295
 6530SOL    HW220490   0.944   2.924   4.310
 6531SOL     OW20491   2.937   3.298   4.335
 6531SOL    HW120492   2.950   3.344   4.247
 6531SOL    HW220493   2.980   3.208   4.332
 6532SOL     OW20494   0.419   5.742   6.752
 6532SOL    HW120495   0.500   5.748   6.693
 6532SOL    HW220496   0.427   5.662   6.810
 6533SOL     OW20497   5.841   5.229   1.162
 6533SOL    HW120498   5.911   5.300   1.151
 6533SOL    HW220499   5.852   5.161   1.089
 6534SOL     OW20500   6.147   3.149   4.318
 6534SOL    HW120501   6.152   3.059   4.274
 6534SOL    HW220502   6.134   3.137   4.417
 6535SOL     OW20503   5.538   3.212   6.628
 6535SOL    HW120504   5.519   3.132   6.570
 6535SOL    HW220505   5.623   3.198   6.679
 6536SOL     OW20506   6.747   5.908   5.699
 6536SOL    HW120507   6.837   5.945   5.724
 6536SOL    HW220508   6.754   5.809   5.687
 6537SOL     OW20509   6.693   5.181   4.079
 6537SOL    HW120510   6.741   5.093   4.085
 6537SOL    HW220511   6.664   5.209   4.171
 6538SOL     OW20512   1.393   3.959   3.655
 6538SOL    HW120513   1.294   3.947   3.665
 6538SOL    HW220514   1.429   4.007   3.735
 6539SOL     OW20515   5.765   6.541   5.708
 6539SOL    HW120516   5.787   6.638   5.724
 6539SOL    HW220517   5.706   6.508   5.782
 6540SOL     OW20518   0.679   2.862   5.267
 6540SOL    HW120519   0.601   2.886   5.211
 6540SOL    HW220520   0.674   2.910   5.355
 6541SOL     OW20521   3.220   1.859   5.610
 6541SOL    HW120522   3.225   1.951   5.648
 6541SOL    HW220523   3.161   1.803   5.668
 6542SOL     OW20524   1.679   4.887   1.744
 6542SOL    HW120525   1.699   4.970   1.796
 6542SOL    HW220526   1.764   4.841   1.721
 6543SOL     OW20527   4.259   1.998   3.785
 6543SOL    HW120528   4.277   1.899   3.785
 6543SOL    HW220529   4.292   2.038   3.700
 6544SOL     OW20530   1.163   1.097   1.222
 6544SOL    HW120531   1.160   1.186   1.176
 6544SOL    HW220532   1.096   1.036   1.180
 6545SOL     OW20533   6.572   4.444   0.490
 6545SOL    HW120534   6.475   4.469   0.497
 6545SOL    HW220535   6.582   4.363   0.433
 6546SOL     OW20536   4.401   5.579   4.103
 6546SOL    HW120537   4.392   5.594   4.202
 6546SOL    HW220538   4.382   5.484   4.082
 6547SOL     OW20539   6.638   6.386   4.726
 6547SOL    HW120540   6.620   6.302   4.778
 6547SOL    HW220541   6.736   6.402   4.722
 6548SOL     OW20542   1.491   0.990   5.016
 6548SOL    HW120543   1.557   0.987   4.941
 6548SOL    HW220544   1.502   0.908   5.073
 6549SOL     OW20545   2.361   1.855   2.277
 6549SOL    HW120546   2.364   1.771   2.331
 6549SOL    HW220547   2.285   1.851   2.213
 6550SOL     OW20548   5.141   0.671   1.934
 6550SOL    HW120549   5.232   0.631   1.944
 6550SOL    HW220550   5.124   0.733   2.011
 6551SOL     OW20551   2.228   5.877   1.070
 6551SOL    HW120552   2.292   5.809   1.107
 6551SOL    HW220553   2.279   5.960   1.046
 6552SOL     OW20554   2.234   3.542   6.677
 6552SOL    HW120555   2.210   3.527   6.773
 6552SOL    HW220556   2.220   3.638   6.653
 6553SOL     OW20557   0.521   1.675   3.361
 6553SOL    HW120558   0.529   1.722   3.273
 6553SOL    HW220559   0.462   1.729   3.422
 6554SOL     OW20560   2.194   1.544   4.223
 6554SOL    HW120561   2.097   1.563   4.204
 6554SOL    HW220562   2.240   1.628   4.251
 6555SOL     OW20563   2.071   3.410   1.777
 6555SOL    HW120564   2.082   3.485   1.712
 6555SOL    HW220565   2.138   3.421   1.851
 6556SOL     OW20566   4.825   3.018   3.614
 6556SOL    HW120567   4.898   2.970   3.566
 6556SOL    HW220568   4.754   3.046   3.549
 6557SOL     OW20569   1.919   6.684   2.533
 6557SOL    HW120570   1.834   6.738   2.528
 6557SOL    HW220571   1.907   6.599   2.482
 6558SOL     OW20572   4.628   5.988   0.504
 6558SOL    HW120573   4.703   5.954   0.562
 6558SOL    HW220574   4.653   5.978   0.408
 6559SOL     OW20575   0.105   1.927   6.234
 6559SOL    HW120576   0.170   1.947   6.160
 6559SOL    HW220577   0.032   1.868   6.199
 6560SOL     OW20578   6.932   4.079   6.327
 6560SOL    HW120579   6.957   3.993   6.372
 6560SOL    HW220580   6.841   4.070   6.287
 6561SOL     OW20581   2.324   5.177   6.777
 6561SOL    HW120582   2.406   5.178   6.721
 6561SOL    HW220583   2.327   5.098   6.839
 6562SOL     OW20584   5.004   2.757   1.104
 6562SOL    HW120585   5.037   2.852   1.110
 6562SOL    HW220586   4.942   2.749   1.026
 6563SOL     OW20587   5.784   4.170   6.214
 6563SOL    HW120588   5.690   4.156   6.243
 6563SOL    HW220589   5.817   4.257   6.250
 6564SOL     OW20590   6.239   4.122   2.505
 6564SOL    HW120591   6.316   4.059   2.503
 6564SOL    HW220592   6.169   4.091   2.441
 6565SOL     OW20593   5.414   5.159   1.669
 6565SOL    HW120594   5.426   5.140   1.572
 6565SOL    HW220595   5.503   5.180   1.710
 6566SOL     OW20596   5.483   6.103   4.799
 6566SOL    HW120597   5.483   6.003   4.804
 6566SOL    HW220598   5.565   6.133   4.749
 6567SOL     OW20599   2.832   0.660   2.484
 6567SOL    HW120600   2.914   0.619   2.522
 6567SOL    HW220601   2.782   0.592   2.431
 6568SOL     OW20602   5.469   1.578   0.859
 6568SOL    HW120603   5.484   1.672   0.828
 6568SOL    HW220604   5.429   1.525   0.784
 6569SOL     OW20605   1.354   4.089   3.176
 6569SOL    HW120606   1.365   4.004   3.125
 6569SOL    HW220607   1.427   4.098   3.244
 6570SOL     OW20608   4.258   0.076   2.311
 6570SOL    HW120609   4.209   0.162   2.323
 6570SOL    HW220610   4.195   0.004   2.283
 6571SOL     OW20611   2.402   7.006   3.492
 6571SOL    HW120612   2.397   6.916   3.447
 6571SOL    HW220613   2.374   6.997   3.588
 6572SOL     OW20614   0.864   6.998   3.891
 6572SOL    HW120615   0.793   0.046   3.868
 6572SOL    HW220616   0.883   7.002   3.989
 6573SOL     OW20617   1.161   2.188   3.376
 6573SOL    HW120618   1.121   2.130   3.305
 6573SOL    HW220619   1.256   2.161   3.392
 6574SOL     OW20620   1.591   5.147   1.421
 6574SOL    HW120621   1.675   5.185   1.460
 6574SOL    HW220622   1.613   5.090   1.342
 6575SOL     OW20623   6.733   0.805   4.297
 6575SOL    HW120624   6.769   0.733   4.237
 6575SOL    HW220625   6.790   0.811   4.380
 6576SOL     OW20626   4.361   0.661   3.237
 6576SOL    HW120627   4.422   0.669   3.159
 6576SOL    HW220628   4.278   0.612   3.210
 6577SOL     OW20629   3.015   0.595   5.534
 6577SOL    HW120630   3.068   0.594   5.449
 6577SOL    HW220631   2.982   0.502   5.552
 6578SOL     OW20632   0.680   6.082   0.334
 6578SOL    HW120633   0.693   6.111   0.429
 6578SOL    HW220634   0.752   6.019   0.307
 6579SOL     OW20635   2.144   1.723   2.832
 6579SOL    HW120636   2.140   1.802   2.770
 6579SOL    HW220637   2.099   1.645   2.789
 6580SOL     OW20638   3.290   2.466   0.202
 6580SOL    HW120639   3.250   2.390   0.151
 6580SOL    HW220640   3.380   2.489   0.163
 6581SOL     OW20641   1.018   2.197   1.823
 6581SOL    HW120642   0.929   2.176   1.783
 6581SOL    HW220643   1.037   2.135   1.899
 6582SOL     OW20644   3.724   6.469   3.051
 6582SOL    HW120645   3.678   6.517   3.126
 6582SOL    HW220646   3.807   6.519   3.026
 6583SOL     OW20647   2.349   4.792   0.450
 6583SOL    HW120648   2.271   4.743   0.490
 6583SOL    HW220649   2.316   4.876   0.408
 6584SOL     OW20650   4.636   3.739   5.427
 6584SOL    HW120651   4.728   3.724   5.462
 6584SOL    HW220652   4.628   3.699   5.336
 6585SOL     OW20653   5.040   6.140   1.747
 6585SOL    HW120654   5.098   6.076   1.797
 6585SOL    HW220655   4.968   6.173   1.807
 6586SOL     OW20656   6.485   1.782   6.924
 6586SOL    HW120657   6.519   1.732   7.004
 6586SOL    HW220658   6.413   1.845   6.952
 6587SOL     OW20659   2.722   4.805   5.211
 6587SOL    HW120660   2.748   4.725   5.156
 6587SOL    HW220661   2.623   4.803   5.226
 6588SOL     OW20662   1.611   2.518   0.423
 6588SOL    HW120663   1.617   2.612   0.457
 6588SOL    HW220664   1.523   2.478   0.450
 6589SOL     OW20665   5.892   0.763   0.198
 6589SOL    HW120666   5.819   0.709   0.239
 6589SOL    HW220667   5.944   0.808   0.270
 6590SOL     OW20668   0.533   6.080   4.320
 6590SOL    HW120669   0.518   5.991   4.364
 6590SOL    HW220670   0.445   6.127   4.310
 6591SOL     OW20671   6.214   3.699   3.584
 6591SOL    HW120672   6.172   3.655   3.505
 6591SOL    HW220673   6.146   3.756   3.631
 6592SOL     OW20674   0.616   0.669   4.382
 6592SOL    HW120675   0.538   0.653   4.322
 6592SOL    HW220676   0.655   0.582   4.411
 6593SOL     OW20677   0.863   6.586   3.682
 6593SOL    HW120678   0.819   6.675   3.684
 6593SOL    HW220679   0.884   6.557   3.775
 6594SOL     OW20680   5.131   6.815   6.245
 6594SOL    HW120681   5.128   6.746   6.173
 6594SOL    HW220682   5.182   6.895   6.213
 6595SOL     OW20683   0.532   6.913   4.354
 6595SOL    HW120684   0.565   6.862   4.433
 6595SOL    HW220685   0.584   6.998   4.345
 6596SOL     OW20686   4.798   0.601   3.401
 6596SOL    HW120687   4.818   0.503   3.401
 6596SOL    HW220688   4.881   0.651   3.428
 6597SOL     OW20689   0.722   5.419   1.902
 6597SOL    HW120690   0.755   5.325   1.911
 6597SOL    HW220691   0.655   5.424   1.828
 6598SOL     OW20692   1.309   5.201   1.538
 6598SOL    HW120693   1.313   5.300   1.525
 6598SOL    HW220694   1.400   5.162   1.524
 6599SOL     OW20695   0.362   5.717   0.573
 6599SOL    HW120696   0.362   5.765   0.485
 6599SOL    HW220697   0.322   5.626   0.561
 6600SOL     OW20698   5.242   0.266   4.658
 6600SOL    HW120699   5.204   0.345   4.611
 6600SOL    HW220700   5.321   0.295   4.713
 6601SOL     OW20701   1.034   2.050   3.817
 6601SOL    HW120702   1.089   1.968   3.808
 6601SOL    HW220703   1.075   2.111   3.886
 6602SOL     OW20704   5.992   6.188   0.731
 6602SOL    HW120705   5.970   6.247   0.809
 6602SOL    HW220706   6.040   6.241   0.662
 6603SOL     OW20707   6.847   5.072   2.321
 6603SOL    HW120708   6.752   5.095   2.343
 6603SOL    HW220709   6.868   5.100   2.227
 6604SOL     OW20710   2.456   4.750   2.249
 6604SOL    HW120711   2.429   4.714   2.159
 6604SOL    HW220712   2.555   4.744   2.258
 6605SOL     OW20713   6.939   5.581   0.736
 6605SOL    HW120714   6.877   5.524   0.682
 6605SOL    HW220715   7.001   5.523   0.789
 6606SOL     OW20716   1.294   5.248   3.351
 6606SOL    HW120717   1.331   5.160   3.321
 6606SOL    HW220718   1.232   5.284   3.281
 6607SOL     OW20719   0.670   2.540   4.137
 6607SOL    HW120720   0.647   2.623   4.086
 6607SOL    HW220721   0.604   2.468   4.116
 6608SOL     OW20722   1.170   6.982   5.277
 6608SOL    HW120723   1.175   6.883   5.263
 6608SOL    HW220724   1.234   0.008   5.214
 6609SOL     OW20725   2.573   2.006   0.048
 6609SOL    HW120726   2.570   2.065   0.129
 6609SOL    HW220727   2.619   1.920   0.071
 6610SOL     OW20728   3.410   5.215   0.200
 6610SOL    HW120729   3.319   5.248   0.174
 6610SOL    HW220730   3.408   5.116   0.210
 6611SOL     OW20731   2.483   0.833   4.685
 6611SOL    HW120732   2.581   0.837   4.702
 6611SOL    HW220733   2.452   0.739   4.695
 6612SOL     OW20734   5.833   7.007   6.681
 6612SOL    HW120735   5.799   0.012   6.590
 6612SOL    HW220736   5.880   0.066   6.721
 6613SOL     OW20737   5.206   6.451   0.883
 6613SOL    HW120738   5.238   6.454   0.977
 6613SOL    HW220739   5.271   6.498   0.823
 6614SOL     OW20740   3.948   5.874   0.574
 6614SOL    HW120741   3.941   5.898   0.477
 6614SOL    HW220742   3.876   5.920   0.625
 6615SOL     OW20743   3.935   5.698   5.879
 6615SOL    HW120744   3.990   5.697   5.795
 6615SOL    HW220745   3.875   5.618   5.880
 6616SOL     OW20746   4.044   2.108   6.551
 6616SOL    HW120747   3.963   2.050   6.543
 6616SOL    HW220748   4.019   2.195   6.593
 6617SOL     OW20749   4.190   2.018   4.075
 6617SOL    HW120750   4.177   2.061   3.986
 6617SOL    HW220751   4.123   2.054   4.140
 6618SOL     OW20752   6.331   2.652   3.551
 6618SOL    HW120753   6.233   2.651   3.532
 6618SOL    HW220754   6.346   2.682   3.645
 6619SOL     OW20755   4.723   5.190   3.600
 6619SOL    HW120756   4.757   5.241   3.679
 6619SOL    HW220757   4.793   5.124   3.571
 6620SOL     OW20758   1.674   2.679   3.892
 6620SOL    HW120759   1.713   2.771   3.900
 6620SOL    HW220760   1.738   2.620   3.842
 6621SOL     OW20761   3.471   3.864   3.296
 6621SOL    HW120762   3.560   3.899   3.268
 6621SOL    HW220763   3.478   3.822   3.387
 6622SOL     OW20764   6.880   4.983   1.163
 6622SOL    HW120765   6.950   4.912   1.167
 6622SOL    HW220766   6.872   5.027   1.253
 6623SOL     OW20767   3.440   3.651   4.079
 6623SOL    HW120768   3.426   3.732   4.136
 6623SOL    HW220769   3.519   3.665   4.020
 6624SOL     OW20770   2.231   2.113   2.713
 6624SOL    HW120771   2.266   2.198   2.672
 6624SOL    HW220772   2.196   2.053   2.641
 6625SOL     OW20773   1.101   5.381   6.298
 6625SOL    HW120774   1.167   5.453   6.319
 6625SOL    HW220775   1.022   5.389   6.358
 6626SOL     OW20776   3.690   6.055   5.803
 6626SOL    HW120777   3.727   6.125   5.864
 6626SOL    HW220778   3.765   6.012   5.753
 6627SOL     OW20779   2.341   0.151   4.377
 6627SOL    HW120780   2.324   0.192   4.467
 6627SOL    HW220781   2.425   0.097   4.381
 6628SOL     OW20782   3.790   6.349   3.821
 6628SOL    HW120783   3.757   6.421   3.761
 6628SOL    HW220784   3.849   6.389   3.891
 6629SOL     OW20785   5.124   5.479   5.231
 6629SOL    HW120786   5.164   5.401   5.279
 6629SOL    HW220787   5.045   5.512   5.282
 6630SOL     OW20788   1.618   6.977   0.886
 6630SOL    HW120789   1.533   6.961   0.836
 6630SOL    HW220790   1.696   6.961   0.826
 6631SOL     OW20791   1.571   1.544   5.375
 6631SOL    HW120792   1.474   1.569   5.383
 6631SOL    HW220793   1.627   1.626   5.383
 6632SOL     OW20794   1.190   0.591   5.958
 6632SOL    HW120795   1.142   0.670   5.921
 6632SOL    HW220796   1.283   0.588   5.921
 6633SOL     OW20797   5.167   0.541   5.741
 6633SOL    HW120798   5.206   0.567   5.652
 6633SOL    HW220799   5.185   0.444   5.758
 6634SOL     OW20800   2.892   2.174   4.040
 6634SOL    HW120801   2.804   2.131   4.020
 6634SOL    HW220802   2.942   2.189   3.955
 6635SOL     OW20803   4.423   5.610   6.206
 6635SOL    HW120804   4.359   5.546   6.249
 6635SOL    HW220805   4.517   5.585   6.231
 6636SOL     OW20806   4.769   1.731   0.894
 6636SOL    HW120807   4.753   1.761   0.988
 6636SOL    HW220808   4.842   1.786   0.853
 6637SOL     OW20809   0.583   3.769   0.125
 6637SOL    HW120810   0.637   3.808   0.051
 6637SOL    HW220811   0.642   3.754   0.205
 6638SOL     OW20812   3.270   3.337   4.215
 6638SOL    HW120813   3.292   3.408   4.282
 6638SOL    HW220814   3.182   3.358   4.172
 6639SOL     OW20815   6.221   2.232   2.679
 6639SOL    HW120816   6.199   2.271   2.768
 6639SOL    HW220817   6.293   2.164   2.689
 6640SOL     OW20818   0.174   3.412   4.316
 6640SOL    HW120819   0.172   3.475   4.393
 6640SOL    HW220820   0.142   3.322   4.345
 6641SOL     OW20821   5.336   2.322   0.413
 6641SOL    HW120822   5.413   2.265   0.383
 6641SOL    HW220823   5.287   2.275   0.487
 6642SOL     OW20824   0.705   4.647   6.423
 6642SOL    HW120825   0.705   4.561   6.475
 6642SOL    HW220826   0.746   4.631   6.333
 6643SOL     OW20827   6.221   5.661   5.931
 6643SOL    HW120828   6.228   5.753   5.970
 6643SOL    HW220829   6.280   5.599   5.982
 6644SOL     OW20830   2.330   6.746   3.400
 6644SOL    HW120831   2.249   6.804   3.387
 6644SOL    HW220832   2.311   6.676   3.469
 6645SOL     OW20833   4.688   2.756   5.482
 6645SOL    HW120834   4.687   2.769   5.383
 6645SOL    HW220835   4.631   2.676   5.505
 6646SOL     OW20836   4.416   6.815   5.978
 6646SOL    HW120837   4.323   6.839   6.008
 6646SOL    HW220838   4.429   6.846   5.884
 6647SOL     OW20839   3.334   4.942   0.573
 6647SOL    HW120840   3.382   4.857   0.593
 6647SOL    HW220841   3.245   4.942   0.620
 6648SOL     OW20842   3.194   6.288   5.058
 6648SOL    HW120843   3.107   6.241   5.073
 6648SOL    HW220844   3.180   6.364   4.994
 6649SOL     OW20845   5.437   2.318   5.414
 6649SOL    HW120846   5.502   2.242   5.412
 6649SOL    HW220847   5.374   2.306   5.491
 6650SOL     OW20848   2.642   0.694   4.352
 6650SOL    HW120849   2.572   0.765   4.346
 6650SOL    HW220850   2.624   0.638   4.433
 6651SOL     OW20851   6.220   1.537   3.503
 6651SOL    HW120852   6.273   1.536   3.588
 6651SOL    HW220853   6.212   1.631   3.470
 6652SOL     OW20854   6.765   5.079   6.999
 6652SOL    HW120855   6.858   5.049   6.982
 6652SOL    HW220856   6.714   5.006   0.025
 6653SOL     OW20857   5.422   3.495   6.795
 6653SOL    HW120858   5.463   3.427   6.856
 6653SOL    HW220859   5.365   3.448   6.728
 6654SOL     OW20860   6.941   2.081   3.203
 6654SOL    HW120861   6.874   2.109   3.134
 6654SOL    HW220862   6.938   2.145   3.280
 6655SOL     OW20863   6.681   5.439   1.402
 6655SOL    HW120864   6.581   5.446   1.405
 6655SOL    HW220865   6.721   5.518   1.449
 6656SOL     OW20866   5.685   1.557   2.423
 6656SOL    HW120867   5.781   1.528   2.422
 6656SOL    HW220868   5.627   1.480   2.451
 6657SOL     OW20869   5.302   2.174   4.138
 6657SOL    HW120870   5.226   2.127   4.093
 6657SOL    HW220871   5.278   2.192   4.233
 6658SOL     OW20872   6.296   5.084   3.953
 6658SOL    HW120873   6.279   5.162   4.013
 6658SOL    HW220874   6.336   5.009   4.006
 6659SOL     OW20875   0.636   6.486   0.938
 6659SOL    HW120876   0.614   6.426   0.862
 6659SOL    HW220877   0.579   6.568   0.935
 6660SOL     OW20878   1.543   0.896   3.421
 6660SOL    HW120879   1.623   0.951   3.447
 6660SOL    HW220880   1.472   0.905   3.492
 6661SOL     OW20881   3.452   6.474   3.432
 6661SOL    HW120882   3.364   6.506   3.468
 6661SOL    HW220883   3.437   6.410   3.357
 6662SOL     OW20884   4.062   5.515   1.421
 6662SOL    HW120885   4.122   5.457   1.476
 6662SOL    HW220886   3.967   5.491   1.438
 6663SOL     OW20887   1.745   4.372   5.678
 6663SOL    HW120888   1.701   4.282   5.681
 6663SOL    HW220889   1.767   4.402   5.771
 6664SOL     OW20890   3.098   0.044   1.482
 6664SOL    HW120891   3.072   6.967   1.475
 6664SOL    HW220892   3.084   0.076   1.575
 6665SOL     OW20893   2.765   0.212   6.735
 6665SOL    HW120894   2.765   0.229   6.834
 6665SOL    HW220895   2.723   0.290   6.688
 6666SOL     OW20896   2.662   0.019   6.579
 6666SOL    HW120897   2.680   0.092   6.645
 6666SOL    HW220898   2.602   0.053   6.507
 6667SOL     OW20899   1.333   5.635   0.085
 6667SOL    HW120900   1.332   5.704   0.158
 6667SOL    HW220901   1.250   5.644   0.030
 6668SOL     OW20902   6.868   3.349   5.868
 6668SOL    HW120903   6.821   3.410   5.932
 6668SOL    HW220904   6.934   3.401   5.814
 6669SOL     OW20905   1.134   3.697   3.545
 6669SOL    HW120906   1.105   3.693   3.641
 6669SOL    HW220907   1.103   3.616   3.498
 6670SOL     OW20908   2.064   3.683   0.919
 6670SOL    HW120909   2.102   3.634   0.841
 6670SOL    HW220910   2.133   3.687   0.992
 6671SOL     OW20911   5.528   5.344   0.230
 6671SOL    HW120912   5.563   5.373   0.141
 6671SOL    HW220913   5.435   5.309   0.220
 6672SOL     OW20914   1.562   2.316   0.948
 6672SOL    HW120915   1.490   2.318   0.879
 6672SOL    HW220916   1.585   2.221   0.970
 6673SOL     OW20917   5.526   4.021   4.114
 6673SOL    HW120918   5.620   3.989   4.119
 6673SOL    HW220919   5.478   3.998   4.199
 6674SOL     OW20920   6.547   1.429   0.143
 6674SOL    HW120921   6.503   1.356   0.090
 6674SOL    HW220922   6.486   1.459   0.216
 6675SOL     OW20923   5.428   1.051   1.041
 6675SOL    HW120924   5.385   0.978   1.094
 6675SOL    HW220925   5.499   1.011   0.982
 6676SOL     OW20926   0.896   3.520   4.960
 6676SOL    HW120927   0.961   3.448   4.937
 6676SOL    HW220928   0.904   3.543   5.057
 6677SOL     OW20929   0.439   2.209   0.308
 6677SOL    HW120930   0.477   2.281   0.249
 6677SOL    HW220931   0.497   2.127   0.300
 6678SOL     OW20932   3.050   3.935   6.823
 6678SOL    HW120933   3.000   3.849   6.808
 6678SOL    HW220934   3.137   3.915   6.868
 6679SOL     OW20935   1.543   7.015   3.498
 6679SOL    HW120936   1.466   0.034   3.448
 6679SOL    HW220937   1.628   0.013   3.448
 6680SOL     OW20938   5.976   5.143   1.641
 6680SOL    HW120939   5.944   5.140   1.546
 6680SOL    HW220940   6.046   5.073   1.654
 6681SOL     OW20941   3.135   6.379   0.986
 6681SOL    HW120942   3.228   6.394   0.953
 6681SOL    HW220943   3.128   6.288   1.027
 6682SOL     OW20944   2.025   4.836   6.352
 6682SOL    HW120945   1.976   4.748   6.358
 6682SOL    HW220946   2.102   4.835   6.416
 6683SOL     OW20947   6.422   6.716   6.009
 6683SOL    HW120948   6.458   6.650   6.076
 6683SOL    HW220949   6.323   6.702   6.000
 6684SOL     OW20950   3.096   0.116   5.868
 6684SOL    HW120951   3.191   0.095   5.844
 6684SOL    HW220952   3.069   0.061   5.946
 6685SOL     OW20953   3.910   3.138   0.706
 6685SOL    HW120954   3.916   3.058   0.764
 6685SOL    HW220955   3.920   3.221   0.761
 6686SOL     OW20956   4.099   4.827   5.493
 6686SOL    HW120957   4.173   4.894   5.494
 6686SOL    HW220958   4.126   4.747   5.439
 6687SOL     OW20959   0.097   2.472   1.368
 6687SOL    HW120960   0.062   2.554   1.322
 6687SOL    HW220961   0.129   2.497   1.459
 6688SOL     OW20962   5.946   5.838   0.051
 6688SOL    HW120963   5.880   5.882   0.112
 6688SOL    HW220964   5.906   5.826   6.980
 6689SOL     OW20965   3.867   4.687   5.590
 6689SOL    HW120966   3.950   4.742   5.581
 6689SOL    HW220967   3.882   4.599   5.544
 6690SOL     OW20968   0.930   0.573   0.027
 6690SOL    HW120969   0.934   0.519   0.111
 6690SOL    HW220970   0.847   0.549   6.996
 6691SOL     OW20971   2.170   1.972   2.474
 6691SOL    HW120972   2.236   1.922   2.418
 6691SOL    HW220973   2.123   2.040   2.417
 6692SOL     OW20974   4.363   6.468   2.478
 6692SOL    HW120975   4.267   6.447   2.459
 6692SOL    HW220976   4.418   6.451   2.396
 6693SOL     OW20977   2.928   1.036   6.182
 6693SOL    HW120978   2.961   1.122   6.144
 6693SOL    HW220979   2.997   0.997   6.243
 6694SOL     OW20980   4.557   4.098   1.611
 6694SOL    HW120981   4.508   4.146   1.683
 6694SOL    HW220982   4.592   4.011   1.646
 6695SOL     OW20983   3.124   2.302   0.047
 6695SOL    HW120984   3.091   2.382   7.016
 6695SOL    HW220985   3.099   2.219   7.018
 6696SOL     OW20986   3.788   3.276   5.263
 6696SOL    HW120987   3.715   3.229   5.213
 6696SOL    HW220988   3.852   3.208   5.300
 6697SOL     OW20989   4.532   0.771   3.011
 6697SOL    HW120990   4.488   0.717   2.939
 6697SOL    HW220991   4.529   0.868   2.986
 6698SOL     OW20992   2.597   3.325   1.274
 6698SOL    HW120993   2.689   3.313   1.311
 6698SOL    HW220994   2.540   3.373   1.340
 6699SOL     OW20995   1.788   3.503   5.786
 6699SOL    HW120996   1.871   3.534   5.832
 6699SOL    HW220997   1.781   3.403   5.794
 6700SOL     OW20998   4.755   6.492   1.594
 6700SOL    HW120999   4.810   6.574   1.579
 6700SOL    HW221000   4.661   6.519   1.615
 6701SOL     OW21001   6.880   0.273   1.240
 6701SOL    HW121002   6.899   0.218   1.321
 6701SOL    HW221003   6.967   0.295   1.194
 6702SOL     OW21004   5.238   2.870   1.610
 6702SOL    HW121005   5.244   2.774   1.584
 6702SOL    HW221006   5.218   2.925   1.529
 6703SOL     OW21007   0.069   0.877   0.896
 6703SOL    HW121008   7.013   0.940   0.884
 6703SOL    HW221009   0.111   0.893   0.986
 6704SOL     OW21010   2.065   5.674   6.318
 6704SOL    HW121011   2.054   5.575   6.322
 6704SOL    HW221012   2.082   5.710   6.409
 6705SOL     OW21013   1.815   4.483   2.836
 6705SOL    HW121014   1.748   4.417   2.869
 6705SOL    HW221015   1.846   4.456   2.745
 6706SOL     OW21016   0.378   5.785   1.594
 6706SOL    HW121017   0.351   5.737   1.678
 6706SOL    HW221018   0.400   5.880   1.616
 6707SOL     OW21019   5.616   0.838   2.802
 6707SOL    HW121020   5.688   0.813   2.736
 6707SOL    HW221021   5.631   0.932   2.833
 6708SOL     OW21022   0.292   2.934   1.217
 6708SOL    HW121023   0.235   2.868   1.266
 6708SOL    HW221024   0.388   2.919   1.240
 6709SOL     OW21025   2.301   4.191   2.356
 6709SOL    HW121026   2.213   4.190   2.309
 6709SOL    HW221027   2.339   4.098   2.358
 6710SOL     OW21028   4.971   2.389   1.880
 6710SOL    HW121029   5.055   2.430   1.843
 6710SOL    HW221030   4.911   2.362   1.804
 6711SOL     OW21031   4.143   4.981   6.609
 6711SOL    HW121032   4.056   5.007   6.652
 6711SOL    HW221033   4.219   5.004   6.670
 6712SOL     OW21034   6.030   3.375   1.027
 6712SOL    HW121035   6.108   3.333   0.980
 6712SOL    HW221036   6.030   3.473   1.013
 6713SOL     OW21037   2.401   5.042   4.360
 6713SOL    HW121038   2.474   5.007   4.300
 6713SOL    HW221039   2.400   4.991   4.445
 6714SOL     OW21040   6.292   0.892   3.011
 6714SOL    HW121041   6.315   0.958   2.940
 6714SOL    HW221042   6.225   0.827   2.975
 6715SOL     OW21043   0.417   6.777   5.058
 6715SOL    HW121044   0.340   6.789   4.996
 6715SOL    HW221045   0.498   6.750   5.006
 6716SOL     OW21046   1.831   4.253   2.032
 6716SOL    HW121047   1.780   4.333   2.064
 6716SOL    HW221048   1.848   4.191   2.108
 6717SOL     OW21049   6.115   2.937   5.549
 6717SOL    HW121050   6.212   2.921   5.565
 6717SOL    HW221051   6.090   3.028   5.582
 6718SOL     OW21052   4.906   1.983   0.770
 6718SOL    HW121053   4.920   2.053   0.840
 6718SOL    HW221054   4.863   2.025   0.690
 6719SOL     OW21055   1.082   6.894   0.389
 6719SOL    HW121056   1.057   6.990   0.401
 6719SOL    HW221057   1.160   6.888   0.326
 6720SOL     OW21058   1.799   1.744   4.937
 6720SOL    HW121059   1.786   1.669   4.872
 6720SOL    HW221060   1.885   1.791   4.916
 6721SOL     OW21061   6.359   6.595   0.664
 6721SOL    HW121062   6.312   6.596   0.575
 6721SOL    HW221063   6.302   6.643   0.731
 6722SOL     OW21064   6.999   3.630   1.520
 6722SOL    HW121065   6.921   3.592   1.470
 6722SOL    HW221066   7.012   3.725   1.494
 6723SOL     OW21067   2.126   3.800   3.847
 6723SOL    HW121068   2.044   3.829   3.797
 6723SOL    HW221069   2.148   3.705   3.824
 6724SOL     OW21070   2.332   3.415   5.248
 6724SOL    HW121071   2.298   3.365   5.169
 6724SOL    HW221072   2.265   3.485   5.275
 6725SOL     OW21073   4.628   2.506   3.357
 6725SOL    HW121074   4.662   2.415   3.333
 6725SOL    HW221075   4.532   2.514   3.332
 6726SOL     OW21076   0.402   1.549   0.539
 6726SOL    HW121077   0.403   1.488   0.619
 6726SOL    HW221078   0.309   1.558   0.505
 6727SOL     OW21079   1.057   5.922   5.399
 6727SOL    HW121080   1.025   5.918   5.304
 6727SOL    HW221081   1.154   5.897   5.402
 6728SOL     OW21082   3.679   1.781   5.701
 6728SOL    HW121083   3.709   1.840   5.627
 6728SOL    HW221084   3.670   1.835   5.785
 6729SOL     OW21085   4.608   1.304   2.623
 6729SOL    HW121086   4.510   1.294   2.603
 6729SOL    HW221087   4.633   1.242   2.697
 6730SOL     OW21088   6.627   2.125   1.543
 6730SOL    HW121089   6.590   2.035   1.564
 6730SOL    HW221090   6.724   2.127   1.565
 6731SOL     OW21091   3.879   0.417   5.563
 6731SOL    HW121092   3.918   0.493   5.614
 6731SOL    HW221093   3.919   0.415   5.471
 6732SOL     OW21094   6.632   4.352   6.212
 6732SOL    HW121095   6.612   4.405   6.294
 6732SOL    HW221096   6.550   4.344   6.156
 6733SOL     OW21097   5.928   4.867   6.071
 6733SOL    HW121098   5.859   4.813   6.119
 6733SOL    HW221099   5.992   4.806   6.024
 6734SOL     OW21100   5.842   2.185   4.811
 6734SOL    HW121101   5.762   2.201   4.869
 6734SOL    HW221102   5.852   2.087   4.794
 6735SOL     OW21103   5.522   2.239   4.782
 6735SOL    HW121104   5.445   2.256   4.844
 6735SOL    HW221105   5.590   2.312   4.793
 6736SOL     OW21106   4.236   3.283   0.753
 6736SOL    HW121107   4.155   3.290   0.812
 6736SOL    HW221108   4.216   3.222   0.677
 6737SOL     OW21109   5.932   2.641   1.834
 6737SOL    HW121110   5.944   2.606   1.742
 6737SOL    HW221111   5.885   2.572   1.890
 6738SOL     OW21112   1.867   6.704   3.088
 6738SOL    HW121113   1.950   6.651   3.074
 6738SOL    HW221114   1.877   6.761   3.170
 6739SOL     OW21115   0.416   0.601   5.752
 6739SOL    HW121116   0.497   0.638   5.797
 6739SOL    HW221117   0.345   0.672   5.749
 6740SOL     OW21118   0.572   6.668   1.426
 6740SOL    HW121119   0.631   6.611   1.369
 6740SOL    HW221120   0.500   6.709   1.369
 6741SOL     OW21121   3.069   2.123   0.305
 6741SOL    HW121122   3.011   2.201   0.328
 6741SOL    HW221123   3.030   2.076   0.225
 6742SOL     OW21124   6.495   4.908   2.567
 6742SOL    HW121125   6.509   4.972   2.492
 6742SOL    HW221126   6.545   4.939   2.647
 6743SOL     OW21127   4.114   4.592   6.915
 6743SOL    HW121128   4.172   4.554   6.988
 6743SOL    HW221129   4.039   4.528   6.898
 6744SOL     OW21130   6.550   6.744   5.569
 6744SOL    HW121131   6.627   6.770   5.627
 6744SOL    HW221132   6.501   6.827   5.540
 6745SOL     OW21133   5.764   3.393   4.975
 6745SOL    HW121134   5.839   3.455   4.997
 6745SOL    HW221135   5.677   3.435   5.000
 6746SOL     OW21136   1.540   2.493   2.935
 6746SOL    HW121137   1.621   2.537   2.974
 6746SOL    HW221138   1.494   2.556   2.873
 6747SOL     OW21139   0.460   6.418   5.050
 6747SOL    HW121140   0.527   6.344   5.038
 6747SOL    HW221141   0.504   6.494   5.098
 6748SOL     OW21142   1.643   2.323   3.864
 6748SOL    HW121143   1.553   2.296   3.830
 6748SOL    HW221144   1.711   2.314   3.791
 6749SOL     OW21145   3.242   5.222   2.181
 6749SOL    HW121146   3.341   5.225   2.165
 6749SOL    HW221147   3.211   5.313   2.208
 6750SOL     OW21148   3.549   0.336   5.207
 6750SOL    HW121149   3.646   0.351   5.189
 6750SOL    HW221150   3.536   0.245   5.246
 6751SOL     OW21151   4.342   1.743   4.348
 6751SOL    HW121152   4.293   1.660   4.321
 6751SOL    HW221153   4.414   1.762   4.281
 6752SOL     OW21154   2.388   5.126   2.726
 6752SOL    HW121155   2.474   5.089   2.693
 6752SOL    HW221156   2.314   5.097   2.666
 6753SOL     OW21157   3.517   4.125   6.714
 6753SOL    HW121158   3.429   4.150   6.673
 6753SOL    HW221159   3.502   4.094   6.808
 6754SOL     OW21160   5.638   0.436   0.033
 6754SOL    HW121161   5.616   0.410   0.127
 6754SOL    HW221162   5.573   0.504   0.000
 6755SOL     OW21163   3.694   5.884   5.493
 6755SOL    HW121164   3.692   5.950   5.418
 6755SOL    HW221165   3.769   5.906   5.555
 6756SOL     OW21166   4.446   3.143   5.335
 6756SOL    HW121167   4.440   3.141   5.435
 6756SOL    HW221168   4.531   3.189   5.308
 6757SOL     OW21169   3.646   0.188   1.990
 6757SOL    HW121170   3.701   0.202   2.073
 6757SOL    HW221171   3.703   0.145   1.920
 6758SOL     OW21172   4.815   2.643   3.507
 6758SOL    HW121173   4.745   2.589   3.460
 6758SOL    HW221174   4.875   2.581   3.559
 6759SOL     OW21175   1.624   2.121   1.818
 6759SOL    HW121176   1.560   2.085   1.750
 6759SOL    HW221177   1.634   2.055   1.893
 6760SOL     OW21178   5.251   2.026   5.542
 6760SOL    HW121179   5.347   2.048   5.561
 6760SOL    HW221180   5.233   1.932   5.568
 6761SOL     OW21181   2.715   0.060   4.876
 6761SOL    HW121182   2.662   0.136   4.913
 6761SOL    HW221183   2.670   6.994   4.900
 6762SOL     OW21184   5.458   4.933   4.766
 6762SOL    HW121185   5.477   4.950   4.669
 6762SOL    HW221186   5.474   5.016   4.819
 6763SOL     OW21187   5.524   5.926   3.750
 6763SOL    HW121188   5.549   5.997   3.815
 6763SOL    HW221189   5.458   5.863   3.792
 6764SOL     OW21190   1.208   4.708   2.400
 6764SOL    HW121191   1.209   4.627   2.342
 6764SOL    HW221192   1.203   4.790   2.343
 6765SOL     OW21193   0.361   4.397   2.520
 6765SOL    HW121194   0.339   4.322   2.458
 6765SOL    HW221195   0.391   4.360   2.608
 6766SOL     OW21196   6.127   0.409   1.316
 6766SOL    HW121197   6.132   0.394   1.415
 6766SOL    HW221198   6.054   0.353   1.278
 6767SOL     OW21199   2.591   0.278   1.340
 6767SOL    HW121200   2.540   0.310   1.260
 6767SOL    HW221201   2.649   0.352   1.374
 6768SOL     OW21202   2.234   0.454   6.025
 6768SOL    HW121203   2.237   0.385   6.097
 6768SOL    HW221204   2.217   0.544   6.065
 6769SOL     OW21205   5.640   2.622   1.436
 6769SOL    HW121206   5.657   2.686   1.511
 6769SOL    HW221207   5.542   2.621   1.415
 6770SOL     OW21208   0.030   1.603   1.584
 6770SOL    HW121209   7.009   1.660   1.655
 6770SOL    HW221210   0.128   1.618   1.580
 6771SOL     OW21211   4.615   0.757   3.832
 6771SOL    HW121212   4.642   0.777   3.927
 6771SOL    HW221213   4.532   0.809   3.810
 6772SOL     OW21214   2.957   1.025   5.453
 6772SOL    HW121215   2.860   1.032   5.430
 6772SOL    HW221216   2.989   1.111   5.492
 6773SOL     OW21217   0.157   3.236   2.817
 6773SOL    HW121218   0.113   3.178   2.748
 6773SOL    HW221219   0.253   3.211   2.826
 6774SOL     OW21220   1.264   1.489   5.906
 6774SOL    HW121221   1.340   1.428   5.885
 6774SOL    HW221222   1.286   1.542   5.987
 6775SOL     OW21223   0.441   3.181   0.566
 6775SOL    HW121224   0.499   3.246   0.518
 6775SOL    HW221225   0.387   3.230   0.635
 6776SOL     OW21226   6.246   6.401   5.746
 6776SOL    HW121227   6.257   6.340   5.667
 6776SOL    HW221228   6.150   6.401   5.775
 6777SOL     OW21229   4.425   4.754   0.165
 6777SOL    HW121230   4.335   4.723   0.196
 6777SOL    HW221231   4.497   4.703   0.212
 6778SOL     OW21232   6.775   5.142   3.564
 6778SOL    HW121233   6.754   5.219   3.624
 6778SOL    HW221234   6.783   5.059   3.618
 6779SOL     OW21235   5.435   3.438   6.504
 6779SOL    HW121236   5.446   3.435   6.405
 6779SOL    HW221237   5.484   3.361   6.545
 6780SOL     OW21238   1.311   2.434   1.494
 6780SOL    HW121239   1.359   2.516   1.525
 6780SOL    HW221240   1.340   2.412   1.400
 6781SOL     OW21241   5.884   4.459   5.018
 6781SOL    HW121242   5.906   4.470   5.115
 6781SOL    HW221243   5.878   4.361   4.997
 6782SOL     OW21244   6.358   1.798   3.767
 6782SOL    HW121245   6.313   1.804   3.857
 6782SOL    HW221246   6.344   1.706   3.730
 6783SOL     OW21247   1.143   5.353   0.121
 6783SOL    HW121248   1.110   5.429   0.066
 6783SOL    HW221249   1.068   5.317   0.177
 6784SOL     OW21250   3.814   3.486   0.324
 6784SOL    HW121251   3.833   3.418   0.394
 6784SOL    HW221252   3.852   3.575   0.352
 6785SOL     OW21253   5.216   6.412   1.497
 6785SOL    HW121254   5.193   6.315   1.484
 6785SOL    HW221255   5.307   6.419   1.538
 6786SOL     OW21256   2.187   3.310   5.051
 6786SOL    HW121257   2.189   3.321   4.951
 6786SOL    HW221258   2.100   3.271   5.078
 6787SOL     OW21259   0.827   4.315   2.638
 6787SOL    HW121260   0.861   4.249   2.571
 6787SOL    HW221261   0.903   4.350   2.691
 6788SOL     OW21262   2.704   3.767   0.978
 6788SOL    HW121263   2.648   3.691   1.012
 6788SOL    HW221264   2.672   3.853   1.017
 6789SOL     OW21265   2.023   4.800   3.164
 6789SOL    HW121266   2.011   4.874   3.098
 6789SOL    HW221267   2.073   4.834   3.244
 6790SOL     OW21268   1.273   3.241   1.351
 6790SOL    HW121269   1.185   3.263   1.308
 6790SOL    HW221270   1.342   3.307   1.322
 6791SOL     OW21271   3.433   4.016   5.708
 6791SOL    HW121272   3.351   4.032   5.763
 6791SOL    HW221273   3.471   3.927   5.730
 6792SOL     OW21274   0.786   5.176   0.751
 6792SOL    HW121275   0.687   5.189   0.748
 6792SOL    HW221276   0.818   5.183   0.845
 6793SOL     OW21277   5.768   0.841   0.692
 6793SOL    HW121278   5.698   0.773   0.669
 6793SOL    HW221279   5.858   0.801   0.682
 6794SOL     OW21280   3.009   1.673   5.489
 6794SOL    HW121281   3.072   1.737   5.445
 6794SOL    HW221282   2.938   1.724   5.537
 6795SOL     OW21283   4.290   6.000   6.983
 6795SOL    HW121284   4.357   5.972   6.915
 6795SOL    HW221285   4.214   6.046   6.938
 6796SOL     OW21286   4.039   2.212   2.259
 6796SOL    HW121287   3.948   2.249   2.276
 6796SOL    HW221288   4.065   2.232   2.165
 6797SOL     OW21289   6.777   2.591   3.106
 6797SOL    HW121290   6.844   2.626   3.040
 6797SOL    HW221291   6.754   2.664   3.171
 6798SOL     OW21292   6.359   0.143   2.071
 6798SOL    HW121293   6.412   0.127   2.155
 6798SOL    HW221294   6.416   0.189   2.004
 6799SOL     OW21295   4.827   5.840   2.195
 6799SOL    HW121296   4.903   5.783   2.163
 6799SOL    HW221297   4.779   5.793   2.269
 6800SOL     OW21298   3.411   3.758   6.249
 6800SOL    HW121299   3.444   3.682   6.194
 6800SOL    HW221300   3.456   3.757   6.338
 6801SOL     OW21301   0.366   3.016   3.445
 6801SOL    HW121302   0.451   3.030   3.496
 6801SOL    HW221303   0.343   2.918   3.447
 6802SOL     OW21304   3.425   4.981   2.572
 6802SOL    HW121305   3.385   4.948   2.486
 6802SOL    HW221306   3.352   4.992   2.640
 6803SOL     OW21307   4.333   2.137   0.004
 6803SOL    HW121308   4.304   2.174   0.092
 6803SOL    HW221309   4.433   2.136   7.019
 6804SOL     OW21310   1.618   6.082   3.367
 6804SOL    HW121311   1.645   6.092   3.463
 6804SOL    HW221312   1.666   6.004   3.327
 6805SOL     OW21313   6.446   1.678   5.677
 6805SOL    HW121314   6.372   1.653   5.615
 6805SOL    HW221315   6.501   1.750   5.635
 6806SOL     OW21316   4.908   5.629   5.380
 6806SOL    HW121317   4.814   5.595   5.377
 6806SOL    HW221318   4.908   5.729   5.370
 6807SOL     OW21319   4.397   3.506   0.011
 6807SOL    HW121320   4.430   3.581   6.974
 6807SOL    HW221321   4.471   3.475   0.072
 6808SOL     OW21322   2.597   4.623   3.950
 6808SOL    HW121323   2.515   4.680   3.955
 6808SOL    HW221324   2.678   4.680   3.936
 6809SOL     OW21325   1.184   3.373   6.720
 6809SOL    HW121326   1.148   3.381   6.628
 6809SOL    HW221327   1.130   3.429   6.782
 6810SOL     OW21328   6.163   1.791   3.440
 6810SOL    HW121329   6.189   1.819   3.348
 6810SOL    HW221330   6.231   1.827   3.506
 6811SOL     OW21331   5.144   6.118   2.673
 6811SOL    HW121332   5.164   6.193   2.736
 6811SOL    HW221333   5.045   6.102   2.671
 6812SOL     OW21334   3.857   2.924   3.241
 6812SOL    HW121335   3.901   2.848   3.193
 6812SOL    HW221336   3.924   2.972   3.297
 6813SOL     OW21337   5.521   3.578   0.987
 6813SOL    HW121338   5.546   3.634   0.907
 6813SOL    HW221339   5.422   3.565   0.988
 6814SOL     OW21340   2.291   2.816   0.571
 6814SOL    HW121341   2.224   2.890   0.558
 6814SOL    HW221342   2.262   2.736   0.519
 6815SOL     OW21343   1.443   6.601   6.951
 6815SOL    HW121344   1.483   6.688   6.923
 6815SOL    HW221345   1.514   6.532   6.958
 6816SOL     OW21346   5.265   4.460   1.223
 6816SOL    HW121347   5.280   4.532   1.290
 6816SOL    HW221348   5.198   4.395   1.257
 6817SOL     OW21349   1.860   1.821   6.240
 6817SOL    HW121350   1.827   1.788   6.151
 6817SOL    HW221351   1.956   1.794   6.251
 6818SOL     OW21352   4.202   5.174   0.808
 6818SOL    HW121353   4.155   5.258   0.836
 6818SOL    HW221354   4.170   5.146   0.718
 6819SOL     OW21355   2.891   1.126   3.887
 6819SOL    HW121356   2.889   1.224   3.866
 6819SOL    HW221357   2.941   1.078   3.815
 6820SOL     OW21358   1.803   5.079   4.688
 6820SOL    HW121359   1.836   5.001   4.635
 6820SOL    HW221360   1.703   5.076   4.694
 6821SOL     OW21361   1.992   2.156   4.146
 6821SOL    HW121362   2.046   2.152   4.230
 6821SOL    HW221363   2.045   2.117   4.070
 6822SOL     OW21364   5.558   1.430   5.566
 6822SOL    HW121365   5.552   1.478   5.479
 6822SOL    HW221366   5.472   1.441   5.616
 6823SOL     OW21367   4.075   3.798   2.208
 6823SOL    HW121368   4.001   3.864   2.222
 6823SOL    HW221369   4.094   3.751   2.294
 6824SOL     OW21370   0.798   5.560   4.838
 6824SOL    HW121371   0.880   5.526   4.791
 6824SOL    HW221372   0.729   5.488   4.842
 6825SOL     OW21373   5.952   0.402   4.390
 6825SOL    HW121374   5.975   0.426   4.296
 6825SOL    HW221375   5.935   0.303   4.396
 6826SOL     OW21376   1.310   2.709   3.561
 6826SOL    HW121377   1.233   2.757   3.604
 6826SOL    HW221378   1.276   2.649   3.489
 6827SOL     OW21379   4.177   5.562   5.198
 6827SOL    HW121380   4.238   5.529   5.126
 6827SOL    HW221381   4.112   5.626   5.159
 6828SOL     OW21382   1.950   2.385   0.762
 6828SOL    HW121383   1.913   2.293   0.767
 6828SOL    HW221384   1.875   2.451   0.759
 6829SOL     OW21385   5.946   4.822   3.874
 6829SOL    HW121386   5.976   4.771   3.954
 6829SOL    HW221387   5.847   4.838   3.880
 6830SOL     OW21388   4.810   1.561   3.540
 6830SOL    HW121389   4.848   1.599   3.625
 6830SOL    HW221390   4.830   1.463   3.536
 6831SOL     OW21391   0.679   1.812   6.447
 6831SOL    HW121392   0.739   1.736   6.423
 6831SOL    HW221393   0.733   1.896   6.451
 6832SOL     OW21394   2.636   4.978   1.416
 6832SOL    HW121395   2.731   4.976   1.386
 6832SOL    HW221396   2.615   4.893   1.465
 6833SOL     OW21397   4.457   6.253   6.612
 6833SOL    HW121398   4.449   6.263   6.712
 6833SOL    HW221399   4.553   6.246   6.587
 6834SOL     OW21400   2.701   4.685   2.591
 6834SOL    HW121401   2.603   4.701   2.574
 6834SOL    HW221402   2.711   4.614   2.661
 6835SOL     OW21403   3.732   6.256   4.208
 6835SOL    HW121404   3.703   6.346   4.242
 6835SOL    HW221405   3.765   6.201   4.284
 6836SOL     OW21406   3.726   5.592   0.730
 6836SOL    HW121407   3.752   5.635   0.817
 6836SOL    HW221408   3.649   5.531   0.745
 6837SOL     OW21409   0.744   3.572   2.819
 6837SOL    HW121410   0.735   3.498   2.753
 6837SOL    HW221411   0.688   3.650   2.790
 6838SOL     OW21412   2.658   2.629   0.566
 6838SOL    HW121413   2.615   2.641   0.655
 6838SOL    HW221414   2.687   2.718   0.530
 6839SOL     OW21415   3.514   1.310   2.034
 6839SOL    HW121416   3.610   1.329   2.015
 6839SOL    HW221417   3.507   1.234   2.098
 6840SOL     OW21418   0.787   0.821   5.629
 6840SOL    HW121419   0.858   0.890   5.617
 6840SOL    HW221420   0.811   0.739   5.578
 6841SOL     OW21421   6.716   3.137   5.781
 6841SOL    HW121422   6.718   3.137   5.681
 6841SOL    HW221423   6.747   3.226   5.814
 6842SOL     OW21424   2.466   4.552   2.853
 6842SOL    HW121425   2.428   4.640   2.885
 6842SOL    HW221426   2.465   4.486   2.928
 6843SOL     OW21427   3.923   6.177   1.263
 6843SOL    HW121428   3.851   6.134   1.208
 6843SOL    HW221429   3.928   6.131   1.352
 6844SOL     OW21430   5.857   0.291   5.618
 6844SOL    HW121431   5.892   0.344   5.696
 6844SOL    HW221432   5.933   0.264   5.559
 6845SOL     OW21433   5.805   2.476   2.846
 6845SOL    HW121434   5.768   2.430   2.765
 6845SOL    HW221435   5.839   2.566   2.821
 6846SOL     OW21436   1.429   3.243   0.353
 6846SOL    HW121437   1.434   3.147   0.380
 6846SOL    HW221438   1.507   3.266   0.295
 6847SOL     OW21439   0.013   2.180   3.781
 6847SOL    HW121440   0.002   2.089   3.742
 6847SOL    HW221441   0.058   2.240   3.715
 6848SOL     OW21442   6.811   4.247   4.515
 6848SOL    HW121443   6.777   4.172   4.572
 6848SOL    HW221444   6.793   4.334   4.559
 6849SOL     OW21445   3.046   4.124   5.507
 6849SOL    HW121446   3.082   4.036   5.476
 6849SOL    HW221447   3.070   4.196   5.442
 6850SOL     OW21448   5.600   0.678   4.692
 6850SOL    HW121449   5.697   0.702   4.695
 6850SOL    HW221450   5.548   0.757   4.660
 6851SOL     OW21451   2.028   4.164   3.529
 6851SOL    HW121452   2.104   4.223   3.505
 6851SOL    HW221453   2.021   4.157   3.629
 6852SOL     OW21454   4.644   3.020   0.565
 6852SOL    HW121455   4.622   2.923   0.555
 6852SOL    HW221456   4.586   3.074   0.504
 6853SOL     OW21457   4.899   5.345   5.858
 6853SOL    HW121458   4.861   5.437   5.861
 6853SOL    HW221459   4.956   5.335   5.777
 6854SOL     OW21460   5.432   6.061   5.375
 6854SOL    HW121461   5.525   6.028   5.357
 6854SOL    HW221462   5.390   6.090   5.289
 6855SOL     OW21463   4.177   5.972   2.732
 6855SOL    HW121464   4.132   5.923   2.658
 6855SOL    HW221465   4.109   5.999   2.800
 6856SOL     OW21466   6.333   2.498   0.998
 6856SOL    HW121467   6.274   2.475   1.076
 6856SOL    HW221468   6.428   2.484   1.024
 6857SOL     OW21469   1.563   4.570   5.944
 6857SOL    HW121470   1.518   4.638   6.002
 6857SOL    HW221471   1.546   4.591   5.848
 6858SOL     OW21472   1.340   3.377   1.755
 6858SOL    HW121473   1.251   3.368   1.711
 6858SOL    HW221474   1.346   3.312   1.831
 6859SOL     OW21475   2.813   2.462   0.779
 6859SOL    HW121476   2.779   2.526   0.711
 6859SOL    HW221477   2.851   2.512   0.858
 6860SOL     OW21478   0.441   0.267   6.638
 6860SOL    HW121479   0.471   0.331   6.566
 6860SOL    HW221480   0.499   0.186   6.636
 6861SOL     OW21481   5.884   3.298   0.083
 6861SOL    HW121482   5.911   3.282   0.178
 6861SOL    HW221483   5.913   3.220   0.026
 6862SOL     OW21484   0.678   5.468   3.039
 6862SOL    HW121485   0.725   5.471   2.951
 6862SOL    HW221486   0.720   5.533   3.101
 6863SOL     OW21487   4.999   1.003   5.750
 6863SOL    HW121488   5.036   1.082   5.799
 6863SOL    HW221489   4.901   0.994   5.772
 6864SOL     OW21490   1.908   3.440   6.324
 6864SOL    HW121491   1.907   3.353   6.275
 6864SOL    HW221492   1.899   3.423   6.422
 6865SOL     OW21493   1.625   0.874   2.885
 6865SOL    HW121494   1.526   0.890   2.883
 6865SOL    HW221495   1.648   0.799   2.823
 6866SOL     OW21496   1.836   4.611   6.537
 6866SOL    HW121497   1.891   4.554   6.597
 6866SOL    HW221498   1.740   4.586   6.545
 6867SOL     OW21499   1.729   1.996   6.665
 6867SOL    HW121500   1.690   2.058   6.733
 6867SOL    HW221501   1.822   2.026   6.643
 6868SOL     OW21502   3.958   5.210   3.875
 6868SOL    HW121503   3.931   5.149   3.800
 6868SOL    HW221504   3.971   5.302   3.839
 6869SOL     OW21505   1.232   0.286   5.649
 6869SOL    HW121506   1.184   0.202   5.623
 6869SOL    HW221507   1.329   0.267   5.663
 6870SOL     OW21508   6.309   2.792   6.434
 6870SOL    HW121509   6.252   2.785   6.351
 6870SOL    HW221510   6.255   2.766   6.514
 6871SOL     OW21511   5.745   2.459   3.520
 6871SOL    HW121512   5.754   2.423   3.613
 6871SOL    HW221513   5.814   2.529   3.505
 6872SOL     OW21514   1.866   5.005   0.933
 6872SOL    HW121515   1.941   4.941   0.948
 6872SOL    HW221516   1.861   5.029   0.835
 6873SOL     OW21517   0.636   3.834   2.771
 6873SOL    HW121518   0.631   3.889   2.688
 6873SOL    HW221519   0.704   3.872   2.833
 6874SOL     OW21520   4.087   5.863   1.662
 6874SOL    HW121521   4.134   5.816   1.587
 6874SOL    HW221522   4.004   5.812   1.685
 6875SOL     OW21523   2.643   0.379   6.417
 6875SOL    HW121524   2.588   0.454   6.382
 6875SOL    HW221525   2.584   0.302   6.439
 6876SOL     OW21526   5.768   5.733   3.304
 6876SOL    HW121527   5.856   5.727   3.256
 6876SOL    HW221528   5.771   5.809   3.369
 6877SOL     OW21529   1.304   4.345   1.405
 6877SOL    HW121530   1.209   4.325   1.382
 6877SOL    HW221531   1.353   4.260   1.424
 6878SOL     OW21532   1.768   0.144   3.756
 6878SOL    HW121533   1.712   0.170   3.678
 6878SOL    HW221534   1.835   0.075   3.727
 6879SOL     OW21535   1.437   1.392   1.079
 6879SOL    HW121536   1.459   1.332   1.156
 6879SOL    HW221537   1.517   1.400   1.020
 6880SOL     OW21538   1.470   6.701   0.215
 6880SOL    HW121539   1.563   6.676   0.189
 6880SOL    HW221540   1.406   6.633   0.178
 6881SOL     OW21541   6.804   3.483   1.377
 6881SOL    HW121542   6.740   3.426   1.428
 6881SOL    HW221543   6.832   3.436   1.293
 6882SOL     OW21544   2.625   6.572   6.877
 6882SOL    HW121545   2.645   6.643   6.810
 6882SOL    HW221546   2.526   6.553   6.878
 6883SOL     OW21547   4.650   0.040   1.022
 6883SOL    HW121548   4.735   0.082   0.987
 6883SOL    HW221549   4.672   6.999   1.098
 6884SOL     OW21550   1.738   5.313   3.344
 6884SOL    HW121551   1.784   5.232   3.381
 6884SOL    HW221552   1.651   5.287   3.304
 6885SOL     OW21553   5.371   4.611   4.257
 6885SOL    HW121554   5.289   4.666   4.273
 6885SOL    HW221555   5.446   4.670   4.227
 6886SOL     OW21556   5.751   3.533   0.688
 6886SOL    HW121557   5.804   3.510   0.607
 6886SOL    HW221558   5.795   3.609   0.736
 6887SOL     OW21559   5.267   6.201   5.525
 6887SOL    HW121560   5.313   6.124   5.482
 6887SOL    HW221561   5.168   6.186   5.523
 6888SOL     OW21562   0.162   4.207   1.552
 6888SOL    HW121563   0.155   4.259   1.637
 6888SOL    HW221564   0.092   4.136   1.550
 6889SOL     OW21565   0.754   3.044   5.479
 6889SOL    HW121566   0.854   3.046   5.488
 6889SOL    HW221567   0.713   3.029   5.569
 6890SOL     OW21568   4.660   4.474   3.933
 6890SOL    HW121569   4.673   4.568   3.900
 6890SOL    HW221570   4.668   4.472   4.032
 6891SOL     OW21571   1.383   1.416   0.180
 6891SOL    HW121572   1.441   1.448   0.105
 6891SOL    HW221573   1.434   1.421   0.266
 6892SOL     OW21574   1.362   0.663   5.524
 6892SOL    HW121575   1.352   0.755   5.488
 6892SOL    HW221576   1.416   0.665   5.608
 6893SOL     OW21577   6.053   3.006   0.772
 6893SOL    HW121578   6.135   2.950   0.783
 6893SOL    HW221579   6.008   3.017   0.860
 6894SOL     OW21580   5.411   5.083   6.837
 6894SOL    HW121581   5.311   5.092   6.833
 6894SOL    HW221582   5.435   5.008   6.898
 6895SOL     OW21583   1.532   5.397   3.061
 6895SOL    HW121584   1.579   5.394   2.973
 6895SOL    HW221585   1.526   5.492   3.092
 6896SOL     OW21586   4.927   1.032   6.124
 6896SOL    HW121587   4.958   1.114   6.078
 6896SOL    HW221588   4.839   1.050   6.169
 6897SOL     OW21589   4.289   2.195   4.914
 6897SOL    HW121590   4.269   2.272   4.973
 6897SOL    HW221591   4.278   2.110   4.965
 6898SOL     OW21592   1.892   6.452   1.401
 6898SOL    HW121593   1.819   6.511   1.368
 6898SOL    HW221594   1.875   6.358   1.370
 6899SOL     OW21595   6.006   5.371   3.282
 6899SOL    HW121596   5.920   5.406   3.322
 6899SOL    HW221597   5.994   5.357   3.184
 6900SOL     OW21598   0.704   4.514   4.874
 6900SOL    HW121599   0.612   4.509   4.835
 6900SOL    HW221600   0.764   4.565   4.813
 6901SOL     OW21601   5.167   3.940   6.447
 6901SOL    HW121602   5.242   3.874   6.456
 6901SOL    HW221603   5.118   3.924   6.361
 6902SOL     OW21604   0.149   5.946   5.521
 6902SOL    HW121605   0.246   5.935   5.542
 6902SOL    HW221606   0.127   5.898   5.436
 6903SOL     OW21607   0.543   6.598   5.294
 6903SOL    HW121608   0.479   6.669   5.267
 6903SOL    HW221609   0.497   6.532   5.354
 6904SOL     OW21610   1.027   0.022   6.412
 6904SOL    HW121611   0.973   0.008   6.329
 6904SOL    HW221612   0.984   0.093   6.467
 6905SOL     OW21613   4.640   6.038   5.241
 6905SOL    HW121614   4.627   6.137   5.236
 6905SOL    HW221615   4.552   5.993   5.233
 6906SOL     OW21616   2.705   1.950   3.584
 6906SOL    HW121617   2.733   2.040   3.549
 6906SOL    HW221618   2.784   1.904   3.625
 6907SOL     OW21619   5.630   3.125   0.532
 6907SOL    HW121620   5.726   3.104   0.549
 6907SOL    HW221621   5.595   3.180   0.608
 6908SOL     OW21622   3.278   5.448   0.817
 6908SOL    HW121623   3.292   5.460   0.718
 6908SOL    HW221624   3.187   5.410   0.833
 6909SOL     OW21625   5.967   5.422   2.991
 6909SOL    HW121626   6.038   5.481   2.951
 6909SOL    HW221627   5.997   5.326   2.984
 6910SOL     OW21628   1.607   2.330   2.209
 6910SOL    HW121629   1.514   2.367   2.214
 6910SOL    HW221630   1.669   2.400   2.174
 6911SOL     OW21631   2.203   6.780   5.463
 6911SOL    HW121632   2.257   6.804   5.383
 6911SOL    HW221633   2.159   6.862   5.500
 6912SOL     OW21634   2.365   4.040   6.351
 6912SOL    HW121635   2.406   4.079   6.434
 6912SOL    HW221636   2.438   4.010   6.290
 6913SOL     OW21637   4.231   5.734   6.025
 6913SOL    HW121638   4.159   5.794   6.060
 6913SOL    HW221639   4.225   5.645   6.069
 6914SOL     OW21640   0.996   2.059   2.067
 6914SOL    HW121641   0.959   2.152   2.073
 6914SOL    HW221642   1.057   2.042   2.143
 6915SOL     OW21643   6.216   3.388   3.907
 6915SOL    HW121644   6.297   3.445   3.900
 6915SOL    HW221645   6.151   3.430   3.970
 6916SOL     OW21646   4.401   5.868   5.273
 6916SOL    HW121647   4.449   5.803   5.214
 6916SOL    HW221648   4.376   5.824   5.359
 6917SOL     OW21649   3.449   5.579   2.144
 6917SOL    HW121650   3.392   5.616   2.071
 6917SOL    HW221651   3.431   5.629   2.229
 6918SOL     OW21652   1.787   3.726   6.715
 6918SOL    HW121653   1.815   3.647   6.769
 6918SOL    HW221654   1.859   3.749   6.649
 6919SOL     OW21655   6.405   6.060   3.657
 6919SOL    HW121656   6.343   6.036   3.732
 6919SOL    HW221657   6.482   6.112   3.693
 6920SOL     OW21658   0.516   3.307   5.400
 6920SOL    HW121659   0.566   3.279   5.318
 6920SOL    HW221660   0.424   3.269   5.397
 6921SOL     OW21661   3.474   0.515   5.419
 6921SOL    HW121662   3.485   0.454   5.341
 6921SOL    HW221663   3.496   0.609   5.392
 6922SOL     OW21664   2.711   4.125   6.466
 6922SOL    HW121665   2.757   4.213   6.479
 6922SOL    HW221666   2.749   4.080   6.385
 6923SOL     OW21667   5.112   6.779   2.943
 6923SOL    HW121668   5.043   6.751   2.877
 6923SOL    HW221669   5.082   6.862   2.990
 6924SOL     OW21670   3.140   5.004   1.575
 6924SOL    HW121671   3.148   5.002   1.674
 6924SOL    HW221672   3.151   4.911   1.539
 6925SOL     OW21673   6.273   0.133   4.488
 6925SOL    HW121674   6.329   0.216   4.487
 6925SOL    HW221675   6.230   0.124   4.578
 6926SOL     OW21676   2.664   2.888   0.458
 6926SOL    HW121677   2.726   2.959   0.426
 6926SOL    HW221678   2.628   2.836   0.380
 6927SOL     OW21679   3.187   6.699   5.531
 6927SOL    HW121680   3.188   6.774   5.597
 6927SOL    HW221681   3.151   6.731   5.444
 6928SOL     OW21682   4.058   5.661   0.696
 6928SOL    HW121683   3.996   5.584   0.685
 6928SOL    HW221684   4.029   5.736   0.636
 6929SOL     OW21685   4.747   6.030   3.730
 6929SOL    HW121686   4.715   6.052   3.638
 6929SOL    HW221687   4.768   5.932   3.736
 6930SOL     OW21688   0.265   6.276   2.349
 6930SOL    HW121689   0.253   6.309   2.443
 6930SOL    HW221690   0.256   6.351   2.285
 6931SOL     OW21691   4.122   3.054   6.993
 6931SOL    HW121692   4.059   3.132   6.995
 6931SOL    HW221693   4.165   3.044   0.063
 6932SOL     OW21694   3.812   0.698   6.683
 6932SOL    HW121695   3.788   0.602   6.699
 6932SOL    HW221696   3.748   0.738   6.618
 6933SOL     OW21697   3.829   6.242   5.928
 6933SOL    HW121698   3.915   6.243   5.877
 6933SOL    HW221699   3.848   6.258   6.025
 6934SOL     OW21700   4.532   5.448   0.056
 6934SOL    HW121701   4.451   5.393   0.038
 6934SOL    HW221702   4.549   5.510   6.999
 6935SOL     OW21703   4.285   5.401   2.002
 6935SOL    HW121704   4.304   5.494   2.031
 6935SOL    HW221705   4.287   5.340   2.081
 6936SOL     OW21706   1.112   1.280   6.963
 6936SOL    HW121707   1.135   1.294   6.866
 6936SOL    HW221708   1.083   1.367   7.003
 6937SOL     OW21709   6.618   4.266   0.062
 6937SOL    HW121710   6.619   4.338   7.013
 6937SOL    HW221711   6.526   4.255   0.098
 6938SOL     OW21712   2.853   6.945   5.316
 6938SOL    HW121713   2.852   6.879   5.241
 6938SOL    HW221714   2.773   6.930   5.375
 6939SOL     OW21715   6.325   2.954   3.099
 6939SOL    HW121716   6.355   2.859   3.103
 6939SOL    HW221717   6.323   2.992   3.192
 6940SOL     OW21718   0.522   6.732   0.926
 6940SOL    HW121719   0.427   6.702   0.934
 6940SOL    HW221720   0.545   6.744   0.829
 6941SOL     OW21721   4.111   3.625   2.421
 6941SOL    HW121722   4.090   3.671   2.507
 6941SOL    HW221723   4.179   3.553   2.437
 6942SOL     OW21724   0.178   5.499   2.686
 6942SOL    HW121725   0.223   5.413   2.710
 6942SOL    HW221726   0.137   5.540   2.768
 6943SOL     OW21727   3.320   5.508   5.137
 6943SOL    HW121728   3.381   5.504   5.058
 6943SOL    HW221729   3.365   5.466   5.216
 6944SOL     OW21730   1.130   5.132   5.938
 6944SOL    HW121731   1.172   5.047   5.972
 6944SOL    HW221732   1.196   5.182   5.882
 6945SOL     OW21733   3.891   1.756   0.840
 6945SOL    HW121734   3.931   1.766   0.748
 6945SOL    HW221735   3.961   1.775   0.909
 6946SOL     OW21736   5.739   5.261   4.078
 6946SOL    HW121737   5.768   5.231   3.987
 6946SOL    HW221738   5.665   5.202   4.110
 6947SOL     OW21739   6.429   3.550   5.435
 6947SOL    HW121740   6.347   3.571   5.488
 6947SOL    HW221741   6.491   3.628   5.436
 6948SOL     OW21742   0.356   5.333   6.374
 6948SOL    HW121743   0.282   5.401   6.377
 6948SOL    HW221744   0.325   5.249   6.418
 6949SOL     OW21745   1.917   1.475   3.233
 6949SOL    HW121746   1.987   1.416   3.274
 6949SOL    HW221747   1.851   1.418   3.183
 6950SOL     OW21748   1.840   1.220   4.412
 6950SOL    HW121749   1.806   1.204   4.319
 6950SOL    HW221750   1.767   1.200   4.477
 6951SOL     OW21751   1.225   3.239   0.067
 6951SOL    HW121752   1.166   3.319   0.076
 6951SOL    HW221753   1.175   3.158   0.097
 6952SOL     OW21754   4.337   4.838   3.633
 6952SOL    HW121755   4.251   4.888   3.641
 6952SOL    HW221756   4.390   4.874   3.556
 6953SOL     OW21757   0.810   0.696   1.590
 6953SOL    HW121758   0.878   0.696   1.663
 6953SOL    HW221759   0.723   0.731   1.625
 6954SOL     OW21760   6.543   5.300   6.162
 6954SOL    HW121761   6.540   5.233   6.235
 6954SOL    HW221762   6.589   5.260   6.082
 6955SOL     OW21763   3.451   5.556   2.756
 6955SOL    HW121764   3.442   5.565   2.656
 6955SOL    HW221765   3.433   5.461   2.782
 6956SOL     OW21766   6.408   4.581   2.835
 6956SOL    HW121767   6.376   4.486   2.832
 6956SOL    HW221768   6.449   4.605   2.747
 6957SOL     OW21769   5.529   4.023   5.590
 6957SOL    HW121770   5.571   4.068   5.512
 6957SOL    HW221771   5.494   4.092   5.654
 6958SOL     OW21772   3.545   3.796   1.577
 6958SOL    HW121773   3.469   3.834   1.630
 6958SOL    HW221774   3.510   3.724   1.516
 6959SOL     OW21775   0.301   3.393   3.343
 6959SOL    HW121776   0.341   3.400   3.435
 6959SOL    HW221777   0.335   3.469   3.287
 6960SOL     OW21778   5.238   4.568   0.738
 6960SOL    HW121779   5.307   4.544   0.806
 6960SOL    HW221780   5.254   4.661   0.705
 6961SOL     OW21781   4.593   2.607   4.482
 6961SOL    HW121782   4.646   2.598   4.398
 6961SOL    HW221783   4.619   2.691   4.530
 6962SOL     OW21784   2.376   6.749   0.907
 6962SOL    HW121785   2.331   6.660   0.900
 6962SOL    HW221786   2.345   6.795   0.991
 6963SOL     OW21787   0.742   0.097   6.892
 6963SOL    HW121788   0.707   0.142   6.975
 6963SOL    HW221789   0.682   0.021   6.868
 6964SOL     OW21790   2.299   1.329   5.749
 6964SOL    HW121791   2.299   1.275   5.833
 6964SOL    HW221792   2.231   1.293   5.685
 6965SOL     OW21793   1.590   1.445   0.399
 6965SOL    HW121794   1.598   1.485   0.490
 6965SOL    HW221795   1.644   1.360   0.394
 6966SOL     OW21796   1.003   6.193   0.902
 6966SOL    HW121797   0.946   6.273   0.887
 6966SOL    HW221798   0.963   6.114   0.855
 6967SOL     OW21799   3.947   6.938   6.603
 6967SOL    HW121800   4.013   6.898   6.668
 6967SOL    HW221801   3.863   6.960   6.652
 6968SOL     OW21802   4.480   0.380   2.171
 6968SOL    HW121803   4.494   0.445   2.096
 6968SOL    HW221804   4.499   0.425   2.258
 6969SOL     OW21805   1.473   3.073   2.601
 6969SOL    HW121806   1.492   2.983   2.639
 6969SOL    HW221807   1.375   3.082   2.584
 6970SOL     OW21808   3.478   5.961   5.955
 6970SOL    HW121809   3.415   5.900   5.907
 6970SOL    HW221810   3.547   5.995   5.890
 6971SOL     OW21811   0.288   3.758   0.392
 6971SOL    HW121812   0.239   3.843   0.377
 6971SOL    HW221813   0.288   3.736   0.490
 6972SOL     OW21814   5.868   3.596   1.240
 6972SOL    HW121815   5.937   3.631   1.176
 6972SOL    HW221816   5.865   3.496   1.233
 6973SOL     OW21817   0.927   0.879   3.027
 6973SOL    HW121818   0.948   0.928   3.111
 6973SOL    HW221819   1.013   0.850   2.983
 6974SOL     OW21820   3.726   3.889   2.810
 6974SOL    HW121821   3.657   3.953   2.842
 6974SOL    HW221822   3.786   3.935   2.744
 6975SOL     OW21823   3.373   5.417   5.416
 6975SOL    HW121824   3.336   5.374   5.498
 6975SOL    HW221825   3.472   5.428   5.426
 6976SOL     OW21826   5.239   4.789   5.628
 6976SOL    HW121827   5.290   4.750   5.705
 6976SOL    HW221828   5.204   4.879   5.654
 6977SOL     OW21829   4.133   4.801   2.311
 6977SOL    HW121830   4.146   4.897   2.289
 6977SOL    HW221831   4.040   4.773   2.286
 6978SOL     OW21832   0.603   3.219   1.260
 6978SOL    HW121833   0.522   3.216   1.201
 6978SOL    HW221834   0.671   3.279   1.219
 6979SOL     OW21835   1.052   4.406   2.754
 6979SOL    HW121836   1.094   4.364   2.835
 6979SOL    HW221837   1.101   4.490   2.731
 6980SOL     OW21838   2.699   4.678   2.956
 6980SOL    HW121839   2.626   4.618   2.924
 6980SOL    HW221840   2.690   4.768   2.914
 6981SOL     OW21841   4.438   2.578   6.921
 6981SOL    HW121842   4.340   2.569   6.936
 6981SOL    HW221843   4.457   2.573   6.822
 6982SOL     OW21844   6.691   6.241   1.884
 6982SOL    HW121845   6.767   6.212   1.942
 6982SOL    HW221846   6.605   6.206   1.920
 6983SOL     OW21847   6.467   0.755   4.112
 6983SOL    HW121848   6.385   0.766   4.056
 6983SOL    HW221849   6.462   0.814   4.192
 6984SOL     OW21850   1.365   4.364   3.372
 6984SOL    HW121851   1.402   4.272   3.386
 6984SOL    HW221852   1.322   4.396   3.456
 6985SOL     OW21853   5.135   3.193   0.928
 6985SOL    HW121854   5.053   3.249   0.940
 6985SOL    HW221855   5.110   3.108   0.882
 6986SOL     OW21856   4.840   6.222   4.810
 6986SOL    HW121857   4.804   6.301   4.859
 6986SOL    HW221858   4.846   6.243   4.713
 6987SOL     OW21859   0.334   1.618   6.950
 6987SOL    HW121860   0.320   1.710   6.912
 6987SOL    HW221861   0.259   1.559   6.921
 6988SOL     OW21862   1.234   0.136   6.579
 6988SOL    HW121863   1.265   0.216   6.528
 6988SOL    HW221864   1.190   0.072   6.516
 6989SOL     OW21865   0.521   2.952   2.422
 6989SOL    HW121866   0.446   2.886   2.415
 6989SOL    HW221867   0.566   2.960   2.333
 6990SOL     OW21868   3.277   5.332   6.826
 6990SOL    HW121869   3.359   5.289   6.863
 6990SOL    HW221870   3.224   5.265   6.776
 6991SOL     OW21871   4.992   4.178   4.185
 6991SOL    HW121872   4.911   4.208   4.235
 6991SOL    HW221873   5.067   4.243   4.199
 6992SOL     OW21874   1.649   4.876   6.114
 6992SOL    HW121875   1.566   4.853   6.063
 6992SOL    HW221876   1.643   4.839   6.207
 6993SOL     OW21877   4.224   2.206   2.003
 6993SOL    HW121878   4.296   2.166   2.061
 6993SOL    HW221879   4.257   2.291   1.963
 6994SOL     OW21880   2.593   1.148   3.170
 6994SOL    HW121881   2.634   1.094   3.097
 6994SOL    HW221882   2.594   1.245   3.144
 6995SOL     OW21883   6.901   5.154   0.435
 6995SOL    HW121884   6.840   5.134   0.359
 6995SOL    HW221885   6.994   5.123   0.412
 6996SOL     OW21886   1.622   0.785   6.765
 6996SOL    HW121887   1.555   0.718   6.797
 6996SOL    HW221888   1.597   0.876   6.800
 6997SOL     OW21889   6.073   6.043   6.238
 6997SOL    HW121890   6.060   6.128   6.188
 6997SOL    HW221891   6.052   5.965   6.177
 6998SOL     OW21892   0.297   1.243   5.918
 6998SOL    HW121893   0.360   1.184   5.867
 6998SOL    HW221894   0.215   1.259   5.863
 6999SOL     OW21895   0.609   2.775   6.942
 6999SOL    HW121896   0.529   2.723   6.912
 6999SOL    HW221897   0.684   2.711   6.962
 7000SOL     OW21898   0.609   4.983   2.627
 7000SOL    HW121899   0.702   4.992   2.663
 7000SOL    HW221900   0.610   4.996   2.528
 7001SOL     OW21901   0.937   1.273   4.100
 7001SOL    HW121902   0.959   1.176   4.091
 7001SOL    HW221903   0.860   1.285   4.163
 7002SOL     OW21904   1.554   4.837   3.070
 7002SOL    HW121905   1.600   4.792   2.994
 7002SOL    HW221906   1.597   4.810   3.156
 7003SOL     OW21907   0.173   5.082   6.260
 7003SOL    HW121908   0.169   5.172   6.216
 7003SOL    HW221909   0.106   5.079   6.334
 7004SOL     OW21910   1.183   0.583   6.918
 7004SOL    HW121911   1.098   0.585   6.970
 7004SOL    HW221912   1.169   0.528   6.835
 7005SOL     OW21913   1.569   5.129   0.508
 7005SOL    HW121914   1.576   5.110   0.606
 7005SOL    HW221915   1.518   5.056   0.463
 7006SOL     OW21916   1.079   0.278   3.341
 7006SOL    HW121917   1.135   0.294   3.422
 7006SOL    HW221918   1.038   0.187   3.346
 7007SOL     OW21919   1.910   6.630   6.304
 7007SOL    HW121920   1.860   6.651   6.388
 7007SOL    HW221921   1.845   6.613   6.230
 7008SOL     OW21922   6.266   2.832   2.801
 7008SOL    HW121923   6.309   2.785   2.878
 7008SOL    HW221924   6.285   2.930   2.807
 7009SOL     OW21925   5.570   5.316   2.186
 7009SOL    HW121926   5.498   5.301   2.119
 7009SOL    HW221927   5.646   5.254   2.169
 7010SOL     OW21928   4.981   2.599   2.863
 7010SOL    HW121929   4.923   2.600   2.782
 7010SOL    HW221930   4.977   2.508   2.906
 7011SOL     OW21931   1.799   5.684   6.845
 7011SOL    HW121932   1.877   5.741   6.871
 7011SOL    HW221933   1.727   5.694   6.913
 7012SOL     OW21934   0.759   3.663   0.352
 7012SOL    HW121935   0.834   3.600   0.334
 7012SOL    HW221936   0.716   3.639   0.439
 7013SOL     OW21937   2.566   2.556   0.140
 7013SOL    HW121938   2.629   2.527   0.212
 7013SOL    HW221939   2.552   2.655   0.146
 7014SOL     OW21940   0.299   3.970   1.038
 7014SOL    HW121941   0.258   3.969   1.130
 7014SOL    HW221942   0.238   3.923   0.975
 7015SOL     OW21943   5.793   6.360   1.539
 7015SOL    HW121944   5.782   6.374   1.638
 7015SOL    HW221945   5.888   6.336   1.519
 7016SOL     OW21946   2.740   5.018   0.965
 7016SOL    HW121947   2.744   5.068   0.879
 7016SOL    HW221948   2.758   4.921   0.949
 7017SOL     OW21949   6.054   3.739   6.894
 7017SOL    HW121950   5.965   3.696   6.883
 7017SOL    HW221951   6.078   3.789   6.811
 7018SOL     OW21952   6.446   2.474   4.253
 7018SOL    HW121953   6.489   2.512   4.335
 7018SOL    HW221954   6.508   2.483   4.175
 7019SOL     OW21955   3.020   6.595   2.450
 7019SOL    HW121956   3.017   6.501   2.415
 7019SOL    HW221957   3.019   6.659   2.374
 7020SOL     OW21958   6.468   1.672   0.815
 7020SOL    HW121959   6.539   1.733   0.852
 7020SOL    HW221960   6.388   1.726   0.790
 7021SOL     OW21961   0.896   2.355   4.739
 7021SOL    HW121962   0.797   2.344   4.750
 7021SOL    HW221963   0.915   2.440   4.691
 7022SOL     OW21964   2.125   3.807   1.311
 7022SOL    HW121965   2.052   3.875   1.321
 7022SOL    HW221966   2.147   3.768   1.401
 7023SOL     OW21967   6.633   1.836   0.982
 7023SOL    HW121968   6.724   1.870   1.004
 7023SOL    HW221969   6.570   1.914   0.972
 7024SOL     OW21970   3.660   4.529   5.406
 7024SOL    HW121971   3.678   4.520   5.504
 7024SOL    HW221972   3.629   4.441   5.370
 7025SOL     OW21973   3.530   0.775   1.126
 7025SOL    HW121974   3.508   0.858   1.178
 7025SOL    HW221975   3.579   0.711   1.186
 7026SOL     OW21976   3.091   2.318   1.477
 7026SOL    HW121977   3.007   2.367   1.455
 7026SOL    HW221978   3.115   2.334   1.572
 7027SOL     OW21979   2.657   4.236   0.487
 7027SOL    HW121980   2.565   4.234   0.526
 7027SOL    HW221981   2.651   4.233   0.387
 7028SOL     OW21982   3.106   0.694   2.048
 7028SOL    HW121983   3.097   0.720   1.952
 7028SOL    HW221984   3.094   0.595   2.057
 7029SOL     OW21985   3.304   4.083   3.357
 7029SOL    HW121986   3.239   4.090   3.281
 7029SOL    HW221987   3.374   4.015   3.335
 7030SOL     OW21988   5.645   0.209   4.689
 7030SOL    HW121989   5.649   0.284   4.623
 7030SOL    HW221990   5.636   0.122   4.640
 7031SOL     OW21991   5.845   4.191   0.700
 7031SOL    HW121992   5.933   4.143   0.705
 7031SOL    HW221993   5.851   4.265   0.633
 7032SOL     OW21994   3.664   4.913   3.999
 7032SOL    HW121995   3.728   4.893   4.073
 7032SOL    HW221996   3.570   4.900   4.033
 7033SOL     OW21997   2.314   1.655   5.462
 7033SOL    HW121998   2.329   1.647   5.560
 7033SOL    HW221999   2.388   1.608   5.413
 7034SOL     OW22000   6.626   2.498   2.560
 7034SOL    HW122001   6.544   2.504   2.504
 7034SOL    HW222002   6.612   2.430   2.632
 7035SOL     OW22003   3.861   2.609   0.795
 7035SOL    HW122004   3.861   2.583   0.891
 7035SOL    HW222005   3.955   2.628   0.766
 7036SOL     OW22006   6.674   1.738   2.027
 7036SOL    HW122007   6.628   1.825   2.040
 7036SOL    HW222008   6.607   1.667   2.007
 7037SOL     OW22009   0.214   1.543   5.297
 7037SOL    HW122010   0.203   1.519   5.393
 7037SOL    HW222011   0.304   1.585   5.283
 7038SOL     OW22012   1.409   3.928   0.099
 7038SOL    HW122013   1.370   4.004   0.151
 7038SOL    HW222014   1.359   3.917   0.013
 7039SOL     OW22015   6.222   0.353   1.567
 7039SOL    HW122016   6.279   0.425   1.606
 7039SOL    HW222017   6.233   0.269   1.621
 7040SOL     OW22018   4.839   3.157   4.797
 7040SOL    HW122019   4.839   3.083   4.730
 7040SOL    HW222020   4.752   3.206   4.792
 7041SOL     OW22021   0.973   6.770   2.728
 7041SOL    HW122022   0.958   6.692   2.789
 7041SOL    HW222023   0.938   6.853   2.770
 7042SOL     OW22024   4.619   5.111   5.301
 7042SOL    HW122025   4.534   5.141   5.256
 7042SOL    HW222026   4.680   5.071   5.232
 7043SOL     OW22027   2.296   5.872   0.273
 7043SOL    HW122028   2.367   5.875   0.344
 7043SOL    HW222029   2.277   5.776   0.251
 7044SOL     OW22030   4.963   6.496   5.490
 7044SOL    HW122031   4.957   6.397   5.480
 7044SOL    HW222032   4.874   6.532   5.518
 7045SOL     OW22033   5.578   0.714   1.607
 7045SOL    HW122034   5.509   0.786   1.594
 7045SOL    HW222035   5.658   0.734   1.551
 7046SOL     OW22036   3.061   1.057   2.435
 7046SOL    HW122037   3.036   1.061   2.338
 7046SOL    HW222038   3.005   1.122   2.487
 7047SOL     OW22039   1.080   6.651   1.081
 7047SOL    HW122040   1.031   6.685   1.001
 7047SOL    HW222041   1.068   6.714   1.157
 7048SOL     OW22042   0.525   5.481   4.813
 7048SOL    HW122043   0.500   5.396   4.859
 7048SOL    HW222044   0.443   5.537   4.799
 7049SOL     OW22045   2.174   1.363   5.261
 7049SOL    HW122046   2.098   1.306   5.228
 7049SOL    HW222047   2.138   1.449   5.296
 7050SOL     OW22048   4.157   4.546   0.384
 7050SOL    HW122049   4.214   4.622   0.414
 7050SOL    HW222050   4.187   4.462   0.430
 7051SOL     OW22051   2.095   0.968   2.056
 7051SOL    HW122052   2.053   0.925   2.136
 7051SOL    HW222053   2.140   1.053   2.083
 7052SOL     OW22054   5.500   2.178   2.559
 7052SOL    HW122055   5.546   2.209   2.476
 7052SOL    HW222056   5.433   2.246   2.588
 7053SOL     OW22057   0.766   4.688   3.352
 7053SOL    HW122058   0.865   4.684   3.338
 7053SOL    HW222059   0.735   4.604   3.398
 7054SOL     OW22060   5.507   6.836   1.114
 7054SOL    HW122061   5.530   6.932   1.123
 7054SOL    HW222062   5.522   6.806   1.020
 7055SOL     OW22063   2.400   0.062   7.004
 7055SOL    HW122064   2.303   0.086   6.998
 7055SOL    HW222065   2.422   7.014   6.933
 7056SOL     OW22066   0.608   5.384   1.623
 7056SOL    HW122067   0.557   5.305   1.591
 7056SOL    HW222068   0.590   5.462   1.563
 7057SOL     OW22069   3.052   6.027   5.100
 7057SOL    HW122070   2.959   6.052   5.125
 7057SOL    HW222071   3.054   5.933   5.066
 7058SOL     OW22072   5.893   2.910   5.386
 7058SOL    HW122073   5.976   2.905   5.441
 7058SOL    HW222074   5.904   2.855   5.303
 7059SOL     OW22075   1.633   1.152   4.155
 7059SOL    HW122076   1.705   1.127   4.090
 7059SOL    HW222077   1.565   1.078   4.158
 7060SOL     OW22078   2.909   2.457   1.241
 7060SOL    HW122079   2.856   2.379   1.274
 7060SOL    HW222080   2.965   2.429   1.163
 7061SOL     OW22081   1.292   6.429   1.229
 7061SOL    HW122082   1.313   6.524   1.203
 7061SOL    HW222083   1.268   6.377   1.148
 7062SOL     OW22084   3.576   0.763   5.412
 7062SOL    HW122085   3.538   0.831   5.475
 7062SOL    HW222086   3.545   0.784   5.319
 7063SOL     OW22087   7.014   1.051   1.163
 7063SOL    HW122088   0.020   1.143   1.191
 7063SOL    HW222089   6.988   0.998   1.244
 7064SOL     OW22090   2.379   1.621   5.720
 7064SOL    HW122091   2.387   1.650   5.815
 7064SOL    HW222092   2.367   1.521   5.717
 7065SOL     OW22093   3.193   0.254   2.778
 7065SOL    HW122094   3.125   0.281   2.845
 7065SOL    HW222095   3.160   0.175   2.726
 7066SOL     OW22096   4.431   1.071   1.802
 7066SOL    HW122097   4.446   1.044   1.707
 7066SOL    HW222098   4.351   1.025   1.839
 7067SOL     OW22099   2.871   4.638   6.184
 7067SOL    HW122100   2.910   4.709   6.125
 7067SOL    HW222101   2.773   4.631   6.167
 7068SOL     OW22102   4.339   4.636   2.445
 7068SOL    HW122103   4.279   4.697   2.393
 7068SOL    HW222104   4.284   4.567   2.491
 7069SOL     OW22105   3.148   1.612   5.769
 7069SOL    HW122106   3.096   1.528   5.751
 7069SOL    HW222107   3.099   1.667   5.837
 7070SOL     OW22108   0.485   1.974   5.505
 7070SOL    HW122109   0.447   1.925   5.427
 7070SOL    HW222110   0.455   1.930   5.590
 7071SOL     OW22111   4.782   5.337   6.966
 7071SOL    HW122112   4.770   5.248   7.010
 7071SOL    HW222113   4.706   5.397   6.992
 7072SOL     OW22114   1.470   3.841   5.405
 7072SOL    HW122115   1.538   3.874   5.339
 7072SOL    HW222116   1.474   3.741   5.408
 7073SOL     OW22117   4.175   0.932   4.761
 7073SOL    HW122118   4.180   0.871   4.840
 7073SOL    HW222119   4.146   0.880   4.681
 7074SOL     OW22120   5.645   3.071   2.468
 7074SOL    HW122121   5.738   3.102   2.449
 7074SOL    HW222122   5.641   3.030   2.559
 7075SOL     OW22123   2.046   4.623   2.426
 7075SOL    HW122124   1.971   4.650   2.487
 7075SOL    HW222125   2.108   4.561   2.474
 7076SOL     OW22126   6.051   1.914   0.888
 7076SOL    HW122127   6.058   2.012   0.868
 7076SOL    HW222128   5.958   1.883   0.870
 7077SOL     OW22129   3.682   6.209   2.120
 7077SOL    HW122130   3.657   6.190   2.025
 7077SOL    HW222131   3.775   6.175   2.136
 7078SOL     OW22132   0.158   1.479   0.120
 7078SOL    HW122133   0.142   1.536   0.201
 7078SOL    HW222134   0.070   1.452   0.081
 7079SOL     OW22135   2.765   5.687   5.485
 7079SOL    HW122136   2.804   5.629   5.415
 7079SOL    HW222137   2.838   5.726   5.542
 7080SOL     OW22138   3.885   1.427   6.765
 7080SOL    HW122139   3.932   1.479   6.838
 7080SOL    HW222140   3.787   1.429   6.781
 7081SOL     OW22141   3.281   6.203   6.273
 7081SOL    HW122142   3.191   6.168   6.296
 7081SOL    HW222143   3.340   6.200   6.354
 7082SOL     OW22144   1.619   5.091   2.353
 7082SOL    HW122145   1.538   5.138   2.320
 7082SOL    HW222146   1.695   5.106   2.289
 7083SOL     OW22147   5.657   2.923   3.009
 7083SOL    HW122148   5.627   2.835   2.972
 7083SOL    HW222149   5.578   2.971   3.049
 7084SOL     OW22150   1.222   5.149   0.588
 7084SOL    HW122151   1.260   5.085   0.522
 7084SOL    HW222152   1.281   5.230   0.593
 7085SOL     OW22153   0.151   3.210   2.136
 7085SOL    HW122154   0.191   3.288   2.086
 7085SOL    HW222155   0.135   3.135   2.072
 7086SOL     OW22156   3.731   0.930   3.945
 7086SOL    HW122157   3.786   0.935   3.862
 7086SOL    HW222158   3.645   0.881   3.926
 7087SOL     OW22159   6.326   2.738   3.810
 7087SOL    HW122160   6.367   2.807   3.870
 7087SOL    HW222161   6.245   2.699   3.854
 7088SOL     OW22162   6.274   1.811   5.447
 7088SOL    HW122163   6.265   1.910   5.441
 7088SOL    HW222164   6.357   1.782   5.400
 7089SOL     OW22165   3.539   6.418   1.947
 7089SOL    HW122166   3.490   6.493   1.991
 7089SOL    HW222167   3.477   6.369   1.885
 7090SOL     OW22168   5.742   3.259   1.717
 7090SOL    HW122169   5.710   3.354   1.723
 7090SOL    HW222170   5.768   3.239   1.623
 7091SOL     OW22171   5.461   0.412   6.196
 7091SOL    HW122172   5.495   0.479   6.130
 7091SOL    HW222173   5.419   0.335   6.148
 7092SOL     OW22174   4.139   0.401   6.150
 7092SOL    HW122175   4.119   0.306   6.130
 7092SOL    HW222176   4.100   0.426   6.239
 7093SOL     OW22177   4.109   3.445   0.452
 7093SOL    HW122178   4.143   3.424   0.361
 7093SOL    HW222179   4.033   3.383   0.475
 7094SOL     OW22180   4.278   0.913   5.241
 7094SOL    HW122181   4.337   0.992   5.227
 7094SOL    HW222182   4.260   0.901   5.339
 7095SOL     OW22183   2.616   5.247   3.411
 7095SOL    HW122184   2.677   5.174   3.440
 7095SOL    HW222185   2.521   5.215   3.415
 7096SOL     OW22186   0.174   5.081   0.407
 7096SOL    HW122187   0.136   5.151   0.347
 7096SOL    HW222188   0.246   5.031   0.359
 7097SOL     OW22189   4.907   1.947   3.009
 7097SOL    HW122190   4.811   1.940   2.983
 7097SOL    HW222191   4.915   1.994   3.096
 7098SOL     OW22192   1.088   1.263   2.272
 7098SOL    HW122193   1.146   1.186   2.246
 7098SOL    HW222194   1.044   1.244   2.359
 7099SOL     OW22195   2.593   1.264   5.146
 7099SOL    HW122196   2.661   1.200   5.110
 7099SOL    HW222197   2.599   1.350   5.097
 7100SOL     OW22198   0.652   4.401   1.173
 7100SOL    HW122199   0.590   4.399   1.095
 7100SOL    HW222200   0.625   4.330   1.239
 7101SOL     OW22201   2.729   6.667   4.545
 7101SOL    HW122202   2.762   6.575   4.567
 7101SOL    HW222203   2.786   6.735   4.592
 7102SOL     OW22204   5.455   1.887   2.533
 7102SOL    HW122205   5.465   1.985   2.550
 7102SOL    HW222206   5.524   1.858   2.467
 7103SOL     OW22207   6.800   3.732   4.918
 7103SOL    HW122208   6.725   3.791   4.887
 7103SOL    HW222209   6.883   3.754   4.867
 7104SOL     OW22210   4.384   2.324   4.244
 7104SOL    HW122211   4.478   2.313   4.211
 7104SOL    HW222212   4.324   2.345   4.167
 7105SOL     OW22213   2.988   3.558   1.783
 7105SOL    HW122214   3.037   3.630   1.832
 7105SOL    HW222215   2.944   3.597   1.703
 7106SOL     OW22216   2.335   2.400   2.987
 7106SOL    HW122217   2.371   2.467   3.051
 7106SOL    HW222218   2.400   2.385   2.913
 7107SOL     OW22219   3.902   0.534   0.817
 7107SOL    HW122220   3.947   0.560   0.902
 7107SOL    HW222221   3.807   0.566   0.818
 7108SOL     OW22222   2.807   6.644   1.651
 7108SOL    HW122223   2.720   6.596   1.645
 7108SOL    HW222224   2.800   6.719   1.717
 7109SOL     OW22225   2.207   5.078   6.190
 7109SOL    HW122226   2.127   5.038   6.235
 7109SOL    HW222227   2.239   5.016   6.119
 7110SOL     OW22228   2.465   5.465   5.876
 7110SOL    HW122229   2.379   5.434   5.836
 7110SOL    HW222230   2.511   5.527   5.812
 7111SOL     OW22231   6.412   1.998   4.053
 7111SOL    HW122232   6.361   2.082   4.039
 7111SOL    HW222233   6.499   2.002   4.003
 7112SOL     OW22234   6.575   4.832   4.386
 7112SOL    HW122235   6.642   4.804   4.317
 7112SOL    HW222236   6.563   4.759   4.453
 7113SOL     OW22237   3.410   6.873   5.303
 7113SOL    HW122238   3.319   6.840   5.278
 7113SOL    HW222239   3.441   6.940   5.235
 7114SOL     OW22240   6.119   3.480   0.605
 7114SOL    HW122241   6.020   3.477   0.589
 7114SOL    HW222242   6.150   3.575   0.596
 7115SOL     OW22243   4.914   3.137   6.105
 7115SOL    HW122244   4.857   3.218   6.093
 7115SOL    HW222245   4.963   3.117   6.020
 7116SOL     OW22246   6.800   4.821   4.860
 7116SOL    HW122247   6.805   4.915   4.895
 7116SOL    HW222248   6.707   4.802   4.827
 7117SOL     OW22249   3.072   0.910   2.875
 7117SOL    HW122250   2.976   0.895   2.851
 7117SOL    HW222251   3.127   0.910   2.791
 7118SOL     OW22252   5.702   4.749   5.652
 7118SOL    HW122253   5.752   4.828   5.686
 7118SOL    HW222254   5.615   4.779   5.612
 7119SOL     OW22255   2.599   6.369   3.926
 7119SOL    HW122256   2.610   6.366   3.827
 7119SOL    HW222257   2.503   6.385   3.949
 7120SOL     OW22258   4.685   2.139   2.283
 7120SOL    HW122259   4.651   2.077   2.354
 7120SOL    HW222260   4.608   2.181   2.235
 7121SOL     OW22261   1.926   5.869   1.579
 7121SOL    HW122262   1.844   5.821   1.548
 7121SOL    HW222263   1.996   5.862   1.508
 7122SOL     OW22264   2.832   2.187   6.569
 7122SOL    HW122265   2.745   2.233   6.551
 7122SOL    HW222266   2.905   2.255   6.573
 7123SOL     OW22267   5.255   3.434   6.140
 7123SOL    HW122268   5.246   3.511   6.204
 7123SOL    HW222269   5.196   3.451   6.060
 7124SOL     OW22270   3.423   2.760   5.943
 7124SOL    HW122271   3.358   2.736   6.016
 7124SOL    HW222272   3.411   2.697   5.867
 7125SOL     OW22273   1.184   5.916   1.668
 7125SOL    HW122274   1.245   5.989   1.697
 7125SOL    HW222275   1.217   5.877   1.582
 7126SOL     OW22276   3.795   4.781   0.306
 7126SOL    HW122277   3.792   4.881   0.301
 7126SOL    HW222278   3.798   4.753   0.402
 7127SOL     OW22279   2.201   0.086   5.115
 7127SOL    HW122280   2.179   0.145   5.192
 7127SOL    HW222281   2.163   0.126   5.031
 7128SOL     OW22282   4.170   3.699   0.334
 7128SOL    HW122283   4.201   3.659   0.421
 7128SOL    HW222284   4.130   3.627   0.277
 7129SOL     OW22285   6.973   1.724   0.523
 7129SOL    HW122286   0.023   1.682   0.581
 7129SOL    HW222287   6.990   1.822   0.516
 7130SOL     OW22288   3.468   6.903   3.459
 7130SOL    HW122289   3.505   6.841   3.529
 7130SOL    HW222290   3.377   6.874   3.433
 7131SOL     OW22291   2.251   1.444   2.735
 7131SOL    HW122292   2.294   1.371   2.682
 7131SOL    HW222293   2.310   1.467   2.812
 7132SOL     OW22294   5.389   4.986   2.759
 7132SOL    HW122295   5.385   4.928   2.677
 7132SOL    HW222296   5.334   4.945   2.831
 7133SOL     OW22297   4.043   6.340   2.228
 7133SOL    HW122298   3.968   6.392   2.189
 7133SOL    HW222299   4.027   6.324   2.325
 7134SOL     OW22300   6.089   4.651   6.239
 7134SOL    HW122301   6.153   4.663   6.162
 7134SOL    HW222302   6.079   4.738   6.288
 7135SOL     OW22303   2.478   5.598   0.301
 7135SOL    HW122304   2.562   5.640   0.333
 7135SOL    HW222305   2.427   5.562   0.379
 7136SOL     OW22306   1.186   3.075   2.856
 7136SOL    HW122307   1.204   3.050   2.761
 7136SOL    HW222308   1.169   2.993   2.910
 7137SOL     OW22309   1.137   6.907   1.685
 7137SOL    HW122310   1.040   6.887   1.677
 7137SOL    HW222311   1.184   6.828   1.724
 7138SOL     OW22312   6.638   3.961   0.895
 7138SOL    HW122313   6.561   3.957   0.832
 7138SOL    HW222314   6.713   4.013   0.854
 7139SOL     OW22315   5.682   5.652   0.665
 7139SOL    HW122316   5.682   5.607   0.575
 7139SOL    HW222317   5.606   5.717   0.670
 7140SOL     OW22318   6.234   3.821   0.358
 7140SOL    HW122319   6.148   3.870   0.373
 7140SOL    HW222320   6.221   3.753   0.285
 7141SOL     OW22321   2.364   2.434   0.373
 7141SOL    HW122322   2.359   2.475   0.282
 7141SOL    HW222323   2.459   2.430   0.403
 7142SOL     OW22324   4.098   6.268   5.876
 7142SOL    HW122325   4.159   6.271   5.797
 7142SOL    HW222326   4.124   6.194   5.937
 7143SOL     OW22327   2.743   3.033   5.745
 7143SOL    HW122328   2.697   3.111   5.787
 7143SOL    HW222329   2.795   3.063   5.665
 7144SOL     OW22330   6.290   1.662   6.488
 7144SOL    HW122331   6.228   1.740   6.476
 7144SOL    HW222332   6.348   1.678   6.567
 7145SOL     OW22333   0.378   3.386   0.019
 7145SOL    HW122334   0.386   3.462   0.083
 7145SOL    HW222335   0.391   3.300   0.067
 7146SOL     OW22336   0.022   1.506   4.420
 7146SOL    HW122337   6.979   1.452   4.475
 7146SOL    HW222338   0.013   1.603   4.443
 7147SOL     OW22339   6.735   0.694   0.014
 7147SOL    HW122340   6.755   0.741   0.101
 7147SOL    HW222341   6.786   0.608   0.010
 7148SOL     OW22342   5.485   6.605   0.486
 7148SOL    HW122343   5.442   6.535   0.430
 7148SOL    HW222344   5.547   6.660   0.431
 7149SOL     OW22345   6.656   3.765   0.372
 7149SOL    HW122346   6.747   3.785   0.407
 7149SOL    HW222347   6.658   3.678   0.321
 7150SOL     OW22348   2.357   2.304   0.037
 7150SOL    HW122349   2.435   2.273   0.092
 7150SOL    HW222350   2.282   2.332   0.097
 7151SOL     OW22351   5.741   2.394   6.950
 7151SOL    HW122352   5.687   2.391   6.866
 7151SOL    HW222353   5.784   2.306   6.966
 7152SOL     OW22354   5.909   0.717   4.857
 7152SOL    HW122355   5.941   0.647   4.793
 7152SOL    HW222356   5.891   0.802   4.807
 7153SOL     OW22357   4.977   5.881   0.217
 7153SOL    HW122358   4.977   5.789   0.257
 7153SOL    HW222359   4.954   5.874   0.120
 7154SOL     OW22360   5.170   6.289   1.993
 7154SOL    HW122361   5.226   6.322   1.918
 7154SOL    HW222362   5.223   6.226   2.050
 7155SOL     OW22363   1.098   6.807   1.308
 7155SOL    HW122364   1.172   6.873   1.291
 7155SOL    HW222365   1.016   6.855   1.338
 7156SOL     OW22366   6.880   3.155   5.207
 7156SOL    HW122367   6.902   3.246   5.170
 7156SOL    HW222368   6.914   3.149   5.301
 7157SOL     OW22369   0.095   4.137   6.112
 7157SOL    HW122370   0.070   4.127   6.016
 7157SOL    HW222371   0.012   4.134   6.168
 7158SOL     OW22372   4.910   6.690   3.864
 7158SOL    HW122373   4.963   6.641   3.796
 7158SOL    HW222374   4.902   6.786   3.837
 7159SOL     OW22375   0.693   6.542   3.276
 7159SOL    HW122376   0.711   6.488   3.359
 7159SOL    HW222377   0.601   6.582   3.283
 7160SOL     OW22378   5.908   5.899   2.040
 7160SOL    HW122379   5.996   5.866   2.006
 7160SOL    HW222380   5.897   5.872   2.135
 7161SOL     OW22381   3.916   3.098   1.813
 7161SOL    HW122382   3.827   3.076   1.853
 7161SOL    HW222383   3.914   3.190   1.775
 7162SOL     OW22384   0.702   6.353   0.159
 7162SOL    HW122385   0.646   6.311   0.230
 7162SOL    HW222386   0.776   6.289   0.133
 7163SOL     OW22387   6.946   5.920   0.074
 7163SOL    HW122388   7.019   5.987   0.084
 7163SOL    HW222389   6.966   5.840   0.131
 7164SOL     OW22390   1.200   6.394   6.644
 7164SOL    HW122391   1.288   6.368   6.605
 7164SOL    HW222392   1.204   6.388   6.744
 7165SOL     OW22393   4.297   3.043   6.088
 7165SOL    HW122394   4.300   2.961   6.030
 7165SOL    HW222395   4.376   3.100   6.068
 7166SOL     OW22396   0.182   5.964   5.927
 7166SOL    HW122397   0.124   5.937   6.004
 7166SOL    HW222398   0.203   5.883   5.872
 7167SOL     OW22399   1.062   3.770   5.794
 7167SOL    HW122400   1.083   3.810   5.883
 7167SOL    HW222401   1.069   3.840   5.723
 7168SOL     OW22402   7.009   0.191   2.219
 7168SOL    HW122403   0.083   0.158   2.206
 7168SOL    HW222404   6.991   0.202   2.317
 7169SOL     OW22405   1.771   4.841   5.678
 7169SOL    HW122406   1.788   4.861   5.775
 7169SOL    HW222407   1.787   4.924   5.624
 7170SOL     OW22408   4.351   2.424   1.869
 7170SOL    HW122409   4.377   2.456   1.779
 7170SOL    HW222410   4.409   2.468   1.938
 7171SOL     OW22411   0.081   5.877   1.668
 7171SOL    HW122412   0.051   5.949   1.731
 7171SOL    HW222413   0.073   5.910   1.574
 7172SOL     OW22414   1.217   2.469   3.430
 7172SOL    HW122415   1.189   2.373   3.429
 7172SOL    HW222416   1.252   2.493   3.340
 7173SOL     OW22417   3.766   5.342   4.439
 7173SOL    HW122418   3.825   5.313   4.514
 7173SOL    HW222419   3.821   5.382   4.366
 7174SOL     OW22420   6.529   3.690   2.910
 7174SOL    HW122421   6.430   3.704   2.913
 7174SOL    HW222422   6.554   3.620   2.977
 7175SOL     OW22423   5.733   2.703   5.803
 7175SOL    HW122424   5.646   2.656   5.817
 7175SOL    HW222425   5.729   2.757   5.719
 7176SOL     OW22426   6.570   1.806   6.316
 7176SOL    HW122427   6.607   1.731   6.371
 7176SOL    HW222428   6.511   1.863   6.374
 7177SOL     OW22429   1.526   5.245   3.795
 7177SOL    HW122430   1.619   5.219   3.771
 7177SOL    HW222431   1.521   5.344   3.809
 7178SOL     OW22432   0.582   6.264   5.464
 7178SOL    HW122433   0.547   6.177   5.498
 7178SOL    HW222434   0.642   6.247   5.385
 7179SOL     OW22435   5.316   4.491   5.595
 7179SOL    HW122436   5.351   4.582   5.574
 7179SOL    HW222437   5.326   4.431   5.515
 7180SOL     OW22438   6.709   2.216   2.376
 7180SOL    HW122439   6.673   2.242   2.465
 7180SOL    HW222440   6.780   2.281   2.348
 7181SOL     OW22441   3.966   0.296   0.399
 7181SOL    HW122442   3.912   0.274   0.480
 7181SOL    HW222443   3.917   0.363   0.343
 7182SOL     OW22444   2.318   0.787   2.570
 7182SOL    HW122445   2.303   0.871   2.623
 7182SOL    HW222446   2.250   0.719   2.595
 7183SOL     OW22447   1.697   6.787   1.062
 7183SOL    HW122448   1.731   6.837   1.142
 7183SOL    HW222449   1.655   6.851   0.998
 7184SOL     OW22450   6.820   1.393   3.113
 7184SOL    HW122451   6.747   1.332   3.144
 7184SOL    HW222452   6.789   1.488   3.119
 7185SOL     OW22453   3.715   7.013   3.788
 7185SOL    HW122454   3.685   0.034   3.701
 7185SOL    HW222455   3.749   0.066   3.848
 7186SOL     OW22456   6.556   2.707   0.558
 7186SOL    HW122457   6.570   2.806   0.549
 7186SOL    HW222458   6.463   2.690   0.589
 7187SOL     OW22459   2.931   3.612   3.684
 7187SOL    HW122460   2.907   3.545   3.754
 7187SOL    HW222461   2.923   3.704   3.722
 7188SOL     OW22462   4.773   4.971   6.676
 7188SOL    HW122463   4.678   4.978   6.646
 7188SOL    HW222464   4.833   4.967   6.597
 7189SOL     OW22465   6.972   1.766   6.016
 7189SOL    HW122466   6.969   1.833   5.942
 7189SOL    HW222467   6.880   1.734   6.036
 7190SOL     OW22468   5.323   5.550   0.690
 7190SOL    HW122469   5.294   5.629   0.636
 7190SOL    HW222470   5.327   5.575   0.787
 7191SOL     OW22471   0.095   5.064   2.345
 7191SOL    HW122472   7.017   5.048   2.334
 7191SOL    HW222473   0.126   5.024   2.431
 7192SOL     OW22474   3.223   4.037   5.913
 7192SOL    HW122475   3.251   4.028   6.008
 7192SOL    HW222476   3.157   4.112   5.904
 7193SOL     OW22477   3.949   1.328   4.511
 7193SOL    HW122478   3.910   1.412   4.475
 7193SOL    HW222479   4.044   1.344   4.538
 7194SOL     OW22480   3.728   2.593   5.371
 7194SOL    HW122481   3.669   2.638   5.305
 7194SOL    HW222482   3.683   2.590   5.460
 7195SOL     OW22483   6.584   3.784   5.407
 7195SOL    HW122484   6.570   3.779   5.308
 7195SOL    HW222485   6.680   3.766   5.428
 7196SOL     OW22486   2.953   4.250   1.224
 7196SOL    HW122487   3.000   4.199   1.152
 7196SOL    HW222488   2.855   4.253   1.204
 7197SOL     OW22489   3.311   4.416   6.368
 7197SOL    HW122490   3.327   4.385   6.275
 7197SOL    HW222491   3.297   4.337   6.428
 7198SOL     OW22492   1.707   6.467   2.023
 7198SOL    HW122493   1.758   6.536   2.073
 7198SOL    HW222494   1.615   6.499   2.005
 7199SOL     OW22495   6.139   1.262   3.558
 7199SOL    HW122496   6.052   1.251   3.607
 7199SOL    HW222497   6.163   1.359   3.556
 7200SOL     OW22498   0.545   4.058   6.341
 7200SOL    HW122499   0.614   3.997   6.303
 7200SOL    HW222500   0.462   4.054   6.286
 7201SOL     OW22501   5.522   5.612   5.018
 7201SOL    HW122502   5.554   5.704   5.041
 7201SOL    HW222503   5.575   5.576   4.941
 7202SOL     OW22504   4.198   6.514   5.929
 7202SOL    HW122505   4.158   6.428   5.897
 7202SOL    HW222506   4.145   6.590   5.892
 7203SOL     OW22507   1.020   1.910   0.832
 7203SOL    HW122508   1.103   1.964   0.813
 7203SOL    HW222509   0.946   1.941   0.773
 7204SOL     OW22510   5.375   0.722   2.818
 7204SOL    HW122511   5.315   0.784   2.869
 7204SOL    HW222512   5.467   0.761   2.812
 7205SOL     OW22513   3.340   1.136   3.962
 7205SOL    HW122514   3.305   1.193   4.036
 7205SOL    HW222515   3.376   1.195   3.889
 7206SOL     OW22516   1.652   2.770   6.553
 7206SOL    HW122517   1.614   2.834   6.486
 7206SOL    HW222518   1.629   2.800   6.645
 7207SOL     OW22519   1.819   2.369   3.468
 7207SOL    HW122520   1.842   2.278   3.434
 7207SOL    HW222521   1.860   2.383   3.558
 7208SOL     OW22522   2.778   0.439   3.519
 7208SOL    HW122523   2.725   0.523   3.529
 7208SOL    HW222524   2.726   0.373   3.465
 7209SOL     OW22525   4.458   1.555   3.201
 7209SOL    HW122526   4.399   1.619   3.250
 7209SOL    HW222527   4.451   1.465   3.243
 7210SOL     OW22528   3.163   1.097   4.926
 7210SOL    HW122529   3.257   1.100   4.893
 7210SOL    HW222530   3.134   1.189   4.954
 7211SOL     OW22531   4.764   5.820   6.070
 7211SOL    HW122532   4.858   5.851   6.064
 7211SOL    HW222533   4.734   5.822   6.165
 7212SOL     OW22534   0.126   5.839   4.236
 7212SOL    HW122535   0.200   5.846   4.169
 7212SOL    HW222536   0.153   5.774   4.308
 7213SOL     OW22537   5.667   2.755   0.533
 7213SOL    HW122538   5.689   2.730   0.628
 7213SOL    HW222539   5.647   2.672   0.481
 7214SOL     OW22540   6.115   1.593   5.973
 7214SOL    HW122541   6.130   1.632   5.882
 7214SOL    HW222542   6.202   1.555   6.007
 7215SOL     OW22543   6.472   1.517   2.870
 7215SOL    HW122544   6.478   1.450   2.795
 7215SOL    HW222545   6.437   1.603   2.834
 7216SOL     OW22546   5.210   6.474   3.839
 7216SOL    HW122547   5.283   6.511   3.781
 7216SOL    HW222548   5.224   6.375   3.850
 7217SOL     OW22549   1.208   3.286   3.041
 7217SOL    HW122550   1.142   3.343   2.993
 7217SOL    HW222551   1.234   3.209   2.983
 7218SOL     OW22552   6.913   3.075   5.467
 7218SOL    HW122553   6.965   3.104   5.547
 7218SOL    HW222554   6.952   2.991   5.430
 7219SOL     OW22555   3.715   6.042   1.130
 7219SOL    HW122556   3.688   6.137   1.142
 7219SOL    HW222557   3.642   5.992   1.083
 7220SOL     OW22558   0.517   4.111   3.989
 7220SOL    HW122559   0.418   4.119   3.980
 7220SOL    HW222560   0.539   4.082   4.082
 7221SOL     OW22561   4.710   4.911   3.780
 7221SOL    HW122562   4.641   4.954   3.723
 7221SOL    HW222563   4.751   4.979   3.840
 7222SOL     OW22564   6.237   5.318   4.085
 7222SOL    HW122565   6.321   5.324   4.139
 7222SOL    HW222566   6.188   5.405   4.090
 7223SOL     OW22567   6.216   5.191   1.396
 7223SOL    HW122568   6.249   5.210   1.303
 7223SOL    HW222569   6.293   5.158   1.452
 7224SOL     OW22570   6.048   2.664   2.862
 7224SOL    HW122571   6.112   2.734   2.830
 7224SOL    HW222572   6.031   2.677   2.960
 7225SOL     OW22573   0.957   5.233   0.546
 7225SOL    HW122574   0.896   5.229   0.625
 7225SOL    HW222575   1.045   5.192   0.569
 7226SOL     OW22576   6.063   6.757   0.220
 7226SOL    HW122577   6.142   6.702   0.246
 7226SOL    HW222578   6.082   6.803   0.133
 7227SOL     OW22579   2.047   0.539   2.065
 7227SOL    HW122580   2.024   0.450   2.103
 7227SOL    HW222581   2.085   0.528   1.973
 7228SOL     OW22582   6.839   3.682   3.251
 7228SOL    HW122583   6.885   3.732   3.325
 7228SOL    HW222584   6.881   3.592   3.239
 7229SOL     OW22585   5.316   6.482   5.262
 7229SOL    HW122586   5.401   6.439   5.294
 7229SOL    HW222587   5.317   6.488   5.163
 7230SOL     OW22588   2.707   4.957   6.079
 7230SOL    HW122589   2.782   4.903   6.040
 7230SOL    HW222590   2.629   4.897   6.098
 7231SOL     OW22591   3.873   2.646   6.796
 7231SOL    HW122592   3.822   2.716   6.846
 7231SOL    HW222593   3.966   2.678   6.778
 7232SOL     OW22594   4.196   5.633   3.344
 7232SOL    HW122595   4.208   5.731   3.330
 7232SOL    HW222596   4.181   5.614   3.441
 7233SOL     OW22597   0.684   1.772   0.019
 7233SOL    HW122598   0.601   1.736   0.061
 7233SOL    HW222599   0.692   1.737   6.945
 7234SOL     OW22600   5.285   5.306   3.564
 7234SOL    HW122601   5.373   5.351   3.544
 7234SOL    HW222602   5.272   5.299   3.662
 7235SOL     OW22603   0.119   0.245   1.122
 7235SOL    HW122604   0.173   0.169   1.087
 7235SOL    HW222605   0.109   0.315   1.052
 7236SOL     OW22606   0.731   4.322   3.060
 7236SOL    HW122607   0.694   4.269   3.136
 7236SOL    HW222608   0.771   4.259   2.993
 7237SOL     OW22609   4.699   1.332   6.319
 7237SOL    HW122610   4.679   1.301   6.412
 7237SOL    HW222611   4.798   1.335   6.305
 7238SOL     OW22612   4.642   3.420   0.103
 7238SOL    HW122613   4.639   3.484   0.180
 7238SOL    HW222614   4.671   3.469   0.021
 7239SOL     OW22615   6.225   2.769   2.217
 7239SOL    HW122616   6.196   2.833   2.287
 7239SOL    HW222617   6.236   2.678   2.257
 7240SOL     OW22618   0.354   2.016   1.061
 7240SOL    HW122619   0.450   2.046   1.059
 7240SOL    HW222620   0.317   2.018   0.968
 7241SOL     OW22621   2.391   0.274   3.206
 7241SOL    HW122622   2.405   0.365   3.247
 7241SOL    HW222623   2.471   0.217   3.222
 7242SOL     OW22624   6.795   3.753   5.874
 7242SOL    HW122625   6.861   3.680   5.851
 7242SOL    HW222626   6.788   3.760   5.974
 7243SOL     OW22627   6.477   4.391   6.672
 7243SOL    HW122628   6.391   4.344   6.692
 7243SOL    HW222629   6.535   4.390   6.754
 7244SOL     OW22630   6.878   5.862   0.479
 7244SOL    HW122631   6.854   5.819   0.567
 7244SOL    HW222632   6.941   5.803   0.429
 7245SOL     OW22633   1.849   2.420   6.855
 7245SOL    HW122634   1.942   2.389   6.835
 7245SOL    HW222635   1.800   2.436   6.769
 7246SOL     OW22636   4.599   6.957   4.551
 7246SOL    HW122637   4.611   6.859   4.541
 7246SOL    HW222638   4.610   6.982   4.647
 7247SOL     OW22639   3.627   4.027   4.441
 7247SOL    HW122640   3.579   4.080   4.511
 7247SOL    HW222641   3.667   4.090   4.374
 7248SOL     OW22642   2.707   2.254   5.411
 7248SOL    HW122643   2.664   2.339   5.443
 7248SOL    HW222644   2.764   2.274   5.331
 7249SOL     OW22645   3.544   6.121   2.945
 7249SOL    HW122646   3.601   6.143   3.024
 7249SOL    HW222647   3.449   6.146   2.964
 7250SOL     OW22648   4.783   4.998   5.136
 7250SOL    HW122649   4.790   4.907   5.095
 7250SOL    HW222650   4.839   5.062   5.083
 7251SOL     OW22651   0.068   5.792   3.917
 7251SOL    HW122652   0.117   5.879   3.921
 7251SOL    HW222653   0.108   5.728   3.984
 7252SOL     OW22654   3.831   4.348   1.686
 7252SOL    HW122655   3.737   4.316   1.689
 7252SOL    HW222656   3.837   4.430   1.629
 7253SOL     OW22657   1.121   5.295   5.644
 7253SOL    HW122658   1.181   5.220   5.673
 7253SOL    HW222659   1.107   5.290   5.545
 7254SOL     OW22660   0.502   3.985   3.738
 7254SOL    HW122661   0.565   3.927   3.687
 7254SOL    HW222662   0.550   4.031   3.813
 7255SOL     OW22663   4.812   3.916   0.961
 7255SOL    HW122664   4.736   3.974   0.931
 7255SOL    HW222665   4.891   3.931   0.902
 7256SOL     OW22666   3.225   6.838   3.684
 7256SOL    HW122667   3.230   6.905   3.610
 7256SOL    HW222668   3.210   6.885   3.771
 7257SOL     OW22669   1.052   1.036   5.110
 7257SOL    HW122670   1.063   0.937   5.101
 7257SOL    HW222671   1.121   1.082   5.054
 7258SOL     OW22672   0.530   1.749   3.069
 7258SOL    HW122673   0.468   1.671   3.076
 7258SOL    HW222674   0.527   1.785   2.976
 7259SOL     OW22675   1.114   3.746   2.299
 7259SOL    HW122676   1.172   3.826   2.315
 7259SOL    HW222677   1.148   3.669   2.354
 7260SOL     OW22678   6.044   2.526   0.942
 7260SOL    HW122679   6.095   2.457   0.890
 7260SOL    HW222680   6.101   2.559   1.018
 7261SOL     OW22681   0.257   4.306   6.961
 7261SOL    HW122682   0.357   4.312   6.953
 7261SOL    HW222683   0.224   4.230   6.904
 7262SOL     OW22684   2.856   0.396   5.053
 7262SOL    HW122685   2.813   0.322   5.001
 7262SOL    HW222686   2.882   0.469   4.991
 7263SOL     OW22687   6.442   4.777   6.022
 7263SOL    HW122688   6.476   4.802   6.113
 7263SOL    HW222689   6.479   4.841   5.954
 7264SOL     OW22690   4.742   2.213   1.446
 7264SOL    HW122691   4.732   2.181   1.352
 7264SOL    HW222692   4.736   2.135   1.508
 7265SOL     OW22693   3.267   0.020   5.484
 7265SOL    HW122694   3.310   7.009   5.400
 7265SOL    HW222695   3.174   0.051   5.465
 7266SOL     OW22696   6.792   0.976   2.512
 7266SOL    HW122697   6.867   0.938   2.566
 7266SOL    HW222698   6.800   0.944   2.417
 7267SOL     OW22699   0.060   3.777   5.525
 7267SOL    HW122700   0.010   3.705   5.573
 7267SOL    HW222701   0.148   3.792   5.571
 7268SOL     OW22702   5.414   6.132   4.245
 7268SOL    HW122703   5.336   6.191   4.260
 7268SOL    HW222704   5.384   6.047   4.201
 7269SOL     OW22705   2.734   5.697   4.649
 7269SOL    HW122706   2.815   5.644   4.670
 7269SOL    HW222707   2.691   5.662   4.566
 7270SOL     OW22708   0.397   1.859   4.517
 7270SOL    HW122709   0.367   1.954   4.504
 7270SOL    HW222710   0.457   1.832   4.442
 7271SOL     OW22711   0.856   5.891   3.201
 7271SOL    HW122712   0.761   5.866   3.224
 7271SOL    HW222713   0.917   5.817   3.229
 7272SOL     OW22714   6.665   4.128   1.789
 7272SOL    HW122715   6.595   4.140   1.859
 7272SOL    HW222716   6.621   4.128   1.699
 7273SOL     OW22717   0.477   1.628   4.649
 7273SOL    HW122718   0.448   1.720   4.621
 7273SOL    HW222719   0.476   1.621   4.749
 7274SOL     OW22720   0.120   5.567   6.721
 7274SOL    HW122721   0.129   5.486   6.663
 7274SOL    HW222722   0.192   5.632   6.698
 7275SOL     OW22723   0.250   5.313   3.097
 7275SOL    HW122724   0.311   5.391   3.081
 7275SOL    HW222725   0.286   5.259   3.172
 7276SOL     OW22726   5.009   6.525   3.670
 7276SOL    HW122727   5.082   6.490   3.728
 7276SOL    HW222728   4.999   6.466   3.589
 7277SOL     OW22729   5.096   0.906   6.923
 7277SOL    HW122730   5.195   0.886   6.924
 7277SOL    HW222731   5.070   0.936   6.831
 7278SOL     OW22732   4.033   3.173   2.407
 7278SOL    HW122733   4.007   3.265   2.435
 7278SOL    HW222734   4.073   3.124   2.485
 7279SOL     OW22735   3.537   6.420   6.223
 7279SOL    HW122736   3.531   6.426   6.124
 7279SOL    HW222737   3.526   6.512   6.263
 7280SOL     OW22738   4.383   6.945   5.435
 7280SOL    HW122739   4.422   7.014   5.374
 7280SOL    HW222740   4.407   6.854   5.403
 7281SOL     OW22741   5.809   0.949   6.424
 7281SOL    HW122742   5.731   0.947   6.363
 7281SOL    HW222743   5.815   0.862   6.474
 7282SOL     OW22744   6.206   5.772   3.447
 7282SOL    HW122745   6.257   5.841   3.395
 7282SOL    HW222746   6.159   5.817   3.523
 7283SOL     OW22747   2.250   1.407   3.013
 7283SOL    HW122748   2.180   1.338   3.029
 7283SOL    HW222749   2.216   1.497   3.039
 7284SOL     OW22750   1.211   1.336   4.557
 7284SOL    HW122751   1.205   1.263   4.488
 7284SOL    HW222752   1.270   1.409   4.523
 7285SOL     OW22753   5.964   4.938   1.988
 7285SOL    HW122754   6.022   4.996   2.046
 7285SOL    HW222755   6.012   4.853   1.967
 7286SOL     OW22756   1.424   3.962   0.508
 7286SOL    HW122757   1.337   3.949   0.556
 7286SOL    HW222758   1.467   3.874   0.491
 7287SOL     OW22759   6.288   2.159   6.084
 7287SOL    HW122760   6.312   2.167   6.181
 7287SOL    HW222761   6.250   2.068   6.067
 7288SOL     OW22762   2.440   6.960   6.733
 7288SOL    HW122763   2.532   6.944   6.698
 7288SOL    HW222764   2.411   0.033   6.708
 7289SOL     OW22765   4.207   1.217   3.293
 7289SOL    HW122766   4.226   1.254   3.384
 7289SOL    HW222767   4.133   1.270   3.251
 7290SOL     OW22768   2.381   5.834   4.273
 7290SOL    HW122769   2.449   5.835   4.199
 7290SOL    HW222770   2.371   5.926   4.310
 7291SOL     OW22771   3.961   5.164   1.367
 7291SOL    HW122772   3.878   5.194   1.321
 7291SOL    HW222773   3.939   5.129   1.458
 7292SOL     OW22774   3.751   0.212   4.683
 7292SOL    HW122775   3.720   0.285   4.622
 7292SOL    HW222776   3.759   0.127   4.631
 7293SOL     OW22777   2.362   1.146   5.931
 7293SOL    HW122778   2.328   1.053   5.918
 7293SOL    HW222779   2.455   1.153   5.895
 7294SOL     OW22780   5.716   5.441   6.736
 7294SOL    HW122781   5.793   5.391   6.697
 7294SOL    HW222782   5.648   5.459   6.665
 7295SOL     OW22783   4.158   6.557   1.690
 7295SOL    HW122784   4.213   6.588   1.768
 7295SOL    HW222785   4.195   6.471   1.655
 7296SOL     OW22786   4.230   5.429   0.571
 7296SOL    HW122787   4.154   5.420   0.636
 7296SOL    HW222788   4.206   5.497   0.501
 7297SOL     OW22789   4.758   6.301   2.641
 7297SOL    HW122790   4.840   6.320   2.587
 7297SOL    HW222791   4.697   6.241   2.590
 7298SOL     OW22792   5.328   2.756   4.412
 7298SOL    HW122793   5.345   2.852   4.433
 7298SOL    HW222794   5.402   2.720   4.355
 7299SOL     OW22795   5.389   3.421   0.452
 7299SOL    HW122796   5.445   3.446   0.530
 7299SOL    HW222797   5.297   3.397   0.483
 7300SOL     OW22798   4.476   5.238   0.854
 7300SOL    HW122799   4.384   5.222   0.820
 7300SOL    HW222800   4.538   5.255   0.777
 7301SOL     OW22801   6.479   1.713   6.674
 7301SOL    HW122802   6.489   1.726   6.772
 7301SOL    HW222803   6.565   1.679   6.636
 7302SOL     OW22804   6.983   1.269   6.423
 7302SOL    HW122805   0.041   1.213   6.396
 7302SOL    HW222806   6.902   1.241   6.372
 7303SOL     OW22807   4.939   0.255   1.684
 7303SOL    HW122808   4.992   0.171   1.677
 7303SOL    HW222809   4.937   0.286   1.779
 7304SOL     OW22810   3.934   3.471   3.976
 7304SOL    HW122811   3.851   3.416   3.968
 7304SOL    HW222812   3.988   3.438   4.054
 7305SOL     OW22813   5.668   2.581   0.093
 7305SOL    HW122814   5.729   2.660   0.105
 7305SOL    HW222815   5.707   2.519   0.026
 7306SOL     OW22816   4.726   4.759   1.646
 7306SOL    HW122817   4.785   4.711   1.582
 7306SOL    HW222818   4.752   4.736   1.740
 7307SOL     OW22819   4.262   6.571   2.193
 7307SOL    HW122820   4.229   6.656   2.153
 7307SOL    HW222821   4.196   6.538   2.260
 7308SOL     OW22822   5.135   0.532   4.053
 7308SOL    HW122823   5.208   0.599   4.036
 7308SOL    HW222824   5.047   0.578   4.050
 7309SOL     OW22825   4.517   4.401   0.268
 7309SOL    HW122826   4.463   4.390   0.352
 7309SOL    HW222827   4.565   4.489   0.271
 7310SOL     OW22828   1.700   5.649   1.928
 7310SOL    HW122829   1.778   5.705   1.953
 7310SOL    HW222830   1.653   5.617   2.010
 7311SOL     OW22831   3.278   2.083   2.274
 7311SOL    HW122832   3.252   2.051   2.183
 7311SOL    HW222833   3.375   2.066   2.289
 7312SOL     OW22834   0.142   2.556   6.834
 7312SOL    HW122835   0.051   2.587   6.806
 7312SOL    HW222836   0.142   2.457   6.848
 7313SOL     OW22837   4.409   2.747   6.448
 7313SOL    HW122838   4.397   2.845   6.431
 7313SOL    HW222839   4.366   2.695   6.374
 7314SOL     OW22840   0.974   2.135   4.601
 7314SOL    HW122841   0.939   2.227   4.620
 7314SOL    HW222842   0.955   2.112   4.506
 7315SOL     OW22843   6.755   1.443   5.652
 7315SOL    HW122844   6.781   1.356   5.693
 7315SOL    HW222845   6.740   1.511   5.724
 7316SOL     OW22846   4.134   3.403   3.472
 7316SOL    HW122847   4.112   3.394   3.569
 7316SOL    HW222848   4.170   3.495   3.455
 7317SOL     OW22849   3.136   0.437   4.142
 7317SOL    HW122850   3.139   0.535   4.123
 7317SOL    HW222851   3.073   0.419   4.218
 7318SOL     OW22852   2.175   0.468   1.180
 7318SOL    HW122853   2.094   0.510   1.138
 7318SOL    HW222854   2.249   0.463   1.112
 7319SOL     OW22855   0.205   3.886   6.598
 7319SOL    HW122856   0.226   3.977   6.564
 7319SOL    HW222857   0.122   3.852   6.554
 7320SOL     OW22858   0.590   1.510   2.325
 7320SOL    HW122859   0.569   1.485   2.231
 7320SOL    HW222860   0.509   1.495   2.382
 7321SOL     OW22861   4.433   1.577   3.930
 7321SOL    HW122862   4.460   1.629   3.849
 7321SOL    HW222863   4.366   1.630   3.982
 7322SOL     OW22864   1.151   2.845   1.502
 7322SOL    HW122865   1.102   2.762   1.527
 7322SOL    HW222866   1.168   2.845   1.403
 7323SOL     OW22867   2.449   4.490   3.126
 7323SOL    HW122868   2.377   4.561   3.122
 7323SOL    HW222869   2.415   4.412   3.178
 7324SOL     OW22870   4.800   5.557   3.139
 7324SOL    HW122871   4.788   5.608   3.225
 7324SOL    HW222872   4.711   5.527   3.105
 7325SOL     OW22873   2.826   6.321   0.704
 7325SOL    HW122874   2.785   6.349   0.617
 7325SOL    HW222875   2.834   6.221   0.707
 7326SOL     OW22876   2.688   1.009   4.041
 7326SOL    HW122877   2.733   1.063   3.970
 7326SOL    HW222878   2.669   1.068   4.120
 7327SOL     OW22879   1.570   3.285   5.918
 7327SOL    HW122880   1.652   3.234   5.891
 7327SOL    HW222881   1.504   3.223   5.960
 7328SOL     OW22882   2.237   6.612   0.583
 7328SOL    HW122883   2.263   6.577   0.493
 7328SOL    HW222884   2.181   6.544   0.630
 7329SOL     OW22885   4.619   3.827   1.658
 7329SOL    HW122886   4.647   3.769   1.582
 7329SOL    HW222887   4.529   3.798   1.690
 7330SOL     OW22888   4.031   2.276   0.915
 7330SOL    HW122889   4.068   2.285   1.007
 7330SOL    HW222890   3.954   2.339   0.904
 7331SOL     OW22891   6.590   1.451   1.158
 7331SOL    HW122892   6.567   1.474   1.252
 7331SOL    HW222893   6.519   1.486   1.097
 7332SOL     OW22894   3.882   6.930   0.195
 7332SOL    HW122895   3.907   6.837   0.170
 7332SOL    HW222896   3.836   6.930   0.284
 7333SOL     OW22897   0.116   4.702   2.258
 7333SOL    HW122898   0.025   4.735   2.280
 7333SOL    HW222899   0.155   4.656   2.337
 7334SOL     OW22900   3.207   0.053   3.526
 7334SOL    HW122901   3.165   0.141   3.549
 7334SOL    HW222902   3.256   0.062   3.439
 7335SOL     OW22903   1.768   2.995   3.358
 7335SOL    HW122904   1.721   3.068   3.309
 7335SOL    HW222905   1.848   2.965   3.306
 7336SOL     OW22906   1.222   5.962   4.424
 7336SOL    HW122907   1.252   5.918   4.508
 7336SOL    HW222908   1.128   5.935   4.403
 7337SOL     OW22909   5.225   2.224   1.408
 7337SOL    HW122910   5.129   2.245   1.391
 7337SOL    HW222911   5.246   2.133   1.373
 7338SOL     OW22912   0.604   3.898   0.717
 7338SOL    HW122913   0.699   3.873   0.698
 7338SOL    HW222914   0.574   3.967   0.652
 7339SOL     OW22915   1.894   5.371   5.203
 7339SOL    HW122916   1.965   5.322   5.153
 7339SOL    HW222917   1.848   5.435   5.142
 7340SOL     OW22918   3.256   6.516   6.414
 7340SOL    HW122919   3.285   6.420   6.415
 7340SOL    HW222920   3.334   6.574   6.440
 7341SOL     OW22921   5.719   2.311   0.200
 7341SOL    HW122922   5.818   2.294   0.201
 7341SOL    HW222923   5.689   2.332   0.107
 7342SOL     OW22924   0.130   6.186   1.556
 7342SOL    HW122925   0.208   6.147   1.605
 7342SOL    HW222926   0.084   6.114   1.504
 7343SOL     OW22927   6.759   3.124   0.470
 7343SOL    HW122928   6.680   3.137   0.410
 7343SOL    HW222929   6.794   3.031   0.458
 7344SOL     OW22930   2.693   0.717   5.680
 7344SOL    HW122931   2.682   0.808   5.640
 7344SOL    HW222932   2.787   0.687   5.669
 7345SOL     OW22933   3.808   5.960   6.437
 7345SOL    HW122934   3.894   5.911   6.453
 7345SOL    HW222935   3.783   5.954   6.341
 7346SOL     OW22936   4.329   4.980   1.904
 7346SOL    HW122937   4.319   5.060   1.844
 7346SOL    HW222938   4.423   4.975   1.938
 7347SOL     OW22939   4.959   0.627   6.291
 7347SOL    HW122940   5.007   0.540   6.282
 7347SOL    HW222941   4.988   0.690   6.219
 7348SOL     OW22942   0.310   5.854   0.348
 7348SOL    HW122943   0.215   5.868   0.375
 7348SOL    HW222944   0.347   5.938   0.309
 7349SOL     OW22945   4.791   1.316   1.095
 7349SOL    HW122946   4.715   1.254   1.077
 7349SOL    HW222947   4.792   1.339   1.193
 7350SOL     OW22948   3.380   1.292   5.103
 7350SOL    HW122949   3.403   1.389   5.107
 7350SOL    HW222950   3.292   1.280   5.057
 7351SOL     OW22951   2.573   5.028   4.913
 7351SOL    HW122952   2.642   5.065   4.976
 7351SOL    HW222953   2.510   5.101   4.888
 7352SOL     OW22954   6.175   2.867   4.219
 7352SOL    HW122955   6.097   2.818   4.181
 7352SOL    HW222956   6.209   2.819   4.300
 7353SOL     OW22957   6.904   2.183   5.902
 7353SOL    HW122958   6.945   2.097   5.872
 7353SOL    HW222959   6.804   2.179   5.891
 7354SOL     OW22960   0.834   2.091   2.776
 7354SOL    HW122961   0.854   2.149   2.855
 7354SOL    HW222962   0.833   2.146   2.693
 7355SOL     OW22963   3.826   1.604   0.454
 7355SOL    HW122964   3.850   1.622   0.359
 7355SOL    HW222965   3.884   1.659   0.514
 7356SOL     OW22966   3.747   4.947   6.111
 7356SOL    HW122967   3.677   4.910   6.049
 7356SOL    HW222968   3.832   4.896   6.100
 7357SOL     OW22969   4.729   6.520   2.382
 7357SOL    HW122970   4.762   6.463   2.457
 7357SOL    HW222971   4.733   6.616   2.408
 7358SOL     OW22972   4.497   0.327   2.803
 7358SOL    HW122973   4.586   0.371   2.789
 7358SOL    HW222974   4.467   0.340   2.897
 7359SOL     OW22975   3.621   0.008   2.305
 7359SOL    HW122976   3.627   0.105   2.332
 7359SOL    HW222977   3.684   6.974   2.362
 7360SOL     OW22978   2.519   3.913   6.163
 7360SOL    HW122979   2.478   3.910   6.072
 7360SOL    HW222980   2.618   3.900   6.156
 7361SOL     OW22981   5.837   0.689   3.769
 7361SOL    HW122982   5.862   0.782   3.797
 7361SOL    HW222983   5.840   0.629   3.849
 7362SOL     OW22984   3.372   5.755   0.687
 7362SOL    HW122985   3.435   5.770   0.763
 7362SOL    HW222986   3.369   5.658   0.664
 7363SOL     OW22987   4.724   0.587   1.263
 7363SOL    HW122988   4.740   0.606   1.166
 7363SOL    HW222989   4.635   0.542   1.273
 7364SOL     OW22990   5.458   5.786   1.628
 7364SOL    HW122991   5.408   5.724   1.568
 7364SOL    HW222992   5.528   5.834   1.575
 7365SOL     OW22993   4.928   3.680   1.920
 7365SOL    HW122994   4.887   3.770   1.905
 7365SOL    HW222995   4.869   3.609   1.881
 7366SOL     OW22996   2.269   6.297   3.625
 7366SOL    HW122997   2.316   6.244   3.554
 7366SOL    HW222998   2.289   6.394   3.613
 7367SOL     OW22999   4.503   1.387   0.322
 7367SOL    HW123000   4.598   1.388   0.291
 7367SOL    HW223001   4.459   1.301   0.295
 7368SOL     OW23002   3.074   3.968   3.193
 7368SOL    HW123003   3.056   3.912   3.274
 7368SOL    HW223004   3.007   3.947   3.123
 7369SOL     OW23005   5.300   3.710   6.914
 7369SOL    HW123006   5.346   3.630   6.877
 7369SOL    HW223007   5.335   3.793   6.871
 7370SOL     OW23008   2.167   0.866   3.988
 7370SOL    HW123009   2.241   0.926   4.016
 7370SOL    HW223010   2.188   0.772   4.013
 7371SOL     OW23011   4.195   0.381   3.619
 7371SOL    HW123012   4.211   0.368   3.521
 7371SOL    HW223013   4.097   0.394   3.634
 7372SOL     OW23014   3.763   1.546   5.645
 7372SOL    HW123015   3.731   1.641   5.651
 7372SOL    HW223016   3.690   1.489   5.609
 7373SOL     OW23017   6.619   2.869   4.315
 7373SOL    HW123018   6.625   2.962   4.278
 7373SOL    HW223019   6.710   2.829   4.320
 7374SOL     OW23020   6.740   3.218   6.496
 7374SOL    HW123021   6.719   3.132   6.450
 7374SOL    HW223022   6.793   3.200   6.579
 7375SOL     OW23023   2.014   2.107   1.433
 7375SOL    HW123024   1.949   2.041   1.397
 7375SOL    HW223025   2.106   2.069   1.430
 7376SOL     OW23026   6.209   5.151   0.276
 7376SOL    HW123027   6.247   5.243   0.269
 7376SOL    HW223028   6.130   5.143   0.215
 7377SOL     OW23029   2.638   5.809   0.924
 7377SOL    HW123030   2.649   5.709   0.927
 7377SOL    HW223031   2.572   5.838   0.993
 7378SOL     OW23032   2.268   4.788   5.844
 7378SOL    HW123033   2.233   4.729   5.772
 7378SOL    HW223034   2.192   4.825   5.898
 7379SOL     OW23035   5.238   2.539   2.775
 7379SOL    HW123036   5.150   2.586   2.774
 7379SOL    HW223037   5.223   2.441   2.759
 7380SOL     OW23038   5.176   3.415   1.264
 7380SOL    HW123039   5.208   3.387   1.354
 7380SOL    HW223040   5.086   3.375   1.247
 7381SOL     OW23041   3.642   0.264   1.584
 7381SOL    HW123042   3.559   0.218   1.554
 7381SOL    HW223043   3.684   0.212   1.659
 7382SOL     OW23044   0.373   2.813   0.098
 7382SOL    HW123045   0.369   2.715   0.119
 7382SOL    HW223046   0.458   2.832   0.048
 7383SOL     OW23047   2.304   6.868   1.188
 7383SOL    HW123048   2.218   6.889   1.235
 7383SOL    HW223049   2.366   6.821   1.252
 7384SOL     OW23050   0.118   0.568   6.987
 7384SOL    HW123051   0.136   0.484   0.018
 7384SOL    HW223052   0.099   0.643   0.031
 7385SOL     OW23053   6.798   4.499   2.832
 7385SOL    HW123054   6.784   4.459   2.741
 7385SOL    HW223055   6.762   4.593   2.832
 7386SOL     OW23056   6.182   3.778   0.618
 7386SOL    HW123057   6.219   3.780   0.526
 7386SOL    HW223058   6.206   3.862   0.666
 7387SOL     OW23059   0.245   5.365   3.881
 7387SOL    HW123060   0.161   5.417   3.893
 7387SOL    HW223061   0.283   5.342   3.971
 7388SOL     OW23062   2.249   4.308   3.005
 7388SOL    HW123063   2.178   4.342   3.067
 7388SOL    HW223064   2.336   4.300   3.055
 7389SOL     OW23065   0.460   2.662   1.095
 7389SOL    HW123066   0.501   2.680   1.005
 7389SOL    HW223067   0.438   2.565   1.104
 7390SOL     OW23068   4.204   2.150   4.366
 7390SOL    HW123069   4.108   2.172   4.346
 7390SOL    HW223070   4.263   2.211   4.313
 7391SOL     OW23071   3.156   3.701   2.066
 7391SOL    HW123072   3.234   3.645   2.095
 7391SOL    HW223073   3.087   3.702   2.137
 7392SOL     OW23074   3.751   6.878   0.436
 7392SOL    HW123075   3.822   6.808   0.426
 7392SOL    HW223076   3.682   6.845   0.500
 7393SOL     OW23077   4.703   5.672   3.401
 7393SOL    HW123078   4.753   5.738   3.345
 7393SOL    HW223079   4.612   5.657   3.362
 7394SOL     OW23080   1.598   1.319   6.456
 7394SOL    HW123081   1.651   1.251   6.405
 7394SOL    HW223082   1.630   1.411   6.432
 7395SOL     OW23083   2.632   5.529   0.892
 7395SOL    HW123084   2.705   5.491   0.836
 7395SOL    HW223085   2.658   5.526   0.988
 7396SOL     OW23086   0.913   5.422   2.265
 7396SOL    HW123087   0.847   5.473   2.209
 7396SOL    HW223088   0.968   5.363   2.206
 7397SOL     OW23089   5.968   5.116   5.054
 7397SOL    HW123090   5.937   5.085   4.964
 7397SOL    HW223091   5.891   5.154   5.104
 7398SOL     OW23092   3.080   5.648   2.111
 7398SOL    HW123093   3.003   5.594   2.145
 7398SOL    HW223094   3.135   5.680   2.189
 7399SOL     OW23095   6.386   2.772   5.236
 7399SOL    HW123096   6.317   2.749   5.167
 7399SOL    HW223097   6.401   2.693   5.295
 7400SOL     OW23098   4.052   3.383   5.536
 7400SOL    HW123099   4.063   3.314   5.607
 7400SOL    HW223100   4.136   3.388   5.482
 7401SOL     OW23101   2.980   1.953   4.619
 7401SOL    HW123102   2.985   2.053   4.618
 7401SOL    HW223103   2.964   1.922   4.713
 7402SOL     OW23104   3.492   4.934   4.670
 7402SOL    HW123105   3.442   4.988   4.601
 7402SOL    HW223106   3.531   4.853   4.626
 7403SOL     OW23107   2.031   5.239   4.202
 7403SOL    HW123108   1.993   5.152   4.234
 7403SOL    HW223109   2.122   5.223   4.165
 7404SOL     OW23110   1.815   2.661   1.305
 7404SOL    HW123111   1.883   2.639   1.375
 7404SOL    HW223112   1.847   2.631   1.216
 7405SOL     OW23113   2.913   6.395   5.809
 7405SOL    HW123114   2.899   6.439   5.720
 7405SOL    HW223115   2.828   6.397   5.861
 7406SOL     OW23116   0.753   2.857   4.535
 7406SOL    HW123117   0.793   2.858   4.443
 7406SOL    HW223118   0.654   2.846   4.528
 7407SOL     OW23119   1.011   6.194   4.398
 7407SOL    HW123120   1.055   6.112   4.434
 7407SOL    HW223121   0.978   6.250   4.474
 7408SOL     OW23122   4.129   5.182   5.566
 7408SOL    HW123123   4.064   5.193   5.641
 7408SOL    HW223124   4.152   5.272   5.529
 7409SOL     OW23125   6.131   4.918   1.099
 7409SOL    HW123126   6.140   4.952   1.192
 7409SOL    HW223127   6.221   4.918   1.055
 7410SOL     OW23128   6.046   0.930   0.373
 7410SOL    HW123129   6.068   0.987   0.294
 7410SOL    HW223130   6.015   0.988   0.448
 7411SOL     OW23131   3.403   1.696   5.817
 7411SOL    HW123132   3.476   1.687   5.749
 7411SOL    HW223133   3.320   1.651   5.784
 7412SOL     OW23134   4.232   6.897   6.344
 7412SOL    HW123135   4.286   6.961   6.399
 7412SOL    HW223136   4.288   6.819   6.318
 7413SOL     OW23137   4.989   0.943   3.735
 7413SOL    HW123138   4.970   1.031   3.779
 7413SOL    HW223139   4.904   0.897   3.712
 7414SOL     OW23140   3.233   0.822   4.441
 7414SOL    HW123141   3.165   0.864   4.380
 7414SOL    HW223142   3.315   0.879   4.444
 7415SOL     OW23143   4.207   0.726   5.659
 7415SOL    HW123144   4.229   0.667   5.581
 7415SOL    HW223145   4.277   0.716   5.729
 7416SOL     OW23146   0.101   0.098   1.851
 7416SOL    HW123147   0.196   0.068   1.863
 7416SOL    HW223148   0.098   0.198   1.851
 7417SOL     OW23149   6.987   0.381   2.035
 7417SOL    HW123150   6.992   0.318   2.112
 7417SOL    HW223151   0.059   0.408   2.007
 7418SOL     OW23152   1.989   3.641   6.154
 7418SOL    HW123153   1.981   3.567   6.221
 7418SOL    HW223154   2.051   3.711   6.189
 7419SOL     OW23155   6.676   2.804   4.625
 7419SOL    HW123156   6.602   2.847   4.677
 7419SOL    HW223157   6.716   2.871   4.563
 7420SOL     OW23158   6.530   6.970   6.996
 7420SOL    HW123159   6.624   6.956   0.006
 7420SOL    HW223160   6.518   0.046   6.970
 7421SOL     OW23161   0.032   3.854   0.923
 7421SOL    HW123162   6.994   3.895   0.994
 7421SOL    HW223163   0.013   3.898   0.836
 7422SOL     OW23164   6.527   3.344   2.046
 7422SOL    HW123165   6.604   3.282   2.031
 7422SOL    HW223166   6.556   3.421   2.102
 7423SOL     OW23167   4.139   2.295   5.987
 7423SOL    HW123168   4.149   2.198   6.007
 7423SOL    HW223169   4.044   2.316   5.965
 7424SOL     OW23170   0.878   1.965   4.286
 7424SOL    HW123171   0.846   1.905   4.360
 7424SOL    HW223172   0.972   1.940   4.261
 7425SOL     OW23173   5.519   0.539   0.824
 7425SOL    HW123174   5.420   0.550   0.817
 7425SOL    HW223175   5.557   0.608   0.886
 7426SOL     OW23176   3.645   3.815   5.668
 7426SOL    HW123177   3.707   3.803   5.590
 7426SOL    HW223178   3.635   3.728   5.717
 7427SOL     OW23179   2.686   0.638   1.707
 7427SOL    HW123180   2.710   0.689   1.789
 7427SOL    HW223181   2.711   0.691   1.626
 7428SOL     OW23182   0.978   6.687   5.321
 7428SOL    HW123183   1.008   6.723   5.410
 7428SOL    HW223184   1.015   6.595   5.308
 7429SOL     OW23185   0.935   0.546   2.168
 7429SOL    HW123186   0.889   0.612   2.109
 7429SOL    HW223187   0.896   0.455   2.154
 7430SOL     OW23188   6.595   3.450   2.468
 7430SOL    HW123189   6.512   3.397   2.481
 7430SOL    HW223190   6.666   3.392   2.429
 7431SOL     OW23191   1.226   2.502   4.696
 7431SOL    HW123192   1.302   2.565   4.682
 7431SOL    HW223193   1.174   2.531   4.777
 7432SOL     OW23194   1.364   0.920   2.817
 7432SOL    HW123195   1.356   0.930   2.718
 7432SOL    HW223196   1.292   0.973   2.862
 7433SOL     OW23197   3.820   0.111   6.016
 7433SOL    HW123198   3.831   0.131   5.919
 7433SOL    HW223199   3.900   0.143   6.066
 7434SOL     OW23200   3.980   6.995   3.659
 7434SOL    HW123201   3.918   6.941   3.602
 7434SOL    HW223202   4.073   6.960   3.649
 7435SOL     OW23203   5.330   4.655   3.113
 7435SOL    HW123204   5.253   4.714   3.088
 7435SOL    HW223205   5.403   4.711   3.152
 7436SOL     OW23206   4.499   3.002   6.355
 7436SOL    HW123207   4.512   3.078   6.419
 7436SOL    HW223208   4.436   3.031   6.282
 7437SOL     OW23209   3.732   0.548   1.614
 7437SOL    HW123210   3.706   0.451   1.608
 7437SOL    HW223211   3.692   0.588   1.696
 7438SOL     OW23212   1.942   0.932   6.763
 7438SOL    HW123213   1.869   0.999   6.748
 7438SOL    HW223214   2.028   0.968   6.727
 7439SOL     OW23215   1.508   4.256   6.004
 7439SOL    HW123216   1.451   4.211   5.935
 7439SOL    HW223217   1.604   4.242   5.984
 7440SOL     OW23218   5.979   2.618   4.383
 7440SOL    HW123219   6.026   2.693   4.430
 7440SOL    HW223220   5.884   2.614   4.412
 7441SOL     OW23221   4.397   6.933   0.525
 7441SOL    HW123222   4.437   6.948   0.615
 7441SOL    HW223223   4.469   6.914   0.459
 7442SOL     OW23224   0.020   1.492   6.238
 7442SOL    HW123225   6.990   1.439   6.307
 7442SOL    HW223226   0.057   1.574   6.281
 7443SOL     OW23227   6.875   6.708   0.248
 7443SOL    HW123228   6.814   6.673   0.319
 7443SOL    HW223229   6.952   6.645   0.236
 7444SOL     OW23230   0.816   6.172   6.504
 7444SOL    HW123231   0.897   6.158   6.561
 7444SOL    HW223232   0.843   6.214   6.417
 7445SOL     OW23233   3.832   6.046   2.382
 7445SOL    HW123234   3.734   6.027   2.376
 7445SOL    HW223235   3.870   6.054   2.290
 7446SOL     OW23236   6.778   4.946   0.235
 7446SOL    HW123237   6.679   4.960   0.225
 7446SOL    HW223238   6.796   4.900   0.322
 7447SOL     OW23239   0.154   5.471   1.100
 7447SOL    HW123240   0.111   5.557   1.129
 7447SOL    HW223241   0.109   5.437   1.017
 7448SOL     OW23242   5.226   5.024   0.055
 7448SOL    HW123243   5.263   4.932   0.045
 7448SOL    HW223244   5.170   5.047   6.995
 7449SOL     OW23245   6.350   3.558   6.323
 7449SOL    HW123246   6.370   3.475   6.376
 7449SOL    HW223247   6.400   3.557   6.237
 7450SOL     OW23248   5.347   3.740   0.546
 7450SOL    HW123249   5.267   3.760   0.603
 7450SOL    HW223250   5.320   3.679   0.471
 7451SOL     OW23251   4.160   5.194   2.906
 7451SOL    HW123252   4.097   5.258   2.862
 7451SOL    HW223253   4.242   5.243   2.936
 7452SOL     OW23254   6.560   6.308   6.900
 7452SOL    HW123255   6.570   6.400   6.862
 7452SOL    HW223256   6.617   6.244   6.848
 7453SOL     OW23257   4.415   4.794   6.499
 7453SOL    HW123258   4.356   4.824   6.424
 7453SOL    HW223259   4.410   4.694   6.507
 7454SOL     OW23260   4.032   1.975   1.350
 7454SOL    HW123261   3.976   1.995   1.431
 7454SOL    HW223262   4.000   2.032   1.273
 7455SOL     OW23263   6.823   0.579   2.627
 7455SOL    HW123264   6.792   0.492   2.589
 7455SOL    HW223265   6.884   0.624   2.562
 7456SOL     OW23266   3.035   0.830   5.662
 7456SOL    HW123267   3.004   0.896   5.592
 7456SOL    HW223268   3.030   0.738   5.624
 7457SOL     OW23269   1.279   1.891   2.527
 7457SOL    HW123270   1.265   1.934   2.437
 7457SOL    HW223271   1.206   1.824   2.542
 7458SOL     OW23272   0.099   6.092   5.201
 7458SOL    HW123273   0.042   6.023   5.247
 7458SOL    HW223274   0.053   6.181   5.206
 7459SOL     OW23275   5.537   6.619   3.060
 7459SOL    HW123276   5.465   6.637   3.127
 7459SOL    HW223277   5.571   6.706   3.024
 7460SOL     OW23278   0.413   0.384   1.257
 7460SOL    HW123279   0.448   0.463   1.308
 7460SOL    HW223280   0.477   0.360   1.185
 7461SOL     OW23281   1.912   4.572   5.491
 7461SOL    HW123282   1.835   4.532   5.441
 7461SOL    HW223283   1.945   4.653   5.443
 7462SOL     OW23284   1.744   4.410   0.179
 7462SOL    HW123285   1.696   4.417   0.091
 7462SOL    HW223286   1.691   4.355   0.242
 7463SOL     OW23287   4.669   4.702   0.549
 7463SOL    HW123288   4.684   4.617   0.600
 7463SOL    HW223289   4.639   4.773   0.613
 7464SOL     OW23290   5.030   5.216   5.177
 7464SOL    HW123291   4.936   5.209   5.209
 7464SOL    HW223292   5.041   5.298   5.121
 7465SOL     OW23293   1.443   3.767   6.502
 7465SOL    HW123294   1.484   3.698   6.561
 7465SOL    HW223295   1.513   3.808   6.443
 7466SOL     OW23296   0.456   0.329   5.856
 7466SOL    HW123297   0.422   0.274   5.780
 7466SOL    HW223298   0.450   0.426   5.832
 7467SOL     OW23299   1.452   3.487   3.504
 7467SOL    HW123300   1.469   3.563   3.567
 7467SOL    HW223301   1.439   3.523   3.412
 7468SOL     OW23302   6.130   2.839   4.490
 7468SOL    HW123303   6.103   2.858   4.584
 7468SOL    HW223304   6.209   2.895   4.466
 7469SOL     OW23305   6.982   1.988   0.057
 7469SOL    HW123306   6.986   2.048   0.137
 7469SOL    HW223307   6.991   2.042   6.994
 7470SOL     OW23308   5.024   3.392   3.728
 7470SOL    HW123309   5.031   3.336   3.645
 7470SOL    HW223310   5.115   3.404   3.767
 7471SOL     OW23311   3.339   6.830   6.218
 7471SOL    HW123312   3.246   6.837   6.255
 7471SOL    HW223313   3.365   6.916   6.176
 7472SOL     OW23314   6.982   0.184   5.467
 7472SOL    HW123315   6.940   0.108   5.416
 7472SOL    HW223316   6.931   0.200   5.551
 7473SOL     OW23317   4.487   6.843   3.172
 7473SOL    HW123318   4.471   6.773   3.242
 7473SOL    HW223319   4.403   6.855   3.118
 7474SOL     OW23320   6.128   2.380   1.814
 7474SOL    HW123321   6.163   2.472   1.835
 7474SOL    HW223322   6.092   2.378   1.721
 7475SOL     OW23323   5.045   3.032   1.147
 7475SOL    HW123324   5.087   3.103   1.089
 7475SOL    HW223325   4.946   3.031   1.133
 7476SOL     OW23326   2.609   1.577   2.604
 7476SOL    HW123327   2.695   1.583   2.552
 7476SOL    HW223328   2.539   1.631   2.557
 7477SOL     OW23329   2.299   3.527   5.579
 7477SOL    HW123330   2.226   3.565   5.522
 7477SOL    HW223331   2.380   3.586   5.574
 7478SOL     OW23332   0.642   2.629   6.574
 7478SOL    HW123333   0.580   2.668   6.505
 7478SOL    HW223334   0.602   2.546   6.612
 7479SOL     OW23335   5.413   2.627   1.867
 7479SOL    HW123336   5.445   2.718   1.842
 7479SOL    HW223337   5.491   2.570   1.891
 7480SOL     OW23338   3.949   6.109   2.131
 7480SOL    HW123339   4.001   6.193   2.147
 7480SOL    HW223340   3.956   6.083   2.035
 7481SOL     OW23341   0.593   4.355   6.958
 7481SOL    HW123342   0.644   4.287   6.905
 7481SOL    HW223343   0.579   4.321   0.031
 7482SOL     OW23344   3.759   1.655   4.896
 7482SOL    HW123345   3.844   1.691   4.934
 7482SOL    HW223346   3.682   1.678   4.957
 7483SOL     OW23347   5.692   1.665   5.729
 7483SOL    HW123348   5.677   1.581   5.676
 7483SOL    HW223349   5.719   1.641   5.822
 7484SOL     OW23350   2.304   6.827   5.162
 7484SOL    HW123351   2.251   6.746   5.135
 7484SOL    HW223352   2.262   6.909   5.122
 7485SOL     OW23353   3.843   0.153   6.816
 7485SOL    HW123354   3.933   0.176   6.779
 7485SOL    HW223355   3.847   0.063   6.860
 7486SOL     OW23356   4.206   6.085   0.704
 7486SOL    HW123357   4.297   6.128   0.709
 7486SOL    HW223358   4.206   6.016   0.632
 7487SOL     OW23359   3.432   6.201   4.738
 7487SOL    HW123360   3.472   6.200   4.830
 7487SOL    HW223361   3.399   6.293   4.717
 7488SOL     OW23362   2.063   6.004   3.792
 7488SOL    HW123363   2.162   5.994   3.806
 7488SOL    HW223364   2.047   6.051   3.704
 7489SOL     OW23365   4.867   3.428   5.768
 7489SOL    HW123366   4.937   3.477   5.717
 7489SOL    HW223367   4.891   3.331   5.774
 7490SOL     OW23368   2.196   2.329   1.299
 7490SOL    HW123369   2.131   2.304   1.370
 7490SOL    HW223370   2.152   2.321   1.209
 7491SOL     OW23371   4.517   4.012   6.588
 7491SOL    HW123372   4.420   4.034   6.581
 7491SOL    HW223373   4.544   4.011   6.684
 7492SOL     OW23374   1.526   1.276   2.819
 7492SOL    HW123375   1.483   1.189   2.794
 7492SOL    HW223376   1.517   1.340   2.742
 7493SOL     OW23377   6.018   4.630   4.806
 7493SOL    HW123378   5.943   4.636   4.739
 7493SOL    HW223379   5.994   4.562   4.876
 7494SOL     OW23380   5.544   1.264   2.202
 7494SOL    HW123381   5.493   1.290   2.284
 7494SOL    HW223382   5.639   1.294   2.210
 7495SOL     OW23383   1.726   3.364   4.007
 7495SOL    HW123384   1.630   3.343   3.987
 7495SOL    HW223385   1.749   3.331   4.099
 7496SOL     OW23386   5.753   2.941   3.459
 7496SOL    HW123387   5.769   2.929   3.557
 7496SOL    HW223388   5.834   2.911   3.408
 7497SOL     OW23389   5.925   0.652   1.010
 7497SOL    HW123390   5.951   0.721   1.078
 7497SOL    HW223391   5.961   0.563   1.038
 7498SOL     OW23392   2.197   6.217   2.906
 7498SOL    HW123393   2.268   6.185   2.968
 7498SOL    HW223394   2.201   6.165   2.820
 7499SOL     OW23395   2.946   1.486   3.294
 7499SOL    HW123396   2.935   1.551   3.369
 7499SOL    HW223397   2.874   1.501   3.226
 7500SOL     OW23398   3.435   1.561   5.073
 7500SOL    HW123399   3.490   1.642   5.091
 7500SOL    HW223400   3.407   1.561   4.977
 7501SOL     OW23401   5.908   2.093   4.451
 7501SOL    HW123402   5.921   2.192   4.446
 7501SOL    HW223403   5.854   2.070   4.532
 7502SOL     OW23404   4.074   1.169   4.275
 7502SOL    HW123405   4.015   1.213   4.343
 7502SOL    HW223406   4.104   1.238   4.209
 7503SOL     OW23407   0.982   5.663   1.216
 7503SOL    HW123408   0.884   5.659   1.235
 7503SOL    HW223409   1.011   5.758   1.211
 7504SOL     OW23410   5.825   6.342   4.955
 7504SOL    HW123411   5.905   6.370   5.009
 7504SOL    HW223412   5.762   6.420   4.946
 7505SOL     OW23413   0.361   6.755   6.499
 7505SOL    HW123414   0.328   6.697   6.574
 7505SOL    HW223415   0.424   6.701   6.442
 7506SOL     OW23416   3.723   2.018   4.446
 7506SOL    HW123417   3.668   2.098   4.474
 7506SOL    HW223418   3.718   1.949   4.518
 7507SOL     OW23419   6.865   3.526   6.273
 7507SOL    HW123420   6.820   3.453   6.222
 7507SOL    HW223421   6.843   3.518   6.370
 7508SOL     OW23422   3.947   6.659   0.146
 7508SOL    HW123423   3.927   6.576   0.198
 7508SOL    HW223424   3.960   6.636   0.050
 7509SOL     OW23425   5.624   4.429   3.515
 7509SOL    HW123426   5.583   4.494   3.451
 7509SOL    HW223427   5.594   4.337   3.492
 7510SOL     OW23428   3.592   4.967   1.248
 7510SOL    HW123429   3.650   5.046   1.226
 7510SOL    HW223430   3.618   4.930   1.337
 7511SOL     OW23431   4.730   6.165   3.962
 7511SOL    HW123432   4.716   6.115   3.876
 7511SOL    HW223433   4.780   6.106   4.026
 7512SOL     OW23434   3.559   5.800   0.866
 7512SOL    HW123435   3.653   5.781   0.894
 7512SOL    HW223436   3.525   5.879   0.917
 7513SOL     OW23437   0.171   0.817   2.885
 7513SOL    HW123438   0.227   0.788   2.807
 7513SOL    HW223439   0.077   0.786   2.870
 7514SOL     OW23440   0.138   0.602   0.299
 7514SOL    HW123441   0.047   0.572   0.269
 7514SOL    HW223442   0.130   0.691   0.345
 7515SOL     OW23443   0.268   4.804   5.301
 7515SOL    HW123444   0.237   4.713   5.273
 7515SOL    HW223445   0.190   4.858   5.330
 7516SOL     OW23446   2.379   5.495   4.283
 7516SOL    HW123447   2.314   5.441   4.335
 7516SOL    HW223448   2.359   5.592   4.295
 7517SOL     OW23449   0.295   2.723   0.539
 7517SOL    HW123450   0.322   2.693   0.630
 7517SOL    HW223451   0.350   2.802   0.512
 7518SOL     OW23452   3.911   2.037   4.976
 7518SOL    HW123453   3.956   2.102   5.037
 7518SOL    HW223454   3.888   2.084   4.890
 7519SOL     OW23455   2.874   6.584   4.813
 7519SOL    HW123456   2.949   6.613   4.753
 7519SOL    HW223457   2.900   6.501   4.861
 7520SOL     OW23458   1.805   0.597   0.801
 7520SOL    HW123459   1.892   0.556   0.830
 7520SOL    HW223460   1.738   0.590   0.875
 7521SOL     OW23461   4.572   1.660   5.622
 7521SOL    HW123462   4.596   1.718   5.544
 7521SOL    HW223463   4.502   1.594   5.594
 7522SOL     OW23464   1.440   6.579   4.131
 7522SOL    HW123465   1.529   6.586   4.176
 7522SOL    HW223466   1.444   6.626   4.042
 7523SOL     OW23467   5.339   1.810   0.080
 7523SOL    HW123468   5.434   1.832   0.057
 7523SOL    HW223469   5.287   1.792   7.017
 7524SOL     OW23470   0.089   4.034   4.783
 7524SOL    HW123471   0.148   3.978   4.841
 7524SOL    HW223472   0.122   4.128   4.783
 7525SOL     OW23473   2.569   4.958   5.624
 7525SOL    HW123474   2.546   4.861   5.628
 7525SOL    HW223475   2.542   5.003   5.709
 7526SOL     OW23476   0.979   3.727   1.010
 7526SOL    HW123477   0.981   3.662   1.085
 7526SOL    HW223478   0.928   3.689   0.933
 7527SOL     OW23479   2.869   5.181   2.666
 7527SOL    HW123480   2.875   5.081   2.664
 7527SOL    HW223481   2.791   5.211   2.610
 7528SOL     OW23482   6.517   2.538   0.144
 7528SOL    HW123483   6.601   2.499   0.106
 7528SOL    HW223484   6.456   2.565   0.069
 7529SOL     OW23485   5.780   2.960   4.737
 7529SOL    HW123486   5.768   3.060   4.736
 7529SOL    HW223487   5.754   2.923   4.648
 7530SOL     OW23488   1.745   2.079   3.282
 7530SOL    HW123489   1.658   2.032   3.269
 7530SOL    HW223490   1.794   2.038   3.359
 7531SOL     OW23491   4.624   1.810   4.003
 7531SOL    HW123492   4.579   1.833   3.917
 7531SOL    HW223493   4.584   1.863   4.077
 7532SOL     OW23494   4.472   4.528   6.580
 7532SOL    HW123495   4.449   4.479   6.663
 7532SOL    HW223496   4.558   4.577   6.593
 7533SOL     OW23497   4.438   4.609   0.783
 7533SOL    HW123498   4.439   4.568   0.874
 7533SOL    HW223499   4.531   4.621   0.750
 7534SOL     OW23500   4.181   6.175   5.022
 7534SOL    HW123501   4.214   6.222   5.103
 7534SOL    HW223502   4.162   6.079   5.044
 7535SOL     OW23503   6.913   6.733   4.682
 7535SOL    HW123504   6.969   6.727   4.600
 7535SOL    HW223505   6.918   6.825   4.720
 7536SOL     OW23506   5.854   6.984   2.917
 7536SOL    HW123507   5.814   0.048   2.880
 7536SOL    HW223508   5.912   7.006   2.995
 7537SOL     OW23509   2.513   0.477   2.061
 7537SOL    HW123510   2.452   0.401   2.082
 7537SOL    HW223511   2.564   0.458   1.977
 7538SOL     OW23512   0.271   4.649   0.182
 7538SOL    HW123513   0.237   4.710   0.253
 7538SOL    HW223514   0.339   4.697   0.127
 7539SOL     OW23515   6.640   0.181   4.754
 7539SOL    HW123516   6.737   0.182   4.731
 7539SOL    HW223517   6.593   0.252   4.702
 7540SOL     OW23518   5.308   3.744   3.828
 7540SOL    HW123519   5.281   3.648   3.818
 7540SOL    HW223520   5.282   3.794   3.746
 7541SOL     OW23521   2.042   3.947   6.887
 7541SOL    HW123522   2.004   3.872   6.940
 7541SOL    HW223523   2.009   3.941   6.793
 7542SOL     OW23524   6.242   6.379   4.775
 7542SOL    HW123525   6.183   6.353   4.698
 7542SOL    HW223526   6.250   6.478   4.778
 7543SOL     OW23527   1.970   0.677   0.519
 7543SOL    HW123528   1.909   0.602   0.547
 7543SOL    HW223529   2.031   0.644   0.447
 7544SOL     OW23530   6.231   1.748   5.074
 7544SOL    HW123531   6.274   1.774   4.987
 7544SOL    HW223532   6.294   1.692   5.127
 7545SOL     OW23533   0.944   5.730   4.974
 7545SOL    HW123534   0.873   5.672   4.934
 7545SOL    HW223535   1.017   5.672   5.010
 7546SOL     OW23536   2.322   3.258   1.654
 7546SOL    HW123537   2.317   3.307   1.741
 7546SOL    HW223538   2.406   3.205   1.649
 7547SOL     OW23539   3.987   0.481   1.857
 7547SOL    HW123540   4.081   0.492   1.891
 7547SOL    HW223541   3.985   0.500   1.759
 7548SOL     OW23542   2.451   2.203   6.298
 7548SOL    HW123543   2.502   2.169   6.219
 7548SOL    HW223544   2.426   2.299   6.283
 7549SOL     OW23545   5.062   0.460   5.286
 7549SOL    HW123546   4.999   0.535   5.263
 7549SOL    HW223547   5.010   0.381   5.317
 7550SOL     OW23548   2.800   5.871   4.866
 7550SOL    HW123549   2.740   5.874   4.946
 7550SOL    HW223550   2.765   5.802   4.802
 7551SOL     OW23551   6.037   2.815   6.319
 7551SOL    HW123552   6.055   2.903   6.364
 7551SOL    HW223553   5.980   2.758   6.379
 7552SOL     OW23554   2.930   6.569   4.220
 7552SOL    HW123555   2.984   6.582   4.136
 7552SOL    HW223556   2.984   6.599   4.299
 7553SOL     OW23557   6.421   6.973   5.486
 7553SOL    HW123558   6.480   0.031   5.462
 7553SOL    HW223559   6.327   7.005   5.495
 7554SOL     OW23560   4.939   1.930   1.824
 7554SOL    HW123561   4.908   1.984   1.902
 7554SOL    HW223562   4.952   1.835   1.853
 7555SOL     OW23563   5.067   5.790   4.181
 7555SOL    HW123564   5.146   5.849   4.196
 7555SOL    HW223565   5.086   5.727   4.106
 7556SOL     OW23566   0.540   6.112   0.782
 7556SOL    HW123567   0.615   6.077   0.726
 7556SOL    HW223568   0.573   6.130   0.875
 7557SOL     OW23569   4.246   5.937   0.239
 7557SOL    HW123570   4.263   5.951   0.142
 7557SOL    HW223571   4.262   5.840   0.262
 7558SOL     OW23572   1.443   1.554   3.980
 7558SOL    HW123573   1.465   1.652   3.979
 7558SOL    HW223574   1.527   1.501   3.981
 7559SOL     OW23575   1.171   6.601   5.007
 7559SOL    HW123576   1.213   6.636   5.091
 7559SOL    HW223577   1.240   6.596   4.934
 7560SOL     OW23578   1.053   0.906   5.582
 7560SOL    HW123579   1.061   0.843   5.505
 7560SOL    HW223580   1.128   0.972   5.579
 7561SOL     OW23581   5.310   1.483   5.638
 7561SOL    HW123582   5.233   1.484   5.703
 7561SOL    HW223583   5.296   1.410   5.572
 7562SOL     OW23584   1.918   5.603   3.663
 7562SOL    HW123585   1.911   5.601   3.763
 7562SOL    HW223586   1.940   5.696   3.634
 7563SOL     OW23587   2.636   6.486   3.413
 7563SOL    HW123588   2.732   6.515   3.411
 7563SOL    HW223589   2.577   6.566   3.405
 7564SOL     OW23590   5.535   3.607   6.101
 7564SOL    HW123591   5.623   3.633   6.062
 7564SOL    HW223592   5.547   3.528   6.161
 7565SOL     OW23593   6.532   3.738   5.791
 7565SOL    HW123594   6.625   3.749   5.826
 7565SOL    HW223595   6.515   3.641   5.773
 7566SOL     OW23596   5.113   4.477   1.664
 7566SOL    HW123597   5.181   4.404   1.660
 7566SOL    HW223598   5.029   4.442   1.705
 7567SOL     OW23599   1.354   0.224   2.570
 7567SOL    HW123600   1.335   0.203   2.666
 7567SOL    HW223601   1.275   0.198   2.514
 7568SOL     OW23602   0.308   4.405   1.366
 7568SOL    HW123603   0.396   4.358   1.357
 7568SOL    HW223604   0.241   4.343   1.407
 7569SOL     OW23605   4.548   3.824   1.278
 7569SOL    HW123606   4.503   3.911   1.298
 7569SOL    HW223607   4.607   3.835   1.198
 7570SOL     OW23608   1.066   2.466   1.703
 7570SOL    HW123609   1.073   2.367   1.695
 7570SOL    HW223610   1.036   2.504   1.615
 7571SOL     OW23611   5.278   1.745   3.662
 7571SOL    HW123612   5.314   1.719   3.573
 7571SOL    HW223613   5.236   1.666   3.705
 7572SOL     OW23614   4.677   6.794   2.470
 7572SOL    HW123615   4.692   6.871   2.532
 7572SOL    HW223616   4.606   6.734   2.509
 7573SOL     OW23617   3.392   0.076   6.088
 7573SOL    HW123618   3.410   0.160   6.038
 7573SOL    HW223619   3.300   0.081   6.128
 7574SOL     OW23620   1.057   3.484   2.947
 7574SOL    HW123621   1.104   3.506   2.862
 7574SOL    HW223622   0.964   3.521   2.945
 7575SOL     OW23623   6.923   6.991   6.917
 7575SOL    HW123624   6.918   0.060   6.870
 7575SOL    HW223625   6.900   6.918   6.852
 7576SOL     OW23626   4.864   3.139   6.973
 7576SOL    HW123627   4.962   3.121   6.989
 7576SOL    HW223628   4.835   3.216   0.010
 7577SOL     OW23629   0.134   0.296   5.747
 7577SOL    HW123630   0.106   0.201   5.738
 7577SOL    HW223631   0.180   0.326   5.664
 7578SOL     OW23632   6.029   5.581   2.167
 7578SOL    HW123633   5.931   5.600   2.174
 7578SOL    HW223634   6.055   5.572   2.071
 7579SOL     OW23635   1.250   1.644   6.569
 7579SOL    HW123636   1.282   1.625   6.476
 7579SOL    HW223637   1.328   1.665   6.628
 7580SOL     OW23638   2.343   5.009   2.247
 7580SOL    HW123639   2.418   5.073   2.228
 7580SOL    HW223640   2.381   4.917   2.260
 7581SOL     OW23641   0.482   7.011   0.929
 7581SOL    HW123642   0.507   6.914   0.933
 7581SOL    HW223643   0.523   0.032   0.847
 7582SOL     OW23644   1.661   0.316   5.883
 7582SOL    HW123645   1.610   0.327   5.968
 7582SOL    HW223646   1.689   0.221   5.873
 7583SOL     OW23647   5.572   4.066   2.426
 7583SOL    HW123648   5.662   4.088   2.388
 7583SOL    HW223649   5.546   3.973   2.399
 7584SOL     OW23650   0.355   1.135   3.661
 7584SOL    HW123651   0.307   1.065   3.608
 7584SOL    HW223652   0.344   1.224   3.617
 7585SOL     OW23653   0.609   0.994   5.764
 7585SOL    HW123654   0.647   0.922   5.706
 7585SOL    HW223655   0.684   1.044   5.808
 7586SOL     OW23656   2.036   6.582   3.971
 7586SOL    HW123657   2.060   6.610   3.878
 7586SOL    HW223658   2.001   6.660   4.022
 7587SOL     OW23659   5.722   0.641   2.376
 7587SOL    HW123660   5.630   0.673   2.352
 7587SOL    HW223661   5.786   0.664   2.303
 7588SOL     OW23662   2.153   3.463   4.557
 7588SOL    HW123663   2.225   3.478   4.625
 7588SOL    HW223664   2.140   3.547   4.504
 7589SOL     OW23665   6.463   6.755   2.311
 7589SOL    HW123666   6.396   6.689   2.346
 7589SOL    HW223667   6.472   6.744   2.212
 7590SOL     OW23668   5.788   0.941   6.749
 7590SOL    HW123669   5.769   0.968   6.843
 7590SOL    HW223670   5.802   0.842   6.745
 7591SOL     OW23671   3.674   4.253   5.080
 7591SOL    HW123672   3.624   4.308   5.013
 7591SOL    HW223673   3.720   4.177   5.033
 7592SOL     OW23674   0.102   6.487   3.231
 7592SOL    HW123675   0.093   6.575   3.277
 7592SOL    HW223676   0.099   6.413   3.299
 7593SOL     OW23677   6.711   1.998   6.158
 7593SOL    HW123678   6.709   2.098   6.167
 7593SOL    HW223679   6.678   1.956   6.242
 7594SOL     OW23680   6.648   4.037   6.157
 7594SOL    HW123681   6.593   4.119   6.171
 7594SOL    HW223682   6.588   3.959   6.138
 7595SOL     OW23683   0.491   3.448   0.430
 7595SOL    HW123684   0.400   3.480   0.405
 7595SOL    HW223685   0.532   3.511   0.496
 7596SOL     OW23686   3.093   1.692   6.566
 7596SOL    HW123687   3.035   1.730   6.495
 7596SOL    HW223688   3.051   1.707   6.656
 7597SOL     OW23689   2.611   4.662   0.273
 7597SOL    HW123690   2.643   4.663   0.367
 7597SOL    HW223691   2.627   4.752   0.232
 7598SOL     OW23692   4.805   0.685   2.620
 7598SOL    HW123693   4.811   0.753   2.546
 7598SOL    HW223694   4.853   0.720   2.701
 7599SOL     OW23695   2.814   3.122   0.434
 7599SOL    HW123696   2.849   3.142   0.525
 7599SOL    HW223697   2.727   3.169   0.421
 7600SOL     OW23698   0.710   6.796   3.726
 7600SOL    HW123699   0.669   6.736   3.795
 7600SOL    HW223700   0.771   6.862   3.771
 7601SOL     OW23701   3.060   6.128   1.118
 7601SOL    HW123702   3.102   6.174   1.197
 7601SOL    HW223703   3.035   6.035   1.144
 7602SOL     OW23704   0.155   1.035   1.434
 7602SOL    HW123705   0.166   0.936   1.448
 7602SOL    HW223706   0.058   1.056   1.428
 7603SOL     OW23707   4.230   0.859   6.616
 7603SOL    HW123708   4.260   0.915   6.538
 7603SOL    HW223709   4.295   0.783   6.629
 7604SOL     OW23710   2.461   1.906   5.632
 7604SOL    HW123711   2.461   1.928   5.534
 7604SOL    HW223712   2.371   1.868   5.656
 7605SOL     OW23713   2.793   6.144   6.664
 7605SOL    HW123714   2.869   6.102   6.614
 7605SOL    HW223715   2.740   6.072   6.709
 7606SOL     OW23716   6.664   1.118   3.651
 7606SOL    HW123717   6.682   1.038   3.593
 7606SOL    HW223718   6.574   1.155   3.629
 7607SOL     OW23719   1.886   5.549   5.412
 7607SOL    HW123720   1.906   5.536   5.509
 7607SOL    HW223721   1.892   5.461   5.365
 7608SOL     OW23722   0.685   2.845   6.275
 7608SOL    HW123723   0.683   2.935   6.318
 7608SOL    HW223724   0.730   2.851   6.186
 7609SOL     OW23725   2.983   0.048   4.906
 7609SOL    HW123726   2.886   0.058   4.883
 7609SOL    HW223727   3.000   6.973   4.934
 7610SOL     OW23728   4.368   5.835   4.573
 7610SOL    HW123729   4.311   5.754   4.586
 7610SOL    HW223730   4.340   5.883   4.490
 7611SOL     OW23731   4.348   2.283   0.270
 7611SOL    HW123732   4.424   2.229   0.305
 7611SOL    HW223733   4.381   2.374   0.244
 7612SOL     OW23734   4.864   3.204   2.214
 7612SOL    HW123735   4.816   3.170   2.133
 7612SOL    HW223736   4.871   3.131   2.282
 7613SOL     OW23737   0.060   0.692   6.736
 7613SOL    HW123738   0.072   0.654   6.828
 7613SOL    HW223739   6.984   0.717   6.723
 7614SOL     OW23740   5.795   5.043   6.471
 7614SOL    HW123741   5.729   5.088   6.531
 7614SOL    HW223742   5.793   5.088   6.381
 7615SOL     OW23743   5.126   3.199   6.543
 7615SOL    HW123744   5.128   3.223   6.446
 7615SOL    HW223745   5.039   3.228   6.583
 7616SOL     OW23746   6.346   6.656   1.840
 7616SOL    HW123747   6.346   6.736   1.900
 7616SOL    HW223748   6.329   6.684   1.746
 7617SOL     OW23749   5.785   4.844   3.049
 7617SOL    HW123750   5.847   4.916   3.017
 7617SOL    HW223751   5.695   4.857   3.009
 7618SOL     OW23752   2.834   2.390   0.208
 7618SOL    HW123753   2.904   2.460   0.197
 7618SOL    HW223754   2.818   2.345   0.120
 7619SOL     OW23755   0.224   0.567   4.814
 7619SOL    HW123756   0.278   0.651   4.823
 7619SOL    HW223757   0.177   0.567   4.726
 7620SOL     OW23758   3.187   3.951   0.520
 7620SOL    HW123759   3.255   3.926   0.589
 7620SOL    HW223760   3.163   3.871   0.466
 7621SOL     OW23761   5.740   4.822   0.830
 7621SOL    HW123762   5.669   4.892   0.837
 7621SOL    HW223763   5.826   4.865   0.801
 7622SOL     OW23764   2.597   3.619   0.530
 7622SOL    HW123765   2.648   3.683   0.588
 7622SOL    HW223766   2.606   3.647   0.434
 7623SOL     OW23767   5.203   4.990   3.385
 7623SOL    HW123768   5.213   4.905   3.334
 7623SOL    HW223769   5.106   5.008   3.403
 7624SOL     OW23770   6.781   2.800   2.757
 7624SOL    HW123771   6.780   2.862   2.836
 7624SOL    HW223772   6.808   2.851   2.675
 7625SOL     OW23773   4.898   0.477   2.295
 7625SOL    HW123774   4.984   0.455   2.248
 7625SOL    HW223775   4.834   0.519   2.230
 7626SOL     OW23776   4.530   6.311   0.415
 7626SOL    HW123777   4.476   6.395   0.410
 7626SOL    HW223778   4.494   6.253   0.489
 7627SOL     OW23779   4.519   2.539   5.488
 7627SOL    HW123780   4.452   2.570   5.421
 7627SOL    HW223781   4.474   2.527   5.576
 7628SOL     OW23782   3.588   2.639   0.740
 7628SOL    HW123783   3.683   2.621   0.767
 7628SOL    HW223784   3.528   2.575   0.789
 7629SOL     OW23785   5.968   2.820   4.047
 7629SOL    HW123786   5.991   2.732   4.005
 7629SOL    HW223787   5.976   2.892   3.979
 7630SOL     OW23788   1.381   5.841   3.789
 7630SOL    HW123789   1.319   5.831   3.711
 7630SOL    HW223790   1.414   5.936   3.794
 7631SOL     OW23791   1.300   1.098   6.519
 7631SOL    HW123792   1.254   1.172   6.468
 7631SOL    HW223793   1.235   1.024   6.535
 7632SOL     OW23794   4.190   5.509   1.165
 7632SOL    HW123795   4.149   5.534   1.253
 7632SOL    HW223796   4.272   5.454   1.180
 7633SOL     OW23797   5.064   0.292   2.134
 7633SOL    HW123798   4.979   0.272   2.086
 7633SOL    HW223799   5.132   0.223   2.112
 7634SOL     OW23800   0.506   2.253   6.893
 7634SOL    HW123801   0.598   2.270   6.930
 7634SOL    HW223802   0.445   2.226   6.968
 7635SOL     OW23803   1.724   2.887   5.881
 7635SOL    HW123804   1.628   2.901   5.855
 7635SOL    HW223805   1.773   2.974   5.878
 7636SOL     OW23806   6.948   3.018   3.574
 7636SOL    HW123807   0.004   3.079   3.598
 7636SOL    HW223808   6.961   2.984   3.481
 7637SOL     OW23809   1.901   4.033   4.642
 7637SOL    HW123810   1.956   3.951   4.657
 7637SOL    HW223811   1.917   4.068   4.550
 7638SOL     OW23812   0.175   6.817   0.690
 7638SOL    HW123813   0.234   6.884   0.645
 7638SOL    HW223814   0.110   6.865   0.750
 7639SOL     OW23815   2.211   6.035   0.606
 7639SOL    HW123816   2.243   6.013   0.514
 7639SOL    HW223817   2.194   5.950   0.657
 7640SOL     OW23818   3.509   0.344   0.919
 7640SOL    HW123819   3.461   0.257   0.910
 7640SOL    HW223820   3.530   0.361   1.015
 7641SOL     OW23821   6.324   4.119   5.428
 7641SOL    HW123822   6.249   4.102   5.491
 7641SOL    HW223823   6.411   4.115   5.478
 7642SOL     OW23824   5.811   1.415   4.080
 7642SOL    HW123825   5.905   1.382   4.066
 7642SOL    HW223826   5.808   1.514   4.064
 7643SOL     OW23827   5.294   2.295   3.725
 7643SOL    HW123828   5.277   2.307   3.627
 7643SOL    HW223829   5.331   2.204   3.742
 7644SOL     OW23830   5.250   3.976   0.271
 7644SOL    HW123831   5.225   3.879   0.276
 7644SOL    HW223832   5.324   3.995   0.336
 7645SOL     OW23833   5.544   4.457   6.257
 7645SOL    HW123834   5.542   4.357   6.253
 7645SOL    HW223835   5.546   4.487   6.352
 7646SOL     OW23836   6.526   1.308   2.635
 7646SOL    HW123837   6.451   1.246   2.611
 7646SOL    HW223838   6.603   1.255   2.670
 7647SOL     OW23839   6.753   1.942   4.055
 7647SOL    HW123840   6.758   1.942   3.955
 7647SOL    HW223841   6.748   1.848   4.089
 7648SOL     OW23842   1.773   2.590   0.788
 7648SOL    HW123843   1.808   2.678   0.819
 7648SOL    HW223844   1.673   2.595   0.780
 7649SOL     OW23845   4.348   0.660   0.746
 7649SOL    HW123846   4.290   0.582   0.723
 7649SOL    HW223847   4.416   0.673   0.673
 7650SOL     OW23848   3.612   2.924   0.227
 7650SOL    HW123849   3.533   2.869   0.254
 7650SOL    HW223850   3.687   2.863   0.202
 7651SOL     OW23851   3.976   5.607   6.227
 7651SOL    HW123852   3.879   5.583   6.220
 7651SOL    HW223853   3.984   5.705   6.243
 7652SOL     OW23854   0.438   1.068   4.933
 7652SOL    HW123855   0.528   1.105   4.909
 7652SOL    HW223856   0.428   1.065   5.033
 7653SOL     OW23857   2.146   6.678   6.186
 7653SOL    HW123858   2.052   6.669   6.218
 7653SOL    HW223859   2.146   6.707   6.090
 7654SOL     OW23860   6.600   2.745   5.713
 7654SOL    HW123861   6.680   2.802   5.733
 7654SOL    HW223862   6.609   2.657   5.761
 7655SOL     OW23863   2.587   2.010   5.399
 7655SOL    HW123864   2.614   2.106   5.395
 7655SOL    HW223865   2.595   1.969   5.309
 7656SOL     OW23866   6.438   3.510   0.206
 7656SOL    HW123867   6.367   3.458   0.252
 7656SOL    HW223868   6.513   3.528   0.271
 7657SOL     OW23869   1.329   4.164   4.762
 7657SOL    HW123870   1.349   4.126   4.672
 7657SOL    HW223871   1.333   4.092   4.831
 7658SOL     OW23872   2.965   0.441   1.124
 7658SOL    HW123873   2.870   0.430   1.096
 7658SOL    HW223874   3.016   0.358   1.103
 7659SOL     OW23875   5.257   4.334   5.371
 7659SOL    HW123876   5.191   4.391   5.322
 7659SOL    HW223877   5.212   4.250   5.403
 7660SOL     OW23878   0.067   6.293   4.833
 7660SOL    HW123879   0.130   6.331   4.902
 7660SOL    HW223880   6.993   6.320   4.857
 7661SOL     OW23881   1.757   0.505   4.812
 7661SOL    HW123882   1.824   0.481   4.883
 7661SOL    HW223883   1.696   0.428   4.797
 7662SOL     OW23884   6.795   6.782   1.728
 7662SOL    HW123885   6.756   6.693   1.753
 7662SOL    HW223886   6.738   6.855   1.766
 7663SOL     OW23887   1.674   5.804   3.619
 7663SOL    HW123888   1.636   5.853   3.699
 7663SOL    HW223889   1.720   5.722   3.650
 7664SOL     OW23890   5.653   2.481   3.070
 7664SOL    HW123891   5.708   2.479   2.987
 7664SOL    HW223892   5.590   2.404   3.071
 7665SOL     OW23893   1.609   6.792   5.068
 7665SOL    HW123894   1.697   6.759   5.103
 7665SOL    HW223895   1.607   6.892   5.071
 7666SOL     OW23896   6.635   5.128   4.356
 7666SOL    HW123897   6.638   5.029   4.366
 7666SOL    HW223898   6.721   5.168   4.388
 7667SOL     OW23899   4.418   5.383   1.301
 7667SOL    HW123900   4.456   5.404   1.391
 7667SOL    HW223901   4.478   5.318   1.254
 7668SOL     OW23902   1.717   5.489   0.506
 7668SOL    HW123903   1.755   5.572   0.466
 7668SOL    HW223904   1.789   5.441   0.557
 7669SOL     OW23905   4.220   2.474   6.679
 7669SOL    HW123906   4.210   2.565   6.719
 7669SOL    HW223907   4.143   2.455   6.619
 7670SOL     OW23908   1.121   0.427   0.711
 7670SOL    HW123909   1.044   0.475   0.753
 7670SOL    HW223910   1.130   0.336   0.752
 7671SOL     OW23911   3.485   0.945   1.907
 7671SOL    HW123912   3.389   0.950   1.882
 7671SOL    HW223913   3.525   0.861   1.869
 7672SOL     OW23914   5.929   2.999   2.939
 7672SOL    HW123915   5.840   2.974   2.978
 7672SOL    HW223916   5.933   2.972   2.843
 7673SOL     OW23917   1.765   6.467   5.115
 7673SOL    HW123918   1.743   6.525   5.194
 7673SOL    HW223919   1.759   6.371   5.143
 7674SOL     OW23920   3.522   5.319   3.943
 7674SOL    HW123921   3.487   5.412   3.928
 7674SOL    HW223922   3.563   5.285   3.859
 7675SOL     OW23923   3.834   6.785   3.219
 7675SOL    HW123924   3.764   6.746   3.279
 7675SOL    HW223925   3.868   6.714   3.158
 7676SOL     OW23926   3.363   2.894   4.492
 7676SOL    HW123927   3.411   2.882   4.578
 7676SOL    HW223928   3.419   2.949   4.430
 7677SOL     OW23929   0.343   6.555   0.613
 7677SOL    HW123930   0.273   6.488   0.640
 7677SOL    HW223931   0.312   6.605   0.532
 7678SOL     OW23932   3.267   1.148   5.334
 7678SOL    HW123933   3.330   1.130   5.410
 7678SOL    HW223934   3.305   1.220   5.276
 7679SOL     OW23935   3.331   5.801   3.830
 7679SOL    HW123936   3.388   5.876   3.862
 7679SOL    HW223937   3.281   5.830   3.748
 7680SOL     OW23938   1.145   6.232   4.173
 7680SOL    HW123939   1.241   6.256   4.182
 7680SOL    HW223940   1.100   6.238   4.262
 7681SOL     OW23941   2.049   1.778   5.938
 7681SOL    HW123942   2.108   1.833   5.998
 7681SOL    HW223943   2.021   1.834   5.859
 7682SOL     OW23944   3.185   0.222   1.805
 7682SOL    HW123945   3.276   0.259   1.826
 7682SOL    HW223946   3.123   0.297   1.784
 7683SOL     OW23947   1.541   4.213   4.217
 7683SOL    HW123948   1.537   4.301   4.171
 7683SOL    HW223949   1.470   4.153   4.180
 7684SOL     OW23950   4.938   3.623   1.604
 7684SOL    HW123951   4.887   3.680   1.540
 7684SOL    HW223952   4.877   3.591   1.676
 7685SOL     OW23953   2.124   0.244   0.079
 7685SOL    HW123954   2.207   0.299   0.073
 7685SOL    HW223955   2.045   0.305   0.088
 7686SOL     OW23956   6.208   0.929   4.713
 7686SOL    HW123957   6.138   0.974   4.657
 7686SOL    HW223958   6.200   0.960   4.808
 7687SOL     OW23959   5.847   3.900   5.430
 7687SOL    HW123960   5.754   3.882   5.395
 7687SOL    HW223961   5.841   3.932   5.524
 7688SOL     OW23962   6.871   3.303   0.692
 7688SOL    HW123963   6.833   3.249   0.618
 7688SOL    HW223964   6.951   3.256   0.730
 7689SOL     OW23965   5.353   6.903   2.863
 7689SOL    HW123966   5.409   6.901   2.946
 7689SOL    HW223967   5.302   6.817   2.855
 7690SOL     OW23968   6.312   4.290   2.256
 7690SOL    HW123969   6.242   4.229   2.291
 7690SOL    HW223970   6.401   4.263   2.293
 7691SOL     OW23971   5.090   3.069   4.436
 7691SOL    HW123972   5.143   3.066   4.520
 7691SOL    HW223973   5.122   2.998   4.373
 7692SOL     OW23974   2.036   6.316   2.311
 7692SOL    HW123975   1.967   6.383   2.342
 7692SOL    HW223976   2.093   6.358   2.241
 7693SOL     OW23977   2.381   2.302   0.782
 7693SOL    HW123978   2.357   2.398   0.799
 7693SOL    HW223979   2.469   2.282   0.825
 7694SOL     OW23980   4.267   2.743   1.330
 7694SOL    HW123981   4.285   2.655   1.285
 7694SOL    HW223982   4.253   2.728   1.428
 7695SOL     OW23983   5.190   6.770   4.065
 7695SOL    HW123984   5.162   6.821   3.984
 7695SOL    HW223985   5.123   6.698   4.084
 7696SOL     OW23986   2.332   1.047   5.557
 7696SOL    HW123987   2.326   0.968   5.497
 7696SOL    HW223988   2.240   1.077   5.582
 7697SOL     OW23989   5.704   6.887   3.153
 7697SOL    HW123990   5.745   6.868   3.242
 7697SOL    HW223991   5.774   6.919   3.090
 7698SOL     OW23992   5.853   1.934   1.408
 7698SOL    HW123993   5.886   1.858   1.352
 7698SOL    HW223994   5.812   2.003   1.349
 7699SOL     OW23995   4.013   5.863   6.091
 7699SOL    HW123996   3.993   5.789   6.026
 7699SOL    HW223997   3.938   5.929   6.090
 7700SOL     OW23998   5.981   4.724   1.671
 7700SOL    HW123999   5.905   4.701   1.731
 7700SOL    HW224000   5.980   4.665   1.590
 7701SOL     OW24001   3.340   1.806   6.547
 7701SOL    HW124002   3.247   1.768   6.551
 7701SOL    HW224003   3.358   1.842   6.456
 7702SOL     OW24004   6.003   6.399   5.865
 7702SOL    HW124005   5.959   6.310   5.878
 7702SOL    HW224006   5.941   6.472   5.893
 7703SOL     OW24007   0.411   6.056   0.210
 7703SOL    HW124008   0.481   6.104   0.263
 7703SOL    HW224009   0.446   6.038   0.118
 7704SOL     OW24010   1.487   2.645   4.816
 7704SOL    HW124011   1.518   2.555   4.783
 7704SOL    HW224012   1.486   2.645   4.916
 7705SOL     OW24013   0.869   4.373   0.464
 7705SOL    HW124014   0.952   4.328   0.495
 7705SOL    HW224015   0.882   4.406   0.370
 7706SOL     OW24016   3.533   3.759   2.006
 7706SOL    HW124017   3.604   3.773   2.076
 7706SOL    HW224018   3.449   3.728   2.050
 7707SOL     OW24019   6.767   5.627   5.622
 7707SOL    HW124020   6.866   5.613   5.615
 7707SOL    HW224021   6.726   5.624   5.531
 7708SOL     OW24022   0.822   0.086   3.600
 7708SOL    HW124023   0.784   0.021   3.665
 7708SOL    HW224024   0.854   0.167   3.649
 7709SOL     OW24025   6.590   4.506   1.394
 7709SOL    HW124026   6.559   4.450   1.317
 7709SOL    HW224027   6.542   4.478   1.477
 7710SOL     OW24028   6.121   3.762   2.780
 7710SOL    HW124029   6.036   3.777   2.730
 7710SOL    HW224030   6.180   3.842   2.771
 7711SOL     OW24031   1.269   4.777   3.216
 7711SOL    HW124032   1.343   4.723   3.178
 7711SOL    HW224033   1.188   4.770   3.157
 7712SOL     OW24034   1.289   4.521   4.524
 7712SOL    HW124035   1.269   4.430   4.562
 7712SOL    HW224036   1.332   4.578   4.595
 7713SOL     OW24037   0.715   5.866   0.038
 7713SOL    HW124038   0.668   5.953   0.026
 7713SOL    HW224039   0.750   5.834   6.970
 7714SOL     OW24040   5.942   1.846   4.705
 7714SOL    HW124041   5.961   1.749   4.722
 7714SOL    HW224042   6.023   1.900   4.729
 7715SOL     OW24043   3.857   3.640   6.456
 7715SOL    HW124044   3.839   3.596   6.544
 7715SOL    HW224045   3.803   3.723   6.449
 7716SOL     OW24046   1.950   0.965   0.245
 7716SOL    HW124047   1.901   0.965   0.158
 7716SOL    HW224048   1.891   0.929   0.317
 7717SOL     OW24049   0.737   2.031   6.133
 7717SOL    HW124050   0.779   1.941   6.147
 7717SOL    HW224051   0.647   2.020   6.091
 7718SOL     OW24052   0.693   3.786   3.638
 7718SOL    HW124053   0.787   3.774   3.669
 7718SOL    HW224054   0.691   3.848   3.559
 7719SOL     OW24055   2.209   6.594   5.036
 7719SOL    HW124056   2.290   6.578   4.979
 7719SOL    HW224057   2.209   6.530   5.113
 7720SOL     OW24058   4.678   1.063   6.239
 7720SOL    HW124059   4.650   1.154   6.271
 7720SOL    HW224060   4.665   0.997   6.313
 7721SOL     OW24061   5.693   5.545   2.525
 7721SOL    HW124062   5.715   5.468   2.465
 7721SOL    HW224063   5.688   5.629   2.472
 7722SOL     OW24064   0.115   6.353   4.565
 7722SOL    HW124065   0.074   6.327   4.652
 7722SOL    HW224066   0.214   6.342   4.570
 7723SOL     OW24067   3.767   4.571   6.227
 7723SOL    HW124068   3.749   4.500   6.295
 7723SOL    HW224069   3.694   4.571   6.159
 7724SOL     OW24070   1.109   4.067   6.882
 7724SOL    HW124071   1.114   3.973   6.916
 7724SOL    HW224072   1.072   4.067   6.790
 7725SOL     OW24073   5.481   3.291   4.854
 7725SOL    HW124074   5.444   3.289   4.761
 7725SOL    HW224075   5.494   3.386   4.882
 7726SOL     OW24076   1.720   2.899   0.733
 7726SOL    HW124077   1.734   2.891   0.832
 7726SOL    HW224078   1.770   2.978   0.699
 7727SOL     OW24079   5.949   0.050   3.189
 7727SOL    HW124080   5.919   0.133   3.235
 7727SOL    HW224081   6.000   7.012   3.253
 7728SOL     OW24082   2.174   2.961   5.496
 7728SOL    HW124083   2.244   3.023   5.533
 7728SOL    HW224084   2.096   2.960   5.558
 7729SOL     OW24085   0.241   1.067   3.008
 7729SOL    HW124086   0.226   0.998   2.937
 7729SOL    HW224087   0.184   1.046   3.087
 7730SOL     OW24088   6.000   3.065   6.549
 7730SOL    HW124089   5.928   3.000   6.527
 7730SOL    HW224090   6.023   3.118   6.467
 7731SOL     OW24091   0.162   0.731   5.697
 7731SOL    HW124092   0.141   0.708   5.792
 7731SOL    HW224093   0.086   0.705   5.638
 7732SOL     OW24094   3.825   1.110   0.337
 7732SOL    HW124095   3.784   1.095   0.427
 7732SOL    HW224096   3.816   1.206   0.312
 7733SOL     OW24097   5.571   6.189   1.515
 7733SOL    HW124098   5.561   6.264   1.580
 7733SOL    HW224099   5.642   6.213   1.448
 7734SOL     OW24100   3.329   3.821   3.787
 7734SOL    HW124101   3.313   3.893   3.855
 7734SOL    HW224102   3.262   3.748   3.799
 7735SOL     OW24103   0.424   5.629   0.857
 7735SOL    HW124104   0.423   5.663   0.763
 7735SOL    HW224105   0.517   5.605   0.884
 7736SOL     OW24106   2.085   1.644   0.711
 7736SOL    HW124107   2.166   1.637   0.771
 7736SOL    HW224108   2.003   1.628   0.765
 7737SOL     OW24109   4.802   4.391   6.503
 7737SOL    HW124110   4.758   4.477   6.481
 7737SOL    HW224111   4.779   4.322   6.434
 7738SOL     OW24112   1.705   0.909   5.547
 7738SOL    HW124113   1.628   0.894   5.610
 7738SOL    HW224114   1.758   0.825   5.539
 7739SOL     OW24115   0.949   3.054   6.123
 7739SOL    HW124116   0.891   2.991   6.070
 7739SOL    HW224117   0.900   3.082   6.205
 7740SOL     OW24118   2.205   0.579   4.054
 7740SOL    HW124119   2.223   0.481   4.043
 7740SOL    HW224120   2.127   0.592   4.115
 7741SOL     OW24121   6.232   4.311   6.270
 7741SOL    HW124122   6.218   4.252   6.191
 7741SOL    HW224123   6.283   4.392   6.242
 7742SOL     OW24124   4.786   2.703   4.040
 7742SOL    HW124125   4.778   2.707   3.941
 7742SOL    HW224126   4.838   2.622   4.067
 7743SOL     OW24127   3.618   0.898   6.130
 7743SOL    HW124128   3.695   0.891   6.067
 7743SOL    HW224129   3.572   0.809   6.137
 7744SOL     OW24130   0.064   6.032   4.682
 7744SOL    HW124131   0.093   6.108   4.739
 7744SOL    HW224132   0.077   6.055   4.586
 7745SOL     OW24133   2.769   0.103   0.253
 7745SOL    HW124134   2.755   0.123   0.350
 7745SOL    HW224135   2.790   0.006   0.241
 7746SOL     OW24136   6.724   6.231   1.123
 7746SOL    HW124137   6.797   6.282   1.079
 7746SOL    HW224138   6.635   6.266   1.093
 7747SOL     OW24139   6.759   5.797   0.724
 7747SOL    HW124140   6.811   5.880   0.740
 7747SOL    HW224141   6.812   5.718   0.756
 7748SOL     OW24142   4.701   1.088   5.647
 7748SOL    HW124143   4.626   1.045   5.597
 7748SOL    HW224144   4.723   1.033   5.727
 7749SOL     OW24145   3.016   3.896   2.376
 7749SOL    HW124146   3.018   3.835   2.455
 7749SOL    HW224147   2.964   3.854   2.302
 7750SOL     OW24148   5.434   3.962   5.965
 7750SOL    HW124149   5.357   3.959   5.901
 7750SOL    HW224150   5.426   3.886   6.030
 7751SOL     OW24151   0.441   1.433   4.292
 7751SOL    HW124152   0.381   1.398   4.221
 7751SOL    HW224153   0.398   1.422   4.382
 7752SOL     OW24154   5.506   4.188   6.280
 7752SOL    HW124155   5.462   4.170   6.192
 7752SOL    HW224156   5.492   4.110   6.341
 7753SOL     OW24157   2.320   1.152   4.979
 7753SOL    HW124158   2.242   1.210   4.958
 7753SOL    HW224159   2.342   1.159   5.077
 7754SOL     OW24160   6.622   1.394   0.786
 7754SOL    HW124161   6.548   1.458   0.767
 7754SOL    HW224162   6.704   1.445   0.813
 7755SOL     OW24163   1.569   6.257   5.333
 7755SOL    HW124164   1.498   6.310   5.288
 7755SOL    HW224165   1.602   6.306   5.413
 7756SOL     OW24166   3.581   6.495   2.790
 7756SOL    HW124167   3.581   6.413   2.733
 7756SOL    HW224168   3.613   6.471   2.882
 7757SOL     OW24169   3.535   1.465   5.480
 7757SOL    HW124170   3.580   1.446   5.393
 7757SOL    HW224171   3.490   1.554   5.476
 7758SOL     OW24172   2.724   1.213   6.230
 7758SOL    HW124173   2.626   1.195   6.222
 7758SOL    HW224174   2.776   1.134   6.199
 7759SOL     OW24175   2.393   6.924   4.686
 7759SOL    HW124176   2.305   6.937   4.730
 7759SOL    HW224177   2.380   6.900   4.590
 7760SOL     OW24178   5.579   1.771   2.760
 7760SOL    HW124179   5.655   1.834   2.741
 7760SOL    HW224180   5.496   1.805   2.715
 7761SOL     OW24181   4.573   0.759   6.869
 7761SOL    HW124182   4.624   0.674   6.868
 7761SOL    HW224183   4.567   0.794   6.963
 7762SOL     OW24184   1.797   2.164   0.756
 7762SOL    HW124185   1.710   2.154   0.707
 7762SOL    HW224186   1.860   2.093   0.726
 7763SOL     OW24187   2.028   2.901   0.606
 7763SOL    HW124188   2.076   2.976   0.651
 7763SOL    HW224189   2.002   2.832   0.674
 7764SOL     OW24190   3.563   3.332   2.060
 7764SOL    HW124191   3.516   3.271   1.997
 7764SOL    HW224192   3.602   3.280   2.135
 7765SOL     OW24193   0.696   1.638   2.020
 7765SOL    HW124194   0.611   1.691   2.023
 7765SOL    HW224195   0.774   1.700   2.020
 7766SOL     OW24196   6.722   3.533   0.239
 7766SOL    HW124197   6.788   3.460   0.254
 7766SOL    HW224198   6.722   3.560   0.143
 7767SOL     OW24199   6.141   3.905   4.751
 7767SOL    HW124200   6.172   3.959   4.829
 7767SOL    HW224201   6.169   3.810   4.763
 7768SOL     OW24202   4.225   5.198   1.427
 7768SOL    HW124203   4.283   5.227   1.351
 7768SOL    HW224204   4.129   5.206   1.400
 7769SOL     OW24205   4.883   1.536   3.826
 7769SOL    HW124206   4.927   1.540   3.916
 7769SOL    HW224207   4.803   1.476   3.831
 7770SOL     OW24208   3.117   6.553   1.307
 7770SOL    HW124209   3.020   6.531   1.311
 7770SOL    HW224210   3.131   6.648   1.333
 7771SOL     OW24211   2.021   0.831   4.599
 7771SOL    HW124212   1.988   0.865   4.511
 7771SOL    HW224213   1.969   0.751   4.626
 7772SOL     OW24214   5.455   0.828   5.878
 7772SOL    HW124215   5.499   0.913   5.850
 7772SOL    HW224216   5.356   0.840   5.879
 7773SOL     OW24217   4.181   4.448   6.244
 7773SOL    HW124218   4.141   4.438   6.153
 7773SOL    HW224219   4.259   4.386   6.253
 7774SOL     OW24220   4.175   1.384   0.131
 7774SOL    HW124221   4.170   1.404   0.229
 7774SOL    HW224222   4.161   1.286   0.116
 7775SOL     OW24223   1.024   6.381   1.626
 7775SOL    HW124224   0.959   6.339   1.563
 7775SOL    HW224225   1.076   6.451   1.578
 7776SOL     OW24226   3.015   4.455   1.050
 7776SOL    HW124227   2.973   4.407   1.127
 7776SOL    HW224228   2.997   4.405   0.966
 7777SOL     OW24229   0.385   0.559   6.891
 7777SOL    HW124230   0.286   0.566   6.908
 7777SOL    HW224231   0.420   0.647   6.859
 7778SOL     OW24232   5.074   2.209   2.419
 7778SOL    HW124233   4.988   2.254   2.396
 7778SOL    HW224234   5.055   2.120   2.460
 7779SOL     OW24235   4.432   3.125   0.420
 7779SOL    HW124236   4.435   3.224   0.428
 7779SOL    HW224237   4.366   3.088   0.486
 7780SOL     OW24238   1.694   0.590   4.173
 7780SOL    HW124239   1.604   0.577   4.133
 7780SOL    HW224240   1.695   0.673   4.229
 7781SOL     OW24241   2.287   4.076   5.579
 7781SOL    HW124242   2.194   4.040   5.583
 7781SOL    HW224243   2.305   4.114   5.489
 7782SOL     OW24244   5.250   4.721   0.054
 7782SOL    HW124245   5.179   4.734   0.124
 7782SOL    HW224246   5.213   4.666   6.999
 7783SOL     OW24247   3.443   5.976   6.590
 7783SOL    HW124248   3.408   5.964   6.683
 7783SOL    HW224249   3.514   6.047   6.590
 7784SOL     OW24250   6.519   3.170   0.331
 7784SOL    HW124251   6.446   3.235   0.353
 7784SOL    HW224252   6.479   3.081   0.310
 7785SOL     OW24253   1.534   6.506   6.093
 7785SOL    HW124254   1.435   6.513   6.104
 7785SOL    HW224255   1.576   6.596   6.108
 7786SOL     OW24256   4.058   3.973   5.180
 7786SOL    HW124257   4.074   3.931   5.090
 7786SOL    HW224258   4.029   3.902   5.244
 7787SOL     OW24259   3.202   2.176   5.734
 7787SOL    HW124260   3.240   2.265   5.760
 7787SOL    HW224261   3.192   2.173   5.634
 7788SOL     OW24262   6.856   2.593   1.322
 7788SOL    HW124263   6.763   2.628   1.321
 7788SOL    HW224264   6.869   2.532   1.400
 7789SOL     OW24265   0.796   0.392   1.859
 7789SOL    HW124266   0.828   0.298   1.847
 7789SOL    HW224267   0.860   0.454   1.814
 7790SOL     OW24268   6.876   3.517   2.744
 7790SOL    HW124269   6.847   3.476   2.830
 7790SOL    HW224270   6.809   3.585   2.715
 7791SOL     OW24271   6.664   5.805   5.984
 7791SOL    HW124272   6.674   5.899   5.952
 7791SOL    HW224273   6.732   5.786   6.055
 7792SOL     OW24274   1.440   5.811   6.320
 7792SOL    HW124275   1.474   5.788   6.411
 7792SOL    HW224276   1.392   5.898   6.323
 7793SOL     OW24277   2.481   0.161   6.431
 7793SOL    HW124278   2.483   0.122   6.339
 7793SOL    HW224279   2.386   0.183   6.455
 7794SOL     OW24280   4.938   4.900   2.729
 7794SOL    HW124281   4.876   4.942   2.794
 7794SOL    HW224282   4.907   4.808   2.707
 7795SOL     OW24283   2.198   3.852   6.282
 7795SOL    HW124284   2.261   3.911   6.333
 7795SOL    HW224285   2.197   3.879   6.186
 7796SOL     OW24286   4.043   3.708   3.694
 7796SOL    HW124287   4.046   3.731   3.596
 7796SOL    HW224288   3.977   3.768   3.739
 7797SOL     OW24289   1.495   6.109   3.754
 7797SOL    HW124290   1.580   6.139   3.711
 7797SOL    HW224291   1.446   6.188   3.792
 7798SOL     OW24292   5.091   5.369   6.079
 7798SOL    HW124293   5.022   5.348   6.010
 7798SOL    HW224294   5.060   5.445   6.136
 7799SOL     OW24295   5.748   5.814   1.234
 7799SOL    HW124296   5.836   5.860   1.250
 7799SOL    HW224297   5.763   5.715   1.231
 7800SOL     OW24298   0.722   6.478   2.692
 7800SOL    HW124299   0.783   6.399   2.686
 7800SOL    HW224300   0.726   6.516   2.785
 7801SOL     OW24301   4.174   2.393   5.468
 7801SOL    HW124302   4.132   2.465   5.524
 7801SOL    HW224303   4.201   2.317   5.526
 7802SOL     OW24304   5.751   2.279   6.452
 7802SOL    HW124305   5.772   2.333   6.371
 7802SOL    HW224306   5.804   2.313   6.530
 7803SOL     OW24307   3.218   3.161   5.911
 7803SOL    HW124308   3.304   3.115   5.890
 7803SOL    HW224309   3.211   3.245   5.856
 7804SOL     OW24310   4.879   0.636   5.645
 7804SOL    HW124311   4.955   0.645   5.710
 7804SOL    HW224312   4.837   0.546   5.656
 7805SOL     OW24313   5.528   3.169   1.847
 7805SOL    HW124314   5.474   3.250   1.871
 7805SOL    HW224315   5.599   3.195   1.781
 7806SOL     OW24316   5.251   2.569   0.565
 7806SOL    HW124317   5.303   2.604   0.643
 7806SOL    HW224318   5.300   2.492   0.524
 7807SOL     OW24319   0.989   4.236   6.598
 7807SOL    HW124320   1.011   4.171   6.526
 7807SOL    HW224321   0.952   4.320   6.557
 7808SOL     OW24322   0.154   1.740   4.714
 7808SOL    HW124323   0.215   1.663   4.693
 7808SOL    HW224324   0.146   1.799   4.633
 7809SOL     OW24325   1.015   5.901   5.745
 7809SOL    HW124326   0.950   5.845   5.796
 7809SOL    HW224327   1.100   5.850   5.733
 7810SOL     OW24328   3.203   1.270   0.367
 7810SOL    HW124329   3.294   1.230   0.376
 7810SOL    HW224330   3.191   1.342   0.435
 7811SOL     OW24331   6.441   4.386   5.119
 7811SOL    HW124332   6.395   4.342   5.042
 7811SOL    HW224333   6.469   4.479   5.094
 7812SOL     OW24334   1.012   1.728   3.686
 7812SOL    HW124335   0.995   1.743   3.589
 7812SOL    HW224336   0.934   1.683   3.728
 7813SOL     OW24337   5.598   1.212   1.505
 7813SOL    HW124338   5.542   1.166   1.574
 7813SOL    HW224339   5.551   1.294   1.473
 7814SOL     OW24340   1.860   2.902   3.619
 7814SOL    HW124341   1.795   2.892   3.543
 7814SOL    HW224342   1.861   2.819   3.674
 7815SOL     OW24343   6.656   2.192   5.096
 7815SOL    HW124344   6.752   2.216   5.105
 7815SOL    HW224345   6.607   2.265   5.049
 7816SOL     OW24346   0.277   4.548   5.160
 7816SOL    HW124347   0.230   4.471   5.203
 7816SOL    HW224348   0.375   4.542   5.178
 7817SOL     OW24349   5.515   2.970   5.623
 7817SOL    HW124350   5.463   3.035   5.567
 7817SOL    HW224351   5.535   2.889   5.569
 7818SOL     OW24352   6.018   2.841   3.385
 7818SOL    HW124353   6.035   2.915   3.450
 7818SOL    HW224354   6.058   2.756   3.419
 7819SOL     OW24355   1.337   1.382   0.681
 7819SOL    HW124356   1.421   1.414   0.725
 7819SOL    HW224357   1.279   1.337   0.748
 7820SOL     OW24358   2.544   6.551   5.493
 7820SOL    HW124359   2.581   6.528   5.403
 7820SOL    HW224360   2.562   6.475   5.556
 7821SOL     OW24361   3.094   5.999   1.373
 7821SOL    HW124362   3.009   5.972   1.328
 7821SOL    HW224363   3.082   6.089   1.414
 7822SOL     OW24364   0.559   6.704   4.828
 7822SOL    HW124365   0.471   6.663   4.804
 7822SOL    HW224366   0.629   6.633   4.831
 7823SOL     OW24367   2.080   3.329   5.548
 7823SOL    HW124368   2.041   3.286   5.467
 7823SOL    HW224369   2.169   3.368   5.526
 7824SOL     OW24370   1.072   3.303   5.428
 7824SOL    HW124371   1.123   3.298   5.342
 7824SOL    HW224372   1.099   3.385   5.478
 7825SOL     OW24373   2.199   1.071   0.259
 7825SOL    HW124374   2.107   1.030   0.262
 7825SOL    HW224375   2.265   1.006   0.296
 7826SOL     OW24376   0.533   4.197   5.802
 7826SOL    HW124377   0.544   4.136   5.880
 7826SOL    HW224378   0.526   4.291   5.834
 7827SOL     OW24379   6.153   4.921   3.511
 7827SOL    HW124380   6.164   5.004   3.456
 7827SOL    HW224381   6.178   4.940   3.605
 7828SOL     OW24382   0.889   6.084   5.571
 7828SOL    HW124383   0.878   6.023   5.493
 7828SOL    HW224384   0.982   6.075   5.607
 7829SOL     OW24385   4.480   4.833   1.051
 7829SOL    HW124386   4.534   4.856   1.132
 7829SOL    HW224387   4.471   4.734   1.045
 7830SOL     OW24388   1.626   5.577   4.106
 7830SOL    HW124389   1.591   5.610   4.194
 7830SOL    HW224390   1.691   5.502   4.123
 7831SOL     OW24391   1.597   0.193   6.906
 7831SOL    HW124392   1.625   0.107   6.947
 7831SOL    HW224393   1.674   0.257   6.905
 7832SOL     OW24394   0.183   0.937   5.064
 7832SOL    HW124395   0.165   0.865   5.131
 7832SOL    HW224396   0.134   0.917   4.979
 7833SOL     OW24397   0.884   0.648   2.784
 7833SOL    HW124398   0.853   0.699   2.704
 7833SOL    HW224399   0.984   0.637   2.779
 7834SOL     OW24400   0.835   3.218   4.760
 7834SOL    HW124401   0.775   3.295   4.739
 7834SOL    HW224402   0.923   3.252   4.793
 7835SOL     OW24403   3.248   2.959   5.558
 7835SOL    HW124404   3.179   2.972   5.630
 7835SOL    HW224405   3.221   3.012   5.477
 7836SOL     OW24406   2.959   3.652   4.923
 7836SOL    HW124407   3.014   3.615   4.848
 7836SOL    HW224408   2.985   3.605   5.008
 7837SOL     OW24409   0.418   5.610   0.227
 7837SOL    HW124410   0.388   5.700   0.257
 7837SOL    HW224411   0.516   5.599   0.247
 7838SOL     OW24412   3.989   4.784   0.864
 7838SOL    HW124413   3.930   4.861   0.890
 7838SOL    HW224414   4.027   4.800   0.773
 7839SOL     OW24415   5.751   3.881   4.205
 7839SOL    HW124416   5.760   3.854   4.301
 7839SOL    HW224417   5.807   3.821   4.148
 7840SOL     OW24418   2.342   2.076   3.520
 7840SOL    HW124419   2.413   2.146   3.517
 7840SOL    HW224420   2.362   2.005   3.453
 7841SOL     OW24421   4.260   2.568   5.960
 7841SOL    HW124422   4.321   2.556   6.038
 7841SOL    HW224423   4.215   2.481   5.939
 7842SOL     OW24424   0.815   0.202   0.921
 7842SOL    HW124425   0.890   0.237   0.978
 7842SOL    HW224426   0.806   0.104   0.936
 7843SOL     OW24427   6.444   6.160   1.979
 7843SOL    HW124428   6.450   6.061   1.985
 7843SOL    HW224429   6.409   6.197   2.065
 7844SOL     OW24430   3.032   6.750   2.235
 7844SOL    HW124431   3.075   6.839   2.254
 7844SOL    HW224432   3.030   6.735   2.136
 7845SOL     OW24433   7.002   3.459   1.947
 7845SOL    HW124434   0.061   3.401   1.924
 7845SOL    HW224435   6.965   3.431   2.036
 7846SOL     OW24436   0.508   1.928   0.350
 7846SOL    HW124437   0.504   1.951   0.448
 7846SOL    HW224438   0.551   1.839   0.339
 7847SOL     OW24439   5.582   3.763   5.726
 7847SOL    HW124440   5.563   3.825   5.650
 7847SOL    HW224441   5.650   3.805   5.786
 7848SOL     OW24442   5.178   5.216   0.250
 7848SOL    HW124443   5.177   5.136   0.191
 7848SOL    HW224444   5.193   5.188   0.345
 7849SOL     OW24445   4.886   5.362   6.455
 7849SOL    HW124446   4.879   5.262   6.449
 7849SOL    HW224447   4.978   5.391   6.430
 7850SOL     OW24448   7.008   0.908   3.408
 7850SOL    HW124449   0.031   0.936   3.494
 7850SOL    HW224450   6.991   0.810   3.410
 7851SOL     OW24451   1.028   3.863   0.439
 7851SOL    HW124452   1.091   3.796   0.401
 7851SOL    HW224453   1.063   3.955   0.420
 7852SOL     OW24454   1.672   3.465   5.550
 7852SOL    HW124455   1.718   3.502   5.631
 7852SOL    HW224456   1.714   3.378   5.524
 7853SOL     OW24457   4.416   3.173   1.686
 7853SOL    HW124458   4.484   3.104   1.710
 7853SOL    HW224459   4.330   3.152   1.733
 7854SOL     OW24460   3.992   1.174   1.416
 7854SOL    HW124461   3.983   1.232   1.497
 7854SOL    HW224462   3.940   1.090   1.428
 7855SOL     OW24463   4.948   6.023   3.398
 7855SOL    HW124464   4.923   5.960   3.324
 7855SOL    HW224465   4.986   6.106   3.360
 7856SOL     OW24466   2.036   6.249   6.607
 7856SOL    HW124467   2.002   6.270   6.515
 7856SOL    HW224468   2.067   6.154   6.610
 7857SOL     OW24469   0.027   4.756   0.293
 7857SOL    HW124470   7.017   4.673   0.245
 7857SOL    HW224471   6.980   4.779   0.364
 7858SOL     OW24472   0.297   4.205   6.511
 7858SOL    HW124473   0.286   4.151   6.428
 7858SOL    HW224474   0.303   4.302   6.487
 7859SOL     OW24475   4.714   2.576   1.665
 7859SOL    HW124476   4.732   2.627   1.749
 7859SOL    HW224477   4.734   2.479   1.679
 7860SOL     OW24478   2.873   1.850   3.105
 7860SOL    HW124479   2.837   1.887   3.191
 7860SOL    HW224480   2.887   1.925   3.040
 7861SOL     OW24481   1.790   5.742   0.487
 7861SOL    HW124482   1.880   5.767   0.453
 7861SOL    HW224483   1.719   5.789   0.433
 7862SOL     OW24484   0.731   0.300   6.689
 7862SOL    HW124485   0.690   0.391   6.678
 7862SOL    HW224486   0.697   0.258   6.773
 7863SOL     OW24487   0.776   4.988   3.815
 7863SOL    HW124488   0.710   4.951   3.880
 7863SOL    HW224489   0.736   4.988   3.723
 7864SOL     OW24490   3.037   5.786   4.968
 7864SOL    HW124491   2.944   5.818   4.949
 7864SOL    HW224492   3.033   5.703   5.024
 7865SOL     OW24493   6.564   5.668   3.804
 7865SOL    HW124494   6.585   5.585   3.857
 7865SOL    HW224495   6.466   5.671   3.784
 7866SOL     OW24496   1.117   1.131   5.386
 7866SOL    HW124497   1.066   1.073   5.322
 7866SOL    HW224498   1.056   1.161   5.459
 7867SOL     OW24499   4.588   6.152   2.508
 7867SOL    HW124500   4.541   6.081   2.561
 7867SOL    HW224501   4.588   6.128   2.412
 7868SOL     OW24502   4.322   6.196   1.350
 7868SOL    HW124503   4.252   6.218   1.419
 7868SOL    HW224504   4.282   6.137   1.280
 7869SOL     OW24505   5.757   5.034   0.253
 7869SOL    HW124506   5.668   5.048   0.210
 7869SOL    HW224507   5.751   5.059   0.350
 7870SOL     OW24508   6.907   0.639   3.316
 7870SOL    HW124509   6.880   0.609   3.225
 7870SOL    HW224510   6.976   0.577   3.353
 7871SOL     OW24511   4.964   0.562   0.654
 7871SOL    HW124512   4.967   0.531   0.559
 7871SOL    HW224513   4.958   0.662   0.656
 7872SOL     OW24514   6.895   5.438   3.946
 7872SOL    HW124515   6.922   5.349   3.909
 7872SOL    HW224516   6.817   5.474   3.895
 7873SOL     OW24517   4.989   2.261   6.620
 7873SOL    HW124518   4.895   2.296   6.631
 7873SOL    HW224519   5.033   2.309   6.544
 7874SOL     OW24520   6.084   2.170   0.811
 7874SOL    HW124521   6.025   2.217   0.746
 7874SOL    HW224522   6.180   2.190   0.790
 7875SOL     OW24523   6.542   4.928   0.063
 7875SOL    HW124524   6.508   4.860   0.127
 7875SOL    HW224525   6.471   4.995   0.042
 7876SOL     OW24526   1.138   6.740   2.460
 7876SOL    HW124527   1.048   6.731   2.504
 7876SOL    HW224528   1.166   6.836   2.459
 7877SOL     OW24529   0.921   3.276   2.025
 7877SOL    HW124530   0.975   3.198   1.994
 7877SOL    HW224531   0.951   3.359   1.977
 7878SOL     OW24532   3.965   0.519   2.354
 7878SOL    HW124533   3.993   0.592   2.416
 7878SOL    HW224534   3.901   0.458   2.401
 7879SOL     OW24535   2.743   5.833   1.721
 7879SOL    HW124536   2.691   5.918   1.715
 7879SOL    HW224537   2.714   5.782   1.802
 7880SOL     OW24538   1.601   5.012   2.806
 7880SOL    HW124539   1.641   4.994   2.896
 7880SOL    HW224540   1.671   5.048   2.744
 7881SOL     OW24541   4.704   2.740   2.952
 7881SOL    HW124542   4.683   2.648   2.920
 7881SOL    HW224543   4.705   2.742   3.052
 7882SOL     OW24544   6.879   2.820   6.979
 7882SOL    HW124545   6.847   2.732   6.943
 7882SOL    HW224546   6.979   2.825   6.973
 7883SOL     OW24547   0.151   0.266   4.816
 7883SOL    HW124548   0.230   0.208   4.800
 7883SOL    HW224549   0.180   0.362   4.821
 7884SOL     OW24550   1.402   2.772   4.026
 7884SOL    HW124551   1.332   2.712   3.987
 7884SOL    HW224552   1.493   2.741   3.998
 7885SOL     OW24553   6.531   6.143   0.206
 7885SOL    HW124554   6.487   6.088   0.135
 7885SOL    HW224555   6.615   6.098   0.236
 7886SOL     OW24556   4.669   3.167   0.209
 7886SOL    HW124557   4.659   3.265   0.192
 7886SOL    HW224558   4.613   3.141   0.287
 7887SOL     OW24559   4.533   1.964   6.364
 7887SOL    HW124560   4.445   2.008   6.381
 7887SOL    HW224561   4.596   1.985   6.440
 7888SOL     OW24562   4.336   5.960   4.305
 7888SOL    HW124563   4.336   5.988   4.209
 7888SOL    HW224564   4.298   6.033   4.361
 7889SOL     OW24565   6.469   4.492   3.361
 7889SOL    HW124566   6.529   4.552   3.308
 7889SOL    HW224567   6.413   4.547   3.423
 7890SOL     OW24568   2.135   4.102   3.208
 7890SOL    HW124569   2.149   4.046   3.126
 7890SOL    HW224570   2.074   4.054   3.271
 7891SOL     OW24571   0.187   4.188   2.857
 7891SOL    HW124572   0.175   4.274   2.907
 7891SOL    HW224573   0.104   4.169   2.804
 7892SOL     OW24574   2.302   2.582   4.430
 7892SOL    HW124575   2.272   2.497   4.473
 7892SOL    HW224576   2.359   2.634   4.494
 7893SOL     OW24577   5.134   6.154   1.488
 7893SOL    HW124578   5.220   6.103   1.480
 7893SOL    HW224579   5.105   6.153   1.584
 7894SOL     OW24580   2.861   0.137   0.903
 7894SOL    HW124581   2.835   0.057   0.957
 7894SOL    HW224582   2.935   0.185   0.949
 7895SOL     OW24583   0.937   1.842   4.677
 7895SOL    HW124584   0.947   1.940   4.662
 7895SOL    HW224585   0.871   1.804   4.612
 7896SOL     OW24586   3.712   1.932   0.003
 7896SOL    HW124587   3.787   1.904   6.964
 7896SOL    HW224588   3.720   2.030   0.023
 7897SOL     OW24589   3.393   3.701   0.611
 7897SOL    HW124590   3.312   3.681   0.666
 7897SOL    HW224591   3.443   3.777   0.652
 7898SOL     OW24592   5.302   1.006   4.497
 7898SOL    HW124593   5.350   0.978   4.581
 7898SOL    HW224594   5.267   0.925   4.451
 7899SOL     OW24595   4.458   0.618   1.640
 7899SOL    HW124596   4.376   0.672   1.656
 7899SOL    HW224597   4.536   0.680   1.625
 7900SOL     OW24598   0.252   5.708   1.293
 7900SOL    HW124599   0.153   5.696   1.284
 7900SOL    HW224600   0.274   5.738   1.385
 7901SOL     OW24601   5.672   4.924   1.097
 7901SOL    HW124602   5.760   4.971   1.085
 7901SOL    HW224603   5.630   4.909   1.008
 7902SOL     OW24604   4.548   5.061   6.394
 7902SOL    HW124605   4.470   5.117   6.369
 7902SOL    HW224606   4.525   4.964   6.384
 7903SOL     OW24607   1.101   2.417   1.988
 7903SOL    HW124608   1.121   2.502   1.938
 7903SOL    HW224609   1.080   2.344   1.922
 7904SOL     OW24610   5.353   1.621   3.403
 7904SOL    HW124611   5.355   1.609   3.304
 7904SOL    HW224612   5.446   1.619   3.439
 7905SOL     OW24613   2.474   2.282   1.581
 7905SOL    HW124614   2.504   2.222   1.507
 7905SOL    HW224615   2.469   2.230   1.666
 7906SOL     OW24616   1.372   4.178   6.878
 7906SOL    HW124617   1.278   4.163   6.849
 7906SOL    HW224618   1.379   4.161   6.977
 7907SOL     OW24619   0.587   2.648   3.335
 7907SOL    HW124620   0.634   2.737   3.334
 7907SOL    HW224621   0.651   2.577   3.307
 7908SOL     OW24622   0.752   1.049   3.458
 7908SOL    HW124623   0.712   0.981   3.396
 7908SOL    HW224624   0.704   1.046   3.546
 7909SOL     OW24625   3.927   5.713   5.116
 7909SOL    HW124626   3.859   5.748   5.052
 7909SOL    HW224627   3.884   5.648   5.178
 7910SOL     OW24628   6.085   3.085   5.946
 7910SOL    HW124629   6.179   3.085   5.913
 7910SOL    HW224630   6.066   3.000   5.996
 7911SOL     OW24631   6.582   6.137   6.511
 7911SOL    HW124632   6.498   6.089   6.487
 7911SOL    HW224633   6.615   6.106   6.600
 7912SOL     OW24634   6.589   5.518   5.124
 7912SOL    HW124635   6.639   5.446   5.076
 7912SOL    HW224636   6.566   5.591   5.059
 7913SOL     OW24637   1.599   5.964   6.837
 7913SOL    HW124638   1.696   5.963   6.813
 7913SOL    HW224639   1.572   6.056   6.863
 7914SOL     OW24640   6.129   4.067   0.661
 7914SOL    HW124641   6.216   4.110   0.637
 7914SOL    HW224642   6.099   4.009   0.585
 7915SOL     OW24643   2.904   1.583   2.998
 7915SOL    HW124644   2.830   1.542   2.945
 7915SOL    HW224645   2.871   1.666   3.043
 7916SOL     OW24646   3.712   3.431   4.889
 7916SOL    HW124647   3.743   3.521   4.921
 7916SOL    HW224648   3.742   3.361   4.953
 7917SOL     OW24649   3.610   4.107   3.590
 7917SOL    HW124650   3.689   4.085   3.646
 7917SOL    HW224651   3.529   4.063   3.628
 7918SOL     OW24652   6.421   1.730   1.631
 7918SOL    HW124653   6.367   1.786   1.567
 7918SOL    HW224654   6.387   1.744   1.724
 7919SOL     OW24655   5.402   3.484   2.609
 7919SOL    HW124656   5.432   3.498   2.703
 7919SOL    HW224657   5.302   3.487   2.606
 7920SOL     OW24658   6.745   6.579   0.458
 7920SOL    HW124659   6.680   6.635   0.509
 7920SOL    HW224660   6.704   6.489   0.439
 7921SOL     OW24661   3.385   5.136   1.860
 7921SOL    HW124662   3.324   5.086   1.921
 7921SOL    HW224663   3.478   5.101   1.870
 7922SOL     OW24664   1.346   3.869   4.513
 7922SOL    HW124665   1.324   3.773   4.496
 7922SOL    HW224666   1.446   3.880   4.515
 7923SOL     OW24667   1.739   3.117   2.219
 7923SOL    HW124668   1.805   3.101   2.146
 7923SOL    HW224669   1.774   3.187   2.281
 7924SOL     OW24670   2.427   1.983   3.755
 7924SOL    HW124671   2.387   2.032   3.678
 7924SOL    HW224672   2.520   1.954   3.731
 7925SOL     OW24673   1.204   1.654   0.184
 7925SOL    HW124674   1.161   1.586   0.126
 7925SOL    HW224675   1.288   1.617   0.224
 7926SOL     OW24676   3.291   0.811   1.723
 7926SOL    HW124677   3.248   0.895   1.756
 7926SOL    HW224678   3.220   0.745   1.697
 7927SOL     OW24679   4.534   4.750   4.459
 7927SOL    HW124680   4.523   4.652   4.474
 7927SOL    HW224681   4.464   4.782   4.395
 7928SOL     OW24682   0.593   3.875   1.225
 7928SOL    HW124683   0.574   3.908   1.132
 7928SOL    HW224684   0.692   3.860   1.235
 7929SOL     OW24685   3.797   4.068   4.948
 7929SOL    HW124686   3.843   4.087   4.861
 7929SOL    HW224687   3.866   4.050   5.018
 7930SOL     OW24688   3.496   6.952   1.913
 7930SOL    HW124689   3.450   6.914   1.993
 7930SOL    HW224690   3.536   0.021   1.937
 7931SOL     OW24691   2.259   2.705   5.577
 7931SOL    HW124692   2.233   2.785   5.523
 7931SOL    HW224693   2.211   2.624   5.541
 7932SOL     OW24694   3.098   1.761   0.972
 7932SOL    HW124695   3.196   1.743   0.978
 7932SOL    HW224696   3.067   1.747   0.878
 7933SOL     OW24697   1.817   0.911   6.207
 7933SOL    HW124698   1.757   0.836   6.178
 7933SOL    HW224699   1.905   0.903   6.160
 7934SOL     OW24700   4.378   2.464   5.719
 7934SOL    HW124701   4.328   2.377   5.719
 7934SOL    HW224702   4.327   2.532   5.773
 7935SOL     OW24703   4.446   5.184   2.620
 7935SOL    HW124704   4.399   5.137   2.546
 7935SOL    HW224705   4.393   5.265   2.648
 7936SOL     OW24706   4.378   5.936   1.710
 7936SOL    HW124707   4.290   5.906   1.673
 7936SOL    HW224708   4.386   5.905   1.805
 7937SOL     OW24709   5.737   1.882   6.400
 7937SOL    HW124710   5.821   1.934   6.415
 7937SOL    HW224711   5.757   1.801   6.345
 7938SOL     OW24712   6.223   4.520   4.412
 7938SOL    HW124713   6.247   4.617   4.409
 7938SOL    HW224714   6.203   4.488   4.320
 7939SOL     OW24715   6.150   5.823   3.898
 7939SOL    HW124716   6.133   5.918   3.872
 7939SOL    HW224717   6.068   5.786   3.942
 7940SOL     OW24718   1.961   5.946   0.256
 7940SOL    HW124719   1.991   5.867   0.310
 7940SOL    HW224720   1.962   6.028   0.313
 7941SOL     OW24721   1.041   0.508   1.253
 7941SOL    HW124722   1.137   0.482   1.258
 7941SOL    HW224723   1.022   0.551   1.165
 7942SOL     OW24724   0.543   6.427   1.216
 7942SOL    HW124725   0.468   6.488   1.193
 7942SOL    HW224726   0.590   6.399   1.132
 7943SOL     OW24727   6.050   2.383   6.057
 7943SOL    HW124728   6.033   2.435   5.974
 7943SOL    HW224729   6.144   2.347   6.055
 7944SOL     OW24730   6.319   3.837   1.794
 7944SOL    HW124731   6.301   3.844   1.892
 7944SOL    HW224732   6.415   3.816   1.779
 7945SOL     OW24733   5.992   6.295   0.143
 7945SOL    HW124734   6.001   6.213   0.200
 7945SOL    HW224735   5.905   6.293   0.095
 7946SOL     OW24736   1.828   1.555   5.644
 7946SOL    HW124737   1.817   1.517   5.552
 7946SOL    HW224738   1.767   1.635   5.654
 7947SOL     OW24739   3.708   5.716   6.229
 7947SOL    HW124740   3.665   5.728   6.319
 7947SOL    HW224741   3.638   5.713   6.158
 7948SOL     OW24742   1.528   5.080   4.629
 7948SOL    HW124743   1.482   5.019   4.564
 7948SOL    HW224744   1.462   5.113   4.696
 7949SOL     OW24745   0.111   3.814   4.143
 7949SOL    HW124746   0.043   3.887   4.155
 7949SOL    HW224747   0.154   3.794   4.231
 7950SOL     OW24748   2.765   5.880   3.263
 7950SOL    HW124749   2.791   5.823   3.184
 7950SOL    HW224750   2.707   5.826   3.324
 7951SOL     OW24751   2.416   3.301   0.931
 7951SOL    HW124752   2.467   3.231   0.981
 7951SOL    HW224753   2.448   3.303   0.836
 7952SOL     OW24754   6.406   3.547   0.566
 7952SOL    HW124755   6.424   3.497   0.650
 7952SOL    HW224756   6.488   3.595   0.536
 7953SOL     OW24757   2.012   4.340   1.644
 7953SOL    HW124758   1.918   4.326   1.677
 7953SOL    HW224759   2.071   4.363   1.721
 7954SOL     OW24760   6.033   5.524   4.121
 7954SOL    HW124761   5.994   5.486   4.037
 7954SOL    HW224762   6.011   5.621   4.128
 7955SOL     OW24763   1.669   6.210   6.656
 7955SOL    HW124764   1.747   6.270   6.642
 7955SOL    HW224765   1.701   6.118   6.679
 7956SOL     OW24766   5.239   5.996   3.460
 7956SOL    HW124767   5.219   5.921   3.397
 7956SOL    HW224768   5.220   5.967   3.554
 7957SOL     OW24769   1.412   3.025   1.341
 7957SOL    HW124770   1.366   2.944   1.304
 7957SOL    HW224771   1.346   3.100   1.349
 7958SOL     OW24772   2.137   6.084   3.313
 7958SOL    HW124773   2.088   6.136   3.243
 7958SOL    HW224774   2.073   6.053   3.382
 7959SOL     OW24775   4.424   4.570   1.043
 7959SOL    HW124776   4.324   4.574   1.038
 7959SOL    HW224777   4.451   4.537   1.133
 7960SOL     OW24778   1.692   2.259   1.251
 7960SOL    HW124779   1.684   2.199   1.331
 7960SOL    HW224780   1.656   2.350   1.275
 7961SOL     OW24781   1.454   6.293   0.099
 7961SOL    HW124782   1.423   6.382   0.133
 7961SOL    HW224783   1.482   6.236   0.177
 7962SOL     OW24784   1.713   6.852   2.511
 7962SOL    HW124785   1.712   6.943   2.469
 7962SOL    HW224786   1.640   6.797   2.472
 7963SOL     OW24787   0.142   5.951   6.361
 7963SOL    HW124788   0.126   6.040   6.317
 7963SOL    HW224789   0.233   5.919   6.338
 7964SOL     OW24790   6.265   5.368   3.801
 7964SOL    HW124791   6.325   5.304   3.755
 7964SOL    HW224792   6.250   5.338   3.896
 7965SOL     OW24793   3.990   1.869   1.061
 7965SOL    HW124794   4.070   1.820   1.027
 7965SOL    HW224795   3.964   1.831   1.150
 7966SOL     OW24796   0.165   1.752   4.431
 7966SOL    HW124797   0.250   1.799   4.452
 7966SOL    HW224798   0.134   1.778   4.339
 7967SOL     OW24799   1.806   0.390   4.328
 7967SOL    HW124800   1.766   0.449   4.257
 7967SOL    HW224801   1.896   0.358   4.298
 7968SOL     OW24802   2.185   1.258   6.786
 7968SOL    HW124803   2.239   1.333   6.747
 7968SOL    HW224804   2.186   1.264   6.886
 7969SOL     OW24805   4.144   2.127   3.348
 7969SOL    HW124806   4.080   2.059   3.385
 7969SOL    HW224807   4.212   2.150   3.418
 7970SOL     OW24808   0.820   4.915   2.941
 7970SOL    HW124809   0.829   5.014   2.951
 7970SOL    HW224810   0.751   4.881   3.004
 7971SOL     OW24811   3.918   2.061   3.117
 7971SOL    HW124812   3.856   1.982   3.111
 7971SOL    HW224813   3.919   2.096   3.211
 7972SOL     OW24814   5.334   5.650   0.963
 7972SOL    HW124815   5.311   5.592   1.041
 7972SOL    HW224816   5.393   5.725   0.992
 7973SOL     OW24817   6.009   1.986   2.803
 7973SOL    HW124818   6.038   2.073   2.764
 7973SOL    HW224819   5.928   2.000   2.860
 7974SOL     OW24820   4.571   6.341   4.620
 7974SOL    HW124821   4.534   6.248   4.616
 7974SOL    HW224822   4.662   6.342   4.578
 7975SOL     OW24823   1.989   1.541   2.129
 7975SOL    HW124824   2.024   1.557   2.037
 7975SOL    HW224825   1.922   1.467   2.126
 7976SOL     OW24826   0.178   6.192   6.260
 7976SOL    HW124827   0.112   6.225   6.193
 7976SOL    HW224828   0.210   6.268   6.316
 7977SOL     OW24829   5.265   6.182   1.116
 7977SOL    HW124830   5.286   6.276   1.143
 7977SOL    HW224831   5.168   6.176   1.092
 7978SOL     OW24832   2.955   1.657   6.194
 7978SOL    HW124833   2.982   1.732   6.135
 7978SOL    HW224834   2.873   1.613   6.157
 7979SOL     OW24835   5.008   5.578   3.990
 7979SOL    HW124836   4.911   5.601   3.994
 7979SOL    HW224837   5.023   5.489   4.033
 7980SOL     OW24838   2.778   1.078   1.267
 7980SOL    HW124839   2.697   1.078   1.209
 7980SOL    HW224840   2.843   1.009   1.234
 7981SOL     OW24841   0.074   5.899   2.486
 7981SOL    HW124842   0.128   5.926   2.565
 7981SOL    HW224843   0.134   5.861   2.416
 7982SOL     OW24844   0.524   2.800   1.319
 7982SOL    HW124845   0.512   2.753   1.231
 7982SOL    HW224846   0.591   2.751   1.374
 7983SOL     OW24847   5.449   2.125   0.903
 7983SOL    HW124848   5.531   2.163   0.947
 7983SOL    HW224849   5.371   2.183   0.924
 7984SOL     OW24850   6.016   1.019   0.038
 7984SOL    HW124851   5.962   1.103   0.041
 7984SOL    HW224852   5.962   0.943   0.075
 7985SOL     OW24853   0.799   1.509   0.817
 7985SOL    HW124854   0.800   1.597   0.770
 7985SOL    HW224855   0.725   1.452   0.780
 7986SOL     OW24856   4.985   3.614   0.929
 7986SOL    HW124857   4.981   3.713   0.917
 7986SOL    HW224858   4.994   3.569   0.840
 7987SOL     OW24859   1.180   3.829   5.389
 7987SOL    HW124860   1.277   3.837   5.412
 7987SOL    HW224861   1.153   3.908   5.334
 7988SOL     OW24862   2.362   1.166   5.249
 7988SOL    HW124863   2.446   1.211   5.218
 7988SOL    HW224864   2.296   1.235   5.279
 7989SOL     OW24865   2.985   3.603   0.133
 7989SOL    HW124866   2.948   3.609   0.040
 7989SOL    HW224867   3.020   3.511   0.149
 7990SOL     OW24868   2.376   2.701   4.658
 7990SOL    HW124869   2.400   2.669   4.750
 7990SOL    HW224870   2.304   2.770   4.664
 7991SOL     OW24871   2.424   3.178   6.119
 7991SOL    HW124872   2.404   3.276   6.130
 7991SOL    HW224873   2.352   3.135   6.065
 7992SOL     OW24874   3.023   1.189   0.155
 7992SOL    HW124875   3.009   1.264   0.090
 7992SOL    HW224876   3.072   1.222   0.235
 7993SOL     OW24877   3.472   5.874   6.292
 7993SOL    HW124878   3.428   5.909   6.375
 7993SOL    HW224879   3.511   5.950   6.240
 7994SOL     OW24880   5.434   0.296   4.838
 7994SOL    HW124881   5.522   0.265   4.803
 7994SOL    HW224882   5.447   0.372   4.901
 7995SOL     OW24883   4.198   5.051   2.180
 7995SOL    HW124884   4.141   5.129   2.208
 7995SOL    HW224885   4.207   5.051   2.081
 7996SOL     OW24886   4.325   1.954   5.587
 7996SOL    HW124887   4.389   2.018   5.546
 7996SOL    HW224888   4.372   1.899   5.656
 7997SOL     OW24889   5.313   3.365   0.819
 7997SOL    HW124890   5.258   3.293   0.862
 7997SOL    HW224891   5.312   3.447   0.877
 7998SOL     OW24892   6.933   5.697   6.491
 7998SOL    HW124893   6.862   5.680   6.422
 7998SOL    HW224894   6.898   5.671   6.582
 7999SOL     OW24895   3.098   2.322   6.220
 7999SOL    HW124896   3.089   2.276   6.132
 7999SOL    HW224897   3.164   2.273   6.277
 8000SOL     OW24898   5.233   0.802   5.512
 8000SOL    HW124899   5.140   0.797   5.477
 8000SOL    HW224900   5.279   0.714   5.499
 8001SOL     OW24901   2.890   4.983   1.356
 8001SOL    HW124902   2.928   5.076   1.351
 8001SOL    HW224903   2.964   4.916   1.350
 8002SOL     OW24904   4.265   2.218   5.729
 8002SOL    HW124905   4.313   2.130   5.726
 8002SOL    HW224906   4.204   2.220   5.808
 8003SOL     OW24907   4.988   5.375   3.039
 8003SOL    HW124908   4.921   5.440   3.075
 8003SOL    HW224909   4.958   5.281   3.060
 8004SOL     OW24910   1.554   4.836   3.697
 8004SOL    HW124911   1.498   4.915   3.672
 8004SOL    HW224912   1.644   4.867   3.725
 8005SOL     OW24913   2.618   1.128   2.641
 8005SOL    HW124914   2.570   1.195   2.586
 8005SOL    HW224915   2.647   1.051   2.584
 8006SOL     OW24916   4.775   5.668   2.743
 8006SOL    HW124917   4.803   5.689   2.837
 8006SOL    HW224918   4.854   5.676   2.682
 8007SOL     OW24919   0.638   1.409   3.692
 8007SOL    HW124920   0.594   1.389   3.604
 8007SOL    HW224921   0.570   1.403   3.765
 8008SOL     OW24922   6.488   4.674   1.041
 8008SOL    HW124923   6.532   4.653   0.953
 8008SOL    HW224924   6.440   4.593   1.074
 8009SOL     OW24925   6.800   6.317   3.272
 8009SOL    HW124926   6.738   6.391   3.246
 8009SOL    HW224927   6.827   6.266   3.191
 8010SOL     OW24928   2.104   1.906   6.806
 8010SOL    HW124929   2.137   1.970   6.875
 8010SOL    HW224930   2.181   1.856   6.767
 8011SOL     OW24931   1.642   3.290   0.159
 8011SOL    HW124932   1.735   3.318   0.136
 8011SOL    HW224933   1.599   3.248   0.080
 8012SOL     OW24934   1.945   5.954   3.512
 8012SOL    HW124935   1.923   5.923   3.420
 8012SOL    HW224936   1.861   5.961   3.566
 8013SOL     OW24937   6.618   5.791   4.138
 8013SOL    HW124938   6.691   5.856   4.158
 8013SOL    HW224939   6.551   5.833   4.077
 8014SOL     OW24940   2.216   0.283   6.265
 8014SOL    HW124941   2.148   0.211   6.281
 8014SOL    HW224942   2.299   0.241   6.229
 8015SOL     OW24943   1.838   1.176   0.733
 8015SOL    HW124944   1.909   1.135   0.790
 8015SOL    HW224945   1.874   1.192   0.641
 8016SOL     OW24946   4.806   5.175   1.853
 8016SOL    HW124947   4.829   5.196   1.758
 8016SOL    HW224948   4.730   5.234   1.883
 8017SOL     OW24949   6.615   3.905   4.799
 8017SOL    HW124950   6.553   3.976   4.831
 8017SOL    HW224951   6.563   3.828   4.764
 8018SOL     OW24952   4.989   3.258   3.487
 8018SOL    HW124953   5.000   3.260   3.388
 8018SOL    HW224954   4.919   3.192   3.512
 8019SOL     OW24955   3.601   5.419   1.031
 8019SOL    HW124956   3.574   5.394   0.938
 8019SOL    HW224957   3.551   5.501   1.058
 8020SOL     OW24958   5.315   6.520   6.907
 8020SOL    HW124959   5.366   6.555   6.986
 8020SOL    HW224960   5.217   6.531   6.924
 8021SOL     OW24961   6.503   1.051   2.128
 8021SOL    HW124962   6.529   0.971   2.181
 8021SOL    HW224963   6.531   1.134   2.177
 8022SOL     OW24964   5.869   4.672   4.379
 8022SOL    HW124965   5.795   4.687   4.314
 8022SOL    HW224966   5.937   4.610   4.338
 8023SOL     OW24967   0.226   5.306   3.604
 8023SOL    HW124968   0.263   5.298   3.697
 8023SOL    HW224969   0.233   5.401   3.573
 8024SOL     OW24970   4.446   5.833   3.913
 8024SOL    HW124971   4.472   5.822   3.817
 8024SOL    HW224972   4.461   5.747   3.961
 8025SOL     OW24973   2.425   6.161   0.026
 8025SOL    HW124974   2.338   6.136   0.069
 8025SOL    HW224975   2.409   6.186   6.951
 8026SOL     OW24976   2.967   1.776   6.839
 8026SOL    HW124977   3.010   1.697   6.883
 8026SOL    HW224978   2.982   1.858   6.894
 8027SOL     OW24979   4.179   3.596   5.734
 8027SOL    HW124980   4.087   3.610   5.769
 8027SOL    HW224981   4.198   3.498   5.728
 8028SOL     OW24982   6.358   4.924   0.924
 8028SOL    HW124983   6.413   4.844   0.947
 8028SOL    HW224984   6.298   4.903   0.847
 8029SOL     OW24985   3.428   4.339   5.955
 8029SOL    HW124986   3.357   4.407   5.935
 8029SOL    HW224987   3.496   4.340   5.881
 8030SOL     OW24988   0.315   3.605   2.121
 8030SOL    HW124989   0.364   3.521   2.141
 8030SOL    HW224990   0.327   3.629   2.025
 8031SOL     OW24991   3.890   6.274   0.220
 8031SOL    HW124992   3.840   6.330   0.285
 8031SOL    HW224993   3.917   6.188   0.264
 8032SOL     OW24994   4.567   3.409   5.323
 8032SOL    HW124995   4.587   3.436   5.417
 8032SOL    HW224996   4.610   3.473   5.260
 8033SOL     OW24997   5.959   1.180   2.410
 8033SOL    HW124998   5.918   1.135   2.331
 8033SOL    HW224999   5.897   1.250   2.446
 8034SOL     OW25000   6.361   2.875   5.670
 8034SOL    HW125001   6.298   2.822   5.727
 8034SOL    HW225002   6.449   2.828   5.664
 8035SOL     OW25003   5.921   5.880   6.062
 8035SOL    HW125004   5.883   5.948   5.999
 8035SOL    HW225005   5.942   5.796   6.013
 8036SOL     OW25006   1.471   3.612   1.726
 8036SOL    HW125007   1.440   3.523   1.759
 8036SOL    HW225008   1.560   3.601   1.680
 8037SOL     OW25009   2.189   2.999   1.643
 8037SOL    HW125010   2.237   3.087   1.645
 8037SOL    HW225011   2.101   3.009   1.689
 8038SOL     OW25012   5.526   0.634   3.754
 8038SOL    HW125013   5.621   0.622   3.726
 8038SOL    HW225014   5.510   0.730   3.776
 8039SOL     OW25015   2.284   5.651   3.380
 8039SOL    HW125016   2.235   5.570   3.413
 8039SOL    HW225017   2.269   5.727   3.443
 8040SOL     OW25018   5.888   6.363   6.402
 8040SOL    HW125019   5.878   6.326   6.494
 8040SOL    HW225020   5.838   6.305   6.337
 8041SOL     OW25021   2.861   2.834   1.034
 8041SOL    HW125022   2.817   2.790   1.112
 8041SOL    HW225023   2.806   2.912   1.003
 8042SOL     OW25024   1.668   4.708   0.002
 8042SOL    HW125025   1.731   4.636   6.992
 8042SOL    HW225026   1.574   4.673   7.019
 8043SOL     OW25027   3.234   0.810   1.121
 8043SOL    HW125028   3.244   0.731   1.181
 8043SOL    HW225029   3.153   0.863   1.147
 8044SOL     OW25030   3.055   2.800   1.653
 8044SOL    HW125031   3.068   2.787   1.555
 8044SOL    HW225032   3.142   2.783   1.700
 8045SOL     OW25033   5.325   2.859   3.995
 8045SOL    HW125034   5.240   2.835   3.947
 8045SOL    HW225035   5.395   2.881   3.927
 8046SOL     OW25036   6.299   5.494   4.986
 8046SOL    HW125037   6.316   5.496   4.887
 8046SOL    HW225038   6.245   5.413   5.009
 8047SOL     OW25039   3.097   6.828   4.131
 8047SOL    HW125040   3.101   6.912   4.185
 8047SOL    HW225041   3.169   6.765   4.160
 8048SOL     OW25042   5.290   0.526   5.460
 8048SOL    HW125043   5.322   0.440   5.498
 8048SOL    HW225044   5.216   0.509   5.395
 8049SOL     OW25045   2.436   6.320   6.291
 8049SOL    HW125046   2.443   6.230   6.333
 8049SOL    HW225047   2.340   6.348   6.288
 8050SOL     OW25048   0.578   3.710   1.998
 8050SOL    HW125049   0.620   3.622   2.021
 8050SOL    HW225050   0.633   3.755   1.927
 8051SOL     OW25051   2.412   2.383   4.269
 8051SOL    HW125052   2.507   2.406   4.251
 8051SOL    HW225053   2.368   2.459   4.319
 8052SOL     OW25054   4.323   1.018   3.134
 8052SOL    HW125055   4.264   0.951   3.089
 8052SOL    HW225056   4.268   1.073   3.197
 8053SOL     OW25057   4.768   3.739   1.422
 8053SOL    HW125058   4.832   3.691   1.361
 8053SOL    HW225059   4.683   3.758   1.373
 8054SOL     OW25060   4.821   6.380   4.543
 8054SOL    HW125061   4.819   6.330   4.457
 8054SOL    HW225062   4.883   6.458   4.535
 8055SOL     OW25063   1.379   6.984   5.056
 8055SOL    HW125064   1.373   6.890   5.089
 8055SOL    HW225065   1.312   6.998   4.983
 8056SOL     OW25066   4.680   1.162   2.848
 8056SOL    HW125067   4.586   1.131   2.858
 8056SOL    HW225068   4.732   1.139   2.931
 8057SOL     OW25069   3.533   0.094   3.594
 8057SOL    HW125070   3.501   0.019   3.536
 8057SOL    HW225071   3.552   0.174   3.537
 8058SOL     OW25072   1.970   0.582   2.924
 8058SOL    HW125073   2.016   0.668   2.946
 8058SOL    HW225074   1.949   0.533   3.009
 8059SOL     OW25075   1.653   1.399   4.045
 8059SOL    HW125076   1.636   1.300   4.053
 8059SOL    HW225077   1.751   1.417   4.057
 8060SOL     OW25078   0.997   2.883   5.260
 8060SOL    HW125079   0.994   2.971   5.211
 8060SOL    HW225080   0.904   2.855   5.285
 8061SOL     OW25081   5.091   6.560   3.108
 8061SOL    HW125082   5.079   6.592   3.202
 8061SOL    HW225083   5.098   6.638   3.046
 8062SOL     OW25084   1.644   1.669   1.099
 8062SOL    HW125085   1.637   1.603   1.174
 8062SOL    HW225086   1.558   1.671   1.048
 8063SOL     OW25087   2.984   2.204   5.904
 8063SOL    HW125088   2.909   2.185   5.841
 8063SOL    HW225089   3.070   2.210   5.853
 8064SOL     OW25090   5.373   2.062   6.138
 8064SOL    HW125091   5.400   2.014   6.222
 8064SOL    HW225092   5.367   2.160   6.155
 8065SOL     OW25093   4.293   0.464   6.562
 8065SOL    HW125094   4.390   0.439   6.558
 8065SOL    HW225095   4.278   0.520   6.644
 8066SOL     OW25096   0.512   0.388   1.781
 8066SOL    HW125097   0.533   0.317   1.714
 8066SOL    HW225098   0.597   0.416   1.827
 8067SOL     OW25099   4.519   1.819   2.753
 8067SOL    HW125100   4.548   1.740   2.699
 8067SOL    HW225101   4.444   1.866   2.706
 8068SOL     OW25102   6.816   4.168   3.191
 8068SOL    HW125103   6.859   4.122   3.114
 8068SOL    HW225104   6.738   4.221   3.158
 8069SOL     OW25105   6.967   5.685   2.371
 8069SOL    HW125106   7.014   5.773   2.365
 8069SOL    HW225107   6.879   5.691   2.324
 8070SOL     OW25108   3.966   0.757   2.749
 8070SOL    HW125109   4.009   0.800   2.670
 8070SOL    HW225110   3.982   0.659   2.747
 8071SOL     OW25111   6.000   4.729   0.072
 8071SOL    HW125112   5.905   4.718   0.042
 8071SOL    HW225113   6.061   4.707   7.016
 8072SOL     OW25114   3.695   0.288   3.373
 8072SOL    HW125115   3.755   0.369   3.379
 8072SOL    HW225116   3.667   0.275   3.278
 8073SOL     OW25117   5.337   0.426   6.454
 8073SOL    HW125118   5.369   0.445   6.361
 8073SOL    HW225119   5.250   0.378   6.450
 8074SOL     OW25120   3.041   4.598   0.156
 8074SOL    HW125121   3.056   4.500   0.155
 8074SOL    HW225122   3.123   4.645   0.189
 8075SOL     OW25123   6.675   1.620   3.921
 8075SOL    HW125124   6.606   1.556   3.956
 8075SOL    HW225125   6.755   1.619   3.982
 8076SOL     OW25126   4.769   2.408   6.778
 8076SOL    HW125127   4.690   2.367   6.732
 8076SOL    HW225128   4.760   2.508   6.777
 8077SOL     OW25129   0.573   0.525   6.668
 8077SOL    HW125130   0.609   0.616   6.648
 8077SOL    HW225131   0.486   0.534   6.718
 8078SOL     OW25132   6.509   4.119   1.110
 8078SOL    HW125133   6.445   4.066   1.166
 8078SOL    HW225134   6.588   4.062   1.086
 8079SOL     OW25135   1.459   2.934   0.367
 8079SOL    HW125136   1.501   2.972   0.285
 8079SOL    HW225137   1.511   2.855   0.399
 8080SOL     OW25138   3.529   4.871   0.000
 8080SOL    HW125139   3.520   4.916   6.931
 8080SOL    HW225140   3.439   4.864   0.043
 8081SOL     OW25141   5.230   2.322   4.408
 8081SOL    HW125142   5.295   2.301   4.482
 8081SOL    HW225143   5.265   2.400   4.355
 8082SOL     OW25144   6.987   3.635   5.260
 8082SOL    HW125145   6.915   3.702   5.243
 8082SOL    HW225146   7.012   3.592   5.173
 8083SOL     OW25147   6.685   1.795   5.026
 8083SOL    HW125148   6.618   1.730   4.991
 8083SOL    HW225149   6.689   1.874   4.965
 8084SOL     OW25150   5.854   0.265   6.623
 8084SOL    HW125151   5.937   0.302   6.580
 8084SOL    HW225152   5.775   0.283   6.563
 8085SOL     OW25153   5.204   2.496   1.770
 8085SOL    HW125154   5.178   2.557   1.695
 8085SOL    HW225155   5.274   2.539   1.827
 8086SOL     OW25156   3.358   4.864   6.481
 8086SOL    HW125157   3.419   4.787   6.462
 8086SOL    HW225158   3.308   4.846   6.566
 8087SOL     OW25159   1.926   3.891   1.066
 8087SOL    HW125160   1.969   3.807   1.034
 8087SOL    HW225161   1.878   3.936   0.991
 8088SOL     OW25162   4.959   0.855   3.125
 8088SOL    HW125163   4.893   0.780   3.125
 8088SOL    HW225164   5.023   0.843   3.202
 8089SOL     OW25165   6.908   2.413   0.304
 8089SOL    HW125166   6.827   2.468   0.321
 8089SOL    HW225167   6.989   2.462   0.336
 8090SOL     OW25168   5.477   1.354   4.793
 8090SOL    HW125169   5.400   1.377   4.853
 8090SOL    HW225170   5.504   1.435   4.742
 8091SOL     OW25171   1.830   3.530   4.871
 8091SOL    HW125172   1.780   3.443   4.870
 8091SOL    HW225173   1.928   3.511   4.874
 8092SOL     OW25174   6.070   2.299   4.057
 8092SOL    HW125175   6.068   2.258   3.966
 8092SOL    HW225176   6.156   2.275   4.103
 8093SOL     OW25177   6.142   4.859   0.770
 8093SOL    HW125178   6.090   4.895   0.693
 8093SOL    HW225179   6.186   4.773   0.743
 8094SOL     OW25180   0.708   3.368   4.265
 8094SOL    HW125181   0.642   3.386   4.192
 8094SOL    HW225182   0.775   3.300   4.232
 8095SOL     OW25183   6.375   3.373   5.194
 8095SOL    HW125184   6.350   3.442   5.261
 8095SOL    HW225185   6.345   3.283   5.226
 8096SOL     OW25186   4.037   0.131   0.977
 8096SOL    HW125187   4.062   0.111   0.883
 8096SOL    HW225188   3.996   0.050   1.019
 8097SOL     OW25189   5.388   2.034   3.691
 8097SOL    HW125190   5.462   2.029   3.625
 8097SOL    HW225191   5.334   1.949   3.687
 8098SOL     OW25192   2.366   2.393   4.005
 8098SOL    HW125193   2.267   2.404   3.992
 8098SOL    HW225194   2.386   2.389   4.103
 8099SOL     OW25195   4.069   0.113   4.179
 8099SOL    HW125196   4.058   0.100   4.081
 8099SOL    HW225197   4.138   0.050   4.215
 8100SOL     OW25198   6.078   6.287   1.497
 8100SOL    HW125199   6.084   6.192   1.526
 8100SOL    HW225200   6.156   6.338   1.534
 8101SOL     OW25201   1.489   4.785   2.571
 8101SOL    HW125202   1.454   4.877   2.588
 8101SOL    HW225203   1.538   4.783   2.485
 8102SOL     OW25204   6.586   0.391   5.284
 8102SOL    HW125205   6.547   0.481   5.268
 8102SOL    HW225206   6.684   0.392   5.264
 8103SOL     OW25207   2.827   2.303   2.515
 8103SOL    HW125208   2.908   2.283   2.459
 8103SOL    HW225209   2.752   2.329   2.455
 8104SOL     OW25210   2.545   0.326   5.740
 8104SOL    HW125211   2.543   0.348   5.837
 8104SOL    HW225212   2.594   0.240   5.726
 8105SOL     OW25213   2.514   2.571   2.567
 8105SOL    HW125214   2.600   2.561   2.617
 8105SOL    HW225215   2.456   2.638   2.613
 8106SOL     OW25216   0.233   4.458   6.624
 8106SOL    HW125217   0.273   4.375   6.663
 8106SOL    HW225218   0.296   4.535   6.635
 8107SOL     OW25219   0.598   4.860   6.534
 8107SOL    HW125220   0.638   4.886   6.622
 8107SOL    HW225221   0.642   4.777   6.500
 8108SOL     OW25222   1.812   2.086   6.352
 8108SOL    HW125223   1.814   1.994   6.314
 8108SOL    HW225224   1.859   2.087   6.440
 8109SOL     OW25225   0.156   5.637   5.038
 8109SOL    HW125226   0.080   5.675   4.986
 8109SOL    HW225227   0.121   5.580   5.112
 8110SOL     OW25228   0.977   5.042   0.355
 8110SOL    HW125229   0.929   5.107   0.414
 8110SOL    HW225230   1.062   5.084   0.322
 8111SOL     OW25231   3.396   6.464   4.640
 8111SOL    HW125232   3.494   6.464   4.658
 8111SOL    HW225233   3.370   6.551   4.598
 8112SOL     OW25234   4.044   1.753   4.256
 8112SOL    HW125235   3.968   1.802   4.215
 8112SOL    HW225236   4.096   1.816   4.314
 8113SOL     OW25237   3.185   2.126   6.412
 8113SOL    HW125238   3.264   2.091   6.463
 8113SOL    HW225239   3.137   2.193   6.467
 8114SOL     OW25240   2.821   3.619   1.583
 8114SOL    HW125241   2.783   3.535   1.543
 8114SOL    HW225242   2.748   3.684   1.601
 8115SOL     OW25243   4.138   2.965   1.428
 8115SOL    HW125244   4.172   2.918   1.346
 8115SOL    HW225245   4.189   2.932   1.508
 8116SOL     OW25246   5.886   1.884   5.766
 8116SOL    HW125247   5.827   1.804   5.760
 8116SOL    HW225248   5.843   1.954   5.823
 8117SOL     OW25249   3.121   2.843   5.220
 8117SOL    HW125250   3.052   2.792   5.271
 8117SOL    HW225251   3.211   2.802   5.234
 8118SOL     OW25252   1.218   2.153   4.268
 8118SOL    HW125253   1.225   2.208   4.351
 8118SOL    HW225254   1.196   2.058   4.293
 8119SOL     OW25255   1.298   0.225   2.155
 8119SOL    HW125256   1.268   0.141   2.110
 8119SOL    HW225257   1.245   0.239   2.239
 8120SOL     OW25258   4.782   4.190   1.975
 8120SOL    HW125259   4.773   4.093   1.954
 8120SOL    HW225260   4.692   4.231   1.987
 8121SOL     OW25261   6.665   6.202   3.734
 8121SOL    HW125262   6.706   6.291   3.752
 8121SOL    HW225263   6.673   6.181   3.637
 8122SOL     OW25264   0.607   4.765   1.430
 8122SOL    HW125265   0.610   4.751   1.529
 8122SOL    HW225266   0.564   4.853   1.410
 8123SOL     OW25267   1.431   4.969   5.913
 8123SOL    HW125268   1.428   5.069   5.913
 8123SOL    HW225269   1.357   4.933   5.971
 8124SOL     OW25270   1.447   5.890   2.136
 8124SOL    HW125271   1.348   5.894   2.145
 8124SOL    HW225272   1.472   5.888   2.039
 8125SOL     OW25273   4.598   4.964   3.484
 8125SOL    HW125274   4.620   5.056   3.515
 8125SOL    HW225275   4.535   4.968   3.407
 8126SOL     OW25276   0.236   4.362   2.029
 8126SOL    HW125277   0.270   4.268   2.042
 8126SOL    HW225278   0.288   4.424   2.087
 8127SOL     OW25279   4.585   5.301   0.353
 8127SOL    HW125280   4.619   5.370   0.290
 8127SOL    HW225281   4.511   5.250   0.309
 8128SOL     OW25282   3.805   2.334   5.508
 8128SOL    HW125283   3.711   2.332   5.542
 8128SOL    HW225284   3.818   2.414   5.450
 8129SOL     OW25285   5.150   5.211   6.306
 8129SOL    HW125286   5.126   5.251   6.218
 8129SOL    HW225287   5.071   5.162   6.344
 8130SOL     OW25288   0.858   0.049   6.207
 8130SOL    HW125289   0.777   0.025   6.152
 8130SOL    HW225290   0.829   0.103   6.286
 8131SOL     OW25291   2.716   1.750   1.478
 8131SOL    HW125292   2.686   1.656   1.494
 8131SOL    HW225293   2.638   1.812   1.492
 8132SOL     OW25294   5.898   4.464   3.544
 8132SOL    HW125295   5.922   4.510   3.458
 8132SOL    HW225296   5.801   4.441   3.543
 8133SOL     OW25297   0.122   5.301   2.516
 8133SOL    HW125298   0.065   5.226   2.549
 8133SOL    HW225299   0.119   5.376   2.581
 8134SOL     OW25300   3.650   3.242   1.543
 8134SOL    HW125301   3.733   3.270   1.494
 8134SOL    HW225302   3.570   3.274   1.493
 8135SOL     OW25303   4.428   5.863   2.482
 8135SOL    HW125304   4.405   5.913   2.565
 8135SOL    HW225305   4.344   5.830   2.439
 8136SOL     OW25306   2.208   5.429   1.285
 8136SOL    HW125307   2.156   5.358   1.237
 8136SOL    HW225308   2.304   5.426   1.255
 8137SOL     OW25309   3.558   4.440   5.716
 8137SOL    HW125310   3.565   4.539   5.701
 8137SOL    HW225311   3.491   4.401   5.653
 8138SOL     OW25312   4.215   0.745   4.072
 8138SOL    HW125313   4.270   0.794   4.005
 8138SOL    HW225314   4.124   0.785   4.077
 8139SOL     OW25315   1.976   2.869   5.675
 8139SOL    HW125316   2.029   2.821   5.745
 8139SOL    HW225317   1.894   2.909   5.717
 8140SOL     OW25318   5.045   1.843   1.451
 8140SOL    HW125319   5.086   1.917   1.398
 8140SOL    HW225320   5.004   1.776   1.389
 8141SOL     OW25321   5.994   2.280   5.069
 8141SOL    HW125322   5.946   2.257   4.985
 8141SOL    HW225323   6.083   2.234   5.071
 8142SOL     OW25324   3.849   5.721   0.312
 8142SOL    HW125325   3.821   5.780   0.236
 8142SOL    HW225326   3.775   5.714   0.378
 8143SOL     OW25327   5.561   5.018   0.802
 8143SOL    HW125328   5.594   5.112   0.807
 8143SOL    HW225329   5.465   5.018   0.777
 8144SOL     OW25330   1.771   5.524   6.517
 8144SOL    HW125331   1.857   5.521   6.467
 8144SOL    HW225332   1.695   5.510   6.454
 8145SOL     OW25333   4.963   5.349   5.553
 8145SOL    HW125334   4.955   5.447   5.535
 8145SOL    HW225335   5.059   5.323   5.559
 8146SOL     OW25336   6.910   6.293   5.631
 8146SOL    HW125337   6.967   6.331   5.703
 8146SOL    HW225338   6.819   6.335   5.634
 8147SOL     OW25339   2.353   6.464   4.695
 8147SOL    HW125340   2.268   6.414   4.707
 8147SOL    HW225341   2.391   6.443   4.605
 8148SOL     OW25342   4.847   4.907   0.498
 8148SOL    HW125343   4.769   4.851   0.526
 8148SOL    HW225344   4.819   4.970   0.425
 8149SOL     OW25345   1.303   6.276   4.605
 8149SOL    HW125346   1.376   6.322   4.556
 8149SOL    HW225347   1.329   6.180   4.621
 8150SOL     OW25348   0.736   4.082   0.501
 8150SOL    HW125349   0.767   4.038   0.417
 8150SOL    HW225350   0.804   4.151   0.528
 8151SOL     OW25351   6.251   4.386   2.606
 8151SOL    HW125352   6.237   4.376   2.705
 8151SOL    HW225353   6.239   4.297   2.562
 8152SOL     OW25354   5.125   2.044   4.433
 8152SOL    HW125355   5.176   2.130   4.445
 8152SOL    HW225356   5.046   2.060   4.375
 8153SOL     OW25357   0.208   1.518   1.232
 8153SOL    HW125358   0.238   1.540   1.325
 8153SOL    HW225359   0.271   1.557   1.166
 8154SOL     OW25360   6.911   0.247   4.699
 8154SOL    HW125361   6.855   0.312   4.749
 8154SOL    HW225362   7.005   0.251   4.733
 8155SOL     OW25363   1.499   4.371   4.715
 8155SOL    HW125364   1.466   4.456   4.755
 8155SOL    HW225365   1.434   4.297   4.733
 8156SOL     OW25366   1.194   3.671   0.364
 8156SOL    HW125367   1.169   3.674   0.267
 8156SOL    HW225368   1.283   3.627   0.374
 8157SOL     OW25369   6.481   4.627   5.755
 8157SOL    HW125370   6.405   4.611   5.693
 8157SOL    HW225371   6.447   4.662   5.842
 8158SOL     OW25372   6.846   5.150   6.382
 8158SOL    HW125373   6.862   5.128   6.285
 8158SOL    HW225374   6.751   5.131   6.405
 8159SOL     OW25375   2.237   6.176   5.020
 8159SOL    HW125376   2.284   6.088   5.025
 8159SOL    HW225377   2.305   6.250   5.019
 8160SOL     OW25378   4.921   3.243   2.859
 8160SOL    HW125379   4.857   3.172   2.889
 8160SOL    HW225380   5.007   3.201   2.831
 8161SOL     OW25381   0.068   2.173   1.086
 8161SOL    HW125382   0.142   2.180   1.153
 8161SOL    HW225383   0.095   2.220   1.002
 8162SOL     OW25384   6.533   6.026   6.184
 8162SOL    HW125385   6.608   6.002   6.245
 8162SOL    HW225386   6.568   6.079   6.107
 8163SOL     OW25387   3.691   5.512   5.944
 8163SOL    HW125388   3.683   5.423   5.989
 8163SOL    HW225389   3.648   5.582   6.000
 8164SOL     OW25390   5.444   2.042   0.350
 8164SOL    HW125391   5.372   2.055   0.282
 8164SOL    HW225392   5.491   1.956   0.333
 8165SOL     OW25393   1.536   2.243   5.999
 8165SOL    HW125394   1.446   2.283   5.983
 8165SOL    HW225395   1.549   2.164   5.940
 8166SOL     OW25396   3.361   2.115   3.643
 8166SOL    HW125397   3.267   2.096   3.616
 8166SOL    HW225398   3.411   2.153   3.565
 8167SOL     OW25399   1.770   2.006   2.060
 8167SOL    HW125400   1.795   1.992   2.156
 8167SOL    HW225401   1.833   2.071   2.019
 8168SOL     OW25402   1.336   6.083   2.727
 8168SOL    HW125403   1.323   6.182   2.718
 8168SOL    HW225404   1.264   6.036   2.676
 8169SOL     OW25405   5.399   4.793   6.645
 8169SOL    HW125406   5.308   4.829   6.626
 8169SOL    HW225407   5.459   4.811   6.566
 8170SOL     OW25408   0.169   4.972   3.124
 8170SOL    HW125409   0.269   4.961   3.129
 8170SOL    HW225410   0.136   4.935   3.038
 8171SOL     OW25411   1.209   1.379   1.957
 8171SOL    HW125412   1.296   1.397   1.911
 8171SOL    HW225413   1.220   1.394   2.056
 8172SOL     OW25414   1.590   4.551   0.603
 8172SOL    HW125415   1.596   4.587   0.510
 8172SOL    HW225416   1.496   4.523   0.622
 8173SOL     OW25417   5.124   0.604   1.458
 8173SOL    HW125418   5.055   0.533   1.448
 8173SOL    HW225419   5.175   0.589   1.542
 8174SOL     OW25420   2.922   6.254   4.048
 8174SOL    HW125421   2.975   6.249   3.963
 8174SOL    HW225422   2.981   6.228   4.125
 8175SOL     OW25423   1.054   2.525   6.220
 8175SOL    HW125424   1.016   2.548   6.310
 8175SOL    HW225425   1.025   2.594   6.153
 8176SOL     OW25426   2.306   4.421   0.374
 8176SOL    HW125427   2.314   4.521   0.377
 8176SOL    HW225428   2.209   4.395   0.377
 8177SOL     OW25429   3.352   1.434   2.304
 8177SOL    HW125430   3.280   1.445   2.235
 8177SOL    HW225431   3.358   1.337   2.330
 8178SOL     OW25432   2.595   6.372   0.946
 8178SOL    HW125433   2.589   6.327   0.857
 8178SOL    HW225434   2.688   6.407   0.959
 8179SOL     OW25435   6.359   6.382   4.381
 8179SOL    HW125436   6.265   6.396   4.349
 8179SOL    HW225437   6.384   6.456   4.444
 8180SOL     OW25438   3.536   5.391   0.780
 8180SOL    HW125439   3.555   5.333   0.702
 8180SOL    HW225440   3.437   5.408   0.786
 8181SOL     OW25441   6.102   0.824   6.674
 8181SOL    HW125442   6.101   0.781   6.764
 8181SOL    HW225443   6.057   0.914   6.679
 8182SOL     OW25444   3.230   3.607   2.973
 8182SOL    HW125445   3.289   3.687   2.957
 8182SOL    HW225446   3.270   3.527   2.927
 8183SOL     OW25447   0.407   0.347   5.207
 8183SOL    HW125448   0.320   0.299   5.194
 8183SOL    HW225449   0.481   0.281   5.214
 8184SOL     OW25450   6.758   5.348   4.991
 8184SOL    HW125451   6.790   5.425   4.936
 8184SOL    HW225452   6.737   5.271   4.931
 8185SOL     OW25453   6.580   6.478   4.228
 8185SOL    HW125454   6.657   6.417   4.206
 8185SOL    HW225455   6.503   6.424   4.260
 8186SOL     OW25456   0.465   6.268   6.497
 8186SOL    HW125457   0.414   6.251   6.581
 8186SOL    HW225458   0.482   6.182   6.449
 8187SOL     OW25459   0.894   6.585   4.439
 8187SOL    HW125460   0.963   6.644   4.397
 8187SOL    HW225461   0.937   6.502   4.475
 8188SOL     OW25462   1.595   2.435   2.514
 8188SOL    HW125463   1.687   2.464   2.541
 8188SOL    HW225464   1.602   2.373   2.436
 8189SOL     OW25465   6.983   5.117   3.892
 8189SOL    HW125466   7.008   5.100   3.797
 8189SOL    HW225467   6.910   5.054   3.919
 8190SOL     OW25468   5.542   3.765   2.386
 8190SOL    HW125469   5.448   3.745   2.361
 8190SOL    HW225470   5.589   3.681   2.412
 8191SOL     OW25471   4.442   4.896   0.382
 8191SOL    HW125472   4.423   4.991   0.357
 8191SOL    HW225473   4.443   4.840   0.299
 8192SOL     OW25474   6.793   5.533   2.488
 8192SOL    HW125475   6.705   5.574   2.465
 8192SOL    HW225476   6.867   5.592   2.455
 8193SOL     OW25477   0.809   5.218   4.596
 8193SOL    HW125478   0.853   5.236   4.507
 8193SOL    HW225479   0.715   5.189   4.581
 8194SOL     OW25480   5.813   6.866   2.191
 8194SOL    HW125481   5.817   6.877   2.290
 8194SOL    HW225482   5.734   6.809   2.167
 8195SOL     OW25483   6.338   6.674   3.101
 8195SOL    HW125484   6.330   6.658   3.199
 8195SOL    HW225485   6.319   6.590   3.051
 8196SOL     OW25486   5.420   0.044   2.421
 8196SOL    HW125487   5.401   0.007   2.330
 8196SOL    HW225488   5.416   6.990   2.488
 8197SOL     OW25489   3.821   0.508   3.371
 8197SOL    HW125490   3.895   0.555   3.324
 8197SOL    HW225491   3.785   0.566   3.444
 8198SOL     OW25492   1.911   5.438   0.030
 8198SOL    HW125493   1.886   5.349   0.070
 8198SOL    HW225494   1.832   5.476   7.002
 8199SOL     OW25495   5.980   2.592   0.066
 8199SOL    HW125496   5.939   2.670   0.019
 8199SOL    HW225497   6.001   2.520   7.019
 8200SOL     OW25498   5.718   4.514   0.174
 8200SOL    HW125499   5.706   4.595   0.232
 8200SOL    HW225500   5.637   4.502   0.117
 8201SOL     OW25501   5.161   1.842   5.989
 8201SOL    HW125502   5.097   1.835   5.912
 8201SOL    HW225503   5.111   1.832   6.075
 8202SOL     OW25504   6.920   6.011   2.307
 8202SOL    HW125505   6.973   5.998   2.391
 8202SOL    HW225506   6.832   6.051   2.329
 8203SOL     OW25507   0.658   2.892   0.302
 8203SOL    HW125508   0.684   2.826   0.231
 8203SOL    HW225509   0.736   2.952   0.322
 8204SOL     OW25510   1.251   3.557   0.713
 8204SOL    HW125511   1.267   3.496   0.636
 8204SOL    HW225512   1.277   3.511   0.798
 8205SOL     OW25513   6.650   3.918   6.414
 8205SOL    HW125514   6.611   3.942   6.325
 8205SOL    HW225515   6.636   3.821   6.431
 8206SOL     OW25516   3.343   1.546   0.911
 8206SOL    HW125517   3.308   1.470   0.965
 8206SOL    HW225518   3.404   1.602   0.968
 8207SOL     OW25519   3.655   3.419   3.792
 8207SOL    HW125520   3.692   3.420   3.699
 8207SOL    HW225521   3.557   3.395   3.788
 8208SOL     OW25522   3.965   0.351   5.288
 8208SOL    HW125523   3.881   0.297   5.288
 8208SOL    HW225524   4.035   0.305   5.344
 8209SOL     OW25525   5.025   3.058   3.798
 8209SOL    HW125526   5.102   3.039   3.737
 8209SOL    HW225527   4.940   3.055   3.746
 8210SOL     OW25528   1.379   1.627   6.323
 8210SOL    HW125529   1.411   1.565   6.252
 8210SOL    HW225530   1.433   1.711   6.321
 8211SOL     OW25531   3.855   4.612   1.163
 8211SOL    HW125532   3.940   4.652   1.196
 8211SOL    HW225533   3.817   4.668   1.089
 8212SOL     OW25534   1.819   3.395   2.361
 8212SOL    HW125535   1.744   3.397   2.427
 8212SOL    HW225536   1.905   3.418   2.408
 8213SOL     OW25537   6.777   4.439   0.695
 8213SOL    HW125538   6.704   4.426   0.628
 8213SOL    HW225539   6.866   4.438   0.648
 8214SOL     OW25540   4.761   2.726   3.752
 8214SOL    HW125541   4.686   2.666   3.777
 8214SOL    HW225542   4.765   2.735   3.652
 8215SOL     OW25543   3.323   4.098   1.556
 8215SOL    HW125544   3.309   4.014   1.608
 8215SOL    HW225545   3.242   4.156   1.564
 8216SOL     OW25546   5.438   2.835   4.727
 8216SOL    HW125547   5.461   2.914   4.784
 8216SOL    HW225548   5.505   2.826   4.654
 8217SOL     OW25549   2.460   5.605   6.792
 8217SOL    HW125550   2.509   5.589   6.877
 8217SOL    HW225551   2.398   5.528   6.774
 8218SOL     OW25552   4.347   1.706   0.013
 8218SOL    HW125553   4.260   1.700   6.983
 8218SOL    HW225554   4.422   1.708   6.967
 8219SOL     OW25555   5.514   3.183   0.253
 8219SOL    HW125556   5.416   3.198   0.240
 8219SOL    HW225557   5.537   3.196   0.350
 8220SOL     OW25558   4.109   3.499   1.510
 8220SOL    HW125559   4.171   3.428   1.474
 8220SOL    HW225560   4.129   3.514   1.607
 8221SOL     OW25561   5.588   3.583   3.871
 8221SOL    HW125562   5.679   3.603   3.907
 8221SOL    HW225563   5.543   3.668   3.845
 8222SOL     OW25564   5.657   1.384   3.002
 8222SOL    HW125565   5.680   1.424   2.913
 8222SOL    HW225566   5.728   1.408   3.068
 8223SOL     OW25567   1.115   3.523   6.957
 8223SOL    HW125568   1.214   3.535   6.953
 8223SOL    HW225569   1.072   3.611   6.977
 8224SOL     OW25570   1.148   3.600   2.705
 8224SOL    HW125571   1.209   3.678   2.718
 8224SOL    HW225572   1.062   3.631   2.665
 8225SOL     OW25573   4.807   0.269   1.208
 8225SOL    HW125574   4.843   0.246   1.117
 8225SOL    HW225575   4.800   0.368   1.216
 8226SOL     OW25576   4.337   0.377   6.893
 8226SOL    HW125577   4.287   0.308   6.945
 8226SOL    HW225578   4.284   0.462   6.891
 8227SOL     OW25579   5.902   4.612   3.254
 8227SOL    HW125580   5.870   4.662   3.173
 8227SOL    HW225581   6.001   4.598   3.248
 8228SOL     OW25582   6.954   1.235   3.578
 8228SOL    HW125583   6.992   1.158   3.630
 8228SOL    HW225584   6.855   1.224   3.570
 8229SOL     OW25585   5.771   5.130   6.211
 8229SOL    HW125586   5.845   5.084   6.161
 8229SOL    HW225587   5.687   5.124   6.158
 8230SOL     OW25588   4.799   6.679   3.446
 8230SOL    HW125589   4.775   6.712   3.537
 8230SOL    HW225590   4.781   6.751   3.379
 8231SOL     OW25591   3.789   5.793   1.390
 8231SOL    HW125592   3.815   5.719   1.452
 8231SOL    HW225593   3.689   5.796   1.382
 8232SOL     OW25594   2.759   1.146   0.458
 8232SOL    HW125595   2.830   1.187   0.515
 8232SOL    HW225596   2.669   1.167   0.496
 8233SOL     OW25597   1.130   5.808   6.288
 8233SOL    HW125598   1.184   5.883   6.326
 8233SOL    HW225599   1.168   5.721   6.318
 8234SOL     OW25600   1.607   2.899   0.091
 8234SOL    HW125601   1.700   2.896   0.055
 8234SOL    HW225602   1.556   2.971   0.045
 8235SOL     OW25603   4.742   2.672   6.800
 8235SOL    HW125604   4.658   2.665   6.746
 8235SOL    HW225605   4.727   2.735   6.876
 8236SOL     OW25606   6.321   1.767   1.914
 8236SOL    HW125607   6.309   1.682   1.965
 8236SOL    HW225608   6.388   1.824   1.961
 8237SOL     OW25609   3.702   6.207   5.539
 8237SOL    HW125610   3.692   6.194   5.637
 8237SOL    HW225611   3.626   6.261   5.504
 8238SOL     OW25612   0.064   1.228   5.416
 8238SOL    HW125613   7.010   1.164   5.437
 8238SOL    HW225614   0.149   1.177   5.402
 8239SOL     OW25615   4.800   1.510   6.001
 8239SOL    HW125616   4.766   1.454   5.926
 8239SOL    HW225617   4.782   1.607   5.982
 8240SOL     OW25618   3.407   2.922   2.914
 8240SOL    HW125619   3.442   3.009   2.879
 8240SOL    HW225620   3.307   2.924   2.915
 8241SOL     OW25621   4.150   6.315   1.062
 8241SOL    HW125622   4.245   6.331   1.036
 8241SOL    HW225623   4.138   6.221   1.092
 8242SOL     OW25624   1.922   4.209   4.877
 8242SOL    HW125625   1.959   4.179   4.789
 8242SOL    HW225626   1.822   4.213   4.872
 8243SOL     OW25627   0.072   4.216   4.527
 8243SOL    HW125628   6.993   4.221   4.542
 8243SOL    HW225629   0.103   4.122   4.542
 8244SOL     OW25630   3.167   5.603   5.577
 8244SOL    HW125631   3.242   5.623   5.513
 8244SOL    HW225632   3.085   5.651   5.547
 8245SOL     OW25633   4.586   4.190   1.150
 8245SOL    HW125634   4.661   4.177   1.214
 8245SOL    HW225635   4.542   4.278   1.166
 8246SOL     OW25636   5.666   3.202   5.171
 8246SOL    HW125637   5.658   3.259   5.090
 8246SOL    HW225638   5.645   3.256   5.253
 8247SOL     OW25639   1.108   5.811   6.901
 8247SOL    HW125640   1.148   5.898   6.929
 8247SOL    HW225641   1.082   5.815   6.804
 8248SOL     OW25642   6.670   3.942   3.373
 8248SOL    HW125643   6.591   3.909   3.322
 8248SOL    HW225644   6.725   4.001   3.315
 8249SOL     OW25645   0.896   6.175   3.284
 8249SOL    HW125646   0.986   6.216   3.291
 8249SOL    HW225647   0.905   6.080   3.254
 8250SOL     OW25648   3.143   2.981   2.480
 8250SOL    HW125649   3.089   3.062   2.503
 8250SOL    HW225650   3.214   2.967   2.550
 8251SOL     OW25651   5.653   0.950   4.000
 8251SOL    HW125652   5.598   0.956   3.916
 8251SOL    HW225653   5.750   0.959   3.977
 8252SOL     OW25654   1.113   3.943   4.665
 8252SOL    HW125655   1.196   3.905   4.625
 8252SOL    HW225656   1.095   3.899   4.753
 8253SOL     OW25657   3.013   2.956   5.788
 8253SOL    HW125658   3.063   2.978   5.872
 8253SOL    HW225659   2.924   3.001   5.791
 8254SOL     OW25660   4.713   4.956   2.895
 8254SOL    HW125661   4.622   4.946   2.854
 8254SOL    HW225662   4.726   4.886   2.965
 8255SOL     OW25663   3.901   5.419   3.707
 8255SOL    HW125664   3.825   5.359   3.682
 8255SOL    HW225665   3.865   5.510   3.732
 8256SOL     OW25666   5.346   2.190   2.925
 8256SOL    HW125667   5.286   2.110   2.921
 8256SOL    HW225668   5.311   2.261   2.864
 8257SOL     OW25669   6.587   4.490   4.341
 8257SOL    HW125670   6.645   4.510   4.262
 8257SOL    HW225671   6.644   4.485   4.423
 8258SOL     OW25672   5.548   1.823   0.693
 8258SOL    HW125673   5.598   1.757   0.637
 8258SOL    HW225674   5.604   1.904   0.708
 8259SOL     OW25675   4.503   0.392   1.341
 8259SOL    HW125676   4.465   0.386   1.433
 8259SOL    HW225677   4.485   0.306   1.292
 8260SOL     OW25678   3.316   5.468   6.137
 8260SOL    HW125679   3.381   5.541   6.115
 8260SOL    HW225680   3.357   5.379   6.115
 8261SOL     OW25681   4.780   1.478   1.438
 8261SOL    HW125682   4.823   1.565   1.413
 8261SOL    HW225683   4.700   1.496   1.495
 8262SOL     OW25684   6.210   2.658   1.962
 8262SOL    HW125685   6.114   2.662   1.934
 8262SOL    HW225686   6.220   2.697   2.053
 8263SOL     OW25687   5.990   2.178   0.006
 8263SOL    HW125688   5.971   2.085   6.993
 8263SOL    HW225689   5.958   2.186   0.100
 8264SOL     OW25690   1.797   4.263   1.775
 8264SOL    HW125691   1.812   4.264   1.874
 8264SOL    HW225692   1.703   4.292   1.756
 8265SOL     OW25693   2.348   0.500   3.004
 8265SOL    HW125694   2.275   0.495   3.071
 8265SOL    HW225695   2.436   0.501   3.051
 8266SOL     OW25696   3.001   1.183   2.950
 8266SOL    HW125697   2.952   1.205   2.865
 8266SOL    HW225698   3.060   1.103   2.935
 8267SOL     OW25699   0.017   3.104   1.730
 8267SOL    HW125700   6.959   3.137   1.676
 8267SOL    HW225701   0.101   3.145   1.695
 8268SOL     OW25702   2.249   4.387   7.011
 8268SOL    HW125703   2.215   4.315   0.050
 8268SOL    HW225704   2.342   4.413   0.018
 8269SOL     OW25705   5.291   2.430   6.842
 8269SOL    HW125706   5.196   2.448   6.868
 8269SOL    HW225707   5.350   2.501   6.880
 8270SOL     OW25708   2.328   6.101   4.358
 8270SOL    HW125709   2.236   6.138   4.358
 8270SOL    HW225710   2.389   6.162   4.408
 8271SOL     OW25711   0.423   2.366   3.010
 8271SOL    HW125712   0.516   2.402   2.999
 8271SOL    HW225713   0.428   2.269   3.034
 8272SOL     OW25714   3.706   1.182   4.491
 8272SOL    HW125715   3.791   1.233   4.478
 8272SOL    HW225716   3.640   1.240   4.538
 8273SOL     OW25717   2.060   6.712   1.752
 8273SOL    HW125718   2.015   6.624   1.734
 8273SOL    HW225719   2.088   6.715   1.848
 8274SOL     OW25720   5.460   3.619   3.530
 8274SOL    HW125721   5.450   3.589   3.435
 8274SOL    HW225722   5.438   3.543   3.591
 8275SOL     OW25723   6.243   2.507   6.734
 8275SOL    HW125724   6.305   2.458   6.672
 8275SOL    HW225725   6.194   2.440   6.791
 8276SOL     OW25726   1.355   1.535   3.455
 8276SOL    HW125727   1.364   1.502   3.361
 8276SOL    HW225728   1.325   1.630   3.455
 8277SOL     OW25729   0.113   1.319   0.683
 8277SOL    HW125730   0.168   1.244   0.648
 8277SOL    HW225731   0.025   1.284   0.715
 8278SOL     OW25732   0.948   2.477   0.409
 8278SOL    HW125733   0.938   2.576   0.402
 8278SOL    HW225734   0.963   2.452   0.505
 8279SOL     OW25735   0.310   6.460   3.896
 8279SOL    HW125736   0.388   6.418   3.849
 8279SOL    HW225737   0.320   6.560   3.895
 8280SOL     OW25738   3.276   2.563   6.189
 8280SOL    HW125739   3.185   2.525   6.169
 8280SOL    HW225740   3.310   2.522   6.274
 8281SOL     OW25741   3.887   5.139   2.125
 8281SOL    HW125742   3.930   5.185   2.202
 8281SOL    HW225743   3.888   5.199   2.045
 8282SOL     OW25744   6.780   2.951   6.281
 8282SOL    HW125745   6.712   2.888   6.319
 8282SOL    HW225746   6.869   2.933   6.323
 8283SOL     OW25747   2.418   2.445   6.133
 8283SOL    HW125748   2.493   2.432   6.069
 8283SOL    HW225749   2.332   2.414   6.090
 8284SOL     OW25750   6.617   4.815   1.899
 8284SOL    HW125751   6.715   4.836   1.895
 8284SOL    HW225752   6.570   4.883   1.954
 8285SOL     OW25753   3.573   2.886   3.692
 8285SOL    HW125754   3.637   2.929   3.629
 8285SOL    HW225755   3.619   2.868   3.779
 8286SOL     OW25756   0.132   2.935   0.024
 8286SOL    HW125757   0.207   2.870   0.038
 8286SOL    HW225758   0.162   3.007   6.981
 8287SOL     OW25759   1.279   7.013   4.791
 8287SOL    HW125760   1.294   6.930   4.738
 8287SOL    HW225761   1.338   0.066   4.756
 8288SOL     OW25762   2.537   1.419   3.074
 8288SOL    HW125763   2.577   1.505   3.105
 8288SOL    HW225764   2.438   1.423   3.085
 8289SOL     OW25765   0.934   6.676   0.304
 8289SOL    HW125766   0.926   6.688   0.205
 8289SOL    HW225767   0.972   6.759   0.345
 8290SOL     OW25768   6.080   1.574   1.404
 8290SOL    HW125769   6.115   1.546   1.494
 8290SOL    HW225770   6.108   1.507   1.335
 8291SOL     OW25771   3.995   0.609   1.588
 8291SOL    HW125772   4.024   0.668   1.512
 8291SOL    HW225773   3.898   0.586   1.577
 8292SOL     OW25774   2.393   0.713   6.142
 8292SOL    HW125775   2.372   0.633   6.198
 8292SOL    HW225776   2.447   0.685   6.062
 8293SOL     OW25777   6.136   5.633   5.396
 8293SOL    HW125778   6.077   5.561   5.357
 8293SOL    HW225779   6.173   5.689   5.322
 8294SOL     OW25780   6.342   2.608   6.978
 8294SOL    HW125781   6.291   2.592   6.893
 8294SOL    HW225782   6.301   2.686   0.007
 8295SOL     OW25783   5.459   2.242   6.506
 8295SOL    HW125784   5.558   2.240   6.492
 8295SOL    HW225785   5.418   2.305   6.440
 8296SOL     OW25786   0.702   5.169   5.223
 8296SOL    HW125787   0.717   5.095   5.289
 8296SOL    HW225788   0.621   5.222   5.250
 8297SOL     OW25789   1.273   3.507   3.928
 8297SOL    HW125790   1.338   3.433   3.945
 8297SOL    HW225791   1.247   3.508   3.831
 8298SOL     OW25792   4.486   2.443   2.501
 8298SOL    HW125793   4.523   2.494   2.579
 8298SOL    HW225794   4.530   2.474   2.417
 8299SOL     OW25795   5.848   1.254   1.213
 8299SOL    HW125796   5.848   1.202   1.298
 8299SOL    HW225797   5.756   1.252   1.173
 8300SOL     OW25798   1.282   5.647   2.774
 8300SOL    HW125799   1.324   5.719   2.831
 8300SOL    HW225800   1.342   5.627   2.697
 8301SOL     OW25801   3.394   1.145   5.818
 8301SOL    HW125802   3.381   1.239   5.786
 8301SOL    HW225803   3.439   1.146   5.907
 8302SOL     OW25804   6.396   4.930   6.457
 8302SOL    HW125805   6.315   4.990   6.461
 8302SOL    HW225806   6.389   4.860   6.528
 8303SOL     OW25807   0.380   0.130   0.074
 8303SOL    HW125808   0.443   0.144   0.151
 8303SOL    HW225809   0.376   0.032   0.052
 8304SOL     OW25810   6.914   3.359   0.317
 8304SOL    HW125811   6.960   3.343   0.405
 8304SOL    HW225812   6.983   3.360   0.244
 8305SOL     OW25813   3.067   5.613   2.544
 8305SOL    HW125814   3.126   5.570   2.475
 8305SOL    HW225815   3.065   5.556   2.626
 8306SOL     OW25816   1.966   1.746   3.770
 8306SOL    HW125817   1.870   1.734   3.797
 8306SOL    HW225818   1.997   1.837   3.796
 8307SOL     OW25819   3.600   6.319   1.202
 8307SOL    HW125820   3.514   6.369   1.204
 8307SOL    HW225821   3.675   6.381   1.225
 8308SOL     OW25822   2.654   0.875   2.513
 8308SOL    HW125823   2.577   0.843   2.457
 8308SOL    HW225824   2.733   0.817   2.497
 8309SOL     OW25825   5.855   6.348   2.814
 8309SOL    HW125826   5.783   6.415   2.796
 8309SOL    HW225827   5.861   6.283   2.739
 8310SOL     OW25828   6.089   4.679   6.825
 8310SOL    HW125829   6.105   4.774   6.798
 8310SOL    HW225830   6.010   4.643   6.776
 8311SOL     OW25831   6.976   0.853   6.354
 8311SOL    HW125832   0.005   0.921   6.409
 8311SOL    HW225833   0.001   0.764   6.363
 8312SOL     OW25834   4.824   6.019   1.210
 8312SOL    HW125835   4.732   6.045   1.237
 8312SOL    HW225836   4.822   5.929   1.166
 8313SOL     OW25837   4.200   1.997   3.005
 8313SOL    HW125838   4.191   2.043   3.093
 8313SOL    HW225839   4.119   1.941   2.987
 8314SOL     OW25840   6.579   0.171   4.351
 8314SOL    HW125841   6.516   0.202   4.280
 8314SOL    HW225842   6.624   0.087   4.322
 8315SOL     OW25843   5.468   4.442   0.076
 8315SOL    HW125844   5.393   4.494   0.117
 8315SOL    HW225845   5.476   4.353   0.121
 8316SOL     OW25846   2.792   5.757   6.439
 8316SOL    HW125847   2.829   5.671   6.402
 8316SOL    HW225848   2.697   5.742   6.468
 8317SOL     OW25849   2.168   5.155   1.521
 8317SOL    HW125850   2.245   5.207   1.559
 8317SOL    HW225851   2.085   5.175   1.574
 8318SOL     OW25852   3.124   1.118   5.707
 8318SOL    HW125853   3.222   1.114   5.724
 8318SOL    HW225854   3.088   1.025   5.694
 8319SOL     OW25855   2.411   0.447   5.067
 8319SOL    HW125856   2.459   0.408   4.989
 8319SOL    HW225857   2.371   0.535   5.041
 8320SOL     OW25858   3.857   4.994   0.989
 8320SOL    HW125859   3.909   4.952   1.064
 8320SOL    HW225860   3.861   5.094   0.998
 8321SOL     OW25861   6.801   1.113   1.978
 8321SOL    HW125862   6.715   1.112   1.926
 8321SOL    HW225863   6.780   1.111   2.076
 8322SOL     OW25864   5.356   6.646   0.708
 8322SOL    HW125865   5.432   6.648   0.772
 8322SOL    HW225866   5.391   6.637   0.615
 8323SOL     OW25867   1.245   0.800   1.197
 8323SOL    HW125868   1.163   0.857   1.207
 8323SOL    HW225869   1.224   0.723   1.137
 8324SOL     OW25870   6.919   0.715   2.839
 8324SOL    HW125871   6.883   0.667   2.759
 8324SOL    HW225872   6.922   0.652   2.917
 8325SOL     OW25873   3.278   3.798   5.078
 8325SOL    HW125874   3.263   3.894   5.102
 8325SOL    HW225875   3.222   3.739   5.137
 8326SOL     OW25876   4.210   2.905   5.630
 8326SOL    HW125877   4.150   2.902   5.550
 8326SOL    HW225878   4.254   2.994   5.635
 8327SOL     OW25879   4.741   2.528   5.955
 8327SOL    HW125880   4.714   2.625   5.958
 8327SOL    HW225881   4.739   2.490   6.047
 8328SOL     OW25882   2.096   2.411   4.025
 8328SOL    HW125883   2.046   2.494   4.000
 8328SOL    HW225884   2.061   2.375   4.111
 8329SOL     OW25885   1.346   3.947   4.920
 8329SOL    HW125886   1.438   3.927   4.953
 8329SOL    HW225887   1.301   4.011   4.982
 8330SOL     OW25888   2.688   6.737   6.662
 8330SOL    HW125889   2.680   6.738   6.562
 8330SOL    HW225890   2.752   6.807   6.691
 8331SOL     OW25891   2.097   6.970   0.883
 8331SOL    HW125892   2.139   6.905   0.946
 8331SOL    HW225893   2.111   6.939   0.789
 8332SOL     OW25894   5.137   5.886   3.048
 8332SOL    HW125895   5.171   5.977   3.026
 8332SOL    HW225896   5.179   5.854   3.133
 8333SOL     OW25897   1.995   4.747   5.297
 8333SOL    HW125898   2.050   4.686   5.240
 8333SOL    HW225899   2.043   4.834   5.310
 8334SOL     OW25900   6.764   0.011   3.034
 8334SOL    HW125901   6.764   7.005   3.131
 8334SOL    HW225902   6.799   6.954   2.980
 8335SOL     OW25903   6.225   6.117   4.893
 8335SOL    HW125904   6.244   6.208   4.858
 8335SOL    HW225905   6.170   6.125   4.976
 8336SOL     OW25906   1.441   1.623   2.637
 8336SOL    HW125907   1.392   1.605   2.551
 8336SOL    HW225908   1.478   1.715   2.635
 8337SOL     OW25909   6.310   6.365   2.461
 8337SOL    HW125910   6.259   6.451   2.462
 8337SOL    HW225911   6.394   6.375   2.514
 8338SOL     OW25912   2.478   5.630   0.693
 8338SOL    HW125913   2.499   5.727   0.695
 8338SOL    HW225914   2.517   5.585   0.773
 8339SOL     OW25915   5.367   1.124   3.405
 8339SOL    HW125916   5.396   1.197   3.343
 8339SOL    HW225917   5.351   1.162   3.496
 8340SOL     OW25918   5.000   4.029   1.759
 8340SOL    HW125919   5.015   3.967   1.682
 8340SOL    HW225920   5.088   4.063   1.792
 8341SOL     OW25921   1.649   0.241   0.643
 8341SOL    HW125922   1.706   0.224   0.723
 8341SOL    HW225923   1.673   0.328   0.601
 8342SOL     OW25924   5.461   0.311   1.298
 8342SOL    HW125925   5.399   0.350   1.230
 8342SOL    HW225926   5.475   0.376   1.372
 8343SOL     OW25927   6.934   4.391   4.816
 8343SOL    HW125928   6.928   4.491   4.821
 8343SOL    HW225929   0.009   4.364   4.796
 8344SOL     OW25930   3.716   7.016   4.526
 8344SOL    HW125931   3.745   6.923   4.549
 8344SOL    HW225932   3.684   7.018   4.431
 8345SOL     OW25933   5.721   1.545   2.754
 8345SOL    HW125934   5.793   1.573   2.818
 8345SOL    HW225935   5.660   1.622   2.736
 8346SOL     OW25936   3.807   5.340   1.928
 8346SOL    HW125937   3.883   5.402   1.943
 8346SOL    HW225938   3.742   5.380   1.863
 8347SOL     OW25939   3.093   5.116   4.604
 8347SOL    HW125940   3.001   5.155   4.613
 8347SOL    HW225941   3.090   5.036   4.545
 8348SOL     OW25942   2.363   0.099   0.728
 8348SOL    HW125943   2.285   0.117   0.789
 8348SOL    HW225944   2.339   0.126   0.635
 8349SOL     OW25945   5.901   4.903   2.736
 8349SOL    HW125946   5.808   4.909   2.771
 8349SOL    HW225947   5.923   4.807   2.717
 8350SOL     OW25948   6.242   0.836   5.267
 8350SOL    HW125949   6.296   0.752   5.263
 8350SOL    HW225950   6.153   0.818   5.308
 8351SOL     OW25951   2.510   6.998   2.333
 8351SOL    HW125952   2.462   7.010   2.246
 8351SOL    HW225953   2.591   6.941   2.319
 8352SOL     OW25954   5.735   6.128   2.131
 8352SOL    HW125955   5.778   6.153   2.218
 8352SOL    HW225956   5.795   6.067   2.080
 8353SOL     OW25957   2.195   3.729   1.930
 8353SOL    HW125958   2.190   3.635   1.962
 8353SOL    HW225959   2.260   3.735   1.854
 8354SOL     OW25960   3.304   0.228   0.599
 8354SOL    HW125961   3.351   0.180   0.673
 8354SOL    HW225962   3.294   0.167   0.520
 8355SOL     OW25963   2.791   1.981   0.850
 8355SOL    HW125964   2.844   1.926   0.915
 8355SOL    HW225965   2.772   1.926   0.768
 8356SOL     OW25966   2.865   4.632   0.464
 8356SOL    HW125967   2.870   4.718   0.516
 8356SOL    HW225968   2.907   4.644   0.375
 8357SOL     OW25969   3.756   6.630   2.370
 8357SOL    HW125970   3.678   6.608   2.429
 8357SOL    HW225971   3.753   6.574   2.288
 8358SOL     OW25972   2.898   1.851   5.186
 8358SOL    HW125973   2.864   1.815   5.272
 8358SOL    HW225974   2.969   1.920   5.204
 8359SOL     OW25975   3.856   4.914   4.228
 8359SOL    HW125976   3.902   4.886   4.312
 8359SOL    HW225977   3.910   4.984   4.181
 8360SOL     OW25978   4.502   0.917   3.468
 8360SOL    HW125979   4.503   0.817   3.465
 8360SOL    HW225980   4.522   0.953   3.377
 8361SOL     OW25981   1.467   0.633   3.024
 8361SOL    HW125982   1.500   0.615   2.931
 8361SOL    HW225983   1.426   0.551   3.061
 8362SOL     OW25984   3.196   2.817   0.990
 8362SOL    HW125985   3.124   2.844   1.054
 8362SOL    HW225986   3.262   2.892   0.982
 8363SOL     OW25987   0.435   3.356   2.072
 8363SOL    HW125988   0.424   3.323   2.166
 8363SOL    HW225989   0.531   3.374   2.054
 8364SOL     OW25990   0.048   4.985   5.354
 8364SOL    HW125991   0.072   5.081   5.363
 8364SOL    HW225992   6.970   4.973   5.368
 8365SOL     OW25993   1.740   3.931   5.892
 8365SOL    HW125994   1.752   3.898   5.798
 8365SOL    HW225995   1.679   3.869   5.941
 8366SOL     OW25996   2.494   6.646   2.001
 8366SOL    HW125997   2.568   6.657   1.934
 8366SOL    HW225998   2.471   6.735   2.040
 8367SOL     OW25999   5.170   5.565   3.780
 8367SOL    HW126000   5.135   5.614   3.700
 8367SOL    HW226001   5.100   5.562   3.851
 8368SOL     OW26002   2.815   5.378   6.150
 8368SOL    HW126003   2.878   5.415   6.219
 8368SOL    HW226004   2.827   5.427   6.064
 8369SOL     OW26005   1.949   1.369   1.515
 8369SOL    HW126006   2.026   1.383   1.577
 8369SOL    HW226007   1.912   1.277   1.528
 8370SOL     OW26008   2.561   1.174   0.651
 8370SOL    HW126009   2.471   1.218   0.655
 8370SOL    HW226010   2.564   1.098   0.716
 8371SOL     OW26011   1.254   2.406   0.217
 8371SOL    HW126012   1.193   2.415   0.138
 8371SOL    HW226013   1.336   2.461   0.202
 8372SOL     OW26014   5.726   0.784   6.986
 8372SOL    HW126015   5.705   0.882   6.994
 8372SOL    HW226016   5.802   0.761   0.027
 8373SOL     OW26017   1.904   6.841   3.737
 8373SOL    HW126018   1.820   6.861   3.787
 8373SOL    HW226019   1.944   6.926   3.705
 8374SOL     OW26020   6.654   1.877   5.673
 8374SOL    HW126021   6.613   1.961   5.637
 8374SOL    HW226022   6.638   1.872   5.771
 8375SOL     OW26023   3.886   0.723   6.332
 8375SOL    HW126024   3.817   0.722   6.405
 8375SOL    HW226025   3.847   0.685   6.248
 8376SOL     OW26026   4.581   6.887   3.795
 8376SOL    HW126027   4.631   6.904   3.880
 8376SOL    HW226028   4.489   6.925   3.803
 8377SOL     OW26029   4.421   5.142   0.206
 8377SOL    HW126030   4.330   5.181   0.186
 8377SOL    HW226031   4.448   5.081   0.131
 8378SOL     OW26032   5.292   3.296   3.636
 8378SOL    HW126033   5.306   3.314   3.539
 8378SOL    HW226034   5.258   3.202   3.648
 8379SOL     OW26035   5.168   3.120   2.795
 8379SOL    HW126036   5.254   3.068   2.797
 8379SOL    HW226037   5.143   3.139   2.700
 8380SOL     OW26038   5.853   1.215   4.278
 8380SOL    HW126039   5.915   1.292   4.293
 8380SOL    HW226040   5.780   1.242   4.216
 8381SOL     OW26041   2.025   5.246   4.790
 8381SOL    HW126042   2.086   5.287   4.722
 8381SOL    HW226043   1.950   5.199   4.743
 8382SOL     OW26044   0.883   4.701   2.054
 8382SOL    HW126045   0.841   4.790   2.070
 8382SOL    HW226046   0.816   4.629   2.073
 8383SOL     OW26047   2.973   1.393   5.673
 8383SOL    HW126048   3.037   1.317   5.670
 8383SOL    HW226049   2.996   1.460   5.603
 8384SOL     OW26050   0.686   0.261   1.363
 8384SOL    HW126051   0.718   0.354   1.381
 8384SOL    HW226052   0.734   0.224   1.283
 8385SOL     OW26053   4.193   1.777   1.238
 8385SOL    HW126054   4.265   1.748   1.301
 8385SOL    HW226055   4.132   1.841   1.285
 8386SOL     OW26056   0.194   2.545   1.958
 8386SOL    HW126057   0.217   2.616   1.891
 8386SOL    HW226058   0.203   2.455   1.917
 8387SOL     OW26059   0.633   2.018   2.252
 8387SOL    HW126060   0.579   1.992   2.172
 8387SOL    HW226061   0.615   2.114   2.275
 8388SOL     OW26062   1.470   6.707   2.453
 8388SOL    HW126063   1.382   6.745   2.483
 8388SOL    HW226064   1.495   6.630   2.512
 8389SOL     OW26065   6.756   2.992   4.011
 8389SOL    HW126066   6.689   3.056   4.050
 8389SOL    HW226067   6.721   2.898   4.021
 8390SOL     OW26068   6.119   2.277   6.401
 8390SOL    HW126069   6.111   2.376   6.391
 8390SOL    HW226070   6.211   2.249   6.371
 8391SOL     OW26071   6.283   0.717   0.746
 8391SOL    HW126072   6.276   0.635   0.688
 8391SOL    HW226073   6.329   0.694   0.831
 8392SOL     OW26074   3.884   3.032   4.673
 8392SOL    HW126075   3.810   3.092   4.644
 8392SOL    HW226076   3.964   3.087   4.698
 8393SOL     OW26077   5.642   0.350   0.639
 8393SOL    HW126078   5.621   0.330   0.543
 8393SOL    HW226079   5.574   0.413   0.675
 8394SOL     OW26080   4.934   3.356   3.107
 8394SOL    HW126081   5.032   3.352   3.131
 8394SOL    HW226082   4.924   3.358   3.008
 8395SOL     OW26083   1.976   1.299   6.032
 8395SOL    HW126084   2.020   1.212   6.011
 8395SOL    HW226085   1.991   1.363   5.956
 8396SOL     OW26086   4.754   5.064   4.022
 8396SOL    HW126087   4.850   5.089   4.035
 8396SOL    HW226088   4.695   5.131   4.069
 8397SOL     OW26089   5.255   6.570   2.720
 8397SOL    HW126090   5.354   6.554   2.720
 8397SOL    HW226091   5.208   6.487   2.750
 8398SOL     OW26092   6.063   1.841   6.496
 8398SOL    HW126093   6.023   1.929   6.473
 8398SOL    HW226094   5.992   1.771   6.501
 8399SOL     OW26095   0.714   4.008   3.004
 8399SOL    HW126096   0.783   3.962   3.060
 8399SOL    HW226097   0.623   3.973   3.026
 8400SOL     OW26098   1.240   0.739   4.157
 8400SOL    HW126099   1.322   0.791   4.178
 8400SOL    HW226100   1.219   0.677   4.232
 8401SOL     OW26101   1.498   0.338   6.153
 8401SOL    HW126102   1.484   0.426   6.199
 8401SOL    HW226103   1.535   0.272   6.218
 8402SOL     OW26104   2.595   0.651   5.934
 8402SOL    HW126105   2.635   0.686   5.849
 8402SOL    HW226106   2.660   0.589   5.978
 8403SOL     OW26107   5.868   4.477   6.168
 8403SOL    HW126108   5.945   4.528   6.208
 8403SOL    HW226109   5.896   4.438   6.080
 8404SOL     OW26110   1.048   1.013   6.963
 8404SOL    HW126111   0.959   1.032   6.919
 8404SOL    HW226112   1.091   1.099   6.989
 8405SOL     OW26113   3.590   6.530   5.702
 8405SOL    HW126114   3.547   6.601   5.646
 8405SOL    HW226115   3.689   6.538   5.694
 8406SOL     OW26116   6.516   1.305   5.981
 8406SOL    HW126117   6.587   1.272   5.920
 8406SOL    HW226118   6.472   1.386   5.941
 8407SOL     OW26119   4.866   0.653   5.186
 8407SOL    HW126120   4.860   0.734   5.128
 8407SOL    HW226121   4.790   0.591   5.165
 8408SOL     OW26122   3.696   2.051   1.737
 8408SOL    HW126123   3.690   2.149   1.751
 8408SOL    HW226124   3.767   2.031   1.669
 8409SOL     OW26125   4.683   2.730   1.918
 8409SOL    HW126126   4.772   2.751   1.957
 8409SOL    HW226127   4.641   2.814   1.882
 8410SOL     OW26128   0.053   1.946   1.741
 8410SOL    HW126129   0.142   1.934   1.698
 8410SOL    HW226130   0.065   1.982   1.834
 8411SOL     OW26131   0.844   5.325   1.395
 8411SOL    HW126132   0.807   5.327   1.488
 8411SOL    HW226133   0.935   5.364   1.394
 8412SOL     OW26134   2.766   2.245   6.955
 8412SOL    HW126135   2.722   2.170   7.004
 8412SOL    HW226136   2.811   2.209   6.873
 8413SOL     OW26137   3.716   5.892   4.984
 8413SOL    HW126138   3.646   5.866   4.917
 8413SOL    HW226139   3.795   5.931   4.937
 8414SOL     OW26140   1.460   0.114   1.052
 8414SOL    HW126141   1.490   0.144   1.143
 8414SOL    HW226142   1.533   0.059   1.010
 8415SOL     OW26143   3.720   1.203   6.302
 8415SOL    HW126144   3.768   1.158   6.227
 8415SOL    HW226145   3.755   1.295   6.314
 8416SOL     OW26146   0.254   2.342   5.074
 8416SOL    HW126147   0.342   2.375   5.038
 8416SOL    HW226148   0.195   2.315   4.998
 8417SOL     OW26149   1.851   2.951   6.184
 8417SOL    HW126150   1.928   2.909   6.232
 8417SOL    HW226151   1.835   2.902   6.098
 8418SOL     OW26152   6.692   6.169   2.341
 8418SOL    HW126153   6.741   6.255   2.352
 8418SOL    HW226154   6.608   6.185   2.289
 8419SOL     OW26155   3.966   1.552   3.935
 8419SOL    HW126156   4.018   1.614   3.877
 8419SOL    HW226157   3.890   1.602   3.977
 8420SOL     OW26158   4.129   1.255   2.380
 8420SOL    HW126159   4.041   1.304   2.378
 8420SOL    HW226160   4.158   1.236   2.287
 8421SOL     OW26161   4.668   0.177   6.664
 8421SOL    HW126162   4.613   0.147   6.586
 8421SOL    HW226163   4.630   0.261   6.703
 8422SOL     OW26164   5.480   1.553   4.608
 8422SOL    HW126165   5.520   1.641   4.634
 8422SOL    HW226166   5.485   1.542   4.508
 8423SOL     OW26167   6.479   5.691   0.371
 8423SOL    HW126168   6.561   5.704   0.315
 8423SOL    HW226169   6.399   5.727   0.322
 8424SOL     OW26170   2.521   7.009   5.251
 8424SOL    HW126171   2.445   6.945   5.259
 8424SOL    HW226172   2.589   6.989   5.321
 8425SOL     OW26173   3.302   2.958   1.763
 8425SOL    HW126174   3.316   2.892   1.688
 8425SOL    HW226175   3.295   2.908   1.850
 8426SOL     OW26176   3.654   3.445   1.806
 8426SOL    HW126177   3.633   3.363   1.753
 8426SOL    HW226178   3.654   3.422   1.904
 8427SOL     OW26179   3.605   4.138   2.612
 8427SOL    HW126180   3.698   4.115   2.582
 8427SOL    HW226181   3.599   4.126   2.711
 8428SOL     OW26182   4.950   1.414   1.652
 8428SOL    HW126183   5.047   1.427   1.631
 8428SOL    HW226184   4.897   1.414   1.567
 8429SOL     OW26185   3.131   5.975   5.587
 8429SOL    HW126186   3.120   6.075   5.587
 8429SOL    HW226187   3.200   5.950   5.519
 8430SOL     OW26188   4.998   6.846   5.685
 8430SOL    HW126189   5.030   6.884   5.598
 8430SOL    HW226190   4.898   6.842   5.684
 8431SOL     OW26191   2.690   3.101   6.514
 8431SOL    HW126192   2.613   3.061   6.466
 8431SOL    HW226193   2.716   3.187   6.470
 8432SOL     OW26194   6.543   5.185   5.647
 8432SOL    HW126195   6.541   5.090   5.678
 8432SOL    HW226196   6.570   5.244   5.724
 8433SOL     OW26197   4.653   1.914   0.646
 8433SOL    HW126198   4.715   1.837   0.664
 8433SOL    HW226199   4.609   1.901   0.556
 8434SOL     OW26200   2.792   6.213   4.320
 8434SOL    HW126201   2.842   6.130   4.345
 8434SOL    HW226202   2.780   6.270   4.402
 8435SOL     OW26203   6.775   1.567   3.568
 8435SOL    HW126204   6.797   1.572   3.666
 8435SOL    HW226205   6.745   1.475   3.545
 8436SOL     OW26206   2.579   4.974   2.622
 8436SOL    HW126207   2.504   4.910   2.609
 8436SOL    HW226208   2.665   4.930   2.597
 8437SOL     OW26209   1.593   5.834   0.322
 8437SOL    HW126210   1.496   5.827   0.299
 8437SOL    HW226211   1.642   5.879   0.247
 8438SOL     OW26212   0.999   4.424   2.352
 8438SOL    HW126213   0.971   4.363   2.426
 8438SOL    HW226214   0.961   4.515   2.367
 8439SOL     OW26215   5.800   4.452   2.788
 8439SOL    HW126216   5.853   4.535   2.767
 8439SOL    HW226217   5.737   4.471   2.863
 8440SOL     OW26218   1.508   1.875   2.698
 8440SOL    HW126219   1.420   1.886   2.653
 8440SOL    HW226220   1.534   1.963   2.740
 8441SOL     OW26221   7.017   2.850   6.387
 8441SOL    HW126222   0.028   2.759   6.414
 8441SOL    HW226223   0.069   2.895   6.334
 8442SOL     OW26224   3.376   2.475   6.423
 8442SOL    HW126225   3.337   2.473   6.515
 8442SOL    HW226226   3.408   2.384   6.398
 8443SOL     OW26227   2.121   3.961   2.968
 8443SOL    HW126228   2.038   3.911   2.993
 8443SOL    HW226229   2.097   4.045   2.919
 8444SOL     OW26230   5.371   5.937   5.118
 8444SOL    HW126231   5.343   5.867   5.183
 8444SOL    HW226232   5.290   5.974   5.072
 8445SOL     OW26233   4.810   6.554   6.455
 8445SOL    HW126234   4.838   6.590   6.544
 8445SOL    HW226235   4.713   6.577   6.439
 8446SOL     OW26236   6.524   6.148   4.505
 8446SOL    HW126237   6.477   6.236   4.510
 8446SOL    HW226238   6.533   6.120   4.410
 8447SOL     OW26239   3.617   2.045   3.774
 8447SOL    HW126240   3.595   1.986   3.852
 8447SOL    HW226241   3.533   2.085   3.738
 8448SOL     OW26242   3.508   6.899   2.664
 8448SOL    HW126243   3.465   6.885   2.754
 8448SOL    HW226244   3.574   6.973   2.670
 8449SOL     OW26245   0.831   2.539   3.859
 8449SOL    HW126246   0.847   2.524   3.956
 8449SOL    HW226247   0.911   2.508   3.807
 8450SOL     OW26248   6.790   1.646   1.090
 8450SOL    HW126249   6.761   1.555   1.120
 8450SOL    HW226250   6.710   1.700   1.065
 8451SOL     OW26251   4.579   2.796   0.417
 8451SOL    HW126252   4.641   2.732   0.370
 8451SOL    HW226253   4.494   2.748   0.440
 8452SOL     OW26254   5.169   0.811   5.826
 8452SOL    HW126255   5.177   0.712   5.816
 8452SOL    HW226256   5.130   0.850   5.743
 8453SOL     OW26257   0.172   1.023   0.263
 8453SOL    HW126258   0.251   0.964   0.249
 8453SOL    HW226259   0.198   1.118   0.251
 8454SOL     OW26260   6.466   5.989   0.006
 8454SOL    HW126261   6.521   6.011   6.946
 8454SOL    HW226262   6.371   6.015   7.009
 8455SOL     OW26263   6.597   0.838   2.899
 8455SOL    HW126264   6.678   0.862   2.953
 8455SOL    HW226265   6.518   0.888   2.934
 8456SOL     OW26266   6.090   0.293   2.063
 8456SOL    HW126267   6.175   0.241   2.060
 8456SOL    HW226268   6.038   0.268   2.145
 8457SOL     OW26269   6.303   6.632   4.731
 8457SOL    HW126270   6.350   6.578   4.662
 8457SOL    HW226271   6.369   6.687   4.781
 8458SOL     OW26272   1.353   6.645   0.858
 8458SOL    HW126273   1.367   6.636   0.957
 8458SOL    HW226274   1.284   6.580   0.828
 8459SOL     OW26275   0.865   6.459   3.950
 8459SOL    HW126276   0.815   6.383   3.991
 8459SOL    HW226277   0.962   6.434   3.939
 8460SOL     OW26278   4.060   3.434   3.726
 8460SOL    HW126279   4.015   3.442   3.815
 8460SOL    HW226280   4.090   3.525   3.697
 8461SOL     OW26281   6.401   3.682   3.885
 8461SOL    HW126282   6.465   3.613   3.919
 8461SOL    HW226283   6.400   3.761   3.947
 8462SOL     OW26284   2.642   2.377   2.243
 8462SOL    HW126285   2.730   2.376   2.195
 8462SOL    HW226286   2.574   2.423   2.186
 8463SOL     OW26287   6.524   0.204   1.849
 8463SOL    HW126288   6.598   0.261   1.884
 8463SOL    HW226289   6.553   0.109   1.847
 8464SOL     OW26290   6.664   1.427   4.796
 8464SOL    HW126291   6.605   1.352   4.766
 8464SOL    HW226292   6.715   1.399   4.877
 8465SOL     OW26293   1.714   0.645   0.345
 8465SOL    HW126294   1.755   0.729   0.379
 8465SOL    HW226295   1.750   0.623   0.255
 8466SOL     OW26296   1.235   0.079   3.693
 8466SOL    HW126297   1.192   0.168   3.675
 8466SOL    HW226298   1.167   0.007   3.687
 8467SOL     OW26299   3.712   5.266   1.264
 8467SOL    HW126300   3.688   5.281   1.168
 8467SOL    HW226301   3.638   5.301   1.322
 8468SOL     OW26302   4.615   2.796   7.010
 8468SOL    HW126303   4.550   2.865   0.023
 8468SOL    HW226304   4.567   2.713   6.984
 8469SOL     OW26305   5.143   2.216   5.254
 8469SOL    HW126306   5.117   2.133   5.303
 8469SOL    HW226307   5.093   2.295   5.291
 8470SOL     OW26308   1.770   2.672   6.840
 8470SOL    HW126309   1.672   2.688   6.853
 8470SOL    HW226310   1.794   2.582   6.875
 8471SOL     OW26311   3.646   1.571   6.117
 8471SOL    HW126312   3.639   1.573   6.217
 8471SOL    HW226313   3.555   1.580   6.077
 8472SOL     OW26314   1.447   5.948   2.479
 8472SOL    HW126315   1.533   5.964   2.431
 8472SOL    HW226316   1.417   6.033   2.523
 8473SOL     OW26317   6.603   5.571   6.596
 8473SOL    HW126318   6.597   5.604   6.690
 8473SOL    HW226319   6.611   5.472   6.595
 8474SOL     OW26320   4.387   5.913   6.739
 8474SOL    HW126321   4.439   5.916   6.653
 8474SOL    HW226322   4.298   5.872   6.722
 8475SOL     OW26323   5.104   1.507   2.919
 8475SOL    HW126324   5.141   1.520   2.827
 8475SOL    HW226325   5.004   1.514   2.917
 8476SOL     OW26326   5.343   1.135   2.907
 8476SOL    HW126327   5.299   1.204   2.964
 8476SOL    HW226328   5.289   1.051   2.908
 8477SOL     OW26329   2.361   1.143   3.544
 8477SOL    HW126330   2.460   1.155   3.542
 8477SOL    HW226331   2.332   1.122   3.637
 8478SOL     OW26332   1.190   1.831   6.242
 8478SOL    HW126333   1.288   1.817   6.235
 8478SOL    HW226334   1.171   1.914   6.293
 8479SOL     OW26335   5.591   6.729   2.119
 8479SOL    HW126336   5.547   6.639   2.121
 8479SOL    HW226337   5.584   6.767   2.027
 8480SOL     OW26338   2.363   1.230   2.614
 8480SOL    HW126339   2.309   1.208   2.532
 8480SOL    HW226340   2.361   1.153   2.677
 8481SOL     OW26341   4.139   0.282   5.481
 8481SOL    HW126342   4.200   0.351   5.519
 8481SOL    HW226343   4.126   0.208   5.548
 8482SOL     OW26344   6.232   0.636   1.210
 8482SOL    HW126345   6.199   0.544   1.230
 8482SOL    HW226346   6.292   0.667   1.284
 8483SOL     OW26347   4.751   6.232   1.505
 8483SOL    HW126348   4.773   6.321   1.545
 8483SOL    HW226349   4.663   6.201   1.540
 8484SOL     OW26350   6.394   4.432   6.083
 8484SOL    HW126351   6.424   4.388   5.998
 8484SOL    HW226352   6.378   4.530   6.066
 8485SOL     OW26353   2.121   3.213   6.635
 8485SOL    HW126354   2.155   3.305   6.613
 8485SOL    HW226355   2.114   3.160   6.551
 8486SOL     OW26356   4.477   0.115   2.082
 8486SOL    HW126357   4.473   0.210   2.112
 8486SOL    HW226358   4.462   0.054   2.160
 8487SOL     OW26359   4.337   0.546   1.060
 8487SOL    HW126360   4.324   0.448   1.046
 8487SOL    HW226361   4.431   0.571   1.036
 8488SOL     OW26362   0.137   4.401   6.290
 8488SOL    HW126363   0.041   4.420   6.314
 8488SOL    HW226364   0.142   4.314   6.240
 8489SOL     OW26365   3.328   0.064   3.270
 8489SOL    HW126366   3.414   0.017   3.290
 8489SOL    HW226367   3.346   0.143   3.211
 8490SOL     OW26368   3.701   5.095   2.354
 8490SOL    HW126369   3.650   5.019   2.314
 8490SOL    HW226370   3.766   5.131   2.287
 8491SOL     OW26371   0.330   0.975   1.232
 8491SOL    HW126372   0.291   0.894   1.188
 8491SOL    HW226373   0.263   1.015   1.294
 8492SOL     OW26374   5.967   4.238   4.499
 8492SOL    HW126375   5.916   4.218   4.415
 8492SOL    HW226376   6.057   4.274   4.476
 8493SOL     OW26377   4.235   3.049   0.590
 8493SOL    HW126378   4.178   2.991   0.532
 8493SOL    HW226379   4.214   3.030   0.686
 8494SOL     OW26380   3.049   6.053   6.813
 8494SOL    HW126381   2.958   6.021   6.843
 8494SOL    HW226382   3.042   6.088   6.720
 8495SOL     OW26383   0.221   3.462   6.373
 8495SOL    HW126384   0.223   3.385   6.310
 8495SOL    HW226385   0.315   3.485   6.400
 8496SOL     OW26386   1.469   1.901   4.572
 8496SOL    HW126387   1.464   1.885   4.473
 8496SOL    HW226388   1.502   1.819   4.618
 8497SOL     OW26389   5.406   3.672   4.208
 8497SOL    HW126390   5.426   3.683   4.110
 8497SOL    HW226391   5.321   3.621   4.220
 8498SOL     OW26392   6.483   1.024   1.852
 8498SOL    HW126393   6.395   0.986   1.823
 8498SOL    HW226394   6.488   1.025   1.951
 8499SOL     OW26395   6.812   4.137   0.771
 8499SOL    HW126396   6.806   4.223   0.720
 8499SOL    HW226397   6.875   4.148   0.848
 8500SOL     OW26398   1.602   0.750   5.123
 8500SOL    HW126399   1.608   0.679   5.053
 8500SOL    HW226400   1.606   0.709   5.213
 8501SOL     OW26401   3.046   3.393   6.283
 8501SOL    HW126402   3.116   3.390   6.211
 8501SOL    HW226403   3.071   3.463   6.351
 8502SOL     OW26404   0.334   6.629   1.144
 8502SOL    HW126405   0.272   6.639   1.066
 8502SOL    HW226406   0.295   6.566   1.210
 8503SOL     OW26407   3.680   5.697   3.295
 8503SOL    HW126408   3.726   5.662   3.213
 8503SOL    HW226409   3.615   5.628   3.328
 8504SOL     OW26410   2.043   4.954   2.956
 8504SOL    HW126411   2.141   4.971   2.967
 8504SOL    HW226412   2.022   4.943   2.859
 8505SOL     OW26413   4.173   1.818   2.386
 8505SOL    HW126414   4.079   1.788   2.371
 8505SOL    HW226415   4.180   1.917   2.371
 8506SOL     OW26416   0.552   5.243   7.018
 8506SOL    HW126417   0.470   5.185   7.008
 8506SOL    HW226418   0.633   5.187   7.002
 8507SOL     OW26419   2.310   0.361   4.191
 8507SOL    HW126420   2.399   0.397   4.163
 8507SOL    HW226421   2.323   0.289   4.260
 8508SOL     OW26422   0.876   3.478   6.123
 8508SOL    HW126423   0.880   3.526   6.211
 8508SOL    HW226424   0.881   3.545   6.049
 8509SOL     OW26425   6.867   2.981   4.483
 8509SOL    HW126426   6.826   3.068   4.455
 8509SOL    HW226427   6.966   2.984   4.467
 8510SOL     OW26428   5.476   6.322   2.974
 8510SOL    HW126429   5.534   6.398   2.945
 8510SOL    HW226430   5.512   6.283   3.059
 8511SOL     OW26431   6.644   5.265   1.118
 8511SOL    HW126432   6.731   5.278   1.164
 8511SOL    HW226433   6.575   5.236   1.185
 8512SOL     OW26434   3.934   2.926   0.907
 8512SOL    HW126435   3.868   2.877   0.850
 8512SOL    HW226436   3.897   2.937   0.999
 8513SOL     OW26437   0.923   3.589   0.792
 8513SOL    HW126438   0.918   3.648   0.711
 8513SOL    HW226439   0.834   3.547   0.809
 8514SOL     OW26440   2.157   3.015   5.206
 8514SOL    HW126441   2.175   3.029   5.303
 8514SOL    HW226442   2.242   2.993   5.159
 8515SOL     OW26443   2.875   1.342   0.611
 8515SOL    HW126444   2.792   1.393   0.633
 8515SOL    HW226445   2.943   1.404   0.571
 8516SOL     OW26446   7.006   3.533   5.725
 8516SOL    HW126447   6.954   3.522   5.640
 8516SOL    HW226448   0.083   3.520   5.707
 8517SOL     OW26449   1.170   2.289   5.611
 8517SOL    HW126450   1.120   2.284   5.524
 8517SOL    HW226451   1.133   2.364   5.666
 8518SOL     OW26452   5.577   5.151   0.444
 8518SOL    HW126453   5.552   5.211   0.368
 8518SOL    HW226454   5.646   5.197   0.501
 8519SOL     OW26455   1.416   3.887   1.062
 8519SOL    HW126456   1.458   3.900   1.151
 8519SOL    HW226457   1.446   3.800   1.023
 8520SOL     OW26458   3.043   3.833   6.001
 8520SOL    HW126459   3.081   3.917   5.962
 8520SOL    HW226460   2.972   3.856   6.067
 8521SOL     OW26461   2.016   0.214   4.923
 8521SOL    HW126462   2.020   0.259   4.833
 8521SOL    HW226463   1.964   0.272   4.986
 8522SOL     OW26464   0.355   0.825   0.280
 8522SOL    HW126465   0.301   0.744   0.257
 8522SOL    HW226466   0.451   0.808   0.258
 8523SOL     OW26467   4.017   1.951   1.881
 8523SOL    HW126468   4.099   1.997   1.913
 8523SOL    HW226469   3.947   1.955   1.952
 8524SOL     OW26470   2.573   6.161   5.138
 8524SOL    HW126471   2.621   6.074   5.134
 8524SOL    HW226472   2.491   6.151   5.196
 8525SOL     OW26473   6.392   2.761   3.290
 8525SOL    HW126474   6.377   2.706   3.372
 8525SOL    HW226475   6.397   2.700   3.210
 8526SOL     OW26476   0.785   4.610   6.136
 8526SOL    HW126477   0.728   4.544   6.087
 8526SOL    HW226478   0.751   4.703   6.119
 8527SOL     OW26479   1.405   0.873   6.328
 8527SOL    HW126480   1.455   0.881   6.414
 8527SOL    HW226481   1.365   0.961   6.304
 8528SOL     OW26482   5.672   6.722   0.296
 8528SOL    HW126483   5.689   6.757   0.204
 8528SOL    HW226484   5.704   6.788   0.364
 8529SOL     OW26485   0.881   6.198   6.846
 8529SOL    HW126486   0.811   6.265   6.821
 8529SOL    HW226487   0.937   6.177   6.766
 8530SOL     OW26488   3.688   4.130   3.179
 8530SOL    HW126489   3.721   4.052   3.233
 8530SOL    HW226490   3.754   4.205   3.186
 8531SOL     OW26491   6.292   5.945   3.230
 8531SOL    HW126492   6.387   5.914   3.227
 8531SOL    HW226493   6.269   5.988   3.143
 8532SOL     OW26494   3.533   5.597   0.248
 8532SOL    HW126495   3.613   5.538   0.234
 8532SOL    HW226496   3.555   5.666   0.316
 8533SOL     OW26497   2.474   5.738   5.270
 8533SOL    HW126498   2.482   5.638   5.274
 8533SOL    HW226499   2.386   5.766   5.308
 8534SOL     OW26500   2.082   3.262   2.140
 8534SOL    HW126501   2.126   3.239   2.226
 8534SOL    HW226502   2.135   3.334   2.094
 8535SOL     OW26503   6.039   6.524   1.798
 8535SOL    HW126504   6.099   6.600   1.822
 8535SOL    HW226505   6.011   6.534   1.702
 8536SOL     OW26506   2.380   0.681   4.231
 8536SOL    HW126507   2.475   0.660   4.205
 8536SOL    HW226508   2.317   0.633   4.170
 8537SOL     OW26509   5.906   1.003   2.853
 8537SOL    HW126510   5.807   1.014   2.848
 8537SOL    HW226511   5.929   0.927   2.913
 8538SOL     OW26512   0.395   2.631   6.827
 8538SOL    HW126513   0.296   2.617   6.837
 8538SOL    HW226514   0.434   2.556   6.773
 8539SOL     OW26515   5.315   3.722   1.788
 8539SOL    HW126516   5.316   3.774   1.873
 8539SOL    HW226517   5.244   3.651   1.793
 8540SOL     OW26518   4.379   6.965   1.071
 8540SOL    HW126519   4.469   6.994   1.103
 8540SOL    HW226520   4.331   0.024   1.032
 8541SOL     OW26521   1.090   2.939   3.314
 8541SOL    HW126522   1.040   2.916   3.231
 8541SOL    HW226523   1.049   2.891   3.392
 8542SOL     OW26524   3.007   5.296   6.569
 8542SOL    HW126525   3.098   5.292   6.528
 8542SOL    HW226526   3.001   5.231   6.645
 8543SOL     OW26527   3.960   1.800   6.974
 8543SOL    HW126528   3.983   1.846   6.889
 8543SOL    HW226529   4.002   1.710   6.976
 8544SOL     OW26530   5.724   2.550   4.521
 8544SOL    HW126531   5.673   2.492   4.458
 8544SOL    HW226532   5.780   2.492   4.580
 8545SOL     OW26533   4.480   0.384   5.184
 8545SOL    HW126534   4.406   0.387   5.117
 8545SOL    HW226535   4.498   0.476   5.219
 8546SOL     OW26536   4.453   2.186   6.083
 8546SOL    HW126537   4.413   2.096   6.069
 8546SOL    HW226538   4.383   2.250   6.114
 8547SOL     OW26539   1.701   4.776   2.363
 8547SOL    HW126540   1.799   4.770   2.344
 8547SOL    HW226541   1.660   4.845   2.303
 8548SOL     OW26542   5.949   2.727   5.169
 8548SOL    HW126543   5.908   2.656   5.226
 8548SOL    HW226544   5.893   2.741   5.087
 8549SOL     OW26545   4.923   2.401   4.409
 8549SOL    HW126546   4.878   2.429   4.494
 8549SOL    HW226547   5.022   2.396   4.424
 8550SOL     OW26548   1.878   4.893   5.947
 8550SOL    HW126549   1.891   4.991   5.928
 8550SOL    HW226550   1.803   4.882   6.012
 8551SOL     OW26551   2.748   5.157   0.709
 8551SOL    HW126552   2.670   5.218   0.694
 8551SOL    HW226553   2.826   5.188   0.655
 8552SOL     OW26554   2.959   6.728   3.449
 8552SOL    HW126555   2.963   6.744   3.547
 8552SOL    HW226556   2.988   6.810   3.400
 8553SOL     OW26557   6.317   5.623   6.850
 8553SOL    HW126558   6.238   5.679   6.824
 8553SOL    HW226559   6.400   5.678   6.843
 8554SOL     OW26560   5.802   3.642   6.872
 8554SOL    HW126561   5.803   3.742   6.868
 8554SOL    HW226562   5.741   3.613   6.946
 8555SOL     OW26563   2.101   6.338   4.251
 8555SOL    HW126564   2.045   6.258   4.270
 8555SOL    HW226565   2.053   6.398   4.187
 8556SOL     OW26566   5.573   0.574   5.370
 8556SOL    HW126567   5.567   0.528   5.281
 8556SOL    HW226568   5.483   0.575   5.414
 8557SOL     OW26569   7.016   1.833   1.184
 8557SOL    HW126570   6.965   1.899   1.130
 8557SOL    HW226571   6.962   1.749   1.194
 8558SOL     OW26572   1.882   4.492   2.240
 8558SOL    HW126573   1.800   4.483   2.297
 8558SOL    HW226574   1.950   4.545   2.289
 8559SOL     OW26575   1.266   1.167   5.010
 8559SOL    HW126576   1.357   1.126   5.017
 8559SOL    HW226577   1.248   1.222   5.091
 8560SOL     OW26578   6.187   2.833   0.103
 8560SOL    HW126579   6.111   2.825   0.166
 8560SOL    HW226580   6.269   2.862   0.152
 8561SOL     OW26581   5.340   6.512   5.905
 8561SOL    HW126582   5.350   6.454   5.824
 8561SOL    HW226583   5.272   6.583   5.887
 8562SOL     OW26584   3.893   0.978   4.947
 8562SOL    HW126585   3.966   0.964   4.881
 8562SOL    HW226586   3.872   1.076   4.953
 8563SOL     OW26587   2.494   3.011   6.356
 8563SOL    HW126588   2.467   2.915   6.352
 8563SOL    HW226589   2.460   3.058   6.275
 8564SOL     OW26590   0.835   5.468   4.129
 8564SOL    HW126591   0.771   5.545   4.133
 8564SOL    HW226592   0.826   5.421   4.041
 8565SOL     OW26593   3.498   0.728   1.492
 8565SOL    HW126594   3.505   0.827   1.494
 8565SOL    HW226595   3.548   0.689   1.570
 8566SOL     OW26596   1.702   4.650   4.477
 8566SOL    HW126597   1.665   4.557   4.481
 8566SOL    HW226598   1.745   4.666   4.388
 8567SOL     OW26599   4.938   6.581   6.154
 8567SOL    HW126600   4.950   6.595   6.253
 8567SOL    HW226601   4.904   6.488   6.138
 8568SOL     OW26602   5.120   6.882   0.871
 8568SOL    HW126603   5.183   6.843   0.937
 8568SOL    HW226604   5.109   6.819   0.794
 8569SOL     OW26605   2.383   0.866   5.356
 8569SOL    HW126606   2.403   0.951   5.308
 8569SOL    HW226607   2.468   0.817   5.375
 8570SOL     OW26608   6.815   3.750   6.149
 8570SOL    HW126609   6.811   3.662   6.196
 8570SOL    HW226610   6.833   3.822   6.216
 8571SOL     OW26611   0.467   4.507   6.777
 8571SOL    HW126612   0.517   4.467   6.854
 8571SOL    HW226613   0.448   4.603   6.795
 8572SOL     OW26614   2.449   4.306   6.473
 8572SOL    HW126615   2.463   4.394   6.517
 8572SOL    HW226616   2.531   4.250   6.485
 8573SOL     OW26617   3.064   5.760   4.356
 8573SOL    HW126618   3.047   5.710   4.441
 8573SOL    HW226619   3.133   5.710   4.302
 8574SOL     OW26620   1.120   4.265   4.212
 8574SOL    HW126621   1.178   4.343   4.236
 8574SOL    HW226622   1.142   4.187   4.272
 8575SOL     OW26623   2.695   3.237   6.256
 8575SOL    HW126624   2.742   3.295   6.189
 8575SOL    HW226625   2.644   3.165   6.208
 8576SOL     OW26626   1.737   0.488   0.550
 8576SOL    HW126627   1.702   0.537   0.470
 8576SOL    HW226628   1.754   0.553   0.624
 8577SOL     OW26629   6.351   5.892   4.872
 8577SOL    HW126630   6.351   5.842   4.959
 8577SOL    HW226631   6.296   5.975   4.882
 8578SOL     OW26632   4.753   0.488   4.211
 8578SOL    HW126633   4.782   0.584   4.214
 8578SOL    HW226634   4.765   0.448   4.302
 8579SOL     OW26635   6.879   4.792   2.318
 8579SOL    HW126636   6.864   4.888   2.343
 8579SOL    HW226637   6.801   4.760   2.264
 8580SOL     OW26638   1.790   5.890   5.947
 8580SOL    HW126639   1.807   5.837   6.030
 8580SOL    HW226640   1.764   5.984   5.971
 8581SOL     OW26641   3.275   3.234   0.281
 8581SOL    HW126642   3.233   3.144   0.273
 8581SOL    HW226643   3.345   3.232   0.352
 8582SOL     OW26644   2.746   6.005   0.263
 8582SOL    HW126645   2.845   6.008   0.276
 8582SOL    HW226646   2.725   5.988   0.166
 8583SOL     OW26647   5.783   6.812   4.312
 8583SOL    HW126648   5.794   6.910   4.294
 8583SOL    HW226649   5.860   6.762   4.272
 8584SOL     OW26650   0.570   5.505   6.284
 8584SOL    HW126651   0.542   5.548   6.199
 8584SOL    HW226652   0.506   5.432   6.308
 8585SOL     OW26653   1.027   0.839   0.495
 8585SOL    HW126654   1.023   0.743   0.469
 8585SOL    HW226655   1.061   0.893   0.419
 8586SOL     OW26656   3.690   5.376   3.317
 8586SOL    HW126657   3.696   5.280   3.344
 8586SOL    HW226658   3.673   5.433   3.397
 8587SOL     OW26659   0.142   1.620   0.685
 8587SOL    HW126660   0.151   1.666   0.773
 8587SOL    HW226661   0.131   1.522   0.699
 8588SOL     OW26662   3.800   3.124   6.767
 8588SOL    HW126663   3.712   3.138   6.813
 8588SOL    HW226664   3.797   3.164   6.675
 8589SOL     OW26665   3.458   1.402   4.063
 8589SOL    HW126666   3.384   1.360   4.115
 8589SOL    HW226667   3.543   1.399   4.116
 8590SOL     OW26668   5.095   3.669   6.049
 8590SOL    HW126669   5.112   3.644   5.954
 8590SOL    HW226670   5.180   3.698   6.092
 8591SOL     OW26671   0.413   3.277   0.846
 8591SOL    HW126672   0.330   3.222   0.848
 8591SOL    HW226673   0.408   3.349   0.916
 8592SOL     OW26674   6.775   6.028   0.283
 8592SOL    HW126675   6.805   5.962   0.351
 8592SOL    HW226676   6.830   6.019   0.201
 8593SOL     OW26677   0.821   5.264   3.929
 8593SOL    HW126678   0.835   5.166   3.940
 8593SOL    HW226679   0.853   5.292   3.839
 8594SOL     OW26680   3.775   3.635   2.538
 8594SOL    HW126681   3.721   3.687   2.472
 8594SOL    HW226682   3.717   3.608   2.614
 8595SOL     OW26683   1.104   2.649   2.522
 8595SOL    HW126684   1.039   2.646   2.447
 8595SOL    HW226685   1.195   2.672   2.487
 8596SOL     OW26686   0.032   3.802   2.700
 8596SOL    HW126687   7.007   3.792   2.611
 8596SOL    HW226688   6.987   3.838   2.766
 8597SOL     OW26689   2.098   1.948   0.746
 8597SOL    HW126690   2.131   1.951   0.840
 8597SOL    HW226691   2.086   1.853   0.717
 8598SOL     OW26692   6.458   2.824   1.686
 8598SOL    HW126693   6.398   2.878   1.745
 8598SOL    HW226694   6.472   2.734   1.726
 8599SOL     OW26695   0.696   2.229   0.618
 8599SOL    HW126696   0.672   2.250   0.523
 8599SOL    HW226697   0.794   2.245   0.632
 8600SOL     OW26698   0.201   3.058   5.891
 8600SOL    HW126699   0.284   3.075   5.945
 8600SOL    HW226700   0.209   2.969   5.846
 8601SOL     OW26701   0.708   0.438   4.577
 8601SOL    HW126702   0.615   0.409   4.599
 8601SOL    HW226703   0.742   0.499   4.648
 8602SOL     OW26704   0.969   6.172   2.384
 8602SOL    HW126705   0.886   6.226   2.371
 8602SOL    HW226706   1.045   6.214   2.334
 8603SOL     OW26707   4.802   3.912   1.886
 8603SOL    HW126708   4.880   3.951   1.837
 8603SOL    HW226709   4.739   3.870   1.821
 8604SOL     OW26710   6.391   2.379   3.587
 8604SOL    HW126711   6.393   2.478   3.577
 8604SOL    HW226712   6.392   2.356   3.684
 8605SOL     OW26713   2.212   5.426   1.761
 8605SOL    HW126714   2.288   5.420   1.826
 8605SOL    HW226715   2.128   5.450   1.810
 8606SOL     OW26716   4.212   5.523   4.656
 8606SOL    HW126717   4.245   5.465   4.731
 8606SOL    HW226718   4.123   5.489   4.625
 8607SOL     OW26719   2.983   6.481   0.394
 8607SOL    HW126720   3.002   6.392   0.436
 8607SOL    HW226721   3.003   6.553   0.460
 8608SOL     OW26722   5.733   6.407   3.205
 8608SOL    HW126723   5.660   6.473   3.188
 8608SOL    HW226724   5.821   6.447   3.179
 8609SOL     OW26725   5.777   0.009   5.643
 8609SOL    HW126726   5.728   0.090   5.677
 8609SOL    HW226727   5.749   7.010   5.549
 8610SOL     OW26728   0.282   6.903   4.508
 8610SOL    HW126729   0.234   6.816   4.497
 8610SOL    HW226730   0.361   6.905   4.448
 8611SOL     OW26731   1.764   1.751   2.654
 8611SOL    HW126732   1.750   1.719   2.561
 8611SOL    HW226733   1.681   1.796   2.687
 8612SOL     OW26734   5.365   3.212   4.564
 8612SOL    HW126735   5.302   3.274   4.516
 8612SOL    HW226736   5.314   3.160   4.633
 8613SOL     OW26737   1.598   0.575   0.979
 8613SOL    HW126738   1.530   0.503   0.966
 8613SOL    HW226739   1.553   0.664   0.981
 8614SOL     OW26740   1.557   2.957   3.515
 8614SOL    HW126741   1.533   2.865   3.547
 8614SOL    HW226742   1.632   2.951   3.449
 8615SOL     OW26743   4.695   1.784   5.975
 8615SOL    HW126744   4.619   1.824   5.923
 8615SOL    HW226745   4.675   1.790   6.072
 8616SOL     OW26746   0.799   3.220   1.039
 8616SOL    HW126747   0.752   3.189   0.957
 8616SOL    HW226748   0.888   3.259   1.014
 8617SOL     OW26749   6.658   3.417   0.493
 8617SOL    HW126750   6.664   3.331   0.443
 8617SOL    HW226751   6.568   3.425   0.535
 8618SOL     OW26752   3.213   1.424   3.038
 8618SOL    HW126753   3.275   1.490   2.996
 8618SOL    HW226754   3.127   1.422   2.987
 8619SOL     OW26755   4.021   6.482   0.644
 8619SOL    HW126756   4.086   6.461   0.572
 8619SOL    HW226757   4.034   6.419   0.720
 8620SOL     OW26758   5.909   5.949   4.004
 8620SOL    HW126759   5.825   5.991   4.038
 8620SOL    HW226760   5.889   5.859   3.966
 8621SOL     OW26761   4.921   1.174   3.815
 8621SOL    HW126762   4.836   1.210   3.853
 8621SOL    HW226763   4.998   1.228   3.848
 8622SOL     OW26764   5.152   5.043   5.736
 8622SOL    HW126765   5.146   4.993   5.822
 8622SOL    HW226766   5.068   5.029   5.684
 8623SOL     OW26767   5.790   1.684   4.023
 8623SOL    HW126768   5.871   1.734   3.990
 8623SOL    HW226769   5.708   1.722   3.981
 8624SOL     OW26770   6.860   2.874   3.811
 8624SOL    HW126771   6.888   2.926   3.730
 8624SOL    HW226772   6.814   2.934   3.876
 8625SOL     OW26773   3.250   1.308   6.893
 8625SOL    HW126774   3.294   1.253   6.823
 8625SOL    HW226775   3.295   1.292   6.981
 8626SOL     OW26776   2.976   3.905   1.684
 8626SOL    HW126777   2.969   3.960   1.601
 8626SOL    HW226778   3.005   3.964   1.760
 8627SOL     OW26779   3.237   0.193   6.473
 8627SOL    HW126780   3.157   0.140   6.500
 8627SOL    HW226781   3.292   0.215   6.553
 8628SOL     OW26782   6.041   0.485   1.812
 8628SOL    HW126783   6.105   0.546   1.859
 8628SOL    HW226784   5.983   0.439   1.879
 8629SOL     OW26785   1.319   6.124   3.344
 8629SOL    HW126786   1.398   6.185   3.337
 8629SOL    HW226787   1.236   6.176   3.327
 8630SOL     OW26788   5.190   5.022   4.117
 8630SOL    HW126789   5.103   4.972   4.114
 8630SOL    HW226790   5.194   5.079   4.199
 8631SOL     OW26791   3.930   0.019   3.157
 8631SOL    HW126792   3.905   6.947   3.190
 8631SOL    HW226793   3.961   0.075   3.234
 8632SOL     OW26794   2.658   1.063   2.927
 8632SOL    HW126795   2.734   1.003   2.904
 8632SOL    HW226796   2.630   1.115   2.847
 8633SOL     OW26797   6.024   6.390   3.018
 8633SOL    HW126798   5.961   6.378   2.941
 8633SOL    HW226799   6.102   6.329   3.007
 8634SOL     OW26800   5.398   6.925   1.385
 8634SOL    HW126801   5.458   6.987   1.335
 8634SOL    HW226802   5.426   6.830   1.369
 8635SOL     OW26803   6.250   3.777   5.851
 8635SOL    HW126804   6.345   3.746   5.862
 8635SOL    HW226805   6.195   3.746   5.928
 8636SOL     OW26806   5.656   4.967   1.364
 8636SOL    HW126807   5.649   4.925   1.274
 8636SOL    HW226808   5.752   4.973   1.391
 8637SOL     OW26809   0.626   0.446   2.088
 8637SOL    HW126810   0.676   0.396   2.017
 8637SOL    HW226811   0.563   0.385   2.134
 8638SOL     OW26812   6.587   4.655   0.746
 8638SOL    HW126813   6.592   4.755   0.735
 8638SOL    HW226814   6.677   4.616   0.726
 8639SOL     OW26815   5.750   2.708   3.769
 8639SOL    HW126816   5.776   2.615   3.795
 8639SOL    HW226817   5.650   2.716   3.769
 8640SOL     OW26818   5.025   5.775   1.187
 8640SOL    HW126819   5.123   5.791   1.190
 8640SOL    HW226820   4.991   5.789   1.093
 8641SOL     OW26821   5.024   5.276   4.060
 8641SOL    HW126822   4.992   5.244   4.149
 8641SOL    HW226823   5.096   5.215   4.026
 8642SOL     OW26824   4.334   0.832   1.061
 8642SOL    HW126825   4.283   0.757   1.018
 8642SOL    HW226826   4.373   0.801   1.148
 8643SOL     OW26827   4.874   6.910   0.211
 8643SOL    HW126828   4.922   6.984   0.257
 8643SOL    HW226829   4.864   6.832   0.273
 8644SOL     OW26830   6.323   3.234   5.432
 8644SOL    HW126831   6.368   3.211   5.518
 8644SOL    HW226832   6.252   3.302   5.449
 8645SOL     OW26833   6.324   3.564   2.118
 8645SOL    HW126834   6.313   3.488   2.054
 8645SOL    HW226835   6.417   3.565   2.153
 8646SOL     OW26836   4.431   6.381   0.089
 8646SOL    HW126837   4.349   6.437   0.093
 8646SOL    HW226838   4.438   6.325   0.171
 8647SOL     OW26839   4.834   4.787   1.894
 8647SOL    HW126840   4.905   4.856   1.882
 8647SOL    HW226841   4.870   4.710   1.947
 8648SOL     OW26842   6.523   0.733   4.668
 8648SOL    HW126843   6.604   0.676   4.655
 8648SOL    HW226844   6.456   0.685   4.725
 8649SOL     OW26845   6.610   3.131   5.412
 8649SOL    HW126846   6.545   3.096   5.480
 8649SOL    HW226847   6.700   3.092   5.430
 8650SOL     OW26848   0.362   5.601   1.778
 8650SOL    HW126849   0.306   5.602   1.860
 8650SOL    HW226850   0.328   5.530   1.715
 8651SOL     OW26851   4.475   3.516   0.993
 8651SOL    HW126852   4.553   3.577   1.000
 8651SOL    HW226853   4.466   3.463   1.077
 8652SOL     OW26854   0.910   2.580   4.590
 8652SOL    HW126855   0.830   2.577   4.529
 8652SOL    HW226856   0.982   2.634   4.548
 8653SOL     OW26857   5.182   3.492   6.430
 8653SOL    HW126858   5.107   3.509   6.494
 8653SOL    HW226859   5.254   3.440   6.476
 8654SOL     OW26860   1.849   4.614   1.711
 8654SOL    HW126861   1.792   4.588   1.634
 8654SOL    HW226862   1.803   4.591   1.797
 8655SOL     OW26863   5.172   6.331   2.879
 8655SOL    HW126864   5.079   6.333   2.917
 8655SOL    HW226865   5.234   6.378   2.942
 8656SOL     OW26866   6.538   1.981   2.009
 8656SOL    HW126867   6.528   2.063   2.065
 8656SOL    HW226868   6.595   2.001   1.929
 8657SOL     OW26869   2.830   4.937   0.543
 8657SOL    HW126870   2.857   5.008   0.479
 8657SOL    HW226871   2.757   4.971   0.602
 8658SOL     OW26872   1.073   6.430   5.331
 8658SOL    HW126873   1.059   6.359   5.262
 8658SOL    HW226874   1.020   6.408   5.413
 8659SOL     OW26875   3.138   6.965   3.905
 8659SOL    HW126876   3.128   6.940   4.001
 8659SOL    HW226877   3.048   6.976   3.863
 8660SOL     OW26878   4.826   4.324   0.432
 8660SOL    HW126879   4.796   4.393   0.366
 8660SOL    HW226880   4.917   4.349   0.467
 8661SOL     OW26881   6.189   2.477   2.264
 8661SOL    HW126882   6.266   2.427   2.226
 8661SOL    HW226883   6.210   2.504   2.358
 8662SOL     OW26884   0.288   1.269   0.238
 8662SOL    HW126885   0.231   1.341   0.198
 8662SOL    HW226886   0.368   1.310   0.283
 8663SOL     OW26887   3.137   5.282   0.244
 8663SOL    HW126888   3.134   5.354   0.313
 8663SOL    HW226889   3.097   5.315   0.159
 8664SOL     OW26890   4.746   4.149   1.392
 8664SOL    HW126891   4.691   4.155   1.475
 8664SOL    HW226892   4.804   4.067   1.396
 8665SOL     OW26893   5.541   5.100   4.118
 8665SOL    HW126894   5.492   5.033   4.173
 8665SOL    HW226895   5.496   5.189   4.126
 8666SOL     OW26896   6.978   4.650   4.724
 8666SOL    HW126897   6.931   4.730   4.761
 8666SOL    HW226898   0.043   4.635   4.775
 8667SOL     OW26899   5.426   3.032   3.110
 8667SOL    HW126900   5.370   3.091   3.051
 8667SOL    HW226901   5.366   2.969   3.159
 8668SOL     OW26902   3.279   0.624   4.681
 8668SOL    HW126903   3.277   0.675   4.595
 8668SOL    HW226904   3.231   0.537   4.669
 8669SOL     OW26905   3.344   6.258   6.563
 8669SOL    HW126906   3.392   6.174   6.590
 8669SOL    HW226907   3.334   6.317   6.643
 8670SOL     OW26908   4.059   4.970   3.022
 8670SOL    HW126909   4.085   4.891   2.967
 8670SOL    HW226910   4.107   5.051   2.989
 8671SOL     OW26911   6.078   5.358   1.096
 8671SOL    HW126912   6.105   5.356   1.000
 8671SOL    HW226913   6.159   5.373   1.153
 8672SOL     OW26914   3.954   5.403   4.621
 8672SOL    HW126915   3.951   5.410   4.721
 8672SOL    HW226916   3.890   5.468   4.581
 8673SOL     OW26917   4.912   2.135   6.959
 8673SOL    HW126918   5.012   2.146   6.960
 8673SOL    HW226919   4.873   2.189   6.884
 8674SOL     OW26920   0.438   7.000   2.370
 8674SOL    HW126921   0.485   0.003   2.455
 8674SOL    HW226922   0.422   6.902   2.366
 8675SOL     OW26923   2.675   2.149   1.927
 8675SOL    HW126924   2.718   2.198   2.003
 8675SOL    HW226925   2.705   2.189   1.840
 8676SOL     OW26926   5.471   1.627   4.093
 8676SOL    HW126927   5.438   1.570   4.018
 8676SOL    HW226928   5.399   1.690   4.121
 8677SOL     OW26929   2.101   3.661   5.442
 8677SOL    HW126930   2.008   3.624   5.432
 8677SOL    HW226931   2.116   3.730   5.372
 8678SOL     OW26932   0.890   1.328   6.073
 8678SOL    HW126933   0.790   1.330   6.076
 8678SOL    HW226934   0.924   1.278   6.153
 8679SOL     OW26935   6.297   2.606   4.557
 8679SOL    HW126936   6.233   2.535   4.527
 8679SOL    HW226937   6.263   2.696   4.528
 8680SOL     OW26938   0.603   3.279   5.923
 8680SOL    HW126939   0.696   3.263   5.955
 8680SOL    HW226940   0.604   3.302   5.826
 8681SOL     OW26941   4.125   4.170   1.493
 8681SOL    HW126942   4.068   4.162   1.575
 8681SOL    HW226943   4.157   4.080   1.466
 8682SOL     OW26944   1.570   5.707   2.873
 8682SOL    HW126945   1.585   5.806   2.867
 8682SOL    HW226946   1.553   5.671   2.781
 8683SOL     OW26947   4.578   3.913   6.855
 8683SOL    HW126948   4.500   3.859   6.885
 8683SOL    HW226949   4.652   3.904   6.922
 8684SOL     OW26950   6.599   2.325   3.874
 8684SOL    HW126951   6.593   2.227   3.855
 8684SOL    HW226952   6.673   2.365   3.819
 8685SOL     OW26953   0.411   2.523   5.420
 8685SOL    HW126954   0.496   2.518   5.366
 8685SOL    HW226955   0.395   2.436   5.466
 8686SOL     OW26956   6.022   0.814   4.491
 8686SOL    HW126957   6.082   0.736   4.510
 8686SOL    HW226958   6.040   0.848   4.398
 8687SOL     OW26959   3.808   1.091   2.798
 8687SOL    HW126960   3.821   1.180   2.755
 8687SOL    HW226961   3.892   1.064   2.845
 8688SOL     OW26962   6.771   6.496   1.793
 8688SOL    HW126963   6.706   6.430   1.828
 8688SOL    HW226964   6.826   6.454   1.721
 8689SOL     OW26965   4.888   4.606   1.496
 8689SOL    HW126966   4.878   4.552   1.413
 8689SOL    HW226967   4.946   4.558   1.562
 8690SOL     OW26968   1.698   0.374   1.633
 8690SOL    HW126969   1.784   0.424   1.643
 8690SOL    HW226970   1.645   0.382   1.718
 8691SOL     OW26971   5.651   1.310   6.784
 8691SOL    HW126972   5.659   1.280   6.689
 8691SOL    HW226973   5.694   1.400   6.794
 8692SOL     OW26974   1.645   1.387   3.437
 8692SOL    HW126975   1.580   1.425   3.503
 8692SOL    HW226976   1.607   1.396   3.345
 8693SOL     OW26977   5.001   2.708   6.764
 8693SOL    HW126978   4.916   2.704   6.816
 8693SOL    HW226979   4.982   2.694   6.667
 8694SOL     OW26980   3.552   0.337   6.218
 8694SOL    HW126981   3.493   0.407   6.259
 8694SOL    HW226982   3.526   0.325   6.122
 8695SOL     OW26983   4.110   3.768   4.961
 8695SOL    HW126984   4.061   3.790   4.876
 8695SOL    HW226985   4.208   3.781   4.947
 8696SOL     OW26986   2.242   5.432   6.792
 8696SOL    HW126987   2.281   5.340   6.797
 8696SOL    HW226988   2.148   5.427   6.758
 8697SOL     OW26989   5.187   5.442   6.552
 8697SOL    HW126990   5.266   5.427   6.611
 8697SOL    HW226991   5.109   5.470   6.608
 8698SOL     OW26992   6.149   5.995   5.409
 8698SOL    HW126993   6.083   5.966   5.339
 8698SOL    HW226994   6.161   5.922   5.476
 8699SOL     OW26995   2.248   1.390   4.467
 8699SOL    HW126996   2.164   1.399   4.520
 8699SOL    HW226997   2.234   1.428   4.376
 8700SOL     OW26998   2.451   0.536   5.604
 8700SOL    HW126999   2.522   0.605   5.612
 8700SOL    HW227000   2.479   0.453   5.653
 8701SOL     OW27001   0.586   0.311   3.487
 8701SOL    HW127002   0.638   0.396   3.485
 8701SOL    HW227003   0.648   0.234   3.476
 8702SOL     OW27004   4.364   0.239   6.133
 8702SOL    HW127005   4.286   0.291   6.168
 8702SOL    HW227006   4.449   0.280   6.167
 8703SOL     OW27007   1.241   4.429   1.129
 8703SOL    HW127008   1.270   4.411   1.223
 8703SOL    HW227009   1.297   4.376   1.066
 8704SOL     OW27010   1.269   4.454   2.273
 8704SOL    HW127011   1.170   4.453   2.285
 8704SOL    HW227012   1.309   4.375   2.321
 8705SOL     OW27013   4.458   6.530   4.473
 8705SOL    HW127014   4.505   6.466   4.534
 8705SOL    HW227015   4.443   6.486   4.384
 8706SOL     OW27016   5.172   0.137   6.688
 8706SOL    HW127017   5.082   0.155   6.648
 8706SOL    HW227018   5.236   0.112   6.616
 8707SOL     OW27019   3.834   1.582   5.913
 8707SOL    HW127020   3.773   1.580   5.992
 8707SOL    HW227021   3.780   1.572   5.829
 8708SOL     OW27022   3.811   1.699   1.240
 8708SOL    HW127023   3.844   1.683   1.333
 8708SOL    HW227024   3.801   1.612   1.192
 8709SOL     OW27025   5.063   3.405   6.815
 8709SOL    HW127026   5.029   3.405   6.909
 8709SOL    HW227027   5.159   3.379   6.814
 8710SOL     OW27028   6.410   3.863   4.150
 8710SOL    HW127029   6.320   3.861   4.193
 8710SOL    HW227030   6.427   3.954   4.111
 8711SOL     OW27031   1.887   1.553   4.268
 8711SOL    HW127032   1.902   1.521   4.362
 8711SOL    HW227033   1.841   1.642   4.271
 8712SOL     OW27034   3.430   0.203   6.681
 8712SOL    HW127035   3.401   0.140   6.753
 8712SOL    HW227036   3.478   0.280   6.721
 8713SOL     OW27037   6.481   5.001   3.287
 8713SOL    HW127038   6.451   4.917   3.241
 8713SOL    HW227039   6.438   5.007   3.377
 8714SOL     OW27040   2.005   1.287   3.721
 8714SOL    HW127041   2.020   1.202   3.670
 8714SOL    HW227042   1.965   1.355   3.660
 8715SOL     OW27043   5.467   0.499   2.697
 8715SOL    HW127044   5.487   0.562   2.622
 8715SOL    HW227045   5.430   0.551   2.774
 8716SOL     OW27046   1.565   0.700   2.604
 8716SOL    HW127047   1.504   0.779   2.604
 8716SOL    HW227048   1.527   0.629   2.544
 8717SOL     OW27049   4.589   4.089   0.865
 8717SOL    HW127050   4.572   4.153   0.940
 8717SOL    HW227051   4.507   4.081   0.808
 8718SOL     OW27052   0.016   2.520   6.197
 8718SOL    HW127053   0.037   2.430   6.159
 8718SOL    HW227054   6.941   2.543   6.176
 8719SOL     OW27055   6.615   1.057   5.528
 8719SOL    HW127056   6.636   0.989   5.458
 8719SOL    HW227057   6.526   1.098   5.510
 8720SOL     OW27058   5.123   3.320   5.309
 8720SOL    HW127059   5.144   3.263   5.230
 8720SOL    HW227060   5.053   3.387   5.284
 8721SOL     OW27061   6.846   0.493   4.835
 8721SOL    HW127062   6.792   0.577   4.837
 8721SOL    HW227063   6.913   0.494   4.909
 8722SOL     OW27064   3.694   2.459   0.448
 8722SOL    HW127065   3.712   2.557   0.441
 8722SOL    HW227066   3.595   2.444   0.459
 8723SOL     OW27067   0.299   5.959   0.732
 8723SOL    HW127068   0.372   6.024   0.753
 8723SOL    HW227069   0.337   5.881   0.683
 8724SOL     OW27070   4.461   5.898   6.235
 8724SOL    HW127071   4.425   5.811   6.203
 8724SOL    HW227072   4.480   5.957   6.157
 8725SOL     OW27073   2.627   6.427   0.523
 8725SOL    HW127074   2.580   6.509   0.557
 8725SOL    HW227075   2.675   6.449   0.438
 8726SOL     OW27076   6.974   6.387   0.488
 8726SOL    HW127077   6.968   6.350   0.396
 8726SOL    HW227078   6.898   6.450   0.503
 8727SOL     OW27079   5.354   6.379   1.821
 8727SOL    HW127080   5.368   6.459   1.763
 8727SOL    HW227081   5.442   6.340   1.846
 8728SOL     OW27082   1.885   5.497   5.679
 8728SOL    HW127083   1.815   5.453   5.735
 8728SOL    HW227084   1.932   5.566   5.733
 8729SOL     OW27085   4.915   5.659   4.374
 8729SOL    HW127086   4.841   5.610   4.327
 8729SOL    HW227087   4.985   5.686   4.308
 8730SOL     OW27088   6.023   6.553   1.397
 8730SOL    HW127089   5.947   6.550   1.463
 8730SOL    HW227090   6.086   6.478   1.415
 8731SOL     OW27091   0.816   1.865   3.181
 8731SOL    HW127092   0.728   1.908   3.202
 8731SOL    HW227093   0.832   1.869   3.082
 8732SOL     OW27094   6.459   6.315   2.225
 8732SOL    HW127095   6.404   6.333   2.307
 8732SOL    HW227096   6.443   6.386   2.157
 8733SOL     OW27097   6.600   0.589   0.524
 8733SOL    HW127098   6.577   0.506   0.574
 8733SOL    HW227099   6.560   0.586   0.433
 8734SOL     OW27100   5.972   6.915   1.056
 8734SOL    HW127101   5.901   6.975   1.019
 8734SOL    HW227102   5.930   6.844   1.112
 8735SOL     OW27103   0.493   3.081   6.065
 8735SOL    HW127104   0.515   3.165   6.016
 8735SOL    HW227105   0.490   3.100   6.163
 8736SOL     OW27106   0.591   4.994   5.685
 8736SOL    HW127107   0.665   4.929   5.667
 8736SOL    HW227108   0.621   5.060   5.754
 8737SOL     OW27109   3.865   5.550   6.999
 8737SOL    HW127110   3.933   5.624   6.996
 8737SOL    HW227111   3.842   5.522   6.906
 8738SOL     OW27112   1.192   4.070   5.128
 8738SOL    HW127113   1.202   4.120   5.215
 8738SOL    HW227114   1.103   4.026   5.125
 8739SOL     OW27115   1.219   3.241   5.190
 8739SOL    HW127116   1.238   3.339   5.184
 8739SOL    HW227117   1.301   3.189   5.167
 8740SOL     OW27118   0.938   6.260   0.577
 8740SOL    HW127119   0.924   6.309   0.491
 8740SOL    HW227120   1.029   6.217   0.576
 8741SOL     OW27121   1.301   3.282   2.104
 8741SOL    HW127122   1.248   3.212   2.058
 8741SOL    HW227123   1.381   3.306   2.048
 8742SOL     OW27124   4.620   5.008   1.503
 8742SOL    HW127125   4.522   5.023   1.521
 8742SOL    HW227126   4.655   4.938   1.565
 8743SOL     OW27127   3.251   5.425   2.388
 8743SOL    HW127128   3.304   5.506   2.413
 8743SOL    HW227129   3.305   5.343   2.408
 8744SOL     OW27130   3.144   3.643   5.264
 8744SOL    HW127131   3.065   3.602   5.218
 8744SOL    HW227132   3.216   3.575   5.272
 8745SOL     OW27133   5.367   1.968   5.877
 8745SOL    HW127134   5.382   2.005   5.968
 8745SOL    HW227135   5.298   1.895   5.882
 8746SOL     OW27136   5.238   3.538   4.779
 8746SOL    HW127137   5.162   3.476   4.800
 8746SOL    HW227138   5.222   3.582   4.691
 8747SOL     OW27139   1.152   1.861   4.221
 8747SOL    HW127140   1.116   1.783   4.172
 8747SOL    HW227141   1.249   1.845   4.243
 8748SOL     OW27142   3.185   0.615   6.442
 8748SOL    HW127143   3.154   0.544   6.505
 8748SOL    HW227144   3.107   0.654   6.393
 8749SOL     OW27145   4.003   1.434   3.657
 8749SOL    HW127146   3.983   1.470   3.748
 8749SOL    HW227147   4.038   1.507   3.598
 8750SOL     OW27148   2.136   0.003   4.753
 8750SOL    HW127149   2.070   6.956   4.787
 8750SOL    HW227150   2.150   0.074   4.822
 8751SOL     OW27151   1.828   6.297   2.743
 8751SOL    HW127152   1.789   6.283   2.835
 8751SOL    HW227153   1.912   6.350   2.750
 8752SOL     OW27154   2.242   0.627   6.702
 8752SOL    HW127155   2.312   0.692   6.731
 8752SOL    HW227156   2.194   0.663   6.622
 8753SOL     OW27157   5.301   2.032   5.155
 8753SOL    HW127158   5.285   2.046   5.058
 8753SOL    HW227159   5.278   2.116   5.205
 8754SOL     OW27160   1.488   0.858   5.727
 8754SOL    HW127161   1.416   0.926   5.723
 8754SOL    HW227162   1.523   0.851   5.821
 8755SOL     OW27163   1.916   2.564   0.492
 8755SOL    HW127164   1.906   2.610   0.580
 8755SOL    HW227165   1.827   2.530   0.461
 8756SOL     OW27166   3.403   4.850   5.117
 8756SOL    HW127167   3.419   4.948   5.122
 8756SOL    HW227168   3.394   4.813   5.210
 8757SOL     OW27169   3.120   5.378   3.362
 8757SOL    HW127170   3.134   5.446   3.434
 8757SOL    HW227171   3.074   5.298   3.400
 8758SOL     OW27172   4.941   6.645   2.759
 8758SOL    HW127173   4.929   6.667   2.662
 8758SOL    HW227174   4.933   6.546   2.772
 8759SOL     OW27175   5.204   0.270   5.720
 8759SOL    HW127176   5.274   0.278   5.649
 8759SOL    HW227177   5.129   0.213   5.687
 8760SOL     OW27178   1.747   2.655   3.459
 8760SOL    HW127179   1.692   2.684   3.537
 8760SOL    HW227180   1.757   2.555   3.461
 8761SOL     OW27181   4.898   5.939   1.553
 8761SOL    HW127182   4.840   5.947   1.634
 8761SOL    HW227183   4.862   5.867   1.494
 8762SOL     OW27184   1.936   5.002   1.234
 8762SOL    HW127185   1.995   4.941   1.288
 8762SOL    HW227186   1.895   4.950   1.159
 8763SOL     OW27187   6.779   5.838   6.874
 8763SOL    HW127188   6.831   5.778   6.814
 8763SOL    HW227189   6.840   5.879   6.942
 8764SOL     OW27190   2.885   1.925   6.469
 8764SOL    HW127191   2.940   1.930   6.385
 8764SOL    HW227192   2.867   2.017   6.503
 8765SOL     OW27193   5.531   0.552   4.932
 8765SOL    HW127194   5.545   0.625   4.865
 8765SOL    HW227195   5.592   0.567   5.009
 8766SOL     OW27196   2.365   4.314   2.740
 8766SOL    HW127197   2.422   4.396   2.752
 8766SOL    HW227198   2.302   4.305   2.817
 8767SOL     OW27199   3.960   0.847   5.191
 8767SOL    HW127200   4.053   0.865   5.222
 8767SOL    HW227201   3.945   0.891   5.102
 8768SOL     OW27202   0.893   4.521   1.299
 8768SOL    HW127203   0.822   4.469   1.251
 8768SOL    HW227204   0.875   4.517   1.398
 8769SOL     OW27205   1.805   0.521   6.601
 8769SOL    HW127206   1.829   0.585   6.674
 8769SOL    HW227207   1.708   0.501   6.605
 8770SOL     OW27208   5.927   1.837   3.108
 8770SOL    HW127209   5.893   1.920   3.063
 8770SOL    HW227210   6.024   1.825   3.086
 8771SOL     OW27211   3.043   3.184   4.916
 8771SOL    HW127212   2.977   3.258   4.906
 8771SOL    HW227213   3.080   3.160   4.826
 8772SOL     OW27214   0.302   7.015   6.801
 8772SOL    HW127215   0.402   0.002   6.810
 8772SOL    HW227216   0.264   0.087   6.786
 8773SOL     OW27217   3.061   1.579   3.551
 8773SOL    HW127218   3.151   1.611   3.580
 8773SOL    HW227219   3.049   1.484   3.579
 8774SOL     OW27220   1.170   1.565   0.572
 8774SOL    HW127221   1.213   1.484   0.610
 8774SOL    HW227222   1.120   1.540   0.489
 8775SOL     OW27223   5.841   6.349   4.162
 8775SOL    HW127224   5.742   6.341   4.147
 8775SOL    HW227225   5.884   6.259   4.153
 8776SOL     OW27226   3.371   3.382   5.599
 8776SOL    HW127227   3.438   3.452   5.572
 8776SOL    HW227228   3.335   3.337   5.517
 8777SOL     OW27229   6.225   5.777   2.999
 8777SOL    HW127230   6.310   5.729   2.977
 8777SOL    HW227231   6.173   5.724   3.066
 8778SOL     OW27232   1.007   2.893   3.049
 8778SOL    HW127233   0.928   2.832   3.052
 8778SOL    HW227234   0.979   2.983   3.015
 8779SOL     OW27235   2.003   4.724   0.696
 8779SOL    HW127236   2.016   4.638   0.647
 8779SOL    HW227237   2.005   4.708   0.794
 8780SOL     OW27238   2.346   6.112   5.299
 8780SOL    HW127239   2.257   6.074   5.271
 8780SOL    HW227240   2.348   6.121   5.398
 8781SOL     OW27241   0.820   3.049   2.840
 8781SOL    HW127242   0.730   3.024   2.806
 8781SOL    HW227243   0.890   3.011   2.781
 8782SOL     OW27244   5.528   1.053   4.261
 8782SOL    HW127245   5.455   1.120   4.274
 8782SOL    HW227246   5.545   1.041   4.163
 8783SOL     OW27247   5.677   2.293   6.109
 8783SOL    HW127248   5.603   2.303   6.175
 8783SOL    HW227249   5.752   2.356   6.131
 8784SOL     OW27250   5.060   3.912   6.197
 8784SOL    HW127251   5.084   3.821   6.163
 8784SOL    HW227252   4.968   3.935   6.167
 8785SOL     OW27253   5.019   4.228   6.232
 8785SOL    HW127254   5.028   4.133   6.262
 8785SOL    HW227255   4.961   4.232   6.151
 8786SOL     OW27256   2.116   5.688   6.590
 8786SOL    HW127257   2.061   5.606   6.606
 8786SOL    HW227258   2.167   5.711   6.673
 8787SOL     OW27259   0.826   2.369   6.306
 8787SOL    HW127260   0.882   2.370   6.389
 8787SOL    HW227261   0.740   2.418   6.323
 8788SOL     OW27262   1.420   1.503   5.026
 8788SOL    HW127263   1.355   1.473   5.095
 8788SOL    HW227264   1.378   1.495   4.935
 8789SOL     OW27265   6.880   1.523   0.292
 8789SOL    HW127266   6.893   1.571   0.379
 8789SOL    HW227267   6.855   1.428   0.311
 8790SOL     OW27268   4.163   1.119   0.076
 8790SOL    HW127269   4.181   1.062   0.157
 8790SOL    HW227270   4.196   1.072   7.014
 8791SOL     OW27271   5.919   6.104   5.856
 8791SOL    HW127272   6.015   6.078   5.856
 8791SOL    HW227273   5.879   6.083   5.766
 8792SOL     OW27274   5.689   6.455   2.368
 8792SOL    HW127275   5.775   6.408   2.348
 8792SOL    HW227276   5.650   6.491   2.283
 8793SOL     OW27277   1.302   5.330   2.930
 8793SOL    HW127278   1.391   5.373   2.940
 8793SOL    HW227279   1.272   5.337   2.835
 8794SOL     OW27280   2.446   6.972   2.072
 8794SOL    HW127281   2.364   7.019   2.038
 8794SOL    HW227282   2.525   7.002   2.020
 8795SOL     OW27283   3.484   6.907   4.304
 8795SOL    HW127284   3.568   6.950   4.269
 8795SOL    HW227285   3.410   6.922   4.238
 8796SOL     OW27286   4.164   1.897   4.457
 8796SOL    HW127287   4.252   1.852   4.445
 8796SOL    HW227288   4.172   1.993   4.431
 8797SOL     OW27289   6.878   5.620   6.740
 8797SOL    HW127290   6.974   5.591   6.742
 8797SOL    HW227291   6.820   5.541   6.721
 8798SOL     OW27292   3.582   3.512   5.471
 8798SOL    HW127293   3.627   3.423   5.473
 8798SOL    HW227294   3.641   3.580   5.516
 8799SOL     OW27295   4.095   0.837   2.089
 8799SOL    HW127296   4.003   0.799   2.082
 8799SOL    HW227297   4.108   0.878   2.179
 8800SOL     OW27298   4.086   3.933   0.537
 8800SOL    HW127299   4.106   3.844   0.577
 8800SOL    HW227300   4.170   3.985   0.524
 8801SOL     OW27301   2.961   6.544   5.576
 8801SOL    HW127302   3.055   6.570   5.557
 8801SOL    HW227303   2.914   6.620   5.622
 8802SOL     OW27304   1.652   6.576   1.302
 8802SOL    HW127305   1.635   6.538   1.212
 8802SOL    HW227306   1.634   6.675   1.300
 8803SOL     OW27307   3.923   5.806   2.199
 8803SOL    HW127308   3.829   5.776   2.185
 8803SOL    HW227309   3.933   5.900   2.168
 8804SOL     OW27310   3.266   0.645   1.327
 8804SOL    HW127311   3.352   0.653   1.378
 8804SOL    HW227312   3.239   0.548   1.324
 8805SOL     OW27313   6.951   0.642   4.142
 8805SOL    HW127314   6.945   0.546   4.117
 8805SOL    HW227315   7.007   0.652   4.225
 8806SOL     OW27316   1.974   4.978   6.856
 8806SOL    HW127317   1.977   5.068   6.900
 8806SOL    HW227318   1.978   4.907   6.926
 8807SOL     OW27319   1.534   4.769   6.367
 8807SOL    HW127320   1.552   4.848   6.427
 8807SOL    HW227321   1.527   4.686   6.422
 8808SOL     OW27322   6.207   2.432   1.257
 8808SOL    HW127323   6.109   2.415   1.266
 8808SOL    HW227324   6.256   2.345   1.253
 8809SOL     OW27325   5.938   4.080   6.817
 8809SOL    HW127326   5.862   4.142   6.840
 8809SOL    HW227327   6.007   4.084   6.888
 8810SOL     OW27328   5.271   1.626   4.384
 8810SOL    HW127329   5.357   1.577   4.370
 8810SOL    HW227330   5.271   1.709   4.329
 8811SOL     OW27331   0.605   0.979   3.683
 8811SOL    HW127332   0.527   1.035   3.657
 8811SOL    HW227333   0.611   0.974   3.783
 8812SOL     OW27334   2.230   1.030   0.657
 8812SOL    HW127335   2.174   0.960   0.701
 8812SOL    HW227336   2.278   0.990   0.579
 8813SOL     OW27337   0.660   5.541   0.978
 8813SOL    HW127338   0.752   5.574   0.997
 8813SOL    HW227339   0.623   5.494   1.058
 8814SOL     OW27340   5.774   6.552   6.161
 8814SOL    HW127341   5.854   6.520   6.211
 8814SOL    HW227342   5.692   6.542   6.217
 8815SOL     OW27343   6.156   4.529   3.246
 8815SOL    HW127344   6.221   4.474   3.194
 8815SOL    HW227345   6.197   4.553   3.334
 8816SOL     OW27346   0.623   5.781   2.428
 8816SOL    HW127347   0.686   5.842   2.381
 8816SOL    HW227348   0.562   5.738   2.362
 8817SOL     OW27349   1.888   3.854   4.973
 8817SOL    HW127350   1.959   3.918   5.004
 8817SOL    HW227351   1.829   3.899   4.906
 8818SOL     OW27352   6.903   4.733   5.389
 8818SOL    HW127353   6.977   4.695   5.444
 8818SOL    HW227354   6.934   4.741   5.294
 8819SOL     OW27355   0.610   1.327   4.613
 8819SOL    HW127356   0.684   1.395   4.607
 8819SOL    HW227357   0.527   1.372   4.646
 8820SOL     OW27358   1.588   2.434   3.314
 8820SOL    HW127359   1.674   2.462   3.271
 8820SOL    HW227360   1.606   2.367   3.385
 8821SOL     OW27361   1.202   6.386   6.937
 8821SOL    HW127362   1.285   6.331   6.948
 8821SOL    HW227363   1.220   6.479   6.968
 8822SOL     OW27364   1.437   1.962   3.696
 8822SOL    HW127365   1.437   1.866   3.666
 8822SOL    HW227366   1.407   2.020   3.620
 8823SOL     OW27367   2.539   5.382   0.598
 8823SOL    HW127368   2.547   5.351   0.503
 8823SOL    HW227369   2.546   5.482   0.600
 8824SOL     OW27370   5.286   4.647   1.743
 8824SOL    HW127371   5.246   4.689   1.825
 8824SOL    HW227372   5.226   4.573   1.711
 8825SOL     OW27373   2.548   2.017   6.804
 8825SOL    HW127374   2.624   1.969   6.760
 8825SOL    HW227375   2.556   2.008   6.903
 8826SOL     OW27376   5.466   0.480   1.515
 8826SOL    HW127377   5.369   0.460   1.534
 8826SOL    HW227378   5.496   0.555   1.573
 8827SOL     OW27379   6.797   1.305   4.297
 8827SOL    HW127380   6.879   1.299   4.353
 8827SOL    HW227381   6.727   1.357   4.346
 8828SOL     OW27382   1.487   5.656   3.139
 8828SOL    HW127383   1.484   5.699   3.049
 8828SOL    HW227384   1.420   5.699   3.199
 8829SOL     OW27385   0.203   0.764   1.471
 8829SOL    HW127386   0.126   0.706   1.497
 8829SOL    HW227387   0.280   0.750   1.534
 8830SOL     OW27388   1.369   1.630   1.219
 8830SOL    HW127389   1.377   1.537   1.181
 8830SOL    HW227390   1.315   1.686   1.156
 8831SOL     OW27391   0.217   0.033   0.908
 8831SOL    HW127392   0.202   0.099   0.834
 8831SOL    HW227393   0.313   0.005   0.909
 8832SOL     OW27394   6.471   0.748   1.392
 8832SOL    HW127395   6.467   0.649   1.398
 8832SOL    HW227396   6.382   0.787   1.414
 8833SOL     OW27397   6.874   5.377   1.202
 8833SOL    HW127398   6.971   5.354   1.200
 8833SOL    HW227399   6.858   5.446   1.273
 8834SOL     OW27400   6.498   4.521   4.798
 8834SOL    HW127401   6.407   4.491   4.772
 8834SOL    HW227402   6.564   4.448   4.781
 8835SOL     OW27403   1.214   1.623   0.867
 8835SOL    HW127404   1.204   1.642   0.769
 8835SOL    HW227405   1.149   1.678   0.918
 8836SOL     OW27406   4.970   2.332   1.359
 8836SOL    HW127407   4.993   2.407   1.421
 8836SOL    HW227408   4.885   2.288   1.389
 8837SOL     OW27409   0.645   2.934   2.156
 8837SOL    HW127410   0.703   2.861   2.121
 8837SOL    HW227411   0.696   3.020   2.158
 8838SOL     OW27412   1.778   6.301   3.278
 8838SOL    HW127413   1.760   6.229   3.345
 8838SOL    HW227414   1.769   6.264   3.186
 8839SOL     OW27415   5.757   5.236   5.213
 8839SOL    HW127416   5.778   5.223   5.310
 8839SOL    HW227417   5.681   5.300   5.204
 8840SOL     OW27418   4.219   0.620   1.983
 8840SOL    HW127419   4.261   0.570   2.059
 8840SOL    HW227420   4.174   0.702   2.018
 8841SOL     OW27421   4.196   6.936   3.096
 8841SOL    HW127422   4.206   6.963   3.192
 8841SOL    HW227423   4.102   6.950   3.067
 8842SOL     OW27424   1.505   1.630   2.246
 8842SOL    HW127425   1.537   1.680   2.166
 8842SOL    HW227426   1.496   1.533   2.222
 8843SOL     OW27427   0.224   2.906   3.796
 8843SOL    HW127428   0.157   2.907   3.871
 8843SOL    HW227429   0.282   2.987   3.802
 8844SOL     OW27430   5.632   2.070   6.967
 8844SOL    HW127431   5.585   2.126   6.899
 8844SOL    HW227432   5.686   2.000   6.921
 8845SOL     OW27433   5.494   2.877   0.348
 8845SOL    HW127434   5.483   2.976   0.349
 8845SOL    HW227435   5.558   2.849   0.419
 8846SOL     OW27436   3.104   4.903   4.170
 8846SOL    HW127437   3.184   4.875   4.118
 8846SOL    HW227438   3.120   4.886   4.267
 8847SOL     OW27439   1.512   1.693   3.661
 8847SOL    HW127440   1.579   1.631   3.702
 8847SOL    HW227441   1.429   1.693   3.718
 8848SOL     OW27442   0.124   1.128   3.884
 8848SOL    HW127443   0.201   1.067   3.904
 8848SOL    HW227444   0.043   1.097   3.933
 8849SOL     OW27445   3.004   6.812   1.445
 8849SOL    HW127446   2.936   6.846   1.380
 8849SOL    HW227447   2.961   6.747   1.508
 8850SOL     OW27448   3.182   1.604   0.283
 8850SOL    HW127449   3.279   1.586   0.300
 8850SOL    HW227450   3.172   1.689   0.232
 8851SOL     OW27451   2.255   3.686   1.115
 8851SOL    HW127452   2.212   3.745   1.184
 8851SOL    HW227453   2.337   3.644   1.154
 8852SOL     OW27454   0.768   2.610   4.829
 8852SOL    HW127455   0.816   2.597   4.742
 8852SOL    HW227456   0.801   2.694   4.873
 8853SOL     OW27457   5.020   0.456   1.875
 8853SOL    HW127458   5.063   0.543   1.852
 8853SOL    HW227459   5.000   0.453   1.973
 8854SOL     OW27460   6.930   2.718   5.080
 8854SOL    HW127461   6.980   2.775   5.015
 8854SOL    HW227462   6.987   2.640   5.106
 8855SOL     OW27463   5.262   4.820   0.956
 8855SOL    HW127464   5.328   4.746   0.971
 8855SOL    HW227465   5.296   4.881   0.884
 8856SOL     OW27466   6.394   0.600   5.278
 8856SOL    HW127467   6.398   0.592   5.178
 8856SOL    HW227468   6.303   0.572   5.309
 8857SOL     OW27469   6.959   2.406   0.027
 8857SOL    HW127470   6.952   2.437   0.122
 8857SOL    HW227471   0.022   2.353   0.015
 8858SOL     OW27472   0.734   4.963   5.399
 8858SOL    HW127473   0.778   4.877   5.371
 8858SOL    HW227474   0.639   4.945   5.424
 8859SOL     OW27475   0.587   6.083   3.308
 8859SOL    HW127476   0.527   6.072   3.229
 8859SOL    HW227477   0.681   6.061   3.282
 8860SOL     OW27478   0.099   2.698   3.319
 8860SOL    HW127479   0.130   2.689   3.224
 8860SOL    HW227480   0.176   2.722   3.377
 8861SOL     OW27481   3.381   2.531   0.912
 8861SOL    HW127482   3.348   2.620   0.942
 8861SOL    HW227483   3.304   2.469   0.900
 8862SOL     OW27484   4.565   4.719   4.733
 8862SOL    HW127485   4.557   4.735   4.634
 8862SOL    HW227486   4.474   4.699   4.771
 8863SOL     OW27487   1.718   3.722   1.602
 8863SOL    HW127488   1.781   3.709   1.679
 8863SOL    HW227489   1.759   3.684   1.519
 8864SOL     OW27490   6.990   1.986   4.664
 8864SOL    HW127491   6.951   2.036   4.742
 8864SOL    HW227492   6.994   1.888   4.686
 8865SOL     OW27493   2.429   1.529   0.717
 8865SOL    HW127494   2.388   1.590   0.785
 8865SOL    HW227495   2.380   1.442   0.716
 8866SOL     OW27496   6.067   0.901   1.958
 8866SOL    HW127497   6.122   0.951   2.025
 8866SOL    HW227498   5.979   0.878   1.999
 8867SOL     OW27499   5.746   2.370   3.778
 8867SOL    HW127500   5.749   2.270   3.778
 8867SOL    HW227501   5.667   2.401   3.831
 8868SOL     OW27502   0.606   2.723   3.688
 8868SOL    HW127503   0.654   2.646   3.647
 8868SOL    HW227504   0.509   2.701   3.697
 8869SOL     OW27505   4.044   0.354   3.240
 8869SOL    HW127506   4.031   0.453   3.238
 8869SOL    HW227507   3.989   0.315   3.314
 8870SOL     OW27508   0.975   0.916   1.159
 8870SOL    HW127509   0.949   0.925   1.255
 8870SOL    HW227510   0.901   0.873   1.108
 8871SOL     OW27511   6.784   6.945   0.126
 8871SOL    HW127512   6.826   6.867   0.173
 8871SOL    HW227513   6.844   6.974   0.051
 8872SOL     OW27514   6.754   5.441   3.644
 8872SOL    HW127515   6.749   5.539   3.625
 8872SOL    HW227516   6.698   5.420   3.724
 8873SOL     OW27517   1.508   1.222   3.111
 8873SOL    HW127518   1.478   1.237   3.017
 8873SOL    HW227519   1.458   1.144   3.149
 8874SOL     OW27520   2.492   6.269   0.684
 8874SOL    HW127521   2.399   6.283   0.650
 8874SOL    HW227522   2.555   6.331   0.637
 8875SOL     OW27523   6.881   2.743   4.358
 8875SOL    HW127524   6.891   2.804   4.436
 8875SOL    HW227525   6.964   2.689   4.348
 8876SOL     OW27526   4.957   0.054   0.730
 8876SOL    HW127527   4.862   0.028   0.750
 8876SOL    HW227528   5.019   7.011   0.777
 8877SOL     OW27529   1.336   4.334   1.939
 8877SOL    HW127530   1.244   4.342   1.900
 8877SOL    HW227531   1.330   4.303   2.034
 8878SOL     OW27532   4.843   3.933   2.189
 8878SOL    HW127533   4.853   3.838   2.216
 8878SOL    HW227534   4.830   3.938   2.089
 8879SOL     OW27535   6.551   4.859   3.808
 8879SOL    HW127536   6.583   4.765   3.810
 8879SOL    HW227537   6.544   4.894   3.902
 8880SOL     OW27538   4.303   1.620   2.567
 8880SOL    HW127539   4.254   1.616   2.655
 8880SOL    HW227540   4.259   1.688   2.508
 8881SOL     OW27541   3.988   6.293   2.958
 8881SOL    HW127542   3.946   6.344   2.883
 8881SOL    HW227543   3.969   6.338   3.045
 8882SOL     OW27544   3.816   1.288   0.098
 8882SOL    HW127545   3.911   1.259   0.108
 8882SOL    HW227546   3.762   1.213   0.060
 8883SOL     OW27547   0.659   6.805   2.579
 8883SOL    HW127548   0.614   6.718   2.560
 8883SOL    HW227549   0.742   6.812   2.524
 8884SOL     OW27550   4.419   1.615   6.033
 8884SOL    HW127551   4.443   1.572   6.120
 8884SOL    HW227552   4.420   1.547   5.960
 8885SOL     OW27553   5.022   5.488   0.537
 8885SOL    HW127554   5.101   5.518   0.591
 8885SOL    HW227555   5.007   5.391   0.551
 8886SOL     OW27556   4.155   0.024   0.744
 8886SOL    HW127557   4.251   0.049   0.729
 8886SOL    HW227558   4.114   7.017   0.657
 8887SOL     OW27559   4.112   0.732   2.481
 8887SOL    HW127560   4.205   0.702   2.503
 8887SOL    HW227561   4.116   0.818   2.430
 8888SOL     OW27562   3.735   1.641   2.138
 8888SOL    HW127563   3.761   1.597   2.053
 8888SOL    HW227564   3.664   1.709   2.120
 8889SOL     OW27565   1.545   4.366   6.974
 8889SOL    HW127566   1.493   4.305   6.914
 8889SOL    HW227567   1.482   4.420   0.010
 8890SOL     OW27568   2.029   5.817   6.936
 8890SOL    HW127569   2.061   5.744   6.996
 8890SOL    HW227570   2.105   5.848   6.879
 8891SOL     OW27571   5.572   3.894   5.347
 8891SOL    HW127572   5.501   3.909   5.415
 8891SOL    HW227573   5.530   3.883   5.257
 8892SOL     OW27574   2.516   5.095   5.853
 8892SOL    HW127575   2.610   5.112   5.882
 8892SOL    HW227576   2.461   5.177   5.868
 8893SOL     OW27577   1.147   4.514   5.162
 8893SOL    HW127578   1.102   4.585   5.109
 8893SOL    HW227579   1.127   4.526   5.259
 8894SOL     OW27580   6.298   2.166   1.807
 8894SOL    HW127581   6.329   2.106   1.880
 8894SOL    HW227582   6.246   2.242   1.845
 8895SOL     OW27583   0.410   3.274   2.341
 8895SOL    HW127584   0.317   3.246   2.367
 8895SOL    HW227585   0.440   3.349   2.399
 8896SOL     OW27586   0.566   0.629   3.838
 8896SOL    HW127587   0.511   0.579   3.905
 8896SOL    HW227588   0.507   0.691   3.786
 8897SOL     OW27589   1.538   4.864   4.394
 8897SOL    HW127590   1.465   4.850   4.327
 8897SOL    HW227591   1.570   4.776   4.428
 8898SOL     OW27592   6.256   5.084   2.489
 8898SOL    HW127593   6.307   5.016   2.542
 8898SOL    HW227594   6.163   5.093   2.525
 8899SOL     OW27595   1.977   4.851   2.265
 8899SOL    HW127596   2.011   4.850   2.171
 8899SOL    HW227597   2.040   4.802   2.324
 8900SOL     OW27598   4.585   1.895   4.961
 8900SOL    HW127599   4.676   1.936   4.951
 8900SOL    HW227600   4.567   1.835   4.883
 8901SOL     OW27601   0.953   4.944   5.839
 8901SOL    HW127602   0.917   4.995   5.761
 8901SOL    HW227603   1.007   5.006   5.896
 8902SOL     OW27604   1.194   3.837   6.401
 8902SOL    HW127605   1.272   3.800   6.451
 8902SOL    HW227606   1.226   3.887   6.320
 8903SOL     OW27607   0.496   1.085   4.233
 8903SOL    HW127608   0.500   1.087   4.333
 8903SOL    HW227609   0.431   1.154   4.200
 8904SOL     OW27610   6.232   1.035   2.120
 8904SOL    HW127611   6.331   1.049   2.127
 8904SOL    HW227612   6.197   0.997   2.205
 8905SOL     OW27613   1.344   5.332   1.225
 8905SOL    HW127614   1.392   5.255   1.266
 8905SOL    HW227615   1.245   5.318   1.233
 8906SOL     OW27616   6.764   1.160   6.305
 8906SOL    HW127617   6.783   1.079   6.250
 8906SOL    HW227618   6.709   1.224   6.251
 8907SOL     OW27619   2.723   3.072   5.311
 8907SOL    HW127620   2.637   3.058   5.262
 8907SOL    HW227621   2.800   3.055   5.250
 8908SOL     OW27622   2.024   6.162   5.293
 8908SOL    HW127623   2.033   6.127   5.200
 8908SOL    HW227624   1.973   6.096   5.349
 8909SOL     OW27625   2.629   6.082   1.747
 8909SOL    HW127626   2.592   6.140   1.820
 8909SOL    HW227627   2.677   6.139   1.681
 8910SOL     OW27628   1.128   0.878   3.785
 8910SOL    HW127629   1.109   0.806   3.851
 8910SOL    HW227630   1.072   0.958   3.806
 8911SOL     OW27631   4.812   2.825   4.335
 8911SOL    HW127632   4.778   2.794   4.247
 8911SOL    HW227633   4.876   2.758   4.372
 8912SOL     OW27634   3.720   3.551   3.296
 8912SOL    HW127635   3.812   3.526   3.264
 8912SOL    HW227636   3.660   3.563   3.217
 8913SOL     OW27637   5.035   5.630   0.309
 8913SOL    HW127638   5.044   5.557   0.377
 8913SOL    HW227639   5.013   5.590   0.220
 8914SOL     OW27640   5.285   4.726   4.755
 8914SOL    HW127641   5.303   4.820   4.782
 8914SOL    HW227642   5.356   4.695   4.692
 8915SOL     OW27643   2.675   1.621   3.200
 8915SOL    HW127644   2.694   1.719   3.195
 8915SOL    HW227645   2.621   1.602   3.282
 8916SOL     OW27646   6.614   6.936   2.489
 8916SOL    HW127647   6.564   6.859   2.449
 8916SOL    HW227648   6.614   7.012   2.424
 8917SOL     OW27649   5.420   2.708   0.152
 8917SOL    HW127650   5.431   2.780   0.220
 8917SOL    HW227651   5.510   2.680   0.118
 8918SOL     OW27652   1.557   3.117   2.886
 8918SOL    HW127653   1.493   3.102   2.811
 8918SOL    HW227654   1.639   3.162   2.852
 8919SOL     OW27655   6.932   2.271   3.417
 8919SOL    HW127656   0.004   2.246   3.448
 8919SOL    HW227657   6.920   2.370   3.423
 8920SOL     OW27658   1.586   1.674   0.118
 8920SOL    HW127659   1.576   1.607   0.044
 8920SOL    HW227660   1.658   1.643   0.180
 8921SOL     OW27661   1.473   1.846   1.848
 8921SOL    HW127662   1.547   1.810   1.905
 8921SOL    HW227663   1.400   1.778   1.840
 8922SOL     OW27664   3.585   5.535   3.538
 8922SOL    HW127665   3.510   5.592   3.505
 8922SOL    HW227666   3.625   5.577   3.620
 8923SOL     OW27667   2.561   2.198   3.892
 8923SOL    HW127668   2.503   2.256   3.949
 8923SOL    HW227669   2.509   2.118   3.861
 8924SOL     OW27670   6.284   5.101   4.716
 8924SOL    HW127671   6.382   5.089   4.701
 8924SOL    HW227672   6.241   5.012   4.729
 8925SOL     OW27673   0.663   6.237   3.860
 8925SOL    HW127674   0.643   6.228   3.957
 8925SOL    HW227675   0.585   6.281   3.814
 8926SOL     OW27676   6.070   2.398   6.883
 8926SOL    HW127677   6.052   2.322   6.946
 8926SOL    HW227678   6.003   2.396   6.809
 8927SOL     OW27679   1.239   1.325   6.360
 8927SOL    HW127680   1.246   1.283   6.269
 8927SOL    HW227681   1.282   1.416   6.358
 8928SOL     OW27682   6.621   6.730   4.680
 8928SOL    HW127683   6.629   6.828   4.666
 8928SOL    HW227684   6.712   6.688   4.682
 8929SOL     OW27685   0.294   1.585   3.582
 8929SOL    HW127686   0.385   1.590   3.623
 8929SOL    HW227687   0.262   1.490   3.583
 8930SOL     OW27688   2.311   5.699   2.190
 8930SOL    HW127689   2.296   5.602   2.207
 8930SOL    HW227690   2.223   5.747   2.189
 8931SOL     OW27691   4.928   3.657   6.960
 8931SOL    HW127692   4.986   3.592   7.009
 8931SOL    HW227693   4.985   3.720   6.907
 8932SOL     OW27694   0.681   3.257   2.409
 8932SOL    HW127695   0.741   3.211   2.343
 8932SOL    HW227696   0.586   3.231   2.390
 8933SOL     OW27697   4.911   2.759   5.625
 8933SOL    HW127698   4.828   2.763   5.569
 8933SOL    HW227699   4.991   2.770   5.567
 8934SOL     OW27700   2.417   5.697   2.687
 8934SOL    HW127701   2.423   5.776   2.627
 8934SOL    HW227702   2.416   5.727   2.783
 8935SOL     OW27703   0.105   5.882   6.620
 8935SOL    HW127704   0.052   5.797   6.618
 8935SOL    HW227705   0.096   5.929   6.532
 8936SOL     OW27706   4.576   3.539   0.320
 8936SOL    HW127707   4.509   3.488   0.375
 8936SOL    HW227708   4.636   3.591   0.380
 8937SOL     OW27709   0.156   1.891   6.713
 8937SOL    HW127710   0.244   1.852   6.688
 8937SOL    HW227711   0.090   1.817   6.727
 8938SOL     OW27712   5.011   4.980   1.878
 8938SOL    HW127713   5.108   5.003   1.866
 8938SOL    HW227714   4.955   5.060   1.858
 8939SOL     OW27715   6.152   2.004   4.344
 8939SOL    HW127716   6.208   2.083   4.366
 8939SOL    HW227717   6.055   2.026   4.358
 8940SOL     OW27718   5.463   6.869   1.817
 8940SOL    HW127719   5.470   6.952   1.762
 8940SOL    HW227720   5.366   6.847   1.832
 8941SOL     OW27721   4.073   1.935   0.153
 8941SOL    HW127722   4.060   2.033   0.133
 8941SOL    HW227723   4.020   1.880   0.088
 8942SOL     OW27724   1.062   1.954   5.881
 8942SOL    HW127725   1.054   1.855   5.871
 8942SOL    HW227726   1.039   1.997   5.794
 8943SOL     OW27727   4.757   3.299   0.706
 8943SOL    HW127728   4.667   3.342   0.710
 8943SOL    HW227729   4.749   3.206   0.670
 8944SOL     OW27730   4.635   5.191   0.602
 8944SOL    HW127731   4.731   5.208   0.621
 8944SOL    HW227732   4.607   5.246   0.523
 8945SOL     OW27733   2.110   0.560   3.633
 8945SOL    HW127734   2.145   0.642   3.679
 8945SOL    HW227735   2.019   0.578   3.598
 8946SOL     OW27736   3.777   0.179   5.289
 8946SOL    HW127737   3.703   0.193   5.354
 8946SOL    HW227738   3.806   0.084   5.291
 8947SOL     OW27739   2.931   3.573   5.622
 8947SOL    HW127740   2.900   3.506   5.689
 8947SOL    HW227741   2.931   3.664   5.663
 8948SOL     OW27742   5.059   5.104   3.632
 8948SOL    HW127743   5.123   5.148   3.570
 8948SOL    HW227744   5.105   5.030   3.682
 8949SOL     OW27745   1.581   5.475   6.325
 8949SOL    HW127746   1.545   5.527   6.247
 8949SOL    HW227747   1.591   5.379   6.299
 8950SOL     OW27748   4.990   2.426   5.378
 8950SOL    HW127749   4.949   2.428   5.469
 8950SOL    HW227750   4.959   2.506   5.326
 8951SOL     OW27751   2.714   1.139   5.425
 8951SOL    HW127752   2.676   1.207   5.487
 8951SOL    HW227753   2.738   1.183   5.338
 8952SOL     OW27754   5.365   6.542   3.581
 8952SOL    HW127755   5.443   6.580   3.532
 8952SOL    HW227756   5.313   6.481   3.521
 8953SOL     OW27757   1.480   5.127   6.767
 8953SOL    HW127758   1.459   5.121   6.670
 8953SOL    HW227759   1.466   5.038   6.810
 8954SOL     OW27760   2.481   6.616   6.266
 8954SOL    HW127761   2.473   6.516   6.266
 8954SOL    HW227762   2.444   6.652   6.351
 8955SOL     OW27763   0.166   3.424   4.020
 8955SOL    HW127764   0.152   3.430   4.119
 8955SOL    HW227765   0.208   3.508   3.986
 8956SOL     OW27766   1.773   0.427   3.949
 8956SOL    HW127767   1.759   0.495   4.021
 8956SOL    HW227768   1.693   0.367   3.945
 8957SOL     OW27769   3.148   6.042   1.700
 8957SOL    HW127770   3.065   6.091   1.723
 8957SOL    HW227771   3.201   6.095   1.634
 8958SOL     OW27772   2.744   0.258   4.495
 8958SOL    HW127773   2.762   0.304   4.582
 8958SOL    HW227774   2.741   0.159   4.509
 8959SOL     OW27775   3.497   5.487   6.536
 8959SOL    HW127776   3.447   5.521   6.615
 8959SOL    HW227777   3.544   5.563   6.491
 8960SOL     OW27778   4.311   5.706   0.829
 8960SOL    HW127779   4.353   5.744   0.747
 8960SOL    HW227780   4.212   5.703   0.818
 8961SOL     OW27781   0.560   3.114   4.402
 8961SOL    HW127782   0.528   3.020   4.414
 8961SOL    HW227783   0.654   3.122   4.432
 8962SOL     OW27784   4.348   0.836   3.826
 8962SOL    HW127785   4.334   0.924   3.780
 8962SOL    HW227786   4.322   0.762   3.765
 8963SOL     OW27787   1.144   0.346   4.484
 8963SOL    HW127788   1.105   0.330   4.575
 8963SOL    HW227789   1.120   0.271   4.423
 8964SOL     OW27790   0.853   2.173   3.230
 8964SOL    HW127791   0.915   2.143   3.301
 8964SOL    HW227792   0.904   2.192   3.146
 8965SOL     OW27793   1.360   4.681   1.285
 8965SOL    HW127794   1.373   4.611   1.355
 8965SOL    HW227795   1.364   4.639   1.195
 8966SOL     OW27796   3.523   2.148   4.628
 8966SOL    HW127797   3.504   2.050   4.635
 8966SOL    HW227798   3.457   2.190   4.566
 8967SOL     OW27799   5.212   6.875   0.540
 8967SOL    HW127800   5.177   6.804   0.601
 8967SOL    HW227801   5.233   6.834   0.451
 8968SOL     OW27802   6.531   4.177   3.748
 8968SOL    HW127803   6.626   4.148   3.741
 8968SOL    HW227804   6.505   4.229   3.667
 8969SOL     OW27805   6.297   0.197   3.914
 8969SOL    HW127806   6.235   0.127   3.880
 8969SOL    HW227807   6.392   0.168   3.897
 8970SOL     OW27808   3.046   2.924   1.368
 8970SOL    HW127809   3.135   2.969   1.367
 8970SOL    HW227810   3.058   2.826   1.386
 8971SOL     OW27811   3.181   6.708   2.636
 8971SOL    HW127812   3.120   6.697   2.558
 8971SOL    HW227813   3.248   6.634   2.638
 8972SOL     OW27814   5.627   0.404   5.637
 8972SOL    HW127815   5.632   0.493   5.592
 8972SOL    HW227816   5.714   0.356   5.624
 8973SOL     OW27817   1.767   4.505   6.851
 8973SOL    HW127818   1.856   4.460   6.839
 8973SOL    HW227819   1.701   4.437   6.884
 8974SOL     OW27820   1.009   2.639   4.170
 8974SOL    HW127821   1.086   2.624   4.232
 8974SOL    HW227822   1.041   2.684   4.087
 8975SOL     OW27823   3.572   1.017   6.451
 8975SOL    HW127824   3.626   1.073   6.387
 8975SOL    HW227825   3.486   0.991   6.407
 8976SOL     OW27826   1.448   6.081   4.041
 8976SOL    HW127827   1.491   6.092   3.951
 8976SOL    HW227828   1.424   6.170   4.078
 8977SOL     OW27829   5.939   1.928   0.174
 8977SOL    HW127830   5.971   1.961   0.263
 8977SOL    HW227831   5.840   1.914   0.176
 8978SOL     OW27832   5.479   4.483   2.547
 8978SOL    HW127833   5.497   4.409   2.482
 8978SOL    HW227834   5.388   4.470   2.588
 8979SOL     OW27835   0.985   4.705   5.040
 8979SOL    HW127836   1.043   4.756   5.103
 8979SOL    HW227837   0.889   4.716   5.065
 8980SOL     OW27838   3.101   3.048   3.734
 8980SOL    HW127839   3.199   3.042   3.752
 8980SOL    HW227840   3.051   2.993   3.801
 8981SOL     OW27841   3.341   2.332   5.444
 8981SOL    HW127842   3.284   2.359   5.521
 8981SOL    HW227843   3.293   2.353   5.358
 8982SOL     OW27844   2.653   4.834   0.002
 8982SOL    HW127845   2.617   4.925   7.004
 8982SOL    HW227846   2.753   4.839   0.010
 8983SOL     OW27847   5.004   4.221   0.894
 8983SOL    HW127848   4.984   4.311   0.933
 8983SOL    HW227849   5.052   4.165   0.962
 8984SOL     OW27850   1.576   6.402   2.569
 8984SOL    HW127851   1.665   6.371   2.602
 8984SOL    HW227852   1.573   6.395   2.469
 8985SOL     OW27853   3.467   2.866   6.301
 8985SOL    HW127854   3.466   2.964   6.320
 8985SOL    HW227855   3.553   2.843   6.254
 8986SOL     OW27856   2.488   6.215   1.958
 8986SOL    HW127857   2.459   6.310   1.973
 8986SOL    HW227858   2.559   6.191   2.024
 8987SOL     OW27859   5.140   6.563   2.475
 8987SOL    HW127860   5.192   6.586   2.557
 8987SOL    HW227861   5.052   6.610   2.477
 8988SOL     OW27862   0.934   4.362   5.106
 8988SOL    HW127863   0.873   4.435   5.074
 8988SOL    HW227864   1.016   4.402   5.146
 8989SOL     OW27865   2.159   2.535   6.999
 8989SOL    HW127866   2.183   2.587   6.917
 8989SOL    HW227867   2.150   2.439   6.976
 8990SOL     OW27868   0.286   4.694   4.495
 8990SOL    HW127869   0.201   4.642   4.503
 8990SOL    HW227870   0.279   4.758   4.418
 8991SOL     OW27871   1.183   1.906   5.048
 8991SOL    HW127872   1.208   1.975   5.115
 8991SOL    HW227873   1.205   1.938   4.956
 8992SOL     OW27874   6.261   1.131   1.433
 8992SOL    HW127875   6.359   1.146   1.419
 8992SOL    HW227876   6.209   1.186   1.367
 8993SOL     OW27877   4.533   2.423   0.821
 8993SOL    HW127878   4.458   2.363   0.850
 8993SOL    HW227879   4.546   2.495   0.888
 8994SOL     OW27880   2.156   5.622   2.458
 8994SOL    HW127881   2.227   5.666   2.403
 8994SOL    HW227882   2.102   5.560   2.400
 8995SOL     OW27883   0.512   0.320   0.997
 8995SOL    HW127884   0.610   0.338   1.003
 8995SOL    HW227885   0.495   0.241   0.939
 8996SOL     OW27886   4.311   5.798   5.523
 8996SOL    HW127887   4.308   5.698   5.530
 8996SOL    HW227888   4.372   5.834   5.594
 8997SOL     OW27889   5.675   6.777   4.809
 8997SOL    HW127890   5.710   6.840   4.878
 8997SOL    HW227891   5.611   6.825   4.749
 8998SOL     OW27892   7.000   4.117   5.192
 8998SOL    HW127893   0.005   4.025   5.221
 8998SOL    HW227894   6.902   4.120   5.170
 8999SOL     OW27895   4.160   5.815   6.395
 8999SOL    HW127896   4.135   5.872   6.317
 8999SOL    HW227897   4.205   5.732   6.364
 9000SOL     OW27898   1.918   3.990   1.401
 9000SOL    HW127899   1.850   3.917   1.406
 9000SOL    HW227900   1.902   4.045   1.319
 9001SOL     OW27901   1.612   5.069   1.091
 9001SOL    HW127902   1.586   5.159   1.055
 9001SOL    HW227903   1.711   5.056   1.080
 9002SOL     OW27904   6.540   6.521   6.691
 9002SOL    HW127905   6.465   6.455   6.681
 9002SOL    HW227906   6.503   6.609   6.721
 9003SOL     OW27907   4.910   6.596   1.144
 9003SOL    HW127908   4.969   6.677   1.145
 9003SOL    HW227909   4.844   6.604   1.069
 9004SOL     OW27910   6.333   4.886   1.956
 9004SOL    HW127911   6.342   4.894   2.055
 9004SOL    HW227912   6.266   4.815   1.934
 9005SOL     OW27913   4.858   1.125   4.840
 9005SOL    HW127914   4.910   1.040   4.826
 9005SOL    HW227915   4.913   1.189   4.893
 9006SOL     OW27916   3.404   6.292   0.412
 9006SOL    HW127917   3.337   6.267   0.482
 9006SOL    HW227918   3.381   6.245   0.326
 9007SOL     OW27919   0.109   0.450   3.308
 9007SOL    HW127920   0.062   0.363   3.293
 9007SOL    HW227921   0.176   0.465   3.236
 9008SOL     OW27922   6.753   5.203   2.028
 9008SOL    HW127923   6.736   5.216   1.930
 9008SOL    HW227924   6.842   5.242   2.052
 9009SOL     OW27925   3.388   6.609   2.099
 9009SOL    HW127926   3.373   6.561   2.186
 9009SOL    HW227927   3.404   6.706   2.117
 9010SOL     OW27928   2.165   4.961   4.822
 9010SOL    HW127929   2.149   4.866   4.849
 9010SOL    HW227930   2.084   5.016   4.842
 9011SOL     OW27931   2.663   1.744   2.020
 9011SOL    HW127932   2.729   1.759   1.947
 9011SOL    HW227933   2.695   1.789   2.103
 9012SOL     OW27934   2.294   6.478   0.354
 9012SOL    HW127935   2.256   6.409   0.415
 9012SOL    HW227936   2.367   6.437   0.300
 9013SOL     OW27937   1.856   0.589   4.533
 9013SOL    HW127938   1.833   0.529   4.456
 9013SOL    HW227939   1.798   0.566   4.611
 9014SOL     OW27940   5.694   3.415   3.046
 9014SOL    HW127941   5.663   3.381   3.135
 9014SOL    HW227942   5.782   3.374   3.023
 9015SOL     OW27943   3.925   6.292   6.182
 9015SOL    HW127944   3.964   6.208   6.220
 9015SOL    HW227945   3.870   6.338   6.251
 9016SOL     OW27946   4.809   4.293   6.071
 9016SOL    HW127947   4.802   4.377   6.019
 9016SOL    HW227948   4.740   4.228   6.039
 9017SOL     OW27949   2.811   0.371   5.603
 9017SOL    HW127950   2.799   0.375   5.504
 9017SOL    HW227951   2.725   0.393   5.649
 9018SOL     OW27952   3.079   4.988   0.160
 9018SOL    HW127953   3.178   4.971   0.162
 9018SOL    HW227954   3.057   5.064   0.221
 9019SOL     OW27955   0.575   4.574   5.144
 9019SOL    HW127956   0.613   4.515   5.073
 9019SOL    HW227957   0.591   4.532   5.234
 9020SOL     OW27958   5.508   5.440   3.534
 9020SOL    HW127959   5.520   5.530   3.577
 9020SOL    HW227960   5.570   5.374   3.577
 9021SOL     OW27961   0.299   1.436   4.504
 9021SOL    HW127962   0.206   1.448   4.469
 9021SOL    HW227963   0.309   1.486   4.590
 9022SOL     OW27964   4.843   3.251   6.582
 9022SOL    HW127965   4.757   3.302   6.576
 9022SOL    HW227966   4.824   3.157   6.611
 9023SOL     OW27967   0.229   4.511   1.125
 9023SOL    HW127968   0.276   4.477   1.207
 9023SOL    HW227969   0.159   4.577   1.151
 9024SOL     OW27970   1.940   4.555   6.297
 9024SOL    HW127971   1.880   4.582   6.372
 9024SOL    HW227972   1.888   4.501   6.230
 9025SOL     OW27973   0.286   6.034   1.958
 9025SOL    HW127974   0.386   6.035   1.969
 9025SOL    HW227975   0.244   6.010   2.045
 9026SOL     OW27976   5.936   1.411   6.827
 9026SOL    HW127977   5.912   1.318   6.800
 9026SOL    HW227978   6.020   1.439   6.780
 9027SOL     OW27979   0.156   4.415   2.997
 9027SOL    HW127980   0.241   4.443   3.043
 9027SOL    HW227981   0.100   4.496   2.979
 9028SOL     OW27982   2.945   4.626   6.827
 9028SOL    HW127983   2.942   4.652   6.923
 9028SOL    HW227984   2.989   4.537   6.817
 9029SOL     OW27985   4.034   6.226   4.769
 9029SOL    HW127986   4.068   6.299   4.710
 9029SOL    HW227987   4.066   6.242   4.863
 9030SOL     OW27988   2.983   2.216   2.323
 9030SOL    HW127989   3.079   2.203   2.300
 9030SOL    HW227990   2.941   2.280   2.259
 9031SOL     OW27991   5.371   6.798   4.889
 9031SOL    HW127992   5.366   6.895   4.914
 9031SOL    HW227993   5.408   6.790   4.797
 9032SOL     OW27994   4.776   2.979   1.086
 9032SOL    HW127995   4.714   2.937   1.152
 9032SOL    HW227996   4.734   2.978   0.995
 9033SOL     OW27997   1.154   5.983   2.486
 9033SOL    HW127998   1.179   5.929   2.407
 9033SOL    HW227999   1.097   6.060   2.457
 9034SOL     OW28000   4.253   6.549   4.980
 9034SOL    HW128001   4.244   6.623   5.047
 9034SOL    HW228002   4.174   6.488   4.987
 9035SOL     OW28003   2.074   5.654   5.818
 9035SOL    HW128004   2.047   5.645   5.914
 9035SOL    HW228005   2.171   5.677   5.813
 9036SOL     OW28006   0.203   5.016   4.838
 9036SOL    HW128007   0.139   5.016   4.915
 9036SOL    HW228008   0.295   5.040   4.870
 9037SOL     OW28009   6.817   0.885   2.243
 9037SOL    HW128010   6.751   0.859   2.173
 9037SOL    HW228011   6.902   0.835   2.229
 9038SOL     OW28012   3.311   3.718   5.854
 9038SOL    HW128013   3.289   3.722   5.757
 9038SOL    HW228014   3.288   3.805   5.897
 9039SOL     OW28015   4.529   6.523   6.395
 9039SOL    HW128016   4.450   6.573   6.360
 9039SOL    HW228017   4.522   6.427   6.368
 9040SOL     OW28018   2.575   2.113   1.375
 9040SOL    HW128019   2.574   2.040   1.443
 9040SOL    HW228020   2.532   2.080   1.290
 9041SOL     OW28021   6.754   2.717   3.561
 9041SOL    HW128022   6.733   2.753   3.471
 9041SOL    HW228023   6.756   2.791   3.628
 9042SOL     OW28024   6.165   5.101   6.371
 9042SOL    HW128025   6.163   5.093   6.271
 9042SOL    HW228026   6.073   5.090   6.408
 9043SOL     OW28027   3.319   2.818   2.006
 9043SOL    HW128028   3.275   2.731   2.028
 9043SOL    HW228029   3.325   2.874   2.088
 9044SOL     OW28030   2.172   1.282   0.420
 9044SOL    HW128031   2.195   1.196   0.373
 9044SOL    HW228032   2.234   1.354   0.391
 9045SOL     OW28033   3.562   0.551   4.224
 9045SOL    HW128034   3.656   0.518   4.225
 9045SOL    HW228035   3.550   0.616   4.149
 9046SOL     OW28036   4.132   3.668   1.980
 9046SOL    HW128037   4.116   3.716   2.066
 9046SOL    HW228038   4.076   3.710   1.908
 9047SOL     OW28039   0.646   4.082   5.579
 9047SOL    HW128040   0.608   4.098   5.670
 9047SOL    HW228041   0.742   4.108   5.578
 9048SOL     OW28042   0.783   2.589   5.396
 9048SOL    HW128043   0.744   2.679   5.376
 9048SOL    HW228044   0.714   2.519   5.382
 9049SOL     OW28045   0.178   6.449   5.072
 9049SOL    HW128046   0.276   6.444   5.052
 9049SOL    HW228047   0.162   6.522   5.139
 9050SOL     OW28048   1.050   4.282   0.002
 9050SOL    HW128049   1.035   4.362   6.963
 9050SOL    HW228050   1.082   4.206   6.965
 9051SOL     OW28051   1.681   1.420   1.408
 9051SOL    HW128052   1.724   1.382   1.326
 9051SOL    HW228053   1.740   1.404   1.487
 9052SOL     OW28054   2.233   2.702   6.772
 9052SOL    HW128055   2.317   2.674   6.726
 9052SOL    HW228056   2.232   2.802   6.781
 9053SOL     OW28057   0.354   1.168   0.567
 9053SOL    HW128058   0.391   1.078   0.542
 9053SOL    HW228059   0.352   1.227   0.487
 9054SOL     OW28060   1.106   5.507   3.060
 9054SOL    HW128061   1.185   5.467   3.014
 9054SOL    HW228062   1.131   5.596   3.098
 9055SOL     OW28063   0.595   2.557   6.267
 9055SOL    HW128064   0.497   2.556   6.250
 9055SOL    HW228065   0.626   2.652   6.276
 9056SOL     OW28066   4.885   0.996   4.086
 9056SOL    HW128067   4.867   1.058   4.163
 9056SOL    HW228068   4.982   0.972   4.085
 9057SOL     OW28069   4.705   1.316   3.920
 9057SOL    HW128070   4.659   1.235   3.956
 9057SOL    HW228071   4.681   1.395   3.977
 9058SOL     OW28072   1.784   6.609   5.593
 9058SOL    HW128073   1.868   6.615   5.538
 9058SOL    HW228074   1.740   6.698   5.597
 9059SOL     OW28075   2.106   2.041   3.664
 9059SOL    HW128076   2.178   2.041   3.595
 9059SOL    HW228077   2.103   2.130   3.709
 9060SOL     OW28078   5.787   2.202   5.584
 9060SOL    HW128079   5.858   2.142   5.548
 9060SOL    HW228080   5.829   2.285   5.622
 9061SOL     OW28081   2.419   4.858   4.030
 9061SOL    HW128082   2.376   4.793   4.093
 9061SOL    HW228083   2.350   4.894   3.967
 9062SOL     OW28084   1.750   6.707   1.617
 9062SOL    HW128085   1.804   6.625   1.633
 9062SOL    HW228086   1.653   6.684   1.624
 9063SOL     OW28087   2.797   1.645   1.755
 9063SOL    HW128088   2.738   1.725   1.738
 9063SOL    HW228089   2.877   1.651   1.695
 9064SOL     OW28090   3.880   3.740   0.379
 9064SOL    HW128091   3.977   3.759   0.394
 9064SOL    HW228092   3.832   3.826   0.362
 9065SOL     OW28093   2.942   1.105   0.986
 9065SOL    HW128094   2.960   1.048   0.906
 9065SOL    HW228095   2.927   1.199   0.958
 9066SOL     OW28096   4.848   6.495   0.179
 9066SOL    HW128097   4.817   6.402   0.198
 9066SOL    HW228098   4.804   6.529   0.097
 9067SOL     OW28099   0.459   0.699   2.145
 9067SOL    HW128100   0.484   0.791   2.116
 9067SOL    HW228101   0.519   0.632   2.101
 9068SOL     OW28102   0.645   6.173   6.115
 9068SOL    HW128103   0.698   6.127   6.043
 9068SOL    HW228104   0.547   6.160   6.098
 9069SOL     OW28105   1.167   2.757   5.723
 9069SOL    HW128106   1.241   2.727   5.662
 9069SOL    HW228107   1.165   2.857   5.726
 9070SOL     OW28108   1.605   3.887   4.497
 9070SOL    HW128109   1.672   3.952   4.461
 9070SOL    HW228110   1.652   3.807   4.534
 9071SOL     OW28111   5.103   5.513   6.920
 9071SOL    HW128112   5.078   5.443   6.854
 9071SOL    HW228113   5.027   5.529   6.983
 9072SOL     OW28114   5.692   4.321   1.078
 9072SOL    HW128115   5.670   4.379   0.999
 9072SOL    HW228116   5.655   4.363   1.161
 9073SOL     OW28117   1.743   0.016   1.474
 9073SOL    HW128118   1.827   6.983   1.459
 9073SOL    HW228119   1.730   0.030   1.572
 9074SOL     OW28120   0.743   1.094   0.792
 9074SOL    HW128121   0.721   1.031   0.866
 9074SOL    HW228122   0.811   1.161   0.825
 9075SOL     OW28123   6.146   0.248   0.758
 9075SOL    HW128124   6.240   0.274   0.738
 9075SOL    HW228125   6.144   0.154   0.794
 9076SOL     OW28126   1.463   2.916   5.794
 9076SOL    HW128127   1.425   2.958   5.711
 9076SOL    HW228128   1.466   2.817   5.783
 9077SOL     OW28129   5.406   5.594   1.855
 9077SOL    HW128130   5.418   5.633   1.946
 9077SOL    HW228131   5.429   5.662   1.786
 9078SOL     OW28132   4.934   2.888   5.099
 9078SOL    HW128133   4.911   2.985   5.093
 9078SOL    HW228134   4.951   2.852   5.007
 9079SOL     OW28135   1.150   0.505   5.486
 9079SOL    HW128136   1.218   0.577   5.483
 9079SOL    HW228137   1.191   0.421   5.521
 9080SOL     OW28138   4.369   0.968   0.658
 9080SOL    HW128139   4.406   0.878   0.678
 9080SOL    HW228140   4.391   0.993   0.564
 9081SOL     OW28141   5.652   6.358   3.799
 9081SOL    HW128142   5.637   6.282   3.736
 9081SOL    HW228143   5.655   6.444   3.747
 9082SOL     OW28144   1.923   6.990   2.180
 9082SOL    HW128145   1.857   0.020   2.124
 9082SOL    HW228146   2.015   0.006   2.163
 9083SOL     OW28147   4.072   5.213   3.269
 9083SOL    HW128148   4.169   5.234   3.253
 9083SOL    HW228149   4.016   5.261   3.202
 9084SOL     OW28150   3.460   3.748   2.415
 9084SOL    HW128151   3.518   3.746   2.333
 9084SOL    HW228152   3.439   3.842   2.438
 9085SOL     OW28153   1.558   2.050   0.961
 9085SOL    HW128154   1.573   2.046   0.862
 9085SOL    HW228155   1.626   1.993   1.008
 9086SOL     OW28156   6.827   3.376   1.091
 9086SOL    HW128157   6.879   3.444   1.040
 9086SOL    HW228158   6.729   3.389   1.075
 9087SOL     OW28159   5.195   4.303   2.107
 9087SOL    HW128160   5.158   4.386   2.065
 9087SOL    HW228161   5.189   4.311   2.207
 9088SOL     OW28162   6.197   4.835   2.198
 9088SOL    HW128163   6.227   4.748   2.160
 9088SOL    HW228164   6.107   4.825   2.238
 9089SOL     OW28165   4.757   0.889   5.877
 9089SOL    HW128166   4.669   0.916   5.916
 9089SOL    HW228167   4.831   0.924   5.935
 9090SOL     OW28168   0.163   2.505   3.888
 9090SOL    HW128169   0.165   2.405   3.884
 9090SOL    HW228170   0.071   2.538   3.870
 9091SOL     OW28171   4.034   3.081   5.992
 9091SOL    HW128172   3.995   3.155   6.046
 9091SOL    HW228173   4.124   3.056   6.028
 9092SOL     OW28174   6.990   3.807   6.409
 9092SOL    HW128175   6.970   3.746   6.486
 9092SOL    HW228176   0.015   3.755   6.336
 9093SOL     OW28177   2.523   5.947   4.771
 9093SOL    HW128178   2.498   5.925   4.865
 9093SOL    HW228179   2.461   5.899   4.708
 9094SOL     OW28180   1.635   4.122   0.417
 9094SOL    HW128181   1.672   4.182   0.489
 9094SOL    HW228182   1.556   4.072   0.453
 9095SOL     OW28183   0.552   0.344   6.164
 9095SOL    HW128184   0.519   0.320   6.073
 9095SOL    HW228185   0.642   0.304   6.178
 9096SOL     OW28186   6.598   5.336   3.863
 9096SOL    HW128187   6.626   5.271   3.934
 9096SOL    HW228188   6.526   5.296   3.808
 9097SOL     OW28189   0.730   4.067   1.019
 9097SOL    HW128190   0.782   4.033   0.941
 9097SOL    HW228191   0.642   4.103   0.988
 9098SOL     OW28192   1.947   5.530   4.516
 9098SOL    HW128193   1.858   5.501   4.483
 9098SOL    HW228194   2.019   5.477   4.472
 9099SOL     OW28195   1.675   0.822   6.492
 9099SOL    HW128196   1.660   0.780   6.581
 9099SOL    HW228197   1.753   0.885   6.497
 9100SOL     OW28198   1.805   5.009   4.328
 9100SOL    HW128199   1.755   4.939   4.380
 9100SOL    HW228200   1.903   4.991   4.334
 9101SOL     OW28201   6.221   2.095   1.575
 9101SOL    HW128202   6.256   2.122   1.664
 9101SOL    HW228203   6.121   2.100   1.576
 9102SOL     OW28204   3.858   0.995   3.085
 9102SOL    HW128205   3.805   0.911   3.075
 9102SOL    HW228206   3.799   1.073   3.063
 9103SOL     OW28207   5.773   0.820   1.385
 9103SOL    HW128208   5.863   0.833   1.344
 9103SOL    HW228209   5.719   0.758   1.328
 9104SOL     OW28210   4.852   2.866   5.863
 9104SOL    HW128211   4.789   2.836   5.935
 9104SOL    HW228212   4.862   2.794   5.795
 9105SOL     OW28213   2.832   0.714   0.536
 9105SOL    HW128214   2.907   0.780   0.532
 9105SOL    HW228215   2.840   0.650   0.459
 9106SOL     OW28216   2.598   2.720   6.016
 9106SOL    HW128217   2.536   2.701   6.093
 9106SOL    HW228218   2.692   2.696   6.042
 9107SOL     OW28219   4.057   0.548   1.054
 9107SOL    HW128220   4.155   0.526   1.057
 9107SOL    HW228221   4.043   0.639   1.092
 9108SOL     OW28222   6.055   0.011   5.870
 9108SOL    HW128223   6.004   6.970   5.809
 9108SOL    HW228224   6.151   7.003   5.873
 9109SOL     OW28225   5.644   3.777   3.160
 9109SOL    HW128226   5.611   3.777   3.065
 9109SOL    HW228227   5.718   3.711   3.169
 9110SOL     OW28228   0.702   6.283   1.979
 9110SOL    HW128229   0.618   6.328   2.010
 9110SOL    HW228230   0.685   6.185   1.968
 9111SOL     OW28231   5.084   3.537   5.608
 9111SOL    HW128232   5.145   3.554   5.685
 9111SOL    HW228233   5.135   3.489   5.536
 9112SOL     OW28234   0.549   4.770   1.720
 9112SOL    HW128235   0.618   4.842   1.721
 9112SOL    HW228236   0.555   4.718   1.805
 9113SOL     OW28237   5.350   0.078   4.992
 9113SOL    HW128238   5.366   0.140   4.915
 9113SOL    HW228239   5.262   0.100   5.035
 9114SOL     OW28240   6.896   1.328   6.011
 9114SOL    HW128241   6.883   1.230   5.994
 9114SOL    HW228242   6.977   1.342   6.067
 9115SOL     OW28243   5.236   3.740   4.537
 9115SOL    HW128244   5.335   3.755   4.531
 9115SOL    HW228245   5.199   3.727   4.446
 9116SOL     OW28246   0.810   5.394   3.549
 9116SOL    HW128247   0.860   5.435   3.473
 9116SOL    HW228248   0.874   5.359   3.617
 9117SOL     OW28249   1.906   6.396   6.803
 9117SOL    HW128250   1.971   6.411   6.878
 9117SOL    HW228251   1.946   6.333   6.736
 9118SOL     OW28252   0.110   4.816   1.250
 9118SOL    HW128253   0.174   4.811   1.327
 9118SOL    HW228254   0.146   4.878   1.181
 9119SOL     OW28255   3.790   2.074   0.990
 9119SOL    HW128256   3.869   2.029   1.032
 9119SOL    HW228257   3.822   2.142   0.924
 9120SOL     OW28258   6.964   4.750   5.105
 9120SOL    HW128259   0.043   4.733   5.104
 9120SOL    HW228260   6.933   4.777   5.014
 9121SOL     OW28261   4.390   1.356   4.908
 9121SOL    HW128262   4.297   1.389   4.918
 9121SOL    HW228263   4.440   1.415   4.844
 9122SOL     OW28264   0.147   1.592   2.317
 9122SOL    HW128265   0.153   1.643   2.403
 9122SOL    HW228266   0.206   1.636   2.249
 9123SOL     OW28267   0.471   6.142   4.660
 9123SOL    HW128268   0.441   6.106   4.748
 9123SOL    HW228269   0.462   6.071   4.590
 9124SOL     OW28270   2.865   5.436   0.771
 9124SOL    HW128271   2.933   5.368   0.796
 9124SOL    HW228272   2.904   5.501   0.705
 9125SOL     OW28273   4.703   6.518   2.102
 9125SOL    HW128274   4.712   6.534   2.200
 9125SOL    HW228275   4.792   6.524   2.058
 9126SOL     OW28276   3.774   5.188   6.910
 9126SOL    HW128277   3.834   5.149   6.840
 9126SOL    HW228278   3.800   5.151   6.999
 9127SOL     OW28279   6.171   3.997   6.463
 9127SOL    HW128280   6.265   4.009   6.432
 9127SOL    HW228281   6.127   4.086   6.473
 9128SOL     OW28282   5.148   3.114   6.968
 9128SOL    HW128283   5.189   3.026   6.995
 9128SOL    HW228284   5.179   3.138   6.876
 9129SOL     OW28285   0.804   2.251   1.422
 9129SOL    HW128286   0.766   2.159   1.414
 9129SOL    HW228287   0.901   2.245   1.445
 9130SOL     OW28288   3.201   3.977   6.473
 9130SOL    HW128289   3.265   3.907   6.505
 9130SOL    HW228290   3.208   3.985   6.373
 9131SOL     OW28291   6.454   3.059   0.615
 9131SOL    HW128292   6.536   3.085   0.565
 9131SOL    HW228293   6.388   3.018   0.552
 9132SOL     OW28294   0.905   4.713   3.899
 9132SOL    HW128295   0.917   4.810   3.915
 9132SOL    HW228296   0.980   4.662   3.941
 9133SOL     OW28297   5.081   6.673   0.679
 9133SOL    HW128298   5.167   6.624   0.685
 9133SOL    HW228299   5.005   6.610   0.695
 9134SOL     OW28300   5.001   4.041   6.627
 9134SOL    HW128301   5.067   3.992   6.571
 9134SOL    HW228302   4.909   4.028   6.589
 9135SOL     OW28303   6.371   5.033   2.213
 9135SOL    HW128304   6.298   4.970   2.239
 9135SOL    HW228305   6.366   5.115   2.270
 9136SOL     OW28306   0.161   5.153   6.810
 9136SOL    HW128307   0.131   5.231   6.867
 9136SOL    HW228308   0.097   5.077   6.821
 9137SOL     OW28309   5.930   5.529   6.158
 9137SOL    HW128310   5.985   5.598   6.205
 9137SOL    HW228311   5.991   5.460   6.118
 9138SOL     OW28312   1.829   3.824   5.651
 9138SOL    HW128313   1.890   3.845   5.575
 9138SOL    HW228314   1.802   3.728   5.647
 9139SOL     OW28315   0.730   6.748   1.150
 9139SOL    HW128316   0.724   6.822   1.218
 9139SOL    HW228317   0.674   6.772   1.070
 9140SOL     OW28318   0.438   4.314   2.792
 9140SOL    HW128319   0.354   4.269   2.823
 9140SOL    HW228320   0.505   4.244   2.765
 9141SOL     OW28321   0.067   5.553   4.359
 9141SOL    HW128322   6.992   5.547   4.328
 9141SOL    HW228323   0.077   5.506   4.446
 9142SOL     OW28324   1.925   5.519   3.009
 9142SOL    HW128325   1.975   5.604   2.991
 9142SOL    HW228326   1.850   5.538   3.074
 9143SOL     OW28327   5.252   3.380   2.324
 9143SOL    HW128328   5.198   3.408   2.404
 9143SOL    HW228329   5.314   3.307   2.350
 9144SOL     OW28330   2.755   4.991   5.410
 9144SOL    HW128331   2.723   4.943   5.329
 9144SOL    HW228332   2.678   5.004   5.473
 9145SOL     OW28333   2.731   5.402   6.593
 9145SOL    HW128334   2.810   5.354   6.633
 9145SOL    HW228335   2.763   5.468   6.525
 9146SOL     OW28336   5.289   1.219   4.289
 9146SOL    HW128337   5.218   1.290   4.286
 9146SOL    HW228338   5.267   1.152   4.360
 9147SOL     OW28339   3.547   6.682   6.288
 9147SOL    HW128340   3.458   6.727   6.277
 9147SOL    HW228341   3.594   6.720   6.367
 9148SOL     OW28342   3.564   6.101   1.891
 9148SOL    HW128343   3.556   6.104   1.792
 9148SOL    HW228344   3.484   6.057   1.931
 9149SOL     OW28345   0.924   4.037   1.980
 9149SOL    HW128346   0.964   4.106   2.040
 9149SOL    HW228347   0.996   3.977   1.946
 9150SOL     OW28348   3.628   3.448   0.132
 9150SOL    HW128349   3.605   3.542   0.105
 9150SOL    HW228350   3.703   3.450   0.199
 9151SOL     OW28351   2.286   4.292   3.545
 9151SOL    HW128352   2.312   4.291   3.642
 9151SOL    HW228353   2.301   4.384   3.508
 9152SOL     OW28354   1.730   5.393   2.290
 9152SOL    HW128355   1.772   5.318   2.240
 9152SOL    HW228356   1.631   5.389   2.280
 9153SOL     OW28357   0.985   3.263   1.272
 9153SOL    HW128358   0.947   3.203   1.202
 9153SOL    HW228359   0.931   3.254   1.356
 9154SOL     OW28360   4.361   5.302   2.297
 9154SOL    HW128361   4.394   5.210   2.277
 9154SOL    HW228362   4.312   5.302   2.384
 9155SOL     OW28363   0.398   0.113   1.934
 9155SOL    HW128364   0.463   0.043   1.902
 9155SOL    HW228365   0.412   0.197   1.883
 9156SOL     OW28366   6.720   4.429   5.750
 9156SOL    HW128367   6.746   4.370   5.674
 9156SOL    HW228368   6.623   4.419   5.769
 9157SOL     OW28369   2.560   4.758   4.897
 9157SOL    HW128370   2.566   4.857   4.911
 9157SOL    HW228371   2.588   4.711   4.981
 9158SOL     OW28372   6.923   2.614   3.832
 9158SOL    HW128373   6.872   2.557   3.767
 9158SOL    HW228374   6.885   2.706   3.832
 9159SOL     OW28375   1.694   0.439   3.100
 9159SOL    HW128376   1.610   0.469   3.056
 9159SOL    HW228377   1.718   0.348   3.066
 9160SOL     OW28378   0.096   3.316   0.138
 9160SOL    HW128379   0.143   3.281   0.219
 9160SOL    HW228380   0.119   3.413   0.125
 9161SOL     OW28381   6.198   3.111   2.929
 9161SOL    HW128382   6.235   3.045   2.994
 9161SOL    HW228383   6.098   3.100   2.923
 9162SOL     OW28384   5.458   2.081   1.862
 9162SOL    HW128385   5.424   2.136   1.786
 9162SOL    HW228386   5.558   2.077   1.859
 9163SOL     OW28387   1.139   3.969   2.820
 9163SOL    HW128388   1.211   3.899   2.815
 9163SOL    HW228389   1.090   3.959   2.907
 9164SOL     OW28390   4.110   0.863   0.841
 9164SOL    HW128391   4.189   0.843   0.784
 9164SOL    HW228392   4.068   0.948   0.811
 9165SOL     OW28393   6.865   0.137   0.292
 9165SOL    HW128394   6.808   0.138   0.374
 9165SOL    HW228395   6.838   0.061   0.233
 9166SOL     OW28396   4.049   5.501   1.911
 9166SOL    HW128397   4.127   5.440   1.923
 9166SOL    HW228398   4.058   5.550   1.824
 9167SOL     OW28399   0.760   3.283   5.101
 9167SOL    HW128400   0.779   3.367   5.050
 9167SOL    HW228401   0.708   3.220   5.044
 9168SOL     OW28402   6.145   6.911   4.983
 9168SOL    HW128403   6.164   6.971   5.060
 9168SOL    HW228404   6.221   6.846   4.972
 9169SOL     OW28405   5.713   5.848   0.222
 9169SOL    HW128406   5.621   5.882   0.203
 9169SOL    HW228407   5.708   5.756   0.260
 9170SOL     OW28408   1.375   6.763   4.662
 9170SOL    HW128409   1.365   6.676   4.710
 9170SOL    HW228410   1.472   6.788   4.658
 9171SOL     OW28411   4.446   5.309   6.576
 9171SOL    HW128412   4.388   5.371   6.522
 9171SOL    HW228413   4.471   5.230   6.520
 9172SOL     OW28414   5.121   0.386   6.169
 9172SOL    HW128415   5.204   0.348   6.130
 9172SOL    HW228416   5.063   0.422   6.096
 9173SOL     OW28417   5.726   3.889   6.844
 9173SOL    HW128418   5.796   3.959   6.829
 9173SOL    HW228419   5.677   3.908   6.929
 9174SOL     OW28420   5.513   5.029   0.157
 9174SOL    HW128421   5.441   5.073   0.103
 9174SOL    HW228422   5.473   4.953   0.209
 9175SOL     OW28423   2.240   0.683   1.486
 9175SOL    HW128424   2.252   0.782   1.473
 9175SOL    HW228425   2.271   0.635   1.404
 9176SOL     OW28426   1.123   6.889   2.123
 9176SOL    HW128427   1.054   6.837   2.072
 9176SOL    HW228428   1.214   6.861   2.093
 9177SOL     OW28429   0.332   5.860   3.278
 9177SOL    HW128430   0.292   5.786   3.332
 9177SOL    HW228431   0.357   5.825   3.188
 9178SOL     OW28432   0.787   2.671   1.379
 9178SOL    HW128433   0.787   2.731   1.299
 9178SOL    HW228434   0.746   2.583   1.356
 9179SOL     OW28435   3.636   6.284   2.610
 9179SOL    HW128436   3.621   6.288   2.511
 9179SOL    HW228437   3.680   6.197   2.633
 9180SOL     OW28438   0.697   1.525   4.045
 9180SOL    HW128439   0.677   1.491   4.137
 9180SOL    HW228440   0.757   1.461   3.998
 9181SOL     OW28441   3.052   1.916   2.752
 9181SOL    HW128442   3.115   1.955   2.684
 9181SOL    HW228443   3.035   1.820   2.731
 9182SOL     OW28444   6.377   0.499   2.629
 9182SOL    HW128445   6.401   0.594   2.651
 9182SOL    HW228446   6.316   0.463   2.699
 9183SOL     OW28447   2.622   1.572   5.572
 9183SOL    HW128448   2.647   1.500   5.638
 9183SOL    HW228449   2.546   1.625   5.608
 9184SOL     OW28450   2.747   6.465   0.246
 9184SOL    HW128451   2.841   6.429   0.249
 9184SOL    HW228452   2.749   6.564   0.239
 9185SOL     OW28453   0.669   1.184   4.900
 9185SOL    HW128454   0.739   1.225   4.958
 9185SOL    HW228455   0.709   1.155   4.813
 9186SOL     OW28456   5.128   6.670   5.857
 9186SOL    HW128457   5.084   6.580   5.867
 9186SOL    HW228458   5.069   6.730   5.802
 9187SOL     OW28459   4.337   3.178   1.225
 9187SOL    HW128460   4.272   3.125   1.171
 9187SOL    HW228461   4.300   3.191   1.317
 9188SOL     OW28462   1.790   0.934   2.231
 9188SOL    HW128463   1.698   0.973   2.228
 9188SOL    HW228464   1.828   0.943   2.323
 9189SOL     OW28465   3.195   0.364   6.859
 9189SOL    HW128466   3.157   0.385   6.769
 9189SOL    HW228467   3.141   0.408   6.930
 9190SOL     OW28468   3.483   0.600   6.370
 9190SOL    HW128469   3.399   0.555   6.401
 9190SOL    HW228470   3.467   0.641   6.280
 9191SOL     OW28471   5.232   0.448   1.674
 9191SOL    HW128472   5.143   0.403   1.683
 9191SOL    HW228473   5.291   0.421   1.750
 9192SOL     OW28474   4.387   4.569   3.651
 9192SOL    HW128475   4.417   4.649   3.599
 9192SOL    HW228476   4.307   4.593   3.706
 9193SOL     OW28477   3.822   4.008   1.917
 9193SOL    HW128478   3.758   4.082   1.938
 9193SOL    HW228479   3.772   3.927   1.888
 9194SOL     OW28480   2.645   5.559   3.335
 9194SOL    HW128481   2.744   5.552   3.325
 9194SOL    HW228482   2.607   5.468   3.355
 9195SOL     OW28483   0.287   3.638   3.610
 9195SOL    HW128484   0.323   3.548   3.635
 9195SOL    HW228485   0.354   3.684   3.551
 9196SOL     OW28486   5.755   5.481   3.331
 9196SOL    HW128487   5.671   5.436   3.300
 9196SOL    HW228488   5.745   5.580   3.323
 9197SOL     OW28489   4.512   2.606   6.657
 9197SOL    HW128490   4.481   2.675   6.592
 9197SOL    HW228491   4.456   2.524   6.647
 9198SOL     OW28492   0.037   3.506   5.033
 9198SOL    HW128493   0.121   3.460   5.006
 9198SOL    HW228494   6.984   3.483   4.968
 9199SOL     OW28495   0.619   3.399   6.678
 9199SOL    HW128496   0.702   3.426   6.728
 9199SOL    HW228497   0.549   3.470   6.688
 9200SOL     OW28498   4.441   5.941   1.986
 9200SOL    HW128499   4.424   6.006   2.059
 9200SOL    HW228500   4.540   5.925   1.978
 9201SOL     OW28501   0.552   3.080   2.774
 9201SOL    HW128502   0.493   3.073   2.854
 9201SOL    HW228503   0.508   3.137   2.705
 9202SOL     OW28504   2.021   6.257   3.150
 9202SOL    HW128505   2.096   6.320   3.133
 9202SOL    HW228506   1.941   6.307   3.185
 9203SOL     OW28507   5.327   2.453   0.171
 9203SOL    HW128508   5.331   2.416   0.264
 9203SOL    HW228509   5.389   2.530   0.163
 9204SOL     OW28510   5.230   4.096   1.933
 9204SOL    HW128511   5.207   4.169   1.998
 9204SOL    HW228512   5.257   4.014   1.983
 9205SOL     OW28513   5.018   2.567   0.716
 9205SOL    HW128514   5.042   2.651   0.766
 9205SOL    HW228515   5.091   2.546   0.651
 9206SOL     OW28516   0.044   0.573   5.018
 9206SOL    HW128517   0.067   0.618   5.105
 9206SOL    HW228518   0.125   0.571   4.960
 9207SOL     OW28519   5.607   6.396   0.621
 9207SOL    HW128520   5.534   6.453   0.581
 9207SOL    HW228521   5.606   6.306   0.578
 9208SOL     OW28522   6.319   3.629   1.361
 9208SOL    HW128523   6.235   3.673   1.392
 9208SOL    HW228524   6.302   3.531   1.347
 9209SOL     OW28525   5.050   0.363   4.303
 9209SOL    HW128526   5.097   0.406   4.226
 9209SOL    HW228527   5.003   0.280   4.271
 9210SOL     OW28528   1.489   6.580   0.625
 9210SOL    HW128529   1.444   6.491   0.621
 9210SOL    HW228530   1.458   6.629   0.706
 9211SOL     OW28531   5.568   0.975   6.296
 9211SOL    HW128532   5.530   0.889   6.261
 9211SOL    HW228533   5.500   1.023   6.351
 9212SOL     OW28534   5.876   3.485   6.108
 9212SOL    HW128535   5.846   3.496   6.203
 9212SOL    HW228536   5.827   3.409   6.067
 9213SOL     OW28537   0.419   6.463   3.405
 9213SOL    HW128538   0.382   6.446   3.313
 9213SOL    HW228539   0.344   6.462   3.471
 9214SOL     OW28540   1.356   0.942   5.397
 9214SOL    HW128541   1.417   0.963   5.321
 9214SOL    HW228542   1.271   0.995   5.388
 9215SOL     OW28543   6.532   4.494   3.882
 9215SOL    HW128544   6.575   4.403   3.878
 9215SOL    HW228545   6.568   4.550   3.807
 9216SOL     OW28546   1.603   6.752   3.104
 9216SOL    HW128547   1.553   6.668   3.125
 9216SOL    HW228548   1.694   6.729   3.069
 9217SOL     OW28549   4.042   2.184   0.105
 9217SOL    HW128550   4.016   2.255   0.172
 9217SOL    HW228551   4.067   2.228   0.019
 9218SOL     OW28552   5.260   5.664   5.986
 9218SOL    HW128553   5.213   5.578   5.965
 9218SOL    HW228554   5.197   5.726   6.033
 9219SOL     OW28555   3.311   2.677   5.670
 9219SOL    HW128556   3.287   2.761   5.621
 9219SOL    HW228557   3.254   2.602   5.637
 9220SOL     OW28558   0.157   6.685   3.671
 9220SOL    HW128559   0.100   6.753   3.716
 9220SOL    HW228560   0.253   6.712   3.675
 9221SOL     OW28561   2.564   1.358   2.374
 9221SOL    HW128562   2.586   1.432   2.311
 9221SOL    HW228563   2.528   1.397   2.459
 9222SOL     OW28564   2.339   6.132   2.652
 9222SOL    HW128565   2.366   6.062   2.586
 9222SOL    HW228566   2.414   6.149   2.716
 9223SOL     OW28567   5.537   3.046   4.926
 9223SOL    HW128568   5.508   3.137   4.897
 9223SOL    HW228569   5.623   3.053   4.976
 9224SOL     OW28570   2.041   5.779   2.237
 9224SOL    HW128571   1.956   5.725   2.240
 9224SOL    HW228572   2.058   5.819   2.327
 9225SOL     OW28573   6.979   6.031   5.718
 9225SOL    HW128574   6.943   6.121   5.696
 9225SOL    HW228575   0.037   6.011   5.658
 9226SOL     OW28576   6.891   6.522   4.852
 9226SOL    HW128577   6.910   6.594   4.785
 9226SOL    HW228578   6.845   6.562   4.931
 9227SOL     OW28579   4.814   2.728   0.851
 9227SOL    HW128580   4.836   2.638   0.814
 9227SOL    HW228581   4.856   2.799   0.794
 9228SOL     OW28582   3.689   3.898   4.090
 9228SOL    HW128583   3.674   3.829   4.019
 9228SOL    HW228584   3.614   3.964   4.088
 9229SOL     OW28585   0.027   5.982   1.406
 9229SOL    HW128586   0.072   5.981   1.317
 9229SOL    HW228587   6.954   5.945   1.397
 9230SOL     OW28588   3.311   6.476   5.520
 9230SOL    HW128589   3.284   6.571   5.535
 9230SOL    HW228590   3.266   6.417   5.587
 9231SOL     OW28591   5.053   5.723   2.091
 9231SOL    HW128592   5.121   5.662   2.131
 9231SOL    HW228593   5.034   5.697   1.997
 9232SOL     OW28594   1.504   4.795   1.552
 9232SOL    HW128595   1.526   4.844   1.468
 9232SOL    HW228596   1.557   4.834   1.628
 9233SOL     OW28597   0.829   0.980   5.981
 9233SOL    HW128598   0.845   1.053   6.047
 9233SOL    HW228599   0.810   0.895   6.030
 9234SOL     OW28600   2.817   4.042   0.590
 9234SOL    HW128601   2.902   4.082   0.624
 9234SOL    HW228602   2.759   4.114   0.551
 9235SOL     OW28603   1.203   2.350   3.096
 9235SOL    HW128604   1.256   2.432   3.117
 9235SOL    HW228605   1.264   2.275   3.073
 9236SOL     OW28606   2.225   4.111   6.122
 9236SOL    HW128607   2.259   4.119   6.216
 9236SOL    HW228608   2.272   4.178   6.064
 9237SOL     OW28609   6.595   5.858   3.576
 9237SOL    HW128610   6.627   5.797   3.649
 9237SOL    HW228611   6.531   5.925   3.614
 9238SOL     OW28612   1.822   2.140   5.773
 9238SOL    HW128613   1.870   2.057   5.744
 9238SOL    HW228614   1.723   2.127   5.762
 9239SOL     OW28615   2.106   5.994   6.598
 9239SOL    HW128616   2.038   5.934   6.557
 9239SOL    HW228617   2.190   5.994   6.543
 9240SOL     OW28618   3.429   1.724   5.480
 9240SOL    HW128619   3.502   1.787   5.455
 9240SOL    HW228620   3.364   1.771   5.540
 9241SOL     OW28621   5.250   5.806   6.913
 9241SOL    HW128622   5.242   5.856   7.000
 9241SOL    HW228623   5.285   5.714   6.930
 9242SOL     OW28624   1.886   2.837   0.033
 9242SOL    HW128625   1.927   2.769   0.094
 9242SOL    HW228626   1.851   2.791   6.971
 9243SOL     OW28627   1.822   0.352   6.894
 9243SOL    HW128628   1.853   0.391   6.981
 9243SOL    HW228629   1.854   0.410   6.819
 9244SOL     OW28630   3.578   6.166   6.316
 9244SOL    HW128631   3.598   6.259   6.283
 9244SOL    HW228632   3.615   6.155   6.408
 9245SOL     OW28633   0.742   4.451   3.481
 9245SOL    HW128634   0.705   4.370   3.528
 9245SOL    HW228635   0.837   4.433   3.455
 9246SOL     OW28636   5.193   1.730   6.856
 9246SOL    HW128637   5.211   1.632   6.845
 9246SOL    HW228638   5.096   1.748   6.842
 9247SOL     OW28639   2.851   6.481   2.163
 9247SOL    HW128640   2.934   6.483   2.220
 9247SOL    HW228641   2.877   6.468   2.067
 9248SOL     OW28642   2.898   6.912   6.756
 9248SOL    HW128643   2.979   6.855   6.764
 9248SOL    HW228644   2.905   6.968   6.673
 9249SOL     OW28645   2.904   1.813   0.543
 9249SOL    HW128646   2.878   1.778   0.453
 9249SOL    HW228647   3.003   1.803   0.555
 9250SOL     OW28648   1.110   3.839   1.895
 9250SOL    HW128649   1.138   3.763   1.954
 9250SOL    HW228650   1.150   3.827   1.804
 9251SOL     OW28651   4.268   1.398   1.026
 9251SOL    HW128652   4.190   1.344   0.994
 9251SOL    HW228653   4.350   1.370   0.978
 9252SOL     OW28654   5.949   1.699   4.983
 9252SOL    HW128655   5.940   1.624   4.917
 9252SOL    HW228656   6.038   1.693   5.027
 9253SOL     OW28657   2.934   5.289   3.981
 9253SOL    HW128658   3.003   5.257   4.046
 9253SOL    HW228659   2.866   5.217   3.967
 9254SOL     OW28660   6.172   5.809   1.923
 9254SOL    HW128661   6.243   5.823   1.854
 9254SOL    HW228662   6.109   5.738   1.891
 9255SOL     OW28663   0.577   3.037   1.715
 9255SOL    HW128664   0.607   3.038   1.619
 9255SOL    HW228665   0.620   3.114   1.764
 9256SOL     OW28666   1.185   6.444   0.757
 9256SOL    HW128667   1.109   6.396   0.800
 9256SOL    HW228668   1.152   6.491   0.675
 9257SOL     OW28669   6.311   6.630   5.468
 9257SOL    HW128670   6.398   6.669   5.496
 9257SOL    HW228671   6.244   6.704   5.456
 9258SOL     OW28672   5.086   3.571   3.446
 9258SOL    HW128673   5.113   3.511   3.371
 9258SOL    HW228674   5.092   3.521   3.533
 9259SOL     OW28675   1.368   2.795   6.353
 9259SOL    HW128676   1.297   2.851   6.309
 9259SOL    HW228677   1.456   2.842   6.347
 9260SOL     OW28678   5.369   4.642   5.047
 9260SOL    HW128679   5.435   4.568   5.056
 9260SOL    HW228680   5.329   4.640   4.955
 9261SOL     OW28681   1.073   3.072   1.077
 9261SOL    HW128682   1.058   3.155   1.022
 9261SOL    HW228683   1.165   3.037   1.059
 9262SOL     OW28684   6.547   6.287   5.506
 9262SOL    HW128685   6.448   6.278   5.520
 9262SOL    HW228686   6.564   6.329   5.416
 9263SOL     OW28687   1.851   4.415   2.586
 9263SOL    HW128688   1.937   4.380   2.549
 9263SOL    HW228689   1.774   4.375   2.535
 9264SOL     OW28690   6.131   4.085   5.628
 9264SOL    HW128691   6.046   4.033   5.636
 9264SOL    HW228692   6.168   4.102   5.719
 9265SOL     OW28693   3.865   0.710   2.148
 9265SOL    HW128694   3.831   0.649   2.075
 9265SOL    HW228695   3.893   0.655   2.227
 9266SOL     OW28696   0.247   4.858   1.485
 9266SOL    HW128697   0.217   4.871   1.580
 9266SOL    HW228698   0.310   4.932   1.460
 9267SOL     OW28699   6.813   1.224   3.845
 9267SOL    HW128700   6.775   1.180   3.763
 9267SOL    HW228701   6.857   1.310   3.820
 9268SOL     OW28702   6.921   0.146   0.686
 9268SOL    HW128703   6.867   0.157   0.602
 9268SOL    HW228704   6.859   0.138   0.764
 9269SOL     OW28705   3.575   6.584   1.654
 9269SOL    HW128706   3.623   6.619   1.735
 9269SOL    HW228707   3.607   6.633   1.573
 9270SOL     OW28708   1.921   0.693   5.482
 9270SOL    HW128709   1.964   0.604   5.499
 9270SOL    HW228710   1.986   0.753   5.435
 9271SOL     OW28711   1.066   5.551   5.670
 9271SOL    HW128712   1.105   5.463   5.644
 9271SOL    HW228713   1.046   5.551   5.768
 9272SOL     OW28714   6.388   6.984   5.991
 9272SOL    HW128715   6.358   6.956   5.900
 9272SOL    HW228716   6.426   6.904   6.039
 9273SOL     OW28717   5.989   3.834   3.420
 9273SOL    HW128718   6.000   3.868   3.514
 9273SOL    HW228719   5.987   3.912   3.357
 9274SOL     OW28720   6.967   2.820   1.672
 9274SOL    HW128721   0.004   2.902   1.680
 9274SOL    HW228722   6.930   2.814   1.579
 9275SOL     OW28723   4.210   1.470   0.384
 9275SOL    HW128724   4.233   1.565   0.362
 9275SOL    HW228725   4.280   1.432   0.445
 9276SOL     OW28726   1.528   3.736   0.900
 9276SOL    HW128727   1.471   3.726   0.819
 9276SOL    HW228728   1.623   3.748   0.874
 9277SOL     OW28729   3.436   5.810   2.891
 9277SOL    HW128730   3.460   5.724   2.846
 9277SOL    HW228731   3.365   5.793   2.959
 9278SOL     OW28732   1.068   6.797   4.345
 9278SOL    HW128733   1.059   6.853   4.427
 9278SOL    HW228734   1.157   6.750   4.345
 9279SOL     OW28735   4.005   5.838   2.482
 9279SOL    HW128736   4.055   5.786   2.412
 9279SOL    HW228737   3.943   5.902   2.438
 9280SOL     OW28738   1.587   4.382   2.077
 9280SOL    HW128739   1.554   4.430   2.158
 9280SOL    HW228740   1.538   4.415   1.996
 9281SOL     OW28741   1.269   5.652   0.506
 9281SOL    HW128742   1.310   5.714   0.573
 9281SOL    HW228743   1.185   5.613   0.543
 9282SOL     OW28744   1.617   0.263   3.558
 9282SOL    HW128745   1.687   0.333   3.546
 9282SOL    HW228746   1.535   0.290   3.507
 9283SOL     OW28747   5.599   4.858   6.440
 9283SOL    HW128748   5.678   4.918   6.449
 9283SOL    HW228749   5.537   4.895   6.371
 9284SOL     OW28750   3.960   5.841   1.170
 9284SOL    HW128751   3.973   5.785   1.252
 9284SOL    HW228752   3.895   5.915   1.190
 9285SOL     OW28753   6.780   5.795   3.006
 9285SOL    HW128754   6.810   5.769   2.914
 9285SOL    HW228755   6.715   5.727   3.040
 9286SOL     OW28756   5.052   5.583   1.785
 9286SOL    HW128757   5.060   5.670   1.735
 9286SOL    HW228758   5.125   5.521   1.755
 9287SOL     OW28759   4.486   4.156   0.120
 9287SOL    HW128760   4.535   4.240   0.146
 9287SOL    HW228761   4.400   4.150   0.171
 9288SOL     OW28762   3.509   0.838   3.799
 9288SOL    HW128763   3.426   0.788   3.822
 9288SOL    HW228764   3.488   0.909   3.731
 9289SOL     OW28765   4.678   5.702   2.401
 9289SOL    HW128766   4.748   5.709   2.473
 9289SOL    HW228767   4.599   5.758   2.426
 9290SOL     OW28768   5.154   0.211   3.505
 9290SOL    HW128769   5.156   0.268   3.587
 9290SOL    HW228770   5.207   0.128   3.521
 9291SOL     OW28771   0.489   5.322   5.282
 9291SOL    HW128772   0.488   5.344   5.380
 9291SOL    HW228773   0.401   5.280   5.257
 9292SOL     OW28774   1.891   1.609   0.526
 9292SOL    HW128775   1.974   1.608   0.582
 9292SOL    HW228776   1.912   1.575   0.435
 9293SOL     OW28777   4.119   1.128   6.532
 9293SOL    HW128778   4.094   1.094   6.441
 9293SOL    HW228779   4.056   1.093   6.600
 9294SOL     OW28780   5.288   6.477   6.178
 9294SOL    HW128781   5.305   6.493   6.080
 9294SOL    HW228782   5.193   6.496   6.199
 9295SOL     OW28783   6.219   0.489   2.845
 9295SOL    HW128784   6.299   0.516   2.898
 9295SOL    HW228785   6.146   0.557   2.856
 9296SOL     OW28786   1.980   2.582   5.538
 9296SOL    HW128787   2.040   2.582   5.458
 9296SOL    HW228788   1.961   2.677   5.565
 9297SOL     OW28789   0.032   5.297   1.775
 9297SOL    HW128790   0.006   5.231   1.845
 9297SOL    HW228791   6.998   5.381   1.786
 9298SOL     OW28792   6.460   3.968   0.423
 9298SOL    HW128793   6.531   3.898   0.413
 9298SOL    HW228794   6.372   3.929   0.397
 9299SOL     OW28795   3.878   2.113   3.992
 9299SOL    HW128796   3.785   2.138   3.967
 9299SOL    HW228797   3.940   2.136   3.917
 9300SOL     OW28798   2.610   6.433   5.847
 9300SOL    HW128799   2.604   6.391   5.937
 9300SOL    HW228800   2.581   6.368   5.777
 9301SOL     OW28801   0.849   3.729   4.068
 9301SOL    HW128802   0.855   3.630   4.054
 9301SOL    HW228803   0.774   3.749   4.131
 9302SOL     OW28804   3.290   6.342   3.747
 9302SOL    HW128805   3.229   6.291   3.809
 9302SOL    HW228806   3.288   6.300   3.657
 9303SOL     OW28807   3.000   4.062   0.189
 9303SOL    HW128808   2.954   4.137   0.236
 9303SOL    HW228809   2.955   4.046   0.101
 9304SOL     OW28810   5.947   5.628   6.589
 9304SOL    HW128811   6.021   5.687   6.622
 9304SOL    HW228812   5.901   5.586   6.667
 9305SOL     OW28813   2.350   1.925   0.987
 9305SOL    HW128814   2.389   2.004   1.036
 9305SOL    HW228815   2.254   1.916   1.011
 9306SOL     OW28816   6.326   6.275   3.216
 9306SOL    HW128817   6.271   6.192   3.202
 9306SOL    HW228818   6.325   6.330   3.132
 9307SOL     OW28819   1.939   3.457   1.135
 9307SOL    HW128820   1.910   3.521   1.206
 9307SOL    HW228821   2.032   3.480   1.106
 9308SOL     OW28822   2.657   2.992   0.914
 9308SOL    HW128823   2.593   3.007   0.989
 9308SOL    HW228824   2.606   2.974   0.830
 9309SOL     OW28825   3.561   5.128   5.923
 9309SOL    HW128826   3.633   5.158   5.985
 9309SOL    HW228827   3.547   5.029   5.932
 9310SOL     OW28828   6.140   0.259   5.959
 9310SOL    HW128829   6.064   0.274   6.022
 9310SOL    HW228830   6.122   0.178   5.903
 9311SOL     OW28831   5.182   4.464   0.347
 9311SOL    HW128832   5.174   4.383   0.289
 9311SOL    HW228833   5.266   4.459   0.401
 9312SOL     OW28834   6.363   3.229   4.210
 9312SOL    HW128835   6.269   3.210   4.238
 9312SOL    HW228836   6.377   3.328   4.206
 9313SOL     OW28837   6.873   0.039   1.969
 9313SOL    HW128838   6.953   0.030   1.910
 9313SOL    HW228839   6.882   0.121   2.026
 9314SOL     OW28840   5.768   4.204   1.526
 9314SOL    HW128841   5.776   4.184   1.623
 9314SOL    HW228842   5.702   4.277   1.511
 9315SOL     OW28843   5.250   5.250   5.327
 9315SOL    HW128844   5.278   5.219   5.418
 9315SOL    HW228845   5.171   5.196   5.297
 9316SOL     OW28846   5.259   6.096   6.664
 9316SOL    HW128847   5.310   6.009   6.663
 9316SOL    HW228848   5.316   6.167   6.623
 9317SOL     OW28849   2.643   6.774   3.428
 9317SOL    HW128850   2.617   6.822   3.344
 9317SOL    HW228851   2.742   6.776   3.438
 9318SOL     OW28852   3.342   0.163   3.827
 9318SOL    HW128853   3.372   0.143   3.734
 9318SOL    HW228854   3.304   0.080   3.869
 9319SOL     OW28855   4.228   2.499   0.920
 9319SOL    HW128856   4.188   2.549   0.843
 9319SOL    HW228857   4.231   2.401   0.899
 9320SOL     OW28858   6.488   0.477   6.998
 9320SOL    HW128859   6.455   0.535   6.923
 9320SOL    HW228860   6.415   0.464   0.045
 9321SOL     OW28861   1.313   2.506   3.929
 9321SOL    HW128862   1.363   2.498   4.015
 9321SOL    HW228863   1.250   2.429   3.919
 9322SOL     OW28864   5.540   3.708   0.752
 9322SOL    HW128865   5.475   3.719   0.677
 9322SOL    HW228866   5.616   3.651   0.722
 9323SOL     OW28867   0.471   2.957   5.098
 9323SOL    HW128868   0.382   2.931   5.060
 9323SOL    HW228869   0.512   3.027   5.041
 9324SOL     OW28870   1.134   3.996   1.457
 9324SOL    HW128871   1.184   3.910   1.444
 9324SOL    HW228872   1.075   4.012   1.378
 9325SOL     OW28873   0.436   3.583   3.151
 9325SOL    HW128874   0.390   3.623   3.072
 9325SOL    HW228875   0.530   3.558   3.127
 9326SOL     OW28876   3.582   4.820   1.021
 9326SOL    HW128877   3.569   4.873   1.104
 9326SOL    HW228878   3.635   4.873   0.955
 9327SOL     OW28879   1.899   1.889   3.044
 9327SOL    HW128880   1.855   1.978   3.059
 9327SOL    HW228881   1.959   1.895   2.964
 9328SOL     OW28882   0.985   0.034   3.401
 9328SOL    HW128883   0.917   0.051   3.472
 9328SOL    HW228884   0.940   0.035   3.311
 9329SOL     OW28885   1.424   5.148   6.488
 9329SOL    HW128886   1.521   5.153   6.464
 9329SOL    HW228887   1.376   5.092   6.419
 9330SOL     OW28888   0.390   6.160   1.188
 9330SOL    HW128889   0.334   6.210   1.122
 9330SOL    HW228890   0.386   6.206   1.277
 9331SOL     OW28891   2.552   5.660   4.855
 9331SOL    HW128892   2.614   5.614   4.919
 9331SOL    HW228893   2.603   5.685   4.772
 9332SOL     OW28894   6.153   6.317   0.548
 9332SOL    HW128895   6.245   6.302   0.585
 9332SOL    HW228896   6.153   6.300   0.450
 9333SOL     OW28897   0.713   5.708   1.256
 9333SOL    HW128898   0.679   5.766   1.330
 9333SOL    HW228899   0.682   5.744   1.168
 9334SOL     OW28900   6.992   6.257   0.256
 9334SOL    HW128901   6.914   6.300   0.210
 9334SOL    HW228902   0.035   6.220   0.187
 9335SOL     OW28903   0.218   3.442   1.139
 9335SOL    HW128904   0.225   3.450   1.238
 9335SOL    HW228905   0.124   3.462   1.110
 9336SOL     OW28906   4.974   5.797   5.740
 9336SOL    HW128907   4.990   5.879   5.795
 9336SOL    HW228908   5.034   5.797   5.661
 9337SOL     OW28909   2.930   1.610   5.007
 9337SOL    HW128910   2.967   1.629   4.916
 9337SOL    HW228911   2.935   1.693   5.062
 9338SOL     OW28912   4.186   0.097   1.984
 9338SOL    HW128913   4.109   0.141   2.030
 9338SOL    HW228914   4.263   0.089   2.048
 9339SOL     OW28915   0.510   3.497   4.472
 9339SOL    HW128916   0.523   3.596   4.474
 9339SOL    HW228917   0.583   3.454   4.418
 9340SOL     OW28918   3.040   4.805   2.093
 9340SOL    HW128919   2.980   4.730   2.065
 9340SOL    HW228920   3.134   4.784   2.069
 9341SOL     OW28921   4.807   5.589   1.663
 9341SOL    HW128922   4.840   5.615   1.572
 9341SOL    HW228923   4.885   5.576   1.725
 9342SOL     OW28924   2.807   0.781   4.675
 9342SOL    HW128925   2.821   0.699   4.621
 9342SOL    HW228926   2.895   0.826   4.691
 9343SOL     OW28927   5.735   3.839   1.090
 9343SOL    HW128928   5.834   3.849   1.082
 9343SOL    HW228929   5.691   3.928   1.074
 9344SOL     OW28930   5.348   6.415   4.772
 9344SOL    HW128931   5.404   6.461   4.703
 9344SOL    HW228932   5.354   6.316   4.757
 9345SOL     OW28933   0.022   4.781   6.692
 9345SOL    HW128934   0.008   4.683   6.683
 9345SOL    HW228935   0.104   4.808   6.641
 9346SOL     OW28936   4.981   0.891   2.400
 9346SOL    HW128937   5.053   0.845   2.452
 9346SOL    HW228938   4.938   0.961   2.457
 9347SOL     OW28939   4.942   6.764   2.517
 9347SOL    HW128940   5.004   6.841   2.503
 9347SOL    HW228941   4.862   6.774   2.458
 9348SOL     OW28942   2.557   5.169   2.214
 9348SOL    HW128943   2.547   5.209   2.123
 9348SOL    HW228944   2.612   5.086   2.209
 9349SOL     OW28945   1.273   4.547   1.574
 9349SOL    HW128946   1.283   4.475   1.505
 9349SOL    HW228947   1.183   4.591   1.563
 9350SOL     OW28948   6.663   0.955   6.834
 9350SOL    HW128949   6.618   0.868   6.854
 9350SOL    HW228950   6.699   0.954   6.740
 9351SOL     OW28951   4.134   3.961   6.435
 9351SOL    HW128952   4.049   3.969   6.488
 9351SOL    HW228953   4.188   4.045   6.445
 9352SOL     OW28954   2.753   1.818   0.117
 9352SOL    HW128955   2.767   1.767   0.201
 9352SOL    HW228956   2.750   1.755   0.039
 9353SOL     OW28957   1.258   2.874   2.324
 9353SOL    HW128958   1.194   2.945   2.293
 9353SOL    HW228959   1.341   2.917   2.359
 9354SOL     OW28960   5.811   2.217   2.274
 9354SOL    HW128961   5.860   2.301   2.251
 9354SOL    HW228962   5.824   2.150   2.201
 9355SOL     OW28963   0.574   2.250   2.054
 9355SOL    HW128964   0.592   2.330   1.997
 9355SOL    HW228965   0.512   2.188   2.005
 9356SOL     OW28966   4.522   2.533   2.043
 9356SOL    HW128967   4.521   2.552   2.140
 9356SOL    HW228968   4.581   2.598   1.996
 9357SOL     OW28969   1.869   4.172   6.865
 9357SOL    HW128970   1.783   4.151   6.911
 9357SOL    HW228971   1.931   4.093   6.872
 9358SOL     OW28972   5.489   4.983   3.591
 9358SOL    HW128973   5.415   4.916   3.602
 9358SOL    HW228974   5.474   5.036   3.507
 9359SOL     OW28975   4.435   5.372   5.472
 9359SOL    HW128976   4.443   5.314   5.391
 9359SOL    HW228977   4.426   5.314   5.554
 9360SOL     OW28978   0.773   0.438   5.683
 9360SOL    HW128979   0.727   0.370   5.627
 9360SOL    HW228980   0.819   0.505   5.623
 9361SOL     OW28981   1.156   1.459   2.598
 9361SOL    HW128982   1.136   1.518   2.676
 9361SOL    HW228983   1.192   1.514   2.523
 9362SOL     OW28984   1.249   1.811   3.000
 9362SOL    HW128985   1.301   1.737   2.958
 9362SOL    HW228986   1.310   1.868   3.055
 9363SOL     OW28987   0.616   6.671   2.163
 9363SOL    HW128988   0.538   6.683   2.225
 9363SOL    HW228989   0.629   6.754   2.110
 9364SOL     OW28990   5.938   3.727   0.763
 9364SOL    HW128991   5.882   3.776   0.696
 9364SOL    HW228992   6.030   3.715   0.726
 9365SOL     OW28993   2.988   0.917   4.325
 9365SOL    HW128994   2.924   0.972   4.378
 9365SOL    HW228995   2.944   0.884   4.242
 9366SOL     OW28996   2.541   1.820   0.824
 9366SOL    HW128997   2.476   1.864   0.885
 9366SOL    HW228998   2.566   1.883   0.751
 9367SOL     OW28999   5.441   6.747   4.624
 9367SOL    HW129000   5.463   6.773   4.530
 9367SOL    HW229001   5.476   6.655   4.643
 9368SOL     OW29002   5.784   2.977   1.187
 9368SOL    HW129003   5.692   2.996   1.222
 9368SOL    HW229004   5.793   2.879   1.171
 9369SOL     OW29005   0.258   2.532   5.910
 9369SOL    HW129006   0.298   2.444   5.938
 9369SOL    HW229007   0.289   2.555   5.818
 9370SOL     OW29008   5.741   5.494   1.734
 9370SOL    HW129009   5.834   5.465   1.758
 9370SOL    HW229010   5.729   5.590   1.756
 9371SOL     OW29011   1.841   6.912   0.715
 9371SOL    HW129012   1.918   6.956   0.762
 9371SOL    HW229013   1.848   6.930   0.617
 9372SOL     OW29014   5.244   5.707   0.493
 9372SOL    HW129015   5.167   5.740   0.438
 9372SOL    HW229016   5.318   5.678   0.432
 9373SOL     OW29017   4.769   2.766   4.685
 9373SOL    HW129018   4.757   2.851   4.634
 9373SOL    HW229019   4.683   2.741   4.730
 9374SOL     OW29020   5.175   4.370   0.001
 9374SOL    HW129021   5.150   4.310   6.945
 9374SOL    HW229022   5.167   4.320   0.087
 9375SOL     OW29023   6.261   6.392   3.702
 9375SOL    HW129024   6.293   6.334   3.627
 9375SOL    HW229025   6.231   6.480   3.665
 9376SOL     OW29026   2.572   3.431   1.678
 9376SOL    HW129027   2.658   3.446   1.725
 9376SOL    HW229028   2.501   3.407   1.744
 9377SOL     OW29029   0.183   4.350   3.524
 9377SOL    HW129030   0.187   4.447   3.499
 9377SOL    HW229031   0.104   4.308   3.479
 9378SOL     OW29032   4.225   5.733   1.484
 9378SOL    HW129033   4.317   5.695   1.473
 9378SOL    HW229034   4.158   5.658   1.485
 9379SOL     OW29035   4.466   4.725   5.165
 9379SOL    HW129036   4.435   4.655   5.101
 9379SOL    HW229037   4.491   4.683   5.251
 9380SOL     OW29038   0.049   5.654   5.609
 9380SOL    HW129039   0.090   5.745   5.609
 9380SOL    HW229040   0.095   5.598   5.678
 9381SOL     OW29041   0.590   0.768   0.162
 9381SOL    HW129042   0.549   0.814   0.083
 9381SOL    HW229043   0.659   0.827   0.204
 9382SOL     OW29044   6.294   2.038   2.210
 9382SOL    HW129045   6.245   2.090   2.140
 9382SOL    HW229046   6.228   1.993   2.270
 9383SOL     OW29047   0.024   5.344   6.970
 9383SOL    HW129048   0.066   5.432   6.991
 9383SOL    HW229049   7.007   5.345   6.877
 9384SOL     OW29050   3.163   6.980   2.291
 9384SOL    HW129051   3.149   0.022   2.213
 9384SOL    HW229052   3.186   0.014   2.372
 9385SOL     OW29053   4.193   6.579   3.400
 9385SOL    HW129054   4.256   6.625   3.463
 9385SOL    HW229055   4.241   6.558   3.315
 9386SOL     OW29056   3.471   6.699   4.505
 9386SOL    HW129057   3.562   6.687   4.545
 9386SOL    HW229058   3.470   6.782   4.450
 9387SOL     OW29059   4.593   6.200   0.894
 9387SOL    HW129060   4.582   6.230   0.989
 9387SOL    HW229061   4.565   6.104   0.886
 9388SOL     OW29062   6.370   0.046   1.097
 9388SOL    HW129063   6.426   0.129   1.093
 9388SOL    HW229064   6.369   0.012   1.191
 9389SOL     OW29065   3.340   1.299   1.284
 9389SOL    HW129066   3.301   1.285   1.193
 9389SOL    HW229067   3.343   1.211   1.332
 9390SOL     OW29068   3.902   6.596   0.961
 9390SOL    HW129069   3.876   6.557   1.049
 9390SOL    HW229070   4.001   6.614   0.961
 9391SOL     OW29071   5.177   0.354   3.734
 9391SOL    HW129072   5.198   0.309   3.821
 9391SOL    HW229073   5.134   0.442   3.752
 9392SOL     OW29074   0.602   6.987   4.794
 9392SOL    HW129075   0.607   6.888   4.808
 9392SOL    HW229076   0.506   7.015   4.789
 9393SOL     OW29077   4.822   1.782   5.200
 9393SOL    HW129078   4.840   1.833   5.116
 9393SOL    HW229079   4.795   1.688   5.177
 9394SOL     OW29080   6.542   1.564   2.502
 9394SOL    HW129081   6.619   1.574   2.440
 9394SOL    HW229082   6.541   1.471   2.539
 9395SOL     OW29083   1.519   2.483   0.183
 9395SOL    HW129084   1.569   2.500   0.268
 9395SOL    HW229085   1.536   2.389   0.152
 9396SOL     OW29086   0.638   1.466   5.058
 9396SOL    HW129087   0.718   1.524   5.079
 9396SOL    HW229088   0.665   1.370   5.061
 9397SOL     OW29089   1.773   1.884   1.062
 9397SOL    HW129090   1.737   1.792   1.076
 9397SOL    HW229091   1.824   1.888   0.976
 9398SOL     OW29092   2.519   1.922   1.558
 9398SOL    HW129093   2.578   1.926   1.638
 9398SOL    HW229094   2.426   1.947   1.585
 9399SOL     OW29095   0.117   0.718   5.238
 9399SOL    HW129096   0.076   0.767   5.315
 9399SOL    HW229097   0.181   0.650   5.273
 9400SOL     OW29098   4.301   1.490   4.224
 9400SOL    HW129099   4.279   1.463   4.131
 9400SOL    HW229100   4.391   1.454   4.249
 9401SOL     OW29101   4.197   6.878   3.946
 9401SOL    HW129102   4.121   6.943   3.939
 9401SOL    HW229103   4.182   6.802   3.883
 9402SOL     OW29104   2.176   4.325   6.377
 9402SOL    HW129105   2.269   4.330   6.412
 9402SOL    HW229106   2.154   4.408   6.326
 9403SOL     OW29107   6.211   0.385   3.514
 9403SOL    HW129108   6.261   0.393   3.428
 9403SOL    HW229109   6.257   0.319   3.573
 9404SOL     OW29110   2.324   4.582   4.877
 9404SOL    HW129111   2.393   4.646   4.911
 9404SOL    HW229112   2.332   4.495   4.925
 9405SOL     OW29113   0.277   0.693   1.153
 9405SOL    HW129114   0.282   0.636   1.071
 9405SOL    HW229115   0.352   0.668   1.215
 9406SOL     OW29116   6.542   2.010   5.271
 9406SOL    HW129117   6.619   1.954   5.302
 9406SOL    HW229118   6.567   2.057   5.187
 9407SOL     OW29119   3.406   5.519   3.793
 9407SOL    HW129120   3.474   5.576   3.745
 9407SOL    HW229121   3.332   5.576   3.826
 9408SOL     OW29122   3.438   1.595   0.332
 9408SOL    HW129123   3.500   1.651   0.278
 9408SOL    HW229124   3.490   1.525   0.382
 9409SOL     OW29125   6.202   4.086   3.775
 9409SOL    HW129126   6.257   4.122   3.850
 9409SOL    HW229127   6.155   4.161   3.729
 9410SOL     OW29128   4.284   6.643   1.909
 9410SOL    HW129129   4.364   6.657   1.968
 9410SOL    HW229130   4.257   6.731   1.869
 9411SOL     OW29131   5.191   4.442   2.625
 9411SOL    HW129132   5.211   4.400   2.714
 9411SOL    HW229133   5.159   4.536   2.640
 9412SOL     OW29134   6.706   1.665   3.070
 9412SOL    HW129135   6.708   1.609   2.987
 9412SOL    HW229136   6.749   1.754   3.051
 9413SOL     OW29137   4.278   5.603   3.630
 9413SOL    HW129138   4.332   5.522   3.607
 9413SOL    HW229139   4.340   5.676   3.659
 9414SOL     OW29140   2.271   0.349   2.069
 9414SOL    HW129141   2.273   0.391   2.160
 9414SOL    HW229142   2.235   0.415   2.003
 9415SOL     OW29143   0.889   0.079   2.084
 9415SOL    HW129144   0.905   0.141   2.007
 9415SOL    HW229145   0.963   0.012   2.088
 9416SOL     OW29146   1.291   1.647   1.909
 9416SOL    HW129147   1.211   1.613   1.859
 9416SOL    HW229148   1.361   1.575   1.913
 9417SOL     OW29149   1.024   0.376   3.966
 9417SOL    HW129150   0.970   0.454   3.997
 9417SOL    HW229151   1.108   0.409   3.922
 9418SOL     OW29152   4.403   4.385   0.520
 9418SOL    HW129153   4.410   4.285   0.513
 9418SOL    HW229154   4.455   4.416   0.600
 9419SOL     OW29155   2.618   5.924   3.757
 9419SOL    HW129156   2.598   5.863   3.680
 9419SOL    HW229157   2.536   5.978   3.778
 9420SOL     OW29158   1.090   0.457   2.573
 9420SOL    HW129159   1.138   0.489   2.655
 9420SOL    HW229160   1.109   0.520   2.498
 9421SOL     OW29161   1.660   4.499   5.337
 9421SOL    HW129162   1.678   4.480   5.240
 9421SOL    HW229163   1.561   4.510   5.350
 9422SOL     OW29164   3.575   1.244   2.871
 9422SOL    HW129165   3.636   1.172   2.838
 9422SOL    HW229166   3.480   1.216   2.858
 9423SOL     OW29167   4.716   0.368   5.080
 9423SOL    HW129168   4.695   0.374   4.983
 9423SOL    HW229169   4.631   0.377   5.132
 9424SOL     OW29170   3.005   5.865   3.395
 9424SOL    HW129171   3.094   5.857   3.350
 9424SOL    HW229172   2.938   5.902   3.329
 9425SOL     OW29173   0.276   5.819   2.340
 9425SOL    HW129174   0.338   5.896   2.323
 9425SOL    HW229175   0.323   5.749   2.394
 9426SOL     OW29176   3.474   6.036   0.974
 9426SOL    HW129177   3.495   6.115   0.917
 9426SOL    HW229178   3.411   6.064   1.047
 9427SOL     OW29179   3.181   4.884   4.436
 9427SOL    HW129180   3.268   4.918   4.471
 9427SOL    HW229181   3.134   4.833   4.508
 9428SOL     OW29182   4.490   6.387   2.227
 9428SOL    HW129183   4.424   6.455   2.196
 9428SOL    HW229184   4.580   6.408   2.189
 9429SOL     OW29185   0.672   3.510   3.075
 9429SOL    HW129186   0.702   3.538   2.984
 9429SOL    HW229187   0.719   3.425   3.101
 9430SOL     OW29188   6.237   6.853   1.683
 9430SOL    HW129189   6.206   6.909   1.760
 9430SOL    HW229190   6.323   6.889   1.647
 9431SOL     OW29191   6.299   4.550   0.474
 9431SOL    HW129192   6.305   4.560   0.375
 9431SOL    HW229193   6.213   4.506   0.498
 9432SOL     OW29194   5.918   6.621   3.098
 9432SOL    HW129195   5.986   6.549   3.084
 9432SOL    HW229196   5.877   6.646   3.011
 9433SOL     OW29197   2.455   5.461   4.623
 9433SOL    HW129198   2.365   5.503   4.637
 9433SOL    HW229199   2.515   5.525   4.575
 9434SOL     OW29200   6.082   4.612   3.703
 9434SOL    HW129201   6.010   4.568   3.649
 9434SOL    HW229202   6.040   4.677   3.767
 9435SOL     OW29203   2.943   2.533   6.347
 9435SOL    HW129204   2.970   2.447   6.305
 9435SOL    HW229205   2.846   2.551   6.327
 9436SOL     OW29206   3.569   2.338   5.605
 9436SOL    HW129207   3.562   2.428   5.648
 9436SOL    HW229208   3.510   2.335   5.524
 9437SOL     OW29209   0.402   6.428   4.565
 9437SOL    HW129210   0.462   6.452   4.488
 9437SOL    HW229211   0.445   6.358   4.621
 9438SOL     OW29212   6.904   6.353   1.617
 9438SOL    HW129213   6.991   6.304   1.613
 9438SOL    HW229214   6.845   6.322   1.542
 9439SOL     OW29215   1.543   2.723   1.913
 9439SOL    HW129216   1.449   2.697   1.891
 9439SOL    HW229217   1.583   2.656   1.976
 9440SOL     OW29218   3.119   6.610   3.144
 9440SOL    HW129219   3.052   6.547   3.182
 9440SOL    HW229220   3.073   6.682   3.094
 9441SOL     OW29221   1.242   5.127   6.256
 9441SOL    HW129222   1.192   5.214   6.259
 9441SOL    HW229223   1.179   5.052   6.278
 9442SOL     OW29224   1.115   1.900   1.502
 9442SOL    HW129225   1.076   1.808   1.507
 9442SOL    HW229226   1.151   1.926   1.591
 9443SOL     OW29227   0.758   1.876   0.957
 9443SOL    HW129228   0.749   1.884   0.858
 9443SOL    HW229229   0.849   1.842   0.980
 9444SOL     OW29230   1.686   4.012   4.832
 9444SOL    HW129231   1.737   4.008   4.746
 9444SOL    HW229232   1.649   4.104   4.844
 9445SOL     OW29233   5.540   2.061   2.184
 9445SOL    HW129234   5.449   2.020   2.175
 9445SOL    HW229235   5.609   1.988   2.187
 9446SOL     OW29236   5.305   5.110   0.502
 9446SOL    HW129237   5.389   5.062   0.477
 9446SOL    HW229238   5.322   5.208   0.502
 9447SOL     OW29239   5.475   1.073   1.712
 9447SOL    HW129240   5.390   1.020   1.712
 9447SOL    HW229241   5.503   1.091   1.806
 9448SOL     OW29242   6.028   6.738   0.533
 9448SOL    HW129243   6.057   6.718   0.439
 9448SOL    HW229244   5.953   6.678   0.559
 9449SOL     OW29245   5.711   5.204   4.652
 9449SOL    HW129246   5.669   5.187   4.563
 9449SOL    HW229247   5.642   5.193   4.723
 9450SOL     OW29248   1.859   6.088   4.162
 9450SOL    HW129249   1.777   6.070   4.216
 9450SOL    HW229250   1.858   6.031   4.079
 9451SOL     OW29251   4.145   3.380   4.748
 9451SOL    HW129252   4.241   3.396   4.726
 9451SOL    HW229253   4.132   3.384   4.847
 9452SOL     OW29254   3.628   4.486   0.486
 9452SOL    HW129255   3.633   4.420   0.561
 9452SOL    HW229256   3.718   4.496   0.444
 9453SOL     OW29257   3.377   6.477   1.249
 9453SOL    HW129258   3.291   6.512   1.286
 9453SOL    HW229259   3.446   6.550   1.252
 9454SOL     OW29260   2.346   1.842   5.952
 9454SOL    HW129261   2.334   1.941   5.959
 9454SOL    HW229262   2.438   1.821   5.921
 9455SOL     OW29263   1.889   2.213   1.670
 9455SOL    HW129264   1.790   2.212   1.660
 9455SOL    HW229265   1.931   2.175   1.587
 9456SOL     OW29266   1.242   2.739   0.363
 9456SOL    HW129267   1.220   2.693   0.277
 9456SOL    HW229268   1.311   2.809   0.347
 9457SOL     OW29269   5.928   3.547   0.188
 9457SOL    HW129270   6.021   3.570   0.159
 9457SOL    HW229271   5.901   3.460   0.146
 9458SOL     OW29272   1.277   5.666   3.969
 9458SOL    HW129273   1.229   5.698   4.050
 9458SOL    HW229274   1.290   5.743   3.906
 9459SOL     OW29275   3.780   6.244   0.716
 9459SOL    HW129276   3.870   6.256   0.757
 9459SOL    HW229277   3.786   6.259   0.617
 9460SOL     OW29278   1.477   3.571   5.391
 9460SOL    HW129279   1.520   3.586   5.302
 9460SOL    HW229280   1.544   3.529   5.453
 9461SOL     OW29281   1.464   0.502   2.453
 9461SOL    HW129282   1.422   0.534   2.368
 9461SOL    HW229283   1.450   0.403   2.461
 9462SOL     OW29284   0.640   3.522   3.695
 9462SOL    HW129285   0.590   3.507   3.780
 9462SOL    HW229286   0.651   3.621   3.680
 9463SOL     OW29287   5.183   2.426   5.911
 9463SOL    HW129288   5.234   2.394   5.831
 9463SOL    HW229289   5.093   2.460   5.882
 9464SOL     OW29290   3.932   6.767   6.089
 9464SOL    HW129291   3.843   6.809   6.108
 9464SOL    HW229292   3.918   6.681   6.040
 9465SOL     OW29293   4.167   6.343   4.204
 9465SOL    HW129294   4.233   6.417   4.217
 9465SOL    HW229295   4.207   6.257   4.234
 9466SOL     OW29296   3.403   1.736   6.895
 9466SOL    HW129297   3.491   1.688   6.899
 9466SOL    HW229298   3.417   1.833   6.917
 9467SOL     OW29299   1.048   3.120   2.387
 9467SOL    HW129300   1.058   3.216   2.362
 9467SOL    HW229301   1.096   3.102   2.473
 9468SOL     OW29302   0.332   2.629   6.327
 9468SOL    HW129303   0.274   2.675   6.260
 9468SOL    HW229304   0.348   2.690   6.405
 9469SOL     OW29305   0.464   4.014   2.525
 9469SOL    HW129306   0.383   3.989   2.578
 9469SOL    HW229307   0.536   4.046   2.587
 9470SOL     OW29308   6.142   3.626   1.652
 9470SOL    HW129309   6.193   3.680   1.719
 9470SOL    HW229310   6.110   3.541   1.695
 9471SOL     OW29311   7.000   2.544   5.759
 9471SOL    HW129312   0.057   2.560   5.821
 9471SOL    HW229313   6.949   2.629   5.746
 9472SOL     OW29314   6.075   2.447   5.322
 9472SOL    HW129315   5.997   2.455   5.261
 9472SOL    HW229316   6.158   2.430   5.268
 9473SOL     OW29317   2.839   4.850   5.695
 9473SOL    HW129318   2.792   4.896   5.620
 9473SOL    HW229319   2.932   4.828   5.668
 9474SOL     OW29320   3.683   5.867   4.330
 9474SOL    HW129321   3.750   5.923   4.281
 9474SOL    HW229322   3.622   5.823   4.265
 9475SOL     OW29323   2.845   3.340   1.485
 9475SOL    HW129324   2.892   3.335   1.573
 9475SOL    HW229325   2.865   3.257   1.433
 9476SOL     OW29326   2.872   3.165   5.518
 9476SOL    HW129327   2.971   3.157   5.505
 9476SOL    HW229328   2.825   3.141   5.434
 9477SOL     OW29329   0.963   2.287   0.632
 9477SOL    HW129330   1.022   2.267   0.710
 9477SOL    HW229331   1.010   2.263   0.548
 9478SOL     OW29332   5.897   3.479   6.664
 9478SOL    HW129333   5.984   3.522   6.642
 9478SOL    HW229334   5.847   3.536   6.729
 9479SOL     OW29335   5.772   4.814   5.151
 9479SOL    HW129336   5.772   4.825   5.052
 9479SOL    HW229337   5.860   4.845   5.188
 9480SOL     OW29338   0.087   3.633   6.206
 9480SOL    HW129339   7.015   3.596   6.187
 9480SOL    HW229340   0.141   3.564   6.254
 9481SOL     OW29341   1.165   2.868   3.705
 9481SOL    HW129342   1.184   2.964   3.723
 9481SOL    HW229343   1.070   2.857   3.677
 9482SOL     OW29344   4.194   1.574   2.259
 9482SOL    HW129345   4.229   1.662   2.290
 9482SOL    HW229346   4.208   1.505   2.330
 9483SOL     OW29347   1.704   0.845   0.841
 9483SOL    HW129348   1.721   0.747   0.835
 9483SOL    HW229349   1.675   0.880   0.751
 9484SOL     OW29350   6.760   0.248   3.354
 9484SOL    HW129351   6.767   0.291   3.444
 9484SOL    HW229352   6.736   0.152   3.364
 9485SOL     OW29353   0.017   7.003   3.140
 9485SOL    HW129354   0.086   6.931   3.134
 9485SOL    HW229355   0.011   0.031   3.053
 9486SOL     OW29356   2.761   7.018   1.554
 9486SOL    HW129357   2.773   6.998   1.457
 9486SOL    HW229358   2.793   6.941   1.609
 9487SOL     OW29359   3.452   2.978   3.410
 9487SOL    HW129360   3.483   2.962   3.316
 9487SOL    HW229361   3.510   2.927   3.474
 9488SOL     OW29362   1.790   0.062   1.732
 9488SOL    HW129363   1.754   0.139   1.784
 9488SOL    HW229364   1.875   0.030   1.774
 9489SOL     OW29365   3.086   4.975   0.690
 9489SOL    HW129366   3.019   4.954   0.618
 9489SOL    HW229367   3.056   4.934   0.776
 9490SOL     OW29368   4.579   1.886   0.380
 9490SOL    HW129369   4.607   1.875   0.284
 9490SOL    HW229370   4.543   1.800   0.414
 9491SOL     OW29371   5.819   5.825   6.342
 9491SOL    HW129372   5.865   5.839   6.254
 9491SOL    HW229373   5.861   5.884   6.411
 9492SOL     OW29374   2.356   5.663   1.137
 9492SOL    HW129375   2.412   5.629   1.213
 9492SOL    HW229376   2.334   5.588   1.075
 9493SOL     OW29377   4.942   5.432   2.387
 9493SOL    HW129378   5.030   5.385   2.390
 9493SOL    HW229379   4.874   5.373   2.344
 9494SOL     OW29380   3.552   3.336   6.495
 9494SOL    HW129381   3.609   3.384   6.430
 9494SOL    HW229382   3.510   3.401   6.558
 9495SOL     OW29383   5.061   2.702   4.428
 9495SOL    HW129384   5.087   2.734   4.337
 9495SOL    HW229385   5.124   2.740   4.496
 9496SOL     OW29386   0.148   4.148   6.774
 9496SOL    HW129387   0.072   4.085   6.789
 9496SOL    HW229388   0.156   4.168   6.676
 9497SOL     OW29389   0.857   6.293   6.269
 9497SOL    HW129390   0.849   6.387   6.302
 9497SOL    HW229391   0.771   6.264   6.227
 9498SOL     OW29392   4.505   6.725   6.605
 9498SOL    HW129393   4.501   6.629   6.578
 9498SOL    HW229394   4.583   6.769   6.560
 9499SOL     OW29395   4.650   4.045   5.639
 9499SOL    HW129396   4.617   3.979   5.706
 9499SOL    HW229397   4.750   4.051   5.643
 9500SOL     OW29398   3.706   5.979   0.685
 9500SOL    HW129399   3.734   6.066   0.727
 9500SOL    HW229400   3.618   5.951   0.723
 9501SOL     OW29401   3.274   1.868   4.846
 9501SOL    HW129402   3.353   1.884   4.904
 9501SOL    HW229403   3.209   1.943   4.856
 9502SOL     OW29404   3.858   3.285   6.187
 9502SOL    HW129405   3.820   3.360   6.240
 9502SOL    HW229406   3.784   3.230   6.149
 9503SOL     OW29407   0.814   6.211   1.207
 9503SOL    HW129408   0.866   6.137   1.250
 9503SOL    HW229409   0.865   6.297   1.217
 9504SOL     OW29410   0.125   3.158   0.851
 9504SOL    HW129411   0.125   3.076   0.794
 9504SOL    HW229412   0.082   3.139   0.939
 9505SOL     OW29413   4.853   3.118   3.263
 9505SOL    HW129414   4.781   3.050   3.249
 9505SOL    HW229415   4.829   3.202   3.214
 9506SOL     OW29416   6.318   1.902   0.877
 9506SOL    HW129417   6.379   1.974   0.911
 9506SOL    HW229418   6.226   1.915   0.916
 9507SOL     OW29419   1.702   3.164   5.536
 9507SOL    HW129420   1.608   3.169   5.501
 9507SOL    HW229421   1.760   3.117   5.469
 9508SOL     OW29422   4.003   1.137   5.591
 9508SOL    HW129423   3.946   1.208   5.549
 9508SOL    HW229424   4.062   1.179   5.661
 9509SOL     OW29425   3.646   6.878   5.785
 9509SOL    HW129426   3.591   6.825   5.849
 9509SOL    HW229427   3.735   6.834   5.774
 9510SOL     OW29428   6.947   4.169   2.721
 9510SOL    HW129429   6.892   4.252   2.726
 9510SOL    HW229430   6.917   4.114   2.643
 9511SOL     OW29431   2.298   1.680   1.399
 9511SOL    HW129432   2.341   1.595   1.366
 9511SOL    HW229433   2.202   1.662   1.421
 9512SOL     OW29434   1.882   3.560   5.328
 9512SOL    HW129435   1.881   3.467   5.365
 9512SOL    HW229436   1.795   3.578   5.282
 9513SOL     OW29437   3.002   4.941   3.774
 9513SOL    HW129438   3.052   4.957   3.688
 9513SOL    HW229439   3.049   4.988   3.848
 9514SOL     OW29440   3.131   3.152   5.375
 9514SOL    HW129441   3.071   3.132   5.297
 9514SOL    HW229442   3.226   3.150   5.345
 9515SOL     OW29443   1.701   5.746   5.369
 9515SOL    HW129444   1.770   5.686   5.410
 9515SOL    HW229445   1.732   5.841   5.374
 9516SOL     OW29446   6.236   4.487   4.700
 9516SOL    HW129447   6.223   4.500   4.602
 9516SOL    HW229448   6.184   4.556   4.750
 9517SOL     OW29449   0.367   5.187   2.455
 9517SOL    HW129450   0.281   5.232   2.477
 9517SOL    HW229451   0.352   5.089   2.443
 9518SOL     OW29452   0.982   3.123   5.132
 9518SOL    HW129453   1.065   3.169   5.164
 9518SOL    HW229454   0.903   3.182   5.146
 9519SOL     OW29455   3.299   3.515   3.474
 9519SOL    HW129456   3.310   3.422   3.438
 9519SOL    HW229457   3.297   3.580   3.399
 9520SOL     OW29458   4.758   1.336   5.793
 9520SOL    HW129459   4.775   1.416   5.735
 9520SOL    HW229460   4.723   1.261   5.737
 9521SOL     OW29461   3.829   1.598   1.487
 9521SOL    HW129462   3.768   1.525   1.517
 9521SOL    HW229463   3.862   1.648   1.567
 9522SOL     OW29464   3.869   6.465   1.201
 9522SOL    HW129465   3.921   6.383   1.180
 9522SOL    HW229466   3.838   6.463   1.296
 9523SOL     OW29467   2.531   4.711   4.635
 9523SOL    HW129468   2.521   4.614   4.615
 9523SOL    HW229469   2.552   4.723   4.732
 9524SOL     OW29470   1.799   3.730   0.419
 9524SOL    HW129471   1.850   3.656   0.375
 9524SOL    HW229472   1.781   3.803   0.353
 9525SOL     OW29473   2.549   2.734   6.374
 9525SOL    HW129474   2.640   2.770   6.353
 9525SOL    HW229475   2.541   2.721   6.473
 9526SOL     OW29476   5.350   4.546   6.053
 9526SOL    HW129477   5.426   4.520   6.114
 9526SOL    HW229478   5.263   4.527   6.099
 9527SOL     OW29479   4.052   5.969   4.498
 9527SOL    HW129480   4.025   5.936   4.589
 9527SOL    HW229481   4.047   5.894   4.432
 9528SOL     OW29482   5.078   2.435   1.143
 9528SOL    HW129483   5.048   2.390   1.227
 9528SOL    HW229484   5.060   2.533   1.149
 9529SOL     OW29485   6.011   0.085   1.882
 9529SOL    HW129486   5.927   0.086   1.827
 9529SOL    HW229487   6.012   0.166   1.941
 9530SOL     OW29488   1.145   6.178   3.705
 9530SOL    HW129489   1.052   6.214   3.712
 9530SOL    HW229490   1.169   6.133   3.791
 9531SOL     OW29491   3.612   5.835   1.679
 9531SOL    HW129492   3.531   5.862   1.732
 9531SOL    HW229493   3.585   5.820   1.584
 9532SOL     OW29494   6.891   5.206   4.384
 9532SOL    HW129495   6.975   5.154   4.398
 9532SOL    HW229496   6.902   5.299   4.420
 9533SOL     OW29497   1.071   4.328   3.947
 9533SOL    HW129498   1.090   4.290   4.038
 9533SOL    HW229499   0.981   4.296   3.916
 9534SOL     OW29500   5.047   5.954   4.457
 9534SOL    HW129501   4.972   5.897   4.489
 9534SOL    HW229502   5.011   6.032   4.406
 9535SOL     OW29503   0.094   1.542   4.138
 9535SOL    HW129504   0.124   1.532   4.233
 9535SOL    HW229505   7.014   1.538   4.134
 9536SOL     OW29506   3.374   3.468   5.280
 9536SOL    HW129507   3.424   3.529   5.341
 9536SOL    HW229508   3.415   3.471   5.189
 9537SOL     OW29509   6.903   0.853   4.513
 9537SOL    HW129510   6.837   0.928   4.518
 9537SOL    HW229511   6.994   0.887   4.537
 9538SOL     OW29512   5.564   0.802   5.120
 9538SOL    HW129513   5.466   0.821   5.124
 9538SOL    HW229514   5.607   0.828   5.206
 9539SOL     OW29515   3.623   4.176   1.998
 9539SOL    HW129516   3.565   4.101   2.028
 9539SOL    HW229517   3.619   4.250   2.065
 9540SOL     OW29518   4.068   4.962   3.388
 9540SOL    HW129519   4.112   4.893   3.331
 9540SOL    HW229520   4.069   5.050   3.340
 9541SOL     OW29521   1.614   5.405   5.744
 9541SOL    HW129522   1.553   5.484   5.750
 9541SOL    HW229523   1.596   5.356   5.658
 9542SOL     OW29524   6.390   3.820   3.252
 9542SOL    HW129525   6.350   3.869   3.174
 9542SOL    HW229526   6.325   3.751   3.284
 9543SOL     OW29527   1.882   0.863   5.874
 9543SOL    HW129528   1.786   0.881   5.852
 9543SOL    HW229529   1.916   0.789   5.816
 9544SOL     OW29530   6.170   3.420   4.648
 9544SOL    HW129531   6.250   3.422   4.587
 9544SOL    HW229532   6.200   3.434   4.742
 9545SOL     OW29533   6.493   4.181   1.538
 9545SOL    HW129534   6.504   4.273   1.575
 9545SOL    HW229535   6.405   4.174   1.490
 9546SOL     OW29536   3.410   2.757   0.291
 9546SOL    HW129537   3.403   2.665   0.253
 9546SOL    HW229538   3.437   2.752   0.387
 9547SOL     OW29539   4.295   0.638   3.653
 9547SOL    HW129540   4.375   0.649   3.594
 9547SOL    HW229541   4.267   0.542   3.653
 9548SOL     OW29542   0.870   5.054   5.607
 9548SOL    HW129543   0.903   5.139   5.566
 9548SOL    HW229544   0.805   5.010   5.546
 9549SOL     OW29545   4.752   1.195   1.410
 9549SOL    HW129546   4.780   1.291   1.414
 9549SOL    HW229547   4.832   1.137   1.402
 9550SOL     OW29548   6.720   2.019   1.806
 9550SOL    HW129549   6.708   1.943   1.742
 9550SOL    HW229550   6.787   2.084   1.769
 9551SOL     OW29551   6.455   3.227   6.788
 9551SOL    HW129552   6.461   3.292   6.864
 9551SOL    HW229553   6.360   3.196   6.779
 9552SOL     OW29554   2.955   1.488   0.167
 9552SOL    HW129555   3.047   1.490   0.205
 9552SOL    HW229556   2.959   1.461   0.071
 9553SOL     OW29557   5.122   1.703   0.203
 9553SOL    HW129558   5.219   1.716   0.182
 9553SOL    HW229559   5.099   1.606   0.199
 9554SOL     OW29560   2.792   1.060   4.423
 9554SOL    HW129561   2.758   1.012   4.504
 9554SOL    HW229562   2.714   1.101   4.375
 9555SOL     OW29563   0.505   6.523   2.515
 9555SOL    HW129564   0.586   6.508   2.572
 9555SOL    HW229565   0.439   6.449   2.530
 9556SOL     OW29566   2.253   4.757   6.745
 9556SOL    HW129567   2.179   4.693   6.764
 9556SOL    HW229568   2.228   4.848   6.779
 9557SOL     OW29569   5.044   1.036   0.337
 9557SOL    HW129570   4.997   1.017   0.251
 9557SOL    HW229571   5.015   1.125   0.371
 9558SOL     OW29572   5.768   6.013   5.629
 9558SOL    HW129573   5.757   6.021   5.530
 9558SOL    HW229574   5.807   5.924   5.651
 9559SOL     OW29575   2.622   4.235   0.194
 9559SOL    HW129576   2.541   4.178   0.204
 9559SOL    HW229577   2.596   4.326   0.161
 9560SOL     OW29578   2.402   0.222   1.880
 9560SOL    HW129579   2.342   0.253   1.953
 9560SOL    HW229580   2.469   0.293   1.859
 9561SOL     OW29581   6.921   0.987   6.911
 9561SOL    HW129582   6.953   1.013   6.820
 9561SOL    HW229583   6.821   0.988   6.913
 9562SOL     OW29584   1.964   5.811   2.867
 9562SOL    HW129585   2.042   5.757   2.835
 9562SOL    HW229586   1.910   5.841   2.789
 9563SOL     OW29587   0.370   5.457   6.875
 9563SOL    HW129588   0.443   5.403   6.915
 9563SOL    HW229589   0.304   5.484   6.946
 9564SOL     OW29590   0.915   1.744   0.212
 9564SOL    HW129591   1.008   1.778   0.219
 9564SOL    HW229592   0.885   1.749   0.117
 9565SOL     OW29593   2.432   2.254   4.775
 9565SOL    HW129594   2.418   2.235   4.873
 9565SOL    HW229595   2.460   2.170   4.729
 9566SOL     OW29596   3.053   0.430   6.594
 9566SOL    HW129597   3.029   0.334   6.577
 9566SOL    HW229598   2.971   0.481   6.618
 9567SOL     OW29599   6.801   4.456   1.010
 9567SOL    HW129600   6.792   4.469   0.912
 9567SOL    HW229601   6.845   4.536   1.051
 9568SOL     OW29602   4.598   2.305   5.694
 9568SOL    HW129603   4.632   2.264   5.779
 9568SOL    HW229604   4.524   2.368   5.714
 9569SOL     OW29605   5.637   0.405   2.047
 9569SOL    HW129606   5.728   0.447   2.051
 9569SOL    HW229607   5.642   0.310   2.078
 9570SOL     OW29608   0.710   3.901   2.487
 9570SOL    HW129609   0.665   3.841   2.421
 9570SOL    HW229610   0.715   3.994   2.450
 9571SOL     OW29611   1.810   0.898   7.016
 9571SOL    HW129612   1.846   0.899   6.922
 9571SOL    HW229613   1.742   0.825   0.005
 9572SOL     OW29614   2.864   4.772   4.876
 9572SOL    HW129615   2.854   4.695   4.940
 9572SOL    HW229616   2.773   4.804   4.850
 9573SOL     OW29617   5.608   7.000   4.546
 9573SOL    HW129618   5.512   0.001   4.525
 9573SOL    HW229619   5.650   6.952   4.469
 9574SOL     OW29620   4.588   2.704   0.999
 9574SOL    HW129621   4.673   2.688   0.949
 9574SOL    HW229622   4.598   2.671   1.093
 9575SOL     OW29623   4.982   0.857   1.684
 9575SOL    HW129624   4.967   0.954   1.703
 9575SOL    HW229625   4.940   0.833   1.596
 9576SOL     OW29626   1.318   1.094   5.642
 9576SOL    HW129627   1.237   1.150   5.624
 9576SOL    HW229628   1.363   1.072   5.556
 9577SOL     OW29629   0.427   5.554   2.945
 9577SOL    HW129630   0.513   5.523   2.985
 9577SOL    HW229631   0.384   5.478   2.897
 9578SOL     OW29632   1.918   3.194   3.044
 9578SOL    HW129633   1.928   3.292   3.060
 9578SOL    HW229634   1.927   3.176   2.946
 9579SOL     OW29635   5.554   5.085   2.414
 9579SOL    HW129636   5.512   5.007   2.459
 9579SOL    HW229637   5.491   5.163   2.414
 9580SOL     OW29638   4.907   3.829   3.817
 9580SOL    HW129639   4.919   3.809   3.915
 9580SOL    HW229640   4.895   3.743   3.767
 9581SOL     OW29641   4.874   2.048   6.342
 9581SOL    HW129642   4.900   1.990   6.419
 9581SOL    HW229643   4.941   2.038   6.269
 9582SOL     OW29644   4.681   6.699   5.202
 9582SOL    HW129645   4.721   6.732   5.116
 9582SOL    HW229646   4.717   6.608   5.222
 9583SOL     OW29647   2.494   5.372   1.153
 9583SOL    HW129648   2.522   5.277   1.165
 9583SOL    HW229649   2.575   5.431   1.156
 9584SOL     OW29650   2.312   5.237   4.550
 9584SOL    HW129651   2.348   5.173   4.482
 9584SOL    HW229652   2.383   5.304   4.572
 9585SOL     OW29653   4.442   6.721   1.121
 9585SOL    HW129654   4.461   6.709   1.219
 9585SOL    HW229655   4.437   6.819   1.100
 9586SOL     OW29656   3.089   4.937   3.150
 9586SOL    HW129657   3.112   4.891   3.064
 9586SOL    HW229658   2.998   4.977   3.143
 9587SOL     OW29659   3.618   6.345   6.956
 9587SOL    HW129660   3.708   6.301   6.957
 9587SOL    HW229661   3.565   6.313   0.015
 9588SOL     OW29662   6.342   6.077   0.531
 9588SOL    HW129663   6.361   6.166   0.573
 9588SOL    HW229664   6.397   6.007   0.577
 9589SOL     OW29665   0.993   1.203   5.611
 9589SOL    HW129666   0.904   1.159   5.617
 9589SOL    HW229667   1.010   1.256   5.694
 9590SOL     OW29668   5.280   0.336   0.474
 9590SOL    HW129669   5.259   0.414   0.533
 9590SOL    HW229670   5.221   0.259   0.498
 9591SOL     OW29671   4.974   0.918   6.655
 9591SOL    HW129672   4.984   0.820   6.641
 9591SOL    HW229673   4.987   0.966   6.568
 9592SOL     OW29674   1.700   5.840   5.100
 9592SOL    HW129675   1.702   5.810   5.195
 9592SOL    HW229676   1.610   5.877   5.079
 9593SOL     OW29677   2.782   2.196   4.437
 9593SOL    HW129678   2.776   2.258   4.516
 9593SOL    HW229679   2.692   2.159   4.417
 9594SOL     OW29680   0.241   6.435   3.601
 9594SOL    HW129681   0.197   6.510   3.650
 9594SOL    HW229682   0.176   6.396   3.535
 9595SOL     OW29683   0.629   3.940   3.421
 9595SOL    HW129684   0.679   3.952   3.335
 9595SOL    HW229685   0.541   3.988   3.415
 9596SOL     OW29686   1.384   6.228   1.444
 9596SOL    HW129687   1.481   6.204   1.437
 9596SOL    HW229688   1.357   6.282   1.364
 9597SOL     OW29689   0.759   3.527   2.305
 9597SOL    HW129690   0.702   3.449   2.333
 9597SOL    HW229691   0.853   3.497   2.293
 9598SOL     OW29692   2.539   4.501   3.502
 9598SOL    HW129693   2.511   4.483   3.596
 9598SOL    HW229694   2.591   4.422   3.468
 9599SOL     OW29695   4.845   0.268   5.278
 9599SOL    HW129696   4.794   0.312   5.204
 9599SOL    HW229697   4.890   0.186   5.243
 9600SOL     OW29698   4.424   1.174   0.846
 9600SOL    HW129699   4.361   1.251   0.831
 9600SOL    HW229700   4.398   1.099   0.786
 9601SOL     OW29701   0.883   3.864   0.679
 9601SOL    HW129702   0.925   3.863   0.588
 9601SOL    HW229703   0.922   3.939   0.733
 9602SOL     OW29704   4.207   4.426   5.505
 9602SOL    HW129705   4.277   4.392   5.442
 9602SOL    HW229706   4.121   4.436   5.457
 9603SOL     OW29707   5.488   6.866   6.145
 9603SOL    HW129708   5.446   6.785   6.188
 9603SOL    HW229709   5.417   6.934   6.128
 9604SOL     OW29710   4.528   6.613   1.643
 9604SOL    HW129711   4.555   6.700   1.684
 9604SOL    HW229712   4.453   6.573   1.696
 9605SOL     OW29713   5.165   5.027   1.524
 9605SOL    HW129714   5.264   5.033   1.514
 9605SOL    HW229715   5.136   5.078   1.605
 9606SOL     OW29716   1.504   1.356   6.717
 9606SOL    HW129717   1.418   1.314   6.748
 9606SOL    HW229718   1.537   1.307   6.636
 9607SOL     OW29719   1.599   2.166   6.828
 9607SOL    HW129720   1.608   2.246   6.768
 9607SOL    HW229721   1.502   2.143   6.837
 9608SOL     OW29722   6.574   2.563   4.486
 9608SOL    HW129723   6.612   2.655   4.495
 9608SOL    HW229724   6.483   2.561   4.528
 9609SOL     OW29725   4.872   3.274   0.962
 9609SOL    HW129726   4.833   3.250   0.873
 9609SOL    HW229727   4.798   3.296   1.026
 9610SOL     OW29728   1.387   5.038   2.644
 9610SOL    HW129729   1.473   5.041   2.695
 9610SOL    HW229730   1.315   5.083   2.698
 9611SOL     OW29731   2.520   0.472   0.473
 9611SOL    HW129732   2.473   0.445   0.390
 9611SOL    HW229733   2.611   0.430   0.475
 9612SOL     OW29734   6.860   1.471   4.097
 9612SOL    HW129735   6.894   1.446   4.007
 9612SOL    HW229736   6.833   1.389   4.147
 9613SOL     OW29737   5.786   4.626   4.637
 9613SOL    HW129738   5.690   4.651   4.650
 9613SOL    HW229739   5.809   4.634   4.540
 9614SOL     OW29740   3.900   1.598   3.245
 9614SOL    HW129741   3.879   1.569   3.152
 9614SOL    HW229742   3.953   1.527   3.291
 9615SOL     OW29743   1.922   3.549   1.400
 9615SOL    HW129744   2.007   3.497   1.400
 9615SOL    HW229745   1.853   3.500   1.453
 9616SOL     OW29746   3.966   4.217   5.890
 9616SOL    HW129747   3.952   4.313   5.914
 9616SOL    HW229748   3.878   4.170   5.884
 9617SOL     OW29749   1.225   3.297   2.595
 9617SOL    HW129750   1.192   3.370   2.534
 9617SOL    HW229751   1.181   3.305   2.684
 9618SOL     OW29752   2.193   2.533   0.735
 9618SOL    HW129753   2.113   2.475   0.750
 9618SOL    HW229754   2.164   2.619   0.694
 9619SOL     OW29755   2.096   0.178   6.781
 9619SOL    HW129756   2.037   0.097   6.773
 9619SOL    HW229757   2.053   0.244   6.843
 9620SOL     OW29758   5.644   1.208   5.180
 9620SOL    HW129759   5.664   1.144   5.107
 9620SOL    HW229760   5.667   1.301   5.151
 9621SOL     OW29761   1.785   3.575   3.171
 9621SOL    HW129762   1.716   3.644   3.192
 9621SOL    HW229763   1.786   3.506   3.243
 9622SOL     OW29764   4.499   0.103   0.058
 9622SOL    HW129765   4.401   0.116   0.045
 9622SOL    HW229766   4.528   0.150   0.142
 9623SOL     OW29767   0.766   3.349   6.437
 9623SOL    HW129768   0.695   3.336   6.506
 9623SOL    HW229769   0.762   3.443   6.402
 9624SOL     OW29770   6.183   3.115   3.845
 9624SOL    HW129771   6.276   3.087   3.865
 9624SOL    HW229772   6.157   3.191   3.905
 9625SOL     OW29773   5.439   6.057   1.981
 9625SOL    HW129774   5.470   6.148   1.952
 9625SOL    HW229775   5.518   5.999   2.001
 9626SOL     OW29776   3.811   0.522   0.344
 9626SOL    HW129777   3.756   0.543   0.425
 9626SOL    HW229778   3.873   0.597   0.326
 9627SOL     OW29779   0.582   0.160   0.693
 9627SOL    HW129780   0.668   0.129   0.652
 9627SOL    HW229781   0.559   0.251   0.658
 9628SOL     OW29782   3.391   6.849   1.682
 9628SOL    HW129783   3.454   6.873   1.756
 9628SOL    HW229784   3.339   6.767   1.707
 9629SOL     OW29785   2.462   0.425   0.738
 9629SOL    HW129786   2.466   0.458   0.644
 9629SOL    HW229787   2.508   0.336   0.744
 9630SOL     OW29788   0.296   2.388   6.455
 9630SOL    HW129789   0.333   2.471   6.414
 9630SOL    HW229790   0.327   2.308   6.403
 9631SOL     OW29791   6.589   5.319   0.845
 9631SOL    HW129792   6.641   5.304   0.929
 9631SOL    HW229793   6.492   5.328   0.866
 9632SOL     OW29794   1.840   5.544   2.744
 9632SOL    HW129795   1.867   5.543   2.840
 9632SOL    HW229796   1.858   5.634   2.705
 9633SOL     OW29797   0.362   5.046   6.986
 9633SOL    HW129798   0.294   5.009   0.030
 9633SOL    HW229799   0.316   5.080   6.904
 9634SOL     OW29800   0.117   5.630   6.125
 9634SOL    HW129801   0.067   5.716   6.113
 9634SOL    HW229802   0.120   5.606   6.222
 9635SOL     OW29803   6.183   6.012   5.799
 9635SOL    HW129804   6.255   6.070   5.761
 9635SOL    HW229805   6.211   5.978   5.888
 9636SOL     OW29806   3.993   1.338   0.906
 9636SOL    HW129807   3.920   1.392   0.863
 9636SOL    HW229808   3.979   1.337   1.006
 9637SOL     OW29809   2.582   1.367   0.007
 9637SOL    HW129810   2.635   1.332   0.084
 9637SOL    HW229811   2.579   1.298   6.954
 9638SOL     OW29812   6.640   2.538   6.494
 9638SOL    HW129813   6.618   2.603   6.420
 9638SOL    HW229814   6.670   2.589   6.575
 9639SOL     OW29815   3.736   0.330   2.310
 9639SOL    HW129816   3.741   0.426   2.283
 9639SOL    HW229817   3.675   0.320   2.388
 9640SOL     OW29818   2.097   1.613   3.078
 9640SOL    HW129819   2.049   1.688   3.032
 9640SOL    HW229820   2.033   1.568   3.142
 9641SOL     OW29821   4.982   5.608   6.200
 9641SOL    HW129822   4.967   5.658   6.285
 9641SOL    HW229823   4.998   5.672   6.125
 9642SOL     OW29824   3.163   6.937   2.994
 9642SOL    HW129825   3.088   6.938   3.059
 9642SOL    HW229826   3.128   6.956   2.902
 9643SOL     OW29827   3.866   4.856   2.185
 9643SOL    HW129828   3.890   4.948   2.153
 9643SOL    HW229829   3.768   4.851   2.204
 9644SOL     OW29830   2.551   0.902   0.851
 9644SOL    HW129831   2.491   0.901   0.770
 9644SOL    HW229832   2.614   0.825   0.846
 9645SOL     OW29833   3.022   5.108   5.516
 9645SOL    HW129834   2.930   5.139   5.491
 9645SOL    HW229835   3.071   5.183   5.561
 9646SOL     OW29836   3.386   4.973   4.060
 9646SOL    HW129837   3.378   5.070   4.086
 9646SOL    HW229838   3.370   4.964   3.962
 9647SOL     OW29839   6.457   3.124   5.658
 9647SOL    HW129840   6.496   3.162   5.741
 9647SOL    HW229841   6.428   3.030   5.674
 9648SOL     OW29842   4.365   4.018   0.729
 9648SOL    HW129843   4.382   3.921   0.744
 9648SOL    HW229844   4.278   4.043   0.772
 9649SOL     OW29845   2.293   4.719   0.873
 9649SOL    HW129846   2.306   4.806   0.825
 9649SOL    HW229847   2.373   4.700   0.929
 9650SOL     OW29848   1.651   0.695   1.447
 9650SOL    HW129849   1.691   0.753   1.376
 9650SOL    HW229850   1.723   0.645   1.494
 9651SOL     OW29851   0.833   2.042   0.095
 9651SOL    HW129852   0.914   2.002   0.051
 9651SOL    HW229853   0.755   2.032   0.034
 9652SOL     OW29854   2.045   4.622   1.239
 9652SOL    HW129855   1.953   4.648   1.267
 9652SOL    HW229856   2.084   4.558   1.305
 9653SOL     OW29857   6.092   6.427   4.303
 9653SOL    HW129858   6.078   6.526   4.295
 9653SOL    HW229859   6.008   6.380   4.276
 9654SOL     OW29860   2.147   2.747   2.435
 9654SOL    HW129861   2.176   2.840   2.412
 9654SOL    HW229862   2.225   2.685   2.424
 9655SOL     OW29863   6.191   2.198   0.337
 9655SOL    HW129864   6.233   2.289   0.344
 9655SOL    HW229865   6.252   2.136   0.289
 9656SOL     OW29866   2.761   2.026   2.329
 9656SOL    HW129867   2.829   2.095   2.356
 9656SOL    HW229868   2.681   2.072   2.291
 9657SOL     OW29869   0.454   0.373   4.660
 9657SOL    HW129870   0.378   0.376   4.595
 9657SOL    HW229871   0.427   0.416   4.746
 9658SOL     OW29872   6.092   1.483   2.674
 9658SOL    HW129873   6.038   1.486   2.590
 9658SOL    HW229874   6.112   1.388   2.698
 9659SOL     OW29875   1.622   5.507   6.743
 9659SOL    HW129876   1.687   5.572   6.784
 9659SOL    HW229877   1.670   5.449   6.677
 9660SOL     OW29878   1.129   4.112   0.397
 9660SOL    HW129879   1.125   4.192   0.457
 9660SOL    HW229880   1.210   4.118   0.339
 9661SOL     OW29881   4.016   0.832   1.096
 9661SOL    HW129882   4.055   0.850   1.006
 9661SOL    HW229883   3.940   0.895   1.112
 9662SOL     OW29884   4.916   2.487   4.135
 9662SOL    HW129885   4.930   2.452   4.228
 9662SOL    HW229886   4.976   2.438   4.071
 9663SOL     OW29887   2.967   5.906   2.561
 9663SOL    HW129888   3.005   5.977   2.619
 9663SOL    HW229889   3.029   5.828   2.557
 9664SOL     OW29890   2.897   5.900   1.183
 9664SOL    HW129891   2.815   5.911   1.239
 9664SOL    HW229892   2.890   5.814   1.132
 9665SOL     OW29893   5.724   4.894   3.719
 9665SOL    HW129894   5.640   4.917   3.669
 9665SOL    HW229895   5.795   4.868   3.654
 9666SOL     OW29896   5.598   5.011   5.131
 9666SOL    HW129897   5.642   4.927   5.163
 9666SOL    HW229898   5.648   5.091   5.165
 9667SOL     OW29899   2.999   3.533   2.821
 9667SOL    HW129900   2.931   3.487   2.879
 9667SOL    HW229901   3.076   3.563   2.877
 9668SOL     OW29902   0.162   1.455   5.051
 9668SOL    HW129903   0.209   1.489   5.132
 9668SOL    HW229904   0.125   1.364   5.069
 9669SOL     OW29905   1.204   6.641   0.008
 9669SOL    HW129906   1.165   6.728   6.995
 9669SOL    HW229907   1.299   6.634   6.996
 9670SOL     OW29908   6.396   3.712   6.853
 9670SOL    HW129909   6.343   3.758   6.781
 9670SOL    HW229910   6.484   3.683   6.816
 9671SOL     OW29911   6.870   1.709   0.014
 9671SOL    HW129912   6.889   1.670   6.944
 9671SOL    HW229913   6.904   1.803   0.017
 9672SOL     OW29914   0.362   6.750   6.077
 9672SOL    HW129915   0.347   6.806   5.996
 9672SOL    HW229916   0.288   6.684   6.086
 9673SOL     OW29917   2.045   2.126   6.073
 9673SOL    HW129918   2.064   2.163   6.164
 9673SOL    HW229919   1.961   2.167   6.037
 9674SOL     OW29920   2.598   6.513   2.248
 9674SOL    HW129921   2.551   6.573   2.183
 9674SOL    HW229922   2.697   6.525   2.238
 9675SOL     OW29923   6.803   2.482   2.069
 9675SOL    HW129924   6.872   2.436   2.126
 9675SOL    HW229925   6.846   2.555   2.016
 9676SOL     OW29926   6.600   3.111   4.261
 9676SOL    HW129927   6.512   3.148   4.231
 9676SOL    HW229928   6.657   3.186   4.295
 9677SOL     OW29929   2.065   3.532   5.908
 9677SOL    HW129930   2.122   3.605   5.869
 9677SOL    HW229931   2.029   3.562   5.997
 9678SOL     OW29932   3.506   3.581   3.127
 9678SOL    HW129933   3.422   3.536   3.095
 9678SOL    HW229934   3.488   3.678   3.143
 9679SOL     OW29935   0.465   3.616   1.523
 9679SOL    HW129936   0.477   3.710   1.556
 9679SOL    HW229937   0.529   3.556   1.571
 9680SOL     OW29938   4.339   5.414   2.715
 9680SOL    HW129939   4.380   5.389   2.802
 9680SOL    HW229940   4.396   5.483   2.670
 9681SOL     OW29941   1.004   0.685   3.996
 9681SOL    HW129942   0.927   0.690   4.059
 9681SOL    HW229943   1.087   0.660   4.047
 9682SOL     OW29944   0.565   4.265   2.208
 9682SOL    HW129945   0.481   4.219   2.239
 9682SOL    HW229946   0.644   4.212   2.239
 9683SOL     OW29947   4.379   6.827   4.753
 9683SOL    HW129948   4.376   6.889   4.833
 9683SOL    HW229949   4.406   6.736   4.783
 9684SOL     OW29950   1.617   4.288   2.849
 9684SOL    HW129951   1.664   4.201   2.864
 9684SOL    HW229952   1.521   4.270   2.827
 9685SOL     OW29953   1.722   1.137   6.759
 9685SOL    HW129954   1.728   1.230   6.794
 9685SOL    HW229955   1.627   1.107   6.763
 9686SOL     OW29956   5.848   2.534   2.495
 9686SOL    HW129957   5.933   2.485   2.516
 9686SOL    HW229958   5.865   2.602   2.424
 9687SOL     OW29959   3.122   1.341   5.024
 9687SOL    HW129960   3.094   1.371   5.115
 9687SOL    HW229961   3.078   1.399   4.955
 9688SOL     OW29962   5.510   2.180   3.967
 9688SOL    HW129963   5.443   2.171   4.041
 9688SOL    HW229964   5.498   2.268   3.921
 9689SOL     OW29965   3.162   5.335   5.645
 9689SOL    HW129966   3.151   5.351   5.743
 9689SOL    HW229967   3.166   5.423   5.598
 9690SOL     OW29968   6.185   3.646   0.127
 9690SOL    HW129969   6.187   3.700   0.043
 9690SOL    HW229970   6.271   3.595   0.135
 9691SOL     OW29971   1.006   4.549   1.016
 9691SOL    HW129972   0.970   4.565   1.108
 9691SOL    HW229973   1.100   4.516   1.022
 9692SOL     OW29974   3.372   5.498   0.552
 9692SOL    HW129975   3.286   5.521   0.506
 9692SOL    HW229976   3.437   5.461   0.486
 9693SOL     OW29977   5.827   5.530   1.116
 9693SOL    HW129978   5.836   5.603   1.048
 9693SOL    HW229979   5.916   5.487   1.131
 9694SOL     OW29980   1.090   1.001   0.291
 9694SOL    HW129981   1.047   0.954   0.215
 9694SOL    HW229982   1.182   1.030   0.265
 9695SOL     OW29983   5.901   4.370   0.029
 9695SOL    HW129984   5.857   4.431   0.095
 9695SOL    HW229985   5.832   4.316   7.001
 9696SOL     OW29986   4.123   4.196   7.008
 9696SOL    HW129987   4.162   4.153   6.927
 9696SOL    HW229988   4.188   4.190   0.064
 9697SOL     OW29989   0.214   5.978   6.844
 9697SOL    HW129990   0.169   5.947   6.760
 9697SOL    HW229991   0.285   5.913   6.869
 9698SOL     OW29992   4.807   1.560   5.658
 9698SOL    HW129993   4.860   1.567   5.573
 9698SOL    HW229994   4.720   1.608   5.646
 9699SOL     OW29995   1.467   2.062   6.482
 9699SOL    HW129996   1.553   2.113   6.486
 9699SOL    HW229997   1.459   2.005   6.564
 9700SOL     OW29998   3.750   3.068   3.548
 9700SOL    HW129999   3.824   3.093   3.611
 9700SOL    HW230000   3.720   3.150   3.499
 9701SOL     OW30001   4.139   4.798   4.204
 9701SOL    HW130002   4.083   4.776   4.283
 9701SOL    HW230003   4.087   4.781   4.120
 9702SOL     OW30004   5.392   0.333   6.796
 9702SOL    HW130005   5.316   0.314   6.735
 9702SOL    HW230006   5.472   0.360   6.743
 9703SOL     OW30007   2.276   5.841   4.611
 9703SOL    HW130008   2.255   5.927   4.656
 9703SOL    HW230009   2.280   5.855   4.512
 9704SOL     OW30010   3.132   1.158   4.403
 9704SOL    HW130011   3.082   1.214   4.469
 9704SOL    HW230012   3.068   1.097   4.356
 9705SOL     OW30013   3.039   4.092   0.715
 9705SOL    HW130014   3.048   4.039   0.800
 9705SOL    HW230015   3.102   4.056   0.646
 9706SOL     OW30016   0.211   1.841   3.666
 9706SOL    HW130017   0.215   1.745   3.641
 9706SOL    HW230018   0.153   1.890   3.600
 9707SOL     OW30019   2.722   5.522   1.163
 9707SOL    HW130020   2.800   5.459   1.160
 9707SOL    HW230021   2.734   5.586   1.239
 9708SOL     OW30022   1.759   1.677   1.411
 9708SOL    HW130023   1.709   1.728   1.481
 9708SOL    HW230024   1.726   1.582   1.409
 9709SOL     OW30025   1.408   6.346   3.859
 9709SOL    HW130026   1.464   6.412   3.908
 9709SOL    HW230027   1.311   6.365   3.875
 9710SOL     OW30028   1.671   6.850   3.878
 9710SOL    HW130029   1.675   6.877   3.975
 9710SOL    HW230030   1.598   6.901   3.833
 9711SOL     OW30031   2.136   3.081   6.401
 9711SOL    HW130032   2.221   3.130   6.380
 9711SOL    HW230033   2.138   2.990   6.361
 9712SOL     OW30034   5.110   3.936   4.692
 9712SOL    HW130035   5.028   3.912   4.744
 9712SOL    HW230036   5.149   3.854   4.650
 9713SOL     OW30037   0.805   5.938   3.574
 9713SOL    HW130038   0.828   5.943   3.671
 9713SOL    HW230039   0.835   6.022   3.529
 9714SOL     OW30040   2.533   2.037   2.167
 9714SOL    HW130041   2.476   1.961   2.198
 9714SOL    HW230042   2.553   2.026   2.070
 9715SOL     OW30043   5.689   5.604   6.256
 9715SOL    HW130044   5.762   5.565   6.200
 9715SOL    HW230045   5.727   5.675   6.315
 9716SOL     OW30046   3.624   0.459   5.687
 9716SOL    HW130047   3.719   0.433   5.670
 9716SOL    HW230048   3.590   0.514   5.610
 9717SOL     OW30049   6.210   5.194   3.398
 9717SOL    HW130050   6.302   5.170   3.366
 9717SOL    HW230051   6.199   5.294   3.394
 9718SOL     OW30052   5.942   2.406   2.175
 9718SOL    HW130053   5.892   2.480   2.129
 9718SOL    HW230054   6.033   2.439   2.200
 9719SOL     OW30055   0.345   1.155   7.013
 9719SOL    HW130056   0.282   1.202   6.952
 9719SOL    HW230057   0.334   1.191   0.087
 9720SOL     OW30058   0.690   1.336   0.647
 9720SOL    HW130059   0.725   1.349   0.555
 9720SOL    HW230060   0.721   1.248   0.683
 9721SOL     OW30061   0.820   2.250   3.730
 9721SOL    HW130062   0.744   2.254   3.794
 9721SOL    HW230063   0.879   2.173   3.752
 9722SOL     OW30064   0.223   0.202   4.220
 9722SOL    HW130065   0.257   0.164   4.133
 9722SOL    HW230066   0.188   0.127   4.277
 9723SOL     OW30067   6.313   0.990   4.448
 9723SOL    HW130068   6.288   0.979   4.545
 9723SOL    HW230069   6.369   0.913   4.420
 9724SOL     OW30070   3.943   2.627   1.556
 9724SOL    HW130071   3.988   2.700   1.607
 9724SOL    HW230072   3.859   2.600   1.604
 9725SOL     OW30073   3.858   3.000   5.815
 9725SOL    HW130074   3.945   3.004   5.862
 9725SOL    HW230075   3.784   3.016   5.880
 9726SOL     OW30076   4.843   6.057   5.052
 9726SOL    HW130077   4.780   6.010   5.114
 9726SOL    HW230078   4.796   6.134   5.009
 9727SOL     OW30079   0.226   0.826   6.551
 9727SOL    HW130080   0.290   0.764   6.504
 9727SOL    HW230081   0.160   0.772   6.603
 9728SOL     OW30082   2.822   5.603   5.965
 9728SOL    HW130083   2.757   5.629   5.892
 9728SOL    HW230084   2.915   5.615   5.932
 9729SOL     OW30085   3.666   5.900   2.069
 9729SOL    HW130086   3.664   5.952   1.984
 9729SOL    HW230087   3.679   5.803   2.049
 9730SOL     OW30088   5.108   3.875   2.830
 9730SOL    HW130089   5.159   3.805   2.780
 9730SOL    HW230090   5.044   3.921   2.768
 9731SOL     OW30091   5.536   4.432   0.554
 9731SOL    HW130092   5.491   4.381   0.628
 9731SOL    HW230093   5.538   4.375   0.472
 9732SOL     OW30094   5.272   6.388   4.413
 9732SOL    HW130095   5.224   6.385   4.326
 9732SOL    HW230096   5.274   6.296   4.453
 9733SOL     OW30097   4.793   4.652   4.358
 9733SOL    HW130098   4.737   4.571   4.373
 9733SOL    HW230099   4.734   4.730   4.337
 9734SOL     OW30100   6.397   2.353   5.917
 9734SOL    HW130101   6.361   2.288   5.983
 9734SOL    HW230102   6.388   2.315   5.824
 9735SOL     OW30103   3.347   5.254   1.225
 9735SOL    HW130104   3.390   5.230   1.138
 9735SOL    HW230105   3.362   5.181   1.291
 9736SOL     OW30106   3.766   1.930   2.004
 9736SOL    HW130107   3.736   2.025   2.004
 9736SOL    HW230108   3.699   1.874   1.956
 9737SOL     OW30109   4.653   1.553   4.538
 9737SOL    HW130110   4.668   1.456   4.554
 9737SOL    HW230111   4.699   1.606   4.610
 9738SOL     OW30112   2.683   0.582   2.274
 9738SOL    HW130113   2.633   0.547   2.195
 9738SOL    HW230114   2.618   0.607   2.346
 9739SOL     OW30115   5.128   4.688   2.731
 9739SOL    HW130116   5.034   4.696   2.763
 9739SOL    HW230117   5.187   4.744   2.789
 9740SOL     OW30118   6.557   3.336   3.345
 9740SOL    HW130119   6.620   3.271   3.388
 9740SOL    HW230120   6.466   3.327   3.387
 9741SOL     OW30121   3.754   1.901   2.767
 9741SOL    HW130122   3.689   1.975   2.782
 9741SOL    HW230123   3.847   1.936   2.776
 9742SOL     OW30124   3.900   1.293   2.664
 9742SOL    HW130125   3.853   1.304   2.575
 9742SOL    HW230126   3.962   1.370   2.678
 9743SOL     OW30127   1.463   1.255   5.878
 9743SOL    HW130128   1.422   1.191   5.813
 9743SOL    HW230129   1.559   1.270   5.852
 9744SOL     OW30130   2.171   0.264   1.372
 9744SOL    HW130131   2.160   0.338   1.305
 9744SOL    HW230132   2.144   0.178   1.330
 9745SOL     OW30133   0.759   1.010   4.212
 9745SOL    HW130134   0.793   1.054   4.295
 9745SOL    HW230135   0.661   1.030   4.202
 9746SOL     OW30136   5.899   6.972   4.596
 9746SOL    HW130137   5.800   6.961   4.608
 9746SOL    HW230138   5.940   6.882   4.582
 9747SOL     OW30139   6.874   0.302   5.819
 9747SOL    HW130140   6.875   0.269   5.913
 9747SOL    HW230141   6.964   0.338   5.795
 9748SOL     OW30142   1.876   4.843   4.589
 9748SOL    HW130143   1.806   4.779   4.557
 9748SOL    HW230144   1.963   4.823   4.545
 9749SOL     OW30145   0.744   4.962   4.791
 9749SOL    HW130146   0.781   5.055   4.786
 9749SOL    HW230147   0.775   4.919   4.877
 9750SOL     OW30148   2.503   5.489   2.534
 9750SOL    HW130149   2.454   5.489   2.447
 9750SOL    HW230150   2.473   5.567   2.589
 9751SOL     OW30151   1.260   1.993   0.804
 9751SOL    HW130152   1.336   2.032   0.855
 9751SOL    HW230153   1.292   1.962   0.715
 9752SOL     OW30154   3.176   6.581   6.154
 9752SOL    HW130155   3.208   6.542   6.241
 9752SOL    HW230156   3.236   6.657   6.128
 9753SOL     OW30157   0.203   0.261   6.806
 9753SOL    HW130158   0.210   0.297   6.899
 9753SOL    HW230159   0.280   0.293   6.752
 9754SOL     OW30160   0.076   3.021   6.614
 9754SOL    HW130161   0.001   3.015   6.680
 9754SOL    HW230162   0.049   2.978   6.528
 9755SOL     OW30163   4.492   6.074   4.637
 9755SOL    HW130164   4.436   5.991   4.628
 9755SOL    HW230165   4.567   6.056   4.700
 9756SOL     OW30166   4.099   3.054   6.319
 9756SOL    HW130167   4.154   3.031   6.238
 9756SOL    HW230168   4.102   3.152   6.333
 9757SOL     OW30169   5.775   0.784   4.214
 9757SOL    HW130170   5.704   0.748   4.275
 9757SOL    HW230171   5.734   0.842   4.145
 9758SOL     OW30172   3.638   0.210   0.405
 9758SOL    HW130173   3.688   0.208   0.492
 9758SOL    HW230174   3.697   0.179   0.331
 9759SOL     OW30175   2.903   5.847   2.050
 9759SOL    HW130176   2.820   5.853   2.105
 9759SOL    HW230177   2.951   5.762   2.070
 9760SOL     OW30178   4.640   3.901   6.236
 9760SOL    HW130179   4.563   3.855   6.278
 9760SOL    HW230180   4.705   3.833   6.202
 9761SOL     OW30181   5.270   5.392   3.168
 9761SOL    HW130182   5.307   5.480   3.137
 9761SOL    HW230183   5.190   5.369   3.113
 9762SOL     OW30184   3.744   0.994   2.370
 9762SOL    HW130185   3.681   1.065   2.402
 9762SOL    HW230186   3.818   1.036   2.317
 9763SOL     OW30187   2.223   1.985   1.688
 9763SOL    HW130188   2.302   2.029   1.729
 9763SOL    HW230189   2.140   2.033   1.715
 9764SOL     OW30190   1.221   2.916   4.208
 9764SOL    HW130191   1.248   2.873   4.122
 9764SOL    HW230192   1.274   2.878   4.284
 9765SOL     OW30193   6.996   1.720   5.322
 9765SOL    HW130194   0.003   1.813   5.347
 9765SOL    HW230195   0.056   1.670   5.289
 9766SOL     OW30196   3.039   0.708   1.780
 9766SOL    HW130197   2.984   0.790   1.772
 9766SOL    HW230198   2.983   0.628   1.759
 9767SOL     OW30199   4.287   0.437   5.005
 9767SOL    HW130200   4.332   0.511   4.955
 9767SOL    HW230201   4.202   0.470   5.044
 9768SOL     OW30202   4.646   1.927   2.965
 9768SOL    HW130203   4.611   1.880   2.884
 9768SOL    HW230204   4.582   1.914   3.041
 9769SOL     OW30205   0.048   2.844   0.260
 9769SOL    HW130206   0.062   2.890   0.173
 9769SOL    HW230207   0.063   2.745   0.248
 9770SOL     OW30208   0.398   3.298   4.709
 9770SOL    HW130209   0.393   3.370   4.641
 9770SOL    HW230210   0.367   3.211   4.669
 9771SOL     OW30211   1.866   6.428   4.098
 9771SOL    HW130212   1.829   6.362   4.033
 9771SOL    HW230213   1.933   6.487   4.053
 9772SOL     OW30214   5.610   6.443   1.336
 9772SOL    HW130215   5.634   6.407   1.245
 9772SOL    HW230216   5.683   6.421   1.400
 9773SOL     OW30217   5.505   5.198   3.792
 9773SOL    HW130218   5.558   5.177   3.874
 9773SOL    HW230219   5.514   5.123   3.726
 9774SOL     OW30220   6.338   6.131   4.142
 9774SOL    HW130221   6.327   6.194   4.065
 9774SOL    HW230222   6.263   6.145   4.207
 9775SOL     OW30223   2.790   1.383   4.763
 9775SOL    HW130224   2.714   1.349   4.707
 9775SOL    HW230225   2.753   1.430   4.843
 9776SOL     OW30226   0.437   4.467   4.467
 9776SOL    HW130227   0.409   4.420   4.383
 9776SOL    HW230228   0.403   4.561   4.466
 9777SOL     OW30229   4.678   5.525   6.245
 9777SOL    HW130230   4.734   5.466   6.303
 9777SOL    HW230231   4.735   5.564   6.173
 9778SOL     OW30232   2.960   0.639   4.488
 9778SOL    HW130233   3.007   0.724   4.462
 9778SOL    HW230234   2.948   0.583   4.406
 9779SOL     OW30235   3.271   2.013   6.778
 9779SOL    HW130236   3.356   2.031   6.829
 9779SOL    HW230237   3.287   1.941   6.711
 9780SOL     OW30238   1.877   3.040   1.363
 9780SOL    HW130239   1.815   2.962   1.354
 9780SOL    HW230240   1.875   3.095   1.280
 9781SOL     OW30241   0.002   0.374   4.194
 9781SOL    HW130242   0.086   0.320   4.183
 9781SOL    HW230243   6.968   0.336   4.269
 9782SOL     OW30244   5.678   0.224   0.407
 9782SOL    HW130245   5.763   0.239   0.356
 9782SOL    HW230246   5.632   0.143   0.372
 9783SOL     OW30247   6.180   6.985   3.761
 9783SOL    HW130248   6.087   6.995   3.727
 9783SOL    HW230249   6.184   6.907   3.824
 9784SOL     OW30250   4.994   0.903   4.750
 9784SOL    HW130251   4.948   0.923   4.664
 9784SOL    HW230252   4.955   0.821   4.791
 9785SOL     OW30253   1.093   2.262   0.858
 9785SOL    HW130254   1.162   2.333   0.869
 9785SOL    HW230255   1.045   2.248   0.944
 9786SOL     OW30256   1.379   0.184   3.177
 9786SOL    HW130257   1.339   0.136   3.255
 9786SOL    HW230258   1.435   0.120   3.124
 9787SOL     OW30259   6.273   3.707   0.919
 9787SOL    HW130260   6.317   3.692   0.831
 9787SOL    HW230261   6.284   3.802   0.946
 9788SOL     OW30262   6.998   0.360   6.378
 9788SOL    HW130263   6.910   0.313   6.390
 9788SOL    HW230264   0.047   0.295   6.347
 9789SOL     OW30265   2.145   4.382   4.037
 9789SOL    HW130266   2.050   4.383   4.069
 9789SOL    HW230267   2.205   4.351   4.111
 9790SOL     OW30268   0.206   1.348   3.510
 9790SOL    HW130269   0.169   1.413   3.443
 9790SOL    HW230270   0.140   1.274   3.524
 9791SOL     OW30271   1.101   2.191   0.414
 9791SOL    HW130272   1.189   2.155   0.381
 9791SOL    HW230273   1.028   2.128   0.389
 9792SOL     OW30274   4.646   5.249   2.885
 9792SOL    HW130275   4.741   5.225   2.908
 9792SOL    HW230276   4.639   5.269   2.788
 9793SOL     OW30277   5.150   5.975   2.099
 9793SOL    HW130278   5.130   5.880   2.123
 9793SOL    HW230279   5.184   5.979   2.005
 9794SOL     OW30280   3.790   4.337   0.184
 9794SOL    HW130281   3.825   4.418   0.231
 9794SOL    HW230282   3.715   4.364   0.123
 9795SOL     OW30283   2.320   5.031   2.964
 9795SOL    HW130284   2.353   5.047   2.870
 9795SOL    HW230285   2.340   5.111   3.020
 9796SOL     OW30286   4.131   5.114   6.349
 9796SOL    HW130287   4.126   5.083   6.445
 9796SOL    HW230288   4.054   5.174   6.330
 9797SOL     OW30289   6.645   3.333   5.119
 9797SOL    HW130290   6.684   3.241   5.131
 9797SOL    HW230291   6.569   3.345   5.183
 9798SOL     OW30292   3.483   1.240   1.726
 9798SOL    HW130293   3.489   1.149   1.687
 9798SOL    HW230294   3.481   1.233   1.826
 9799SOL     OW30295   3.795   3.668   2.957
 9799SOL    HW130296   3.758   3.745   2.906
 9799SOL    HW230297   3.757   3.583   2.921
 9800SOL     OW30298   4.148   6.422   0.417
 9800SOL    HW130299   4.190   6.487   0.353
 9800SOL    HW230300   4.172   6.329   0.391
 9801SOL     OW30301   5.693   5.212   1.718
 9801SOL    HW130302   5.668   5.308   1.712
 9801SOL    HW230303   5.792   5.202   1.712
 9802SOL     OW30304   0.751   6.250   2.256
 9802SOL    HW130305   0.743   6.251   2.156
 9802SOL    HW230306   0.691   6.179   2.293
 9803SOL     OW30307   5.557   0.161   6.032
 9803SOL    HW130308   5.637   0.168   6.091
 9803SOL    HW230309   5.563   0.078   5.977
 9804SOL     OW30310   5.342   5.756   3.873
 9804SOL    HW130311   5.282   5.696   3.821
 9804SOL    HW230312   5.403   5.702   3.930
 9805SOL     OW30313   3.369   4.475   0.344
 9805SOL    HW130314   3.461   4.472   0.384
 9805SOL    HW230315   3.303   4.437   0.409
 9806SOL     OW30316   0.550   1.210   3.271
 9806SOL    HW130317   0.527   1.148   3.196
 9806SOL    HW230318   0.643   1.191   3.303
 9807SOL     OW30319   2.002   3.834   0.711
 9807SOL    HW130320   2.030   3.804   0.802
 9807SOL    HW230321   2.080   3.827   0.648
 9808SOL     OW30322   2.417   2.154   3.094
 9808SOL    HW130323   2.363   2.231   3.061
 9808SOL    HW230324   2.367   2.069   3.077
 9809SOL     OW30325   0.453   0.189   4.051
 9809SOL    HW130326   0.417   0.097   4.034
 9809SOL    HW230327   0.474   0.199   4.149
 9810SOL     OW30328   4.807   1.586   2.880
 9810SOL    HW130329   4.742   1.523   2.921
 9810SOL    HW230330   4.800   1.676   2.924
 9811SOL     OW30331   1.292   0.448   3.100
 9811SOL    HW130332   1.304   0.357   3.140
 9811SOL    HW230333   1.199   0.481   3.120
 9812SOL     OW30334   5.857   2.817   6.967
 9812SOL    HW130335   5.948   2.837   6.930
 9812SOL    HW230336   5.797   2.896   6.954
 9813SOL     OW30337   6.344   4.228   0.105
 9813SOL    HW130338   6.264   4.246   0.048
 9813SOL    HW230339   6.314   4.182   0.189
 9814SOL     OW30340   6.702   1.197   5.783
 9814SOL    HW130341   6.674   1.138   5.707
 9814SOL    HW230342   6.774   1.152   5.836
 9815SOL     OW30343   7.011   5.260   2.101
 9815SOL    HW130344   0.043   5.180   2.072
 9815SOL    HW230345   0.035   5.302   2.180
 9816SOL     OW30346   6.920   2.256   5.181
 9816SOL    HW130347   6.987   2.328   5.163
 9816SOL    HW230348   6.889   2.263   5.276
 9817SOL     OW30349   2.184   1.818   0.394
 9817SOL    HW130350   2.121   1.741   0.389
 9817SOL    HW230351   2.272   1.787   0.431
 9818SOL     OW30352   0.355   0.343   2.528
 9818SOL    HW130353   0.369   0.443   2.527
 9818SOL    HW230354   0.406   0.303   2.451
 9819SOL     OW30355   6.408   1.010   5.143
 9819SOL    HW130356   6.356   1.058   5.073
 9819SOL    HW230357   6.345   0.958   5.202
 9820SOL     OW30358   3.278   0.685   6.798
 9820SOL    HW130359   3.356   0.640   6.754
 9820SOL    HW230360   3.247   0.630   6.875
 9821SOL     OW30361   4.724   4.221   6.319
 9821SOL    HW130362   4.759   4.221   6.225
 9821SOL    HW230363   4.690   4.130   6.342
 9822SOL     OW30364   2.941   6.725   3.774
 9822SOL    HW130365   2.902   6.804   3.820
 9822SOL    HW230366   3.041   6.727   3.781
 9823SOL     OW30367   3.957   6.045   2.894
 9823SOL    HW130368   3.960   6.140   2.922
 9823SOL    HW230369   3.967   5.986   2.974
 9824SOL     OW30370   1.706   6.032   5.420
 9824SOL    HW130371   1.790   6.057   5.468
 9824SOL    HW230372   1.654   6.115   5.400
 9825SOL     OW30373   0.301   6.598   4.767
 9825SOL    HW130374   0.341   6.553   4.687
 9825SOL    HW230375   0.202   6.606   4.755
 9826SOL     OW30376   1.461   6.050   4.776
 9826SOL    HW130377   1.399   6.075   4.851
 9826SOL    HW230378   1.537   6.115   4.774
 9827SOL     OW30379   1.592   4.537   1.587
 9827SOL    HW130380   1.569   4.457   1.643
 9827SOL    HW230381   1.514   4.599   1.582
 9828SOL     OW30382   4.901   2.022   4.256
 9828SOL    HW130383   4.840   1.969   4.314
 9828SOL    HW230384   4.862   2.028   4.164
 9829SOL     OW30385   5.723   3.977   5.908
 9829SOL    HW130386   5.763   4.068   5.908
 9829SOL    HW230387   5.629   3.982   5.943
 9830SOL     OW30388   6.035   0.435   3.304
 9830SOL    HW130389   6.092   0.494   3.248
 9830SOL    HW230390   6.079   0.421   3.393
 9831SOL     OW30391   0.840   4.816   1.292
 9831SOL    HW130392   0.926   4.775   1.324
 9831SOL    HW230393   0.765   4.784   1.349
 9832SOL     OW30394   5.750   6.057   5.358
 9832SOL    HW130395   5.826   6.005   5.320
 9832SOL    HW230396   5.692   6.092   5.283
 9833SOL     OW30397   3.855   2.959   4.376
 9833SOL    HW130398   3.915   3.004   4.310
 9833SOL    HW230399   3.904   2.949   4.463
 9834SOL     OW30400   3.168   6.085   5.905
 9834SOL    HW130401   3.195   6.172   5.944
 9834SOL    HW230402   3.241   6.049   5.847
 9835SOL     OW30403   3.732   2.891   3.925
 9835SOL    HW130404   3.830   2.910   3.928
 9835SOL    HW230405   3.695   2.895   4.018
 9836SOL     OW30406   6.501   3.024   6.464
 9836SOL    HW130407   6.522   3.032   6.562
 9836SOL    HW230408   6.429   2.955   6.451
 9837SOL     OW30409   6.173   0.728   4.957
 9837SOL    HW130410   6.176   0.789   5.036
 9837SOL    HW230411   6.078   0.702   4.938
 9838SOL     OW30412   0.175   5.748   0.965
 9838SOL    HW130413   0.247   5.678   0.973
 9838SOL    HW230414   0.214   5.832   0.927
 9839SOL     OW30415   3.596   6.514   3.665
 9839SOL    HW130416   3.556   6.493   3.576
 9839SOL    HW230417   3.549   6.593   3.705
 9840SOL     OW30418   6.567   2.351   5.416
 9840SOL    HW130419   6.555   2.384   5.322
 9840SOL    HW230420   6.525   2.416   5.479
 9841SOL     OW30421   6.754   5.647   2.203
 9841SOL    HW130422   6.821   5.597   2.148
 9841SOL    HW230423   6.686   5.583   2.238
 9842SOL     OW30424   4.200   0.489   0.420
 9842SOL    HW130425   4.181   0.496   0.518
 9842SOL    HW230426   4.153   0.409   0.382
 9843SOL     OW30427   0.362   0.050   0.570
 9843SOL    HW130428   0.447   0.081   0.613
 9843SOL    HW230429   0.284   0.096   0.613
 9844SOL     OW30430   5.656   1.079   4.540
 9844SOL    HW130431   5.620   1.064   4.448
 9844SOL    HW230432   5.582   1.065   4.607
 9845SOL     OW30433   0.804   3.407   2.610
 9845SOL    HW130434   0.831   3.327   2.663
 9845SOL    HW230435   0.766   3.377   2.523
 9846SOL     OW30436   5.787   2.056   2.998
 9846SOL    HW130437   5.735   2.096   2.923
 9846SOL    HW230438   5.851   2.125   3.034
 9847SOL     OW30439   4.198   3.449   0.187
 9847SOL    HW130440   4.274   3.483   0.131
 9847SOL    HW230441   4.114   3.449   0.133
 9848SOL     OW30442   2.896   3.735   6.336
 9848SOL    HW130443   2.863   3.654   6.385
 9848SOL    HW230444   2.996   3.729   6.327
 9849SOL     OW30445   1.836   1.945   2.309
 9849SOL    HW130446   1.880   1.865   2.349
 9849SOL    HW230447   1.813   2.010   2.382
 9850SOL     OW30448   1.971   0.665   4.203
 9850SOL    HW130449   1.899   0.647   4.270
 9850SOL    HW230450   1.954   0.752   4.158
 9851SOL     OW30451   3.522   6.205   3.814
 9851SOL    HW130452   3.612   6.245   3.795
 9851SOL    HW230453   3.451   6.274   3.802
 9852SOL     OW30454   2.475   0.483   6.716
 9852SOL    HW130455   2.384   0.520   6.732
 9852SOL    HW230456   2.542   0.535   6.769
 9853SOL     OW30457   0.235   4.114   3.931
 9853SOL    HW130458   0.253   4.020   3.899
 9853SOL    HW230459   0.149   4.146   3.891
 9854SOL     OW30460   6.346   3.961   6.968
 9854SOL    HW130461   6.422   3.979   0.011
 9854SOL    HW230462   6.342   3.864   6.946
 9855SOL     OW30463   0.158   6.254   1.045
 9855SOL    HW130464   0.078   6.303   1.011
 9855SOL    HW230465   0.143   6.155   1.036
 9856SOL     OW30466   4.508   4.410   3.371
 9856SOL    HW130467   4.545   4.320   3.397
 9856SOL    HW230468   4.435   4.436   3.434
 9857SOL     OW30469   4.076   6.728   5.799
 9857SOL    HW130470   4.132   6.723   5.716
 9857SOL    HW230471   4.077   6.821   5.834
 9858SOL     OW30472   6.762   5.295   2.634
 9858SOL    HW130473   6.830   5.284   2.707
 9858SOL    HW230474   6.784   5.376   2.580
 9859SOL     OW30475   0.449   7.009   2.942
 9859SOL    HW130476   0.536   0.007   2.987
 9859SOL    HW230477   0.383   0.061   2.967
 9860SOL     OW30478   1.324   3.823   3.419
 9860SOL    HW130479   1.363   3.877   3.494
 9860SOL    HW230480   1.253   3.762   3.455
 9861SOL     OW30481   3.924   2.146   4.287
 9861SOL    HW130482   3.895   2.137   4.192
 9861SOL    HW230483   3.865   2.091   4.345
 9862SOL     OW30484   1.318   2.796   6.622
 9862SOL    HW130485   1.231   2.845   6.625
 9862SOL    HW230486   1.336   2.766   6.528
 9863SOL     OW30487   3.697   5.634   2.042
 9863SOL    HW130488   3.649   5.625   1.955
 9863SOL    HW230489   3.654   5.575   2.110
 9864SOL     OW30490   2.920   6.371   4.947
 9864SOL    HW130491   2.911   6.281   4.905
 9864SOL    HW230492   2.861   6.376   5.027
 9865SOL     OW30493   2.524   4.823   6.274
 9865SOL    HW130494   2.476   4.888   6.215
 9865SOL    HW230495   2.503   4.729   6.245
 9866SOL     OW30496   0.986   5.941   5.136
 9866SOL    HW130497   0.896   5.983   5.150
 9866SOL    HW230498   0.977   5.862   5.075
 9867SOL     OW30499   5.223   1.568   2.692
 9867SOL    HW130500   5.206   1.540   2.598
 9867SOL    HW230501   5.297   1.513   2.731
 9868SOL     OW30502   2.463   5.195   3.159
 9868SOL    HW130503   2.392   5.265   3.168
 9868SOL    HW230504   2.547   5.237   3.125
 9869SOL     OW30505   6.149   1.773   2.672
 9869SOL    HW130506   6.144   1.676   2.693
 9869SOL    HW230507   6.086   1.824   2.731
 9870SOL     OW30508   2.222   3.033   2.722
 9870SOL    HW130509   2.278   3.004   2.799
 9870SOL    HW230510   2.266   3.006   2.636
 9871SOL     OW30511   6.097   5.181   3.065
 9871SOL    HW130512   6.054   5.188   3.155
 9871SOL    HW230513   6.082   5.089   3.028
 9872SOL     OW30514   0.095   6.691   4.487
 9872SOL    HW130515   0.021   6.701   4.419
 9872SOL    HW230516   0.115   6.594   4.500
 9873SOL     OW30517   0.553   0.755   5.021
 9873SOL    HW130518   0.490   0.769   4.945
 9873SOL    HW230519   0.554   0.837   5.079
 9874SOL     OW30520   6.970   2.454   4.396
 9874SOL    HW130521   6.915   2.472   4.315
 9874SOL    HW230522   6.910   2.440   4.475
 9875SOL     OW30523   5.488   5.898   0.441
 9875SOL    HW130524   5.446   5.949   0.367
 9875SOL    HW230525   5.462   5.939   0.529
 9876SOL     OW30526   0.737   0.365   2.818
 9876SOL    HW130527   0.788   0.444   2.852
 9876SOL    HW230528   0.757   0.285   2.875
 9877SOL     OW30529   1.791   5.564   5.001
 9877SOL    HW130530   1.819   5.583   4.907
 9877SOL    HW230531   1.758   5.648   5.044
 9878SOL     OW30532   4.729   4.288   0.677
 9878SOL    HW130533   4.746   4.210   0.738
 9878SOL    HW230534   4.762   4.266   0.585
 9879SOL     OW30535   5.886   5.137   4.373
 9879SOL    HW130536   5.894   5.236   4.364
 9879SOL    HW230537   5.974   5.099   4.400
 9880SOL     OW30538   2.795   1.708   0.931
 9880SOL    HW130539   2.702   1.745   0.925
 9880SOL    HW230540   2.809   1.669   1.023
 9881SOL     OW30541   6.582   0.254   2.893
 9881SOL    HW130542   6.546   0.281   2.804
 9881SOL    HW230543   6.603   0.157   2.893
 9882SOL     OW30544   3.154   3.993   4.626
 9882SOL    HW130545   3.116   3.980   4.534
 9882SOL    HW230546   3.085   3.971   4.695
 9883SOL     OW30547   0.661   5.319   2.744
 9883SOL    HW130548   0.728   5.269   2.799
 9883SOL    HW230549   0.708   5.383   2.683
 9884SOL     OW30550   3.564   2.767   5.222
 9884SOL    HW130551   3.565   2.799   5.127
 9884SOL    HW230552   3.471   2.743   5.248
 9885SOL     OW30553   4.725   2.231   5.309
 9885SOL    HW130554   4.762   2.255   5.219
 9885SOL    HW230555   4.801   2.214   5.372
 9886SOL     OW30556   2.264   6.153   1.107
 9886SOL    HW130557   2.176   6.200   1.109
 9886SOL    HW230558   2.296   6.146   1.012
 9887SOL     OW30559   3.556   1.481   0.054
 9887SOL    HW130560   3.484   1.489   0.122
 9887SOL    HW230561   3.625   1.416   0.085
 9888SOL     OW30562   6.140   6.746   3.898
 9888SOL    HW130563   6.224   6.744   3.952
 9888SOL    HW230564   6.086   6.664   3.916
 9889SOL     OW30565   6.520   5.895   2.044
 9889SOL    HW130566   6.496   5.799   2.052
 9889SOL    HW230567   6.620   5.904   2.037
 9890SOL     OW30568   1.777   3.386   3.373
 9890SOL    HW130569   1.750   3.374   3.468
 9890SOL    HW230570   1.727   3.322   3.315
 9891SOL     OW30571   3.428   0.332   1.921
 9891SOL    HW130572   3.496   0.262   1.942
 9891SOL    HW230573   3.399   0.377   2.005
 9892SOL     OW30574   1.970   5.971   3.078
 9892SOL    HW130575   1.983   5.929   2.989
 9892SOL    HW230576   2.003   6.066   3.075
 9893SOL     OW30577   5.508   4.645   4.515
 9893SOL    HW130578   5.470   4.615   4.428
 9893SOL    HW230579   5.505   4.745   4.521
 9894SOL     OW30580   4.737   3.387   6.025
 9894SOL    HW130581   4.645   3.405   6.060
 9894SOL    HW230582   4.740   3.409   5.927
 9895SOL     OW30583   5.311   3.041   6.107
 9895SOL    HW130584   5.292   3.032   6.009
 9895SOL    HW230585   5.241   3.100   6.148
 9896SOL     OW30586   3.288   3.993   6.183
 9896SOL    HW130587   3.320   3.902   6.209
 9896SOL    HW230588   3.359   4.060   6.205
 9897SOL     OW30589   1.181   0.770   3.046
 9897SOL    HW130590   1.274   0.788   3.014
 9897SOL    HW230591   1.177   0.780   3.146
 9898SOL     OW30592   0.484   5.357   6.644
 9898SOL    HW130593   0.420   5.388   6.715
 9898SOL    HW230594   0.451   5.386   6.554
 9899SOL     OW30595   3.717   4.983   0.739
 9899SOL    HW130596   3.712   5.068   0.686
 9899SOL    HW230597   3.747   5.004   0.832
 9900SOL     OW30598   2.916   5.572   3.358
 9900SOL    HW130599   2.990   5.505   3.364
 9900SOL    HW230600   2.954   5.664   3.367
 9901SOL     OW30601   3.051   1.290   6.579
 9901SOL    HW130602   3.022   1.385   6.577
 9901SOL    HW230603   2.974   1.231   6.555
 9902SOL     OW30604   4.157   4.727   6.637
 9902SOL    HW130605   4.153   4.826   6.626
 9902SOL    HW230606   4.162   4.704   6.734
 9903SOL     OW30607   3.032   1.323   0.836
 9903SOL    HW130608   3.005   1.384   0.910
 9903SOL    HW230609   2.973   1.340   0.756
 9904SOL     OW30610   6.224   5.852   1.548
 9904SOL    HW130611   6.287   5.815   1.617
 9904SOL    HW230612   6.228   5.794   1.466
 9905SOL     OW30613   2.153   6.708   6.615
 9905SOL    HW130614   2.152   6.738   6.710
 9905SOL    HW230615   2.168   6.609   6.612
 9906SOL     OW30616   2.859   3.495   6.490
 9906SOL    HW130617   2.948   3.478   6.532
 9906SOL    HW230618   2.827   3.411   6.446
 9907SOL     OW30619   0.923   6.932   3.142
 9907SOL    HW130620   0.923   6.843   3.187
 9907SOL    HW230621   1.000   6.936   3.077
 9908SOL     OW30622   0.104   2.977   6.151
 9908SOL    HW130623   0.095   3.022   6.063
 9908SOL    HW230624   0.160   2.895   6.141
 9909SOL     OW30625   2.090   5.934   2.470
 9909SOL    HW130626   2.117   5.906   2.562
 9909SOL    HW230627   2.159   5.996   2.432
 9910SOL     OW30628   1.025   5.525   0.515
 9910SOL    HW130629   0.969   5.560   0.590
 9910SOL    HW230630   1.006   5.428   0.501
 9911SOL     OW30631   2.895   4.744   1.710
 9911SOL    HW130632   2.880   4.663   1.768
 9911SOL    HW230633   2.858   4.726   1.619
 9912SOL     OW30634   6.196   6.495   0.054
 9912SOL    HW130635   6.145   6.569   0.010
 9912SOL    HW230636   6.133   6.438   0.107
 9913SOL     OW30637   6.251   1.890   1.430
 9913SOL    HW130638   6.244   1.972   1.486
 9913SOL    HW230639   6.181   1.824   1.459
 9914SOL     OW30640   2.064   5.191   3.916
 9914SOL    HW130641   1.969   5.173   3.891
 9914SOL    HW230642   2.113   5.104   3.926
 9915SOL     OW30643   6.073   4.816   4.486
 9915SOL    HW130644   6.067   4.909   4.449
 9915SOL    HW230645   5.985   4.770   4.475
 9916SOL     OW30646   1.602   3.203   1.235
 9916SOL    HW130647   1.536   3.134   1.263
 9916SOL    HW230648   1.580   3.291   1.279
 9917SOL     OW30649   1.951   4.411   4.445
 9917SOL    HW130650   1.858   4.419   4.482
 9917SOL    HW230651   2.013   4.382   4.518
 9918SOL     OW30652   2.695   1.867   3.907
 9918SOL    HW130653   2.775   1.861   3.847
 9918SOL    HW230654   2.633   1.792   3.886
 9919SOL     OW30655   0.691   5.748   1.657
 9919SOL    HW130656   0.650   5.735   1.748
 9919SOL    HW230657   0.635   5.699   1.589
 9920SOL     OW30658   3.445   0.690   2.781
 9920SOL    HW130659   3.400   0.627   2.717
 9920SOL    HW230660   3.539   0.707   2.750
 9921SOL     OW30661   4.573   0.139   2.435
 9921SOL    HW130662   4.536   0.057   2.391
 9921SOL    HW230663   4.643   0.180   2.376
 9922SOL     OW30664   6.360   2.489   2.477
 9922SOL    HW130665   6.343   2.412   2.538
 9922SOL    HW230666   6.322   2.573   2.519
 9923SOL     OW30667   5.775   6.824   6.098
 9923SOL    HW130668   5.696   6.863   6.145
 9923SOL    HW230669   5.789   6.730   6.128
 9924SOL     OW30670   5.799   6.714   3.857
 9924SOL    HW130671   5.777   6.679   3.766
 9924SOL    HW230672   5.856   6.647   3.906
 9925SOL     OW30673   4.016   2.207   5.158
 9925SOL    HW130674   4.061   2.293   5.135
 9925SOL    HW230675   4.005   2.201   5.257
 9926SOL     OW30676   1.714   1.151   6.255
 9926SOL    HW130677   1.742   1.057   6.236
 9926SOL    HW230678   1.756   1.213   6.189
 9927SOL     OW30679   2.260   4.245   4.250
 9927SOL    HW130680   2.247   4.164   4.308
 9927SOL    HW230681   2.348   4.287   4.273
 9928SOL     OW30682   6.534   3.459   3.057
 9928SOL    HW130683   6.542   3.438   3.155
 9928SOL    HW230684   6.448   3.423   3.022
 9929SOL     OW30685   1.402   5.084   5.157
 9929SOL    HW130686   1.405   5.130   5.068
 9929SOL    HW230687   1.491   5.094   5.202
 9930SOL     OW30688   6.986   6.436   7.004
 9930SOL    HW130689   6.993   6.363   6.936
 9930SOL    HW230690   6.906   6.419   0.043
 9931SOL     OW30691   1.277   3.800   6.876
 9931SOL    HW130692   1.214   3.814   6.801
 9931SOL    HW230693   1.307   3.704   6.877
 9932SOL     OW30694   1.854   1.587   0.903
 9932SOL    HW130695   1.873   1.588   1.001
 9932SOL    HW230696   1.758   1.563   0.889
 9933SOL     OW30697   1.869   1.760   3.293
 9933SOL    HW130698   1.897   1.812   3.211
 9933SOL    HW230699   1.868   1.663   3.271
 9934SOL     OW30700   4.597   0.716   5.576
 9934SOL    HW130701   4.574   0.643   5.511
 9934SOL    HW230702   4.684   0.695   5.620
 9935SOL     OW30703   3.506   2.551   0.040
 9935SOL    HW130704   3.495   2.535   6.962
 9935SOL    HW230705   3.603   2.548   0.063
 9936SOL     OW30706   4.463   6.157   0.637
 9936SOL    HW130707   4.522   6.223   0.682
 9936SOL    HW230708   4.518   6.096   0.580
 9937SOL     OW30709   1.085   6.763   5.581
 9937SOL    HW130710   1.027   6.693   5.623
 9937SOL    HW230711   1.129   6.816   5.652
 9938SOL     OW30712   1.424   2.017   3.406
 9938SOL    HW130713   1.505   1.964   3.430
 9938SOL    HW230714   1.417   2.024   3.306
 9939SOL     OW30715   3.139   3.631   0.690
 9939SOL    HW130716   3.069   3.675   0.745
 9939SOL    HW230717   3.133   3.532   0.701
 9940SOL     OW30718   6.231   1.338   3.116
 9940SOL    HW130719   6.279   1.273   3.058
 9940SOL    HW230720   6.296   1.378   3.181
 9941SOL     OW30721   5.925   3.012   0.533
 9941SOL    HW130722   5.911   2.920   0.497
 9941SOL    HW230723   5.968   3.007   0.623
 9942SOL     OW30724   5.277   4.387   2.882
 9942SOL    HW130725   5.277   4.465   2.944
 9942SOL    HW230726   5.247   4.305   2.932
 9943SOL     OW30727   1.719   4.822   5.304
 9943SOL    HW130728   1.666   4.762   5.364
 9943SOL    HW230729   1.812   4.786   5.294
 9944SOL     OW30730   2.223   5.402   6.386
 9944SOL    HW130731   2.235   5.312   6.429
 9944SOL    HW230732   2.305   5.457   6.399
 9945SOL     OW30733   6.141   3.548   5.322
 9945SOL    HW130734   6.081   3.489   5.377
 9945SOL    HW230735   6.112   3.643   5.331
 9946SOL     OW30736   5.717   1.874   1.024
 9946SOL    HW130737   5.739   1.782   1.056
 9946SOL    HW230738   5.619   1.880   1.004
 9947SOL     OW30739   0.065   0.380   3.555
 9947SOL    HW130740   0.082   0.405   3.460
 9947SOL    HW230741   0.152   0.371   3.604
 9948SOL     OW30742   4.958   1.306   5.392
 9948SOL    HW130743   4.861   1.318   5.371
 9948SOL    HW230744   4.976   1.209   5.411
 9949SOL     OW30745   6.806   3.014   2.566
 9949SOL    HW130746   6.886   2.992   2.510
 9949SOL    HW230747   6.831   3.083   2.633
 9950SOL     OW30748   5.084   4.507   6.448
 9950SOL    HW130749   5.053   4.554   6.531
 9950SOL    HW230750   5.071   4.408   6.460
 9951SOL     OW30751   0.042   2.352   2.378
 9951SOL    HW130752   0.025   2.346   2.279
 9951SOL    HW230753   6.994   2.412   2.420
 9952SOL     OW30754   1.574   4.447   1.286
 9952SOL    HW130755   1.502   4.393   1.329
 9952SOL    HW230756   1.599   4.523   1.345
 9953SOL     OW30757   6.094   3.844   5.329
 9953SOL    HW130758   6.016   3.883   5.377
 9953SOL    HW230759   6.174   3.845   5.388
 9954SOL     OW30760   4.416   2.574   1.641
 9954SOL    HW130761   4.409   2.511   1.563
 9954SOL    HW230762   4.510   2.604   1.652
 9955SOL     OW30763   5.953   4.853   2.338
 9955SOL    HW130764   5.920   4.758   2.340
 9955SOL    HW230765   5.890   4.908   2.283
 9956SOL     OW30766   1.687   4.642   3.469
 9956SOL    HW130767   1.604   4.683   3.507
 9956SOL    HW230768   1.679   4.639   3.369
 9957SOL     OW30769   5.455   7.013   0.570
 9957SOL    HW130770   5.380   6.947   0.567
 9957SOL    HW230771   5.510   7.005   0.488
 9958SOL     OW30772   6.196   6.421   5.344
 9958SOL    HW130773   6.214   6.489   5.416
 9958SOL    HW230774   6.122   6.453   5.285
 9959SOL     OW30775   5.856   5.239   7.015
 9959SOL    HW130776   5.762   5.272   7.009
 9959SOL    HW230777   5.903   5.255   6.928
 9960SOL     OW30778   6.050   0.794   6.223
 9960SOL    HW130779   6.105   0.854   6.282
 9960SOL    HW230780   6.060   0.822   6.128
 9961SOL     OW30781   2.790   6.963   0.011
 9961SOL    HW130782   2.811   0.041   0.019
 9961SOL    HW230783   2.794   6.935   6.935
 9962SOL     OW30784   4.358   1.325   1.899
 9962SOL    HW130785   4.427   1.396   1.880
 9962SOL    HW230786   4.372   1.248   1.837
 9963SOL     OW30787   0.683   0.158   6.396
 9963SOL    HW130788   0.642   0.094   6.461
 9963SOL    HW230789   0.732   0.229   6.446
 9964SOL     OW30790   4.629   5.528   5.323
 9964SOL    HW130791   4.549   5.470   5.318
 9964SOL    HW230792   4.658   5.537   5.418
 9965SOL     OW30793   2.159   5.354   5.415
 9965SOL    HW130794   2.181   5.399   5.502
 9965SOL    HW230795   2.207   5.400   5.341
 9966SOL     OW30796   2.027   4.261   2.259
 9966SOL    HW130797   2.027   4.246   2.358
 9966SOL    HW230798   1.991   4.352   2.240
 9967SOL     OW30799   6.557   0.491   2.171
 9967SOL    HW130800   6.585   0.490   2.075
 9967SOL    HW230801   6.457   0.484   2.176
 9968SOL     OW30802   4.359   6.111   6.376
 9968SOL    HW130803   4.383   6.017   6.351
 9968SOL    HW230804   4.361   6.121   6.475
 9969SOL     OW30805   0.697   6.764   2.886
 9969SOL    HW130806   0.721   6.835   2.953
 9969SOL    HW230807   0.729   6.793   2.796
 9970SOL     OW30808   0.765   3.415   1.460
 9970SOL    HW130809   0.814   3.500   1.441
 9970SOL    HW230810   0.676   3.417   1.415
 9971SOL     OW30811   0.410   5.353   5.920
 9971SOL    HW130812   0.509   5.351   5.934
 9971SOL    HW230813   0.380   5.267   5.879
 9972SOL     OW30814   3.065   4.830   5.525
 9972SOL    HW130815   3.061   4.929   5.512
 9972SOL    HW230816   3.015   4.784   5.451
 9973SOL     OW30817   3.525   2.116   2.799
 9973SOL    HW130818   3.441   2.103   2.852
 9973SOL    HW230819   3.504   2.116   2.701
 9974SOL     OW30820   0.397   4.118   3.467
 9974SOL    HW130821   0.353   4.176   3.536
 9974SOL    HW230822   0.328   4.061   3.422
 9975SOL     OW30823   1.687   4.957   0.137
 9975SOL    HW130824   1.588   4.963   0.152
 9975SOL    HW230825   1.709   4.870   0.093
 9976SOL     OW30826   4.378   5.426   4.466
 9976SOL    HW130827   4.334   5.367   4.398
 9976SOL    HW230828   4.308   5.477   4.516
 9977SOL     OW30829   3.494   6.732   5.984
 9977SOL    HW130830   3.466   6.751   6.078
 9977SOL    HW230831   3.525   6.637   5.978
 9978SOL     OW30832   6.939   3.223   6.975
 9978SOL    HW130833   7.014   3.236   0.020
 9978SOL    HW230834   6.857   3.269   7.010
 9979SOL     OW30835   3.150   4.022   3.935
 9979SOL    HW130836   3.206   4.085   3.881
 9979SOL    HW230837   3.172   4.033   4.032
 9980SOL     OW30838   0.572   6.902   6.768
 9980SOL    HW130839   0.661   6.857   6.765
 9980SOL    HW230840   0.514   6.857   6.837
 9981SOL     OW30841   5.501   1.443   1.433
 9981SOL    HW130842   5.557   1.526   1.431
 9981SOL    HW230843   5.421   1.456   1.374
 9982SOL     OW30844   2.761   0.840   5.073
 9982SOL    HW130845   2.781   0.934   5.045
 9982SOL    HW230846   2.678   0.838   5.127
 9983SOL     OW30847   0.625   2.481   1.892
 9983SOL    HW130848   0.624   2.449   1.797
 9983SOL    HW230849   0.668   2.571   1.896
 9984SOL     OW30850   1.690   4.755   1.033
 9984SOL    HW130851   1.590   4.760   1.033
 9984SOL    HW230852   1.725   4.771   0.941
 9985SOL     OW30853   5.568   4.822   6.033
 9985SOL    HW130854   5.611   4.756   6.095
 9985SOL    HW230855   5.525   4.774   5.957
 9986SOL     OW30856   5.783   4.256   0.319
 9986SOL    HW130857   5.882   4.264   0.310
 9986SOL    HW230858   5.738   4.324   0.261
 9987SOL     OW30859   5.061   1.780   0.829
 9987SOL    HW130860   5.014   1.861   0.795
 9987SOL    HW230861   5.154   1.777   0.793
 9988SOL     OW30862   5.288   6.984   4.237
 9988SOL    HW130863   5.303   0.046   4.181
 9988SOL    HW230864   5.251   6.911   4.179
 9989SOL     OW30865   6.665   5.188   1.535
 9989SOL    HW130866   6.705   5.256   1.473
 9989SOL    HW230867   6.719   5.103   1.530
 9990SOL     OW30868   0.409   6.295   2.832
 9990SOL    HW130869   0.491   6.242   2.811
 9990SOL    HW230870   0.434   6.379   2.880
 9991SOL     OW30871   2.221   2.984   2.347
 9991SOL    HW130872   2.134   3.033   2.357
 9991SOL    HW230873   2.261   3.006   2.258
 9992SOL     OW30874   1.749   3.952   0.242
 9992SOL    HW130875   1.721   3.980   0.151
 9992SOL    HW230876   1.710   4.014   0.310
 9993SOL     OW30877   3.880   0.316   4.225
 9993SOL    HW130878   3.944   0.241   4.237
 9993SOL    HW230879   3.904   0.391   4.287
 9994SOL     OW30880   6.039   4.997   5.479
 9994SOL    HW130881   6.137   5.010   5.465
 9994SOL    HW230882   6.004   4.931   5.412
 9995SOL     OW30883   4.039   1.763   5.918
 9995SOL    HW130884   3.970   1.693   5.901
 9995SOL    HW230885   4.093   1.738   5.998
 9996SOL     OW30886   2.804   4.629   1.471
 9996SOL    HW130887   2.704   4.621   1.462
 9996SOL    HW230888   2.843   4.649   1.381
 9997SOL     OW30889   5.561   0.163   3.190
 9997SOL    HW130890   5.597   0.227   3.258
 9997SOL    HW230891   5.624   0.086   3.179
 9998SOL     OW30892   5.648   3.553   2.531
 9998SOL    HW130893   5.672   3.494   2.454
 9998SOL    HW230894   5.558   3.529   2.566
 9999SOL     OW30895   0.836   0.252   4.397
 9999SOL    HW130896   0.821   0.161   4.436
 9999SOL    HW230897   0.830   0.320   4.470
10000SOL     OW30898   4.524   3.483   1.616
10000SOL    HW130899   4.497   3.386   1.620
10000SOL    HW230900   4.464   3.531   1.552
10001SOL     OW30901   3.922   6.033   1.478
10001SOL    HW130902   3.997   6.023   1.543
10001SOL    HW230903   3.885   5.944   1.455
10002SOL     OW30904   2.531   6.987   2.745
10002SOL    HW130905   2.487   0.013   2.822
10002SOL    HW230906   2.467   6.924   2.702
10003SOL     OW30907   0.971   1.277   2.960
10003SOL    HW130908   0.959   1.320   3.049
10003SOL    HW230909   0.897   1.305   2.899
10004SOL     OW30910   0.164   2.636   3.048
10004SOL    HW130911   0.115   2.608   2.964
10004SOL    HW230912   0.260   2.651   3.027
10005SOL     OW30913   1.892   6.071   2.314
10005SOL    HW130914   1.956   6.005   2.353
10005SOL    HW230915   1.933   6.162   2.315
10006SOL     OW30916   5.362   1.896   6.705
10006SOL    HW130917   5.302   1.837   6.760
10006SOL    HW230918   5.320   1.986   6.696
10007SOL     OW30919   1.922   5.300   3.170
10007SOL    HW130920   1.858   5.317   3.245
10007SOL    HW230921   1.912   5.372   3.101
10008SOL     OW30922   3.172   0.510   6.109
10008SOL    HW130923   3.114   0.586   6.136
10008SOL    HW230924   3.118   0.443   6.059
10009SOL     OW30925   1.090   5.458   1.689
10009SOL    HW130926   1.060   5.544   1.730
10009SOL    HW230927   1.023   5.427   1.622
10010SOL     OW30928   2.191   5.180   0.534
10010SOL    HW130929   2.152   5.093   0.566
10010SOL    HW230930   2.262   5.210   0.596
10011SOL     OW30931   3.076   3.294   0.103
10011SOL    HW130932   3.139   3.243   0.161
10011SOL    HW230933   3.127   3.339   0.030
10012SOL     OW30934   5.553   2.214   3.124
10012SOL    HW130935   5.486   2.185   3.056
10012SOL    HW230936   5.577   2.137   3.183
10013SOL     OW30937   0.301   5.776   5.748
10013SOL    HW130938   0.385   5.761   5.695
10013SOL    HW230939   0.272   5.690   5.790
10014SOL     OW30940   1.343   1.576   2.900
10014SOL    HW130941   1.387   1.579   2.810
10014SOL    HW230942   1.244   1.567   2.889
10015SOL     OW30943   3.999   0.737   0.342
10015SOL    HW130944   3.962   0.803   0.277
10015SOL    HW230945   4.094   0.717   0.319
10016SOL     OW30946   2.531   1.511   5.312
10016SOL    HW130947   2.520   1.440   5.243
10016SOL    HW230948   2.583   1.474   5.389
10017SOL     OW30949   3.161   1.936   3.128
10017SOL    HW130950   3.172   1.843   3.162
10017SOL    HW230951   3.092   1.984   3.183
10018SOL     OW30952   0.143   4.416   5.590
10018SOL    HW130953   0.150   4.317   5.588
10018SOL    HW230954   0.080   4.444   5.662
10019SOL     OW30955   0.561   2.035   2.839
10019SOL    HW130956   0.657   2.054   2.854
10019SOL    HW230957   0.546   2.017   2.741
10020SOL     OW30958   6.640   1.084   3.083
10020SOL    HW130959   6.726   1.073   3.032
10020SOL    HW230960   6.592   1.165   3.050
10021SOL     OW30961   2.125   4.404   1.893
10021SOL    HW130962   2.086   4.311   1.898
10021SOL    HW230963   2.202   4.411   1.955
10022SOL     OW30964   0.801   6.474   6.018
10022SOL    HW130965   0.817   6.572   6.003
10022SOL    HW230966   0.704   6.459   6.038
10023SOL     OW30967   1.433   1.545   4.510
10023SOL    HW130968   1.484   1.587   4.585
10023SOL    HW230969   1.496   1.502   4.447
10024SOL     OW30970   2.075   3.441   3.033
10024SOL    HW130971   2.111   3.514   3.091
10024SOL    HW230972   2.125   3.357   3.050
10025SOL     OW30973   0.258   2.254   1.316
10025SOL    HW130974   0.320   2.219   1.387
10025SOL    HW230975   0.225   2.344   1.343
10026SOL     OW30976   6.282   1.764   4.799
10026SOL    HW130977   6.275   1.700   4.723
10026SOL    HW230978   6.287   1.857   4.764
10027SOL     OW30979   3.374   1.396   5.683
10027SOL    HW130980   3.452   1.428   5.629
10027SOL    HW230981   3.300   1.463   5.678
10028SOL     OW30982   4.267   6.289   1.684
10028SOL    HW130983   4.246   6.320   1.776
10028SOL    HW230984   4.359   6.250   1.682
10029SOL     OW30985   0.070   4.811   3.751
10029SOL    HW130986   0.110   4.849   3.667
10029SOL    HW230987   0.130   4.832   3.828
10030SOL     OW30988   2.700   6.693   4.057
10030SOL    HW130989   2.700   6.650   3.967
10030SOL    HW230990   2.717   6.624   4.127
10031SOL     OW30991   2.009   6.575   3.678
10031SOL    HW130992   1.974   6.522   3.601
10031SOL    HW230993   1.970   6.667   3.676
10032SOL     OW30994   2.334   5.548   4.947
10032SOL    HW130995   2.273   5.554   4.868
10032SOL    HW230996   2.423   5.586   4.923
10033SOL     OW30997   1.986   1.412   4.531
10033SOL    HW130998   2.007   1.383   4.625
10033SOL    HW230999   1.959   1.332   4.478
10034SOL     OW31000   2.300   0.765   1.740
10034SOL    HW131001   2.261   0.857   1.734
10034SOL    HW231002   2.275   0.714   1.657
10035SOL     OW31003   0.435   2.806   2.047
10035SOL    HW131004   0.497   2.873   2.088
10035SOL    HW231005   0.366   2.778   2.114
10036SOL     OW31006   0.526   1.375   0.368
10036SOL    HW131007   0.625   1.364   0.360
10036SOL    HW231008   0.506   1.464   0.410
10037SOL     OW31009   6.269   0.993   6.300
10037SOL    HW131010   6.284   1.042   6.214
10037SOL    HW231011   6.352   0.943   6.325
10038SOL     OW31012   4.588   0.462   6.785
10038SOL    HW131013   4.664   0.471   6.850
10038SOL    HW231014   4.512   0.414   6.829
10039SOL     OW31015   6.915   4.654   1.179
10039SOL    HW131016   6.991   4.714   1.202
10039SOL    HW231017   6.856   4.642   1.259
10040SOL     OW31018   3.009   0.365   0.573
10040SOL    HW131019   3.052   0.288   0.620
10040SOL    HW231020   3.065   0.447   0.584
10041SOL     OW31021   5.986   4.645   5.727
10041SOL    HW131022   5.890   4.652   5.703
10041SOL    HW231023   6.017   4.550   5.713
10042SOL     OW31024   6.060   0.393   5.107
10042SOL    HW131025   5.961   0.391   5.095
10042SOL    HW231026   6.104   0.369   5.020
10043SOL     OW31027   0.465   0.372   3.269
10043SOL    HW131028   0.411   0.288   3.255
10043SOL    HW231029   0.501   0.373   3.362
10044SOL     OW31030   3.029   2.140   6.830
10044SOL    HW131031   2.970   2.123   6.752
10044SOL    HW231032   3.121   2.107   6.810
10045SOL     OW31033   4.075   0.031   4.726
10045SOL    HW131034   3.986   0.034   4.771
10045SOL    HW231035   4.140   0.086   4.778
10046SOL     OW31036   6.473   1.712   0.537
10046SOL    HW131037   6.394   1.771   0.521
10046SOL    HW231038   6.471   1.679   0.632
10047SOL     OW31039   0.946   2.573   3.202
10047SOL    HW131040   0.932   2.564   3.104
10047SOL    HW231041   1.044   2.572   3.222
10048SOL     OW31042   3.143   2.382   1.739
10048SOL    HW131043   3.059   2.414   1.784
10048SOL    HW231044   3.182   2.306   1.792
10049SOL     OW31045   1.035   5.186   4.991
10049SOL    HW131046   1.083   5.117   4.937
10049SOL    HW231047   0.937   5.183   4.970
10050SOL     OW31048   5.717   1.501   5.147
10050SOL    HW131049   5.732   1.568   5.074
10050SOL    HW231050   5.800   1.494   5.202
10051SOL     OW31051   5.754   1.548   0.609
10051SOL    HW131052   5.832   1.589   0.561
10051SOL    HW231053   5.691   1.509   0.541
10052SOL     OW31054   1.959   5.595   0.740
10052SOL    HW131055   1.927   5.508   0.706
10052SOL    HW231056   2.058   5.590   0.756
10053SOL     OW31057   2.969   6.469   3.336
10053SOL    HW131058   2.980   6.551   3.391
10053SOL    HW231059   2.987   6.388   3.392
10054SOL     OW31060   5.122   4.622   3.888
10054SOL    HW131061   5.173   4.674   3.957
10054SOL    HW231062   5.139   4.525   3.901
10055SOL     OW31063   5.018   2.418   6.955
10055SOL    HW131064   5.032   2.506   7.000
10055SOL    HW231065   4.929   2.418   6.908
10056SOL     OW31066   4.739   4.152   2.717
10056SOL    HW131067   4.677   4.080   2.747
10056SOL    HW231068   4.734   4.161   2.618
10057SOL     OW31069   2.106   2.576   2.849
10057SOL    HW131070   2.052   2.504   2.806
10057SOL    HW231071   2.186   2.535   2.894
10058SOL     OW31072   1.078   5.014   3.751
10058SOL    HW131073   0.981   5.002   3.774
10058SOL    HW231074   1.131   5.021   3.835
10059SOL     OW31075   4.575   5.923   1.527
10059SOL    HW131076   4.663   5.939   1.571
10059SOL    HW231077   4.506   5.904   1.597
10060SOL     OW31078   2.363   2.311   2.583
10060SOL    HW131079   2.420   2.392   2.589
10060SOL    HW231080   2.380   2.265   2.495
10061SOL     OW31081   0.128   1.868   5.645
10061SOL    HW131082   0.160   1.774   5.641
10061SOL    HW231083   0.116   1.903   5.552
10062SOL     OW31084   5.767   5.996   2.848
10062SOL    HW131085   5.824   6.013   2.767
10062SOL    HW231086   5.799   5.912   2.893
10063SOL     OW31087   0.951   2.859   2.672
10063SOL    HW131088   0.998   2.774   2.696
10063SOL    HW231089   0.881   2.840   2.603
10064SOL     OW31090   5.081   4.743   5.405
10064SOL    HW131091   5.073   4.836   5.370
10064SOL    HW231092   5.148   4.742   5.480
10065SOL     OW31093   0.440   0.350   2.801
10065SOL    HW131094   0.418   0.313   2.711
10065SOL    HW231095   0.536   0.378   2.803
10066SOL     OW31096   6.273   0.504   4.172
10066SOL    HW131097   6.311   0.423   4.127
10066SOL    HW231098   6.240   0.568   4.104
10067SOL     OW31099   4.882   6.414   3.005
10067SOL    HW131100   4.952   6.464   3.057
10067SOL    HW231101   4.797   6.465   3.004
10068SOL     OW31102   5.299   3.480   5.424
10068SOL    HW131103   5.290   3.574   5.391
10068SOL    HW231104   5.240   3.420   5.371
10069SOL     OW31105   4.845   1.186   4.266
10069SOL    HW131106   4.936   1.224   4.250
10069SOL    HW231107   4.802   1.235   4.342
10070SOL     OW31108   0.853   6.895   4.207
10070SOL    HW131109   0.920   6.875   4.278
10070SOL    HW231110   0.869   6.987   4.171
10071SOL     OW31111   4.753   4.713   5.101
10071SOL    HW131112   4.656   4.720   5.124
10071SOL    HW231113   4.803   4.673   5.178
10072SOL     OW31114   0.296   6.216   4.292
10072SOL    HW131115   0.273   6.313   4.286
10072SOL    HW231116   0.218   6.165   4.330
10073SOL     OW31117   0.081   7.001   6.652
10073SOL    HW131118   0.120   0.019   6.568
10073SOL    HW231119   0.154   6.976   6.715
10074SOL     OW31120   1.952   6.264   4.711
10074SOL    HW131121   1.969   6.326   4.635
10074SOL    HW231122   1.976   6.309   4.797
10075SOL     OW31123   1.287   2.481   4.316
10075SOL    HW131124   1.322   2.570   4.347
10075SOL    HW231125   1.353   2.439   4.254
10076SOL     OW31126   5.341   0.019   3.560
10076SOL    HW131127   5.342   0.030   3.659
10076SOL    HW231128   5.408   0.081   3.519
10077SOL     OW31129   2.594   0.978   5.601
10077SOL    HW131130   2.642   1.026   5.527
10077SOL    HW231131   2.496   0.994   5.593
10078SOL     OW31132   5.650   6.249   5.156
10078SOL    HW131133   5.642   6.318   5.228
10078SOL    HW231134   5.702   6.287   5.079
10079SOL     OW31135   0.879   3.267   5.956
10079SOL    HW131136   0.883   3.352   6.008
10079SOL    HW231137   0.928   3.195   6.005
10080SOL     OW31138   1.320   2.613   5.521
10080SOL    HW131139   1.392   2.548   5.545
10080SOL    HW231140   1.241   2.563   5.483
10081SOL     OW31141   0.419   0.817   0.773
10081SOL    HW131142   0.446   0.849   0.682
10081SOL    HW231143   0.324   0.844   0.791
10082SOL     OW31144   6.724   0.925   0.366
10082SOL    HW131145   6.757   1.010   0.324
10082SOL    HW231146   6.624   0.926   0.367
10083SOL     OW31147   5.725   1.362   4.578
10083SOL    HW131148   5.678   1.275   4.583
10083SOL    HW231149   5.810   1.351   4.527
10084SOL     OW31150   2.768   0.778   6.795
10084SOL    HW131151   2.776   0.727   6.880
10084SOL    HW231152   2.856   0.780   6.748
10085SOL     OW31153   1.026   5.594   2.640
10085SOL    HW131154   1.039   5.631   2.548
10085SOL    HW231155   1.106   5.617   2.696
10086SOL     OW31156   0.022   2.384   2.754
10086SOL    HW131157   0.115   2.397   2.720
10086SOL    HW231158   7.006   2.472   2.786
10087SOL     OW31159   1.705   0.010   3.260
10087SOL    HW131160   1.670   6.942   3.225
10087SOL    HW231161   1.693   0.081   3.191
10088SOL     OW31162   5.682   0.400   4.462
10088SOL    HW131163   5.632   0.486   4.467
10088SOL    HW231164   5.776   0.418   4.433
10089SOL     OW31165   2.354   2.561   2.360
10089SOL    HW131166   2.416   2.566   2.439
10089SOL    HW231167   2.287   2.489   2.376
10090SOL     OW31168   0.513   5.614   2.247
10090SOL    HW131169   0.431   5.610   2.190
10090SOL    HW231170   0.508   5.543   2.317
10091SOL     OW31171   0.727   1.373   4.326
10091SOL    HW131172   0.757   1.314   4.401
10091SOL    HW231173   0.628   1.384   4.329
10092SOL     OW31174   2.438   2.455   5.712
10092SOL    HW131175   2.339   2.467   5.719
10092SOL    HW231176   2.460   2.359   5.695
10093SOL     OW31177   6.765   6.832   5.721
10093SOL    HW131178   6.742   6.824   5.818
10093SOL    HW231179   6.766   6.929   5.694
10094SOL     OW31180   1.382   0.783   1.435
10094SOL    HW131181   1.340   0.808   1.348
10094SOL    HW231182   1.481   0.774   1.423
10095SOL     OW31183   0.599   2.662   5.040
10095SOL    HW131184   0.601   2.755   5.077
10095SOL    HW231185   0.654   2.658   4.957
10096SOL     OW31186   6.575   5.686   2.728
10096SOL    HW131187   6.581   5.784   2.713
10096SOL    HW231188   6.527   5.643   2.652
10097SOL     OW31189   1.271   2.350   5.962
10097SOL    HW131190   1.213   2.392   6.032
10097SOL    HW231191   1.244   2.384   5.872
10098SOL     OW31192   3.687   5.246   6.161
10098SOL    HW131193   3.595   5.276   6.186
10098SOL    HW231194   3.689   5.146   6.154
10099SOL     OW31195   1.107   3.790   4.208
10099SOL    HW131196   1.034   3.823   4.148
10099SOL    HW231197   1.177   3.745   4.153
10100SOL     OW31198   4.597   0.187   5.861
10100SOL    HW131199   4.501   0.180   5.833
10100SOL    HW231200   4.605   0.252   5.936
10101SOL     OW31201   6.824   4.032   2.515
10101SOL    HW131202   6.835   3.933   2.519
10101SOL    HW231203   6.836   4.063   2.421
10102SOL     OW31204   4.444   0.571   4.338
10102SOL    HW131205   4.367   0.577   4.275
10102SOL    HW231206   4.466   0.475   4.356
10103SOL     OW31207   0.126   2.870   0.732
10103SOL    HW131208   0.155   2.819   0.813
10103SOL    HW231209   0.147   2.817   0.650
10104SOL     OW31210   2.062   5.280   5.827
10104SOL    HW131211   2.054   5.366   5.778
10104SOL    HW231212   2.105   5.296   5.916
10105SOL     OW31213   3.810   0.394   0.092
10105SOL    HW131214   3.776   0.300   0.090
10105SOL    HW231215   3.800   0.431   0.184
10106SOL     OW31216   4.741   5.591   0.999
10106SOL    HW131217   4.673   5.587   0.926
10106SOL    HW231218   4.822   5.540   0.972
10107SOL     OW31219   5.635   1.646   6.210
10107SOL    HW131220   5.544   1.688   6.217
10107SOL    HW231221   5.681   1.678   6.127
10108SOL     OW31222   5.046   5.849   6.098
10108SOL    HW131223   5.107   5.864   6.176
10108SOL    HW231224   5.067   5.915   6.026
10109SOL     OW31225   5.200   6.157   3.876
10109SOL    HW131226   5.204   6.078   3.937
10109SOL    HW231227   5.148   6.133   3.794
10110SOL     OW31228   3.531   2.220   5.930
10110SOL    HW131229   3.521   2.247   5.835
10110SOL    HW231230   3.534   2.120   5.936
10111SOL     OW31231   0.088   2.551   1.637
10111SOL    HW131232   7.015   2.518   1.655
10111SOL    HW231233   0.088   2.651   1.637
10112SOL     OW31234   4.966   3.976   5.619
10112SOL    HW131235   4.945   3.900   5.558
10112SOL    HW231236   4.922   3.960   5.708
10113SOL     OW31237   3.219   6.886   1.003
10113SOL    HW131238   3.169   6.813   0.956
10113SOL    HW231239   3.156   6.937   1.061
10114SOL     OW31240   4.603   1.823   1.586
10114SOL    HW131241   4.684   1.880   1.574
10114SOL    HW231242   4.632   1.728   1.598
10115SOL     OW31243   1.179   1.741   4.768
10115SOL    HW131244   1.098   1.799   4.765
10115SOL    HW231245   1.261   1.796   4.752
10116SOL     OW31246   0.293   0.582   0.893
10116SOL    HW131247   0.319   0.645   0.819
10116SOL    HW231248   0.301   0.488   0.861
10117SOL     OW31249   4.179   6.907   6.094
10117SOL    HW131250   4.113   6.831   6.097
10117SOL    HW231251   4.217   6.922   6.185
10118SOL     OW31252   5.359   5.275   2.735
10118SOL    HW131253   5.414   5.198   2.766
10118SOL    HW231254   5.411   5.360   2.746
10119SOL     OW31255   1.975   0.047   6.184
10119SOL    HW131256   1.964   0.044   6.283
10119SOL    HW231257   1.985   0.142   6.154
10120SOL     OW31258   5.940   3.265   3.861
10120SOL    HW131259   5.948   3.174   3.820
10120SOL    HW231260   5.886   3.259   3.945
10121SOL     OW31261   5.997   4.486   4.180
10121SOL    HW131262   6.049   4.499   4.096
10121SOL    HW231263   5.900   4.492   4.161
10122SOL     OW31264   5.288   2.342   1.006
10122SOL    HW131265   5.372   2.346   1.060
10122SOL    HW231266   5.210   2.359   1.066
10123SOL     OW31267   0.555   6.379   0.703
10123SOL    HW131268   0.474   6.436   0.688
10123SOL    HW231269   0.527   6.288   0.734
10124SOL     OW31270   3.345   4.166   0.461
10124SOL    HW131271   3.279   4.092   0.453
10124SOL    HW231272   3.297   4.254   0.459
10125SOL     OW31273   2.645   0.872   0.043
10125SOL    HW131274   2.707   0.898   6.989
10125SOL    HW231275   2.675   0.914   0.129
10126SOL     OW31276   5.570   5.098   6.038
10126SOL    HW131277   5.482   5.112   5.994
10126SOL    HW231278   5.592   5.000   6.040
10127SOL     OW31279   3.991   4.805   5.103
10127SOL    HW131280   4.058   4.773   5.169
10127SOL    HW231281   3.900   4.803   5.144
10128SOL     OW31282   1.238   1.211   0.869
10128SOL    HW131283   1.209   1.241   0.960
10128SOL    HW231284   1.316   1.149   0.876
10129SOL     OW31285   5.457   2.728   2.844
10129SOL    HW131286   5.413   2.814   2.820
10129SOL    HW231287   5.403   2.652   2.808
10130SOL     OW31288   6.121   5.527   0.811
10130SOL    HW131289   6.141   5.530   0.714
10130SOL    HW231290   6.051   5.595   0.833
10131SOL     OW31291   0.685   0.279   0.059
10131SOL    HW131292   0.633   0.264   0.143
10131SOL    HW231293   0.682   0.377   0.036
10132SOL     OW31294   2.733   6.663   2.815
10132SOL    HW131295   2.757   6.747   2.766
10132SOL    HW231296   2.634   6.649   2.812
10133SOL     OW31297   6.078   4.551   2.484
10133SOL    HW131298   6.107   4.647   2.479
10133SOL    HW231299   6.153   4.495   2.518
10134SOL     OW31300   0.543   1.652   1.710
10134SOL    HW131301   0.593   1.573   1.746
10134SOL    HW231302   0.502   1.629   1.622
10135SOL     OW31303   3.025   6.334   2.345
10135SOL    HW131304   3.029   6.281   2.430
10135SOL    HW231305   3.033   6.272   2.267
10136SOL     OW31306   6.086   6.574   2.763
10136SOL    HW131307   6.012   6.638   2.783
10136SOL    HW231308   6.065   6.484   2.802
10137SOL     OW31309   5.725   4.432   4.154
10137SOL    HW131310   5.703   4.378   4.073
10137SOL    HW231311   5.649   4.492   4.176
10138SOL     OW31312   5.562   3.165   6.077
10138SOL    HW131313   5.647   3.118   6.100
10138SOL    HW231314   5.484   3.106   6.098
10139SOL     OW31315   4.015   3.288   3.187
10139SOL    HW131316   4.067   3.308   3.270
10139SOL    HW231317   3.949   3.216   3.206
10140SOL     OW31318   1.010   4.745   4.223
10140SOL    HW131319   1.073   4.703   4.157
10140SOL    HW231320   0.931   4.685   4.237
10141SOL     OW31321   1.813   0.464   3.480
10141SOL    HW131322   1.764   0.521   3.414
10141SOL    HW231323   1.905   0.444   3.445
10142SOL     OW31324   5.436   5.571   4.352
10142SOL    HW131325   5.528   5.583   4.387
10142SOL    HW231326   5.373   5.632   4.400
10143SOL     OW31327   4.415   6.434   1.266
10143SOL    HW131328   4.452   6.418   1.175
10143SOL    HW231329   4.388   6.346   1.306
10144SOL     OW31330   3.196   5.082   2.690
10144SOL    HW131331   3.179   5.096   2.592
10144SOL    HW231332   3.211   5.170   2.734
10145SOL     OW31333   2.402   0.113   6.164
10145SOL    HW131334   2.340   0.040   6.192
10145SOL    HW231335   2.451   0.084   6.081
10146SOL     OW31336   4.602   4.395   3.677
10146SOL    HW131337   4.620   4.406   3.775
10146SOL    HW231338   4.509   4.424   3.657
10147SOL     OW31339   5.213   5.232   4.745
10147SOL    HW131340   5.113   5.230   4.735
10147SOL    HW231341   5.238   5.306   4.807
10148SOL     OW31342   5.873   5.661   0.885
10148SOL    HW131343   5.816   5.648   0.804
10148SOL    HW231344   5.869   5.757   0.914
10149SOL     OW31345   3.816   2.653   1.324
10149SOL    HW131346   3.765   2.738   1.312
10149SOL    HW231347   3.875   2.661   1.404
10150SOL     OW31348   5.360   4.267   1.024
10150SOL    HW131349   5.306   4.335   1.074
10150SOL    HW231350   5.331   4.175   1.051
10151SOL     OW31351   0.352   4.954   6.102
10151SOL    HW131352   0.431   4.923   6.155
10151SOL    HW231353   0.288   5.001   6.163
10152SOL     OW31354   0.383   5.854   4.113
10152SOL    HW131355   0.439   5.880   4.035
10152SOL    HW231356   0.415   5.903   4.195
10153SOL     OW31357   5.628   5.503   3.878
10153SOL    HW131358   5.630   5.407   3.850
10153SOL    HW231359   5.590   5.559   3.804
10154SOL     OW31360   6.371   5.764   5.359
10154SOL    HW131361   6.436   5.827   5.402
10154SOL    HW231362   6.296   5.744   5.422
10155SOL     OW31363   3.995   1.367   5.834
10155SOL    HW131364   3.915   1.316   5.804
10155SOL    HW231365   3.967   1.457   5.868
10156SOL     OW31366   5.777   0.121   2.129
10156SOL    HW131367   5.772   0.021   2.126
10156SOL    HW231368   5.748   0.152   2.220
10157SOL     OW31369   4.901   0.349   3.417
10157SOL    HW131370   4.995   0.313   3.414
10157SOL    HW231371   4.838   0.279   3.383
10158SOL     OW31372   4.808   3.189   5.582
10158SOL    HW131373   4.733   3.129   5.609
10158SOL    HW231374   4.884   3.134   5.548
10159SOL     OW31375   0.946   0.716   6.628
10159SOL    HW131376   0.849   0.739   6.639
10159SOL    HW231377   0.967   0.634   6.680
10160SOL     OW31378   0.212   7.014   3.778
10160SOL    HW131379   0.132   6.974   3.824
10160SOL    HW231380   0.280   0.019   3.847
10161SOL     OW31381   2.722   5.543   5.037
10161SOL    HW131382   2.773   5.460   5.015
10161SOL    HW231383   2.716   5.553   5.136
10162SOL     OW31384   2.494   2.189   5.709
10162SOL    HW131385   2.472   2.098   5.673
10162SOL    HW231386   2.591   2.193   5.731
10163SOL     OW31387   0.586   3.687   5.145
10163SOL    HW131388   0.663   3.739   5.182
10163SOL    HW231389   0.560   3.724   5.056
10164SOL     OW31390   1.891   2.640   6.461
10164SOL    HW131391   1.944   2.654   6.545
10164SOL    HW231392   1.794   2.657   6.480
10165SOL     OW31393   0.249   2.159   3.387
10165SOL    HW131394   0.290   2.175   3.477
10165SOL    HW231395   0.227   2.246   3.344
10166SOL     OW31396   0.538   1.050   2.373
10166SOL    HW131397   0.607   1.120   2.358
10166SOL    HW231398   0.458   1.091   2.418
10167SOL     OW31399   4.944   0.487   0.398
10167SOL    HW131400   4.884   0.415   0.362
10167SOL    HW231401   5.034   0.480   0.356
10168SOL     OW31402   6.767   4.314   5.512
10168SOL    HW131403   6.789   4.221   5.483
10168SOL    HW231404   6.708   4.357   5.444
10169SOL     OW31405   6.681   4.310   4.778
10169SOL    HW131406   6.778   4.329   4.790
10169SOL    HW231407   6.647   4.259   4.857
10170SOL     OW31408   1.645   4.278   4.915
10170SOL    HW131409   1.663   4.336   4.994
10170SOL    HW231410   1.603   4.333   4.842
10171SOL     OW31411   6.426   2.853   6.059
10171SOL    HW131412   6.376   2.767   6.050
10171SOL    HW231413   6.484   2.865   5.978
10172SOL     OW31414   5.091   0.416   4.871
10172SOL    HW131415   5.108   0.375   4.961
10172SOL    HW231416   5.083   0.343   4.803
10173SOL     OW31417   1.890   2.451   2.584
10173SOL    HW131418   1.887   2.391   2.664
10173SOL    HW231419   1.976   2.438   2.535
10174SOL     OW31420   6.382   5.025   1.182
10174SOL    HW131421   6.411   4.963   1.254
10174SOL    HW231422   6.375   4.975   1.096
10175SOL     OW31423   5.690   2.482   5.420
10175SOL    HW131424   5.614   2.421   5.441
10175SOL    HW231425   5.721   2.466   5.326
10176SOL     OW31426   3.162   3.067   0.583
10176SOL    HW131427   3.099   3.012   0.639
10176SOL    HW231428   3.204   3.009   0.513
10177SOL     OW31429   0.692   6.974   5.443
10177SOL    HW131430   0.635   6.966   5.525
10177SOL    HW231431   0.757   6.898   5.441
10178SOL     OW31432   5.244   3.168   5.112
10178SOL    HW131433   5.313   3.105   5.077
10178SOL    HW231434   5.253   3.257   5.067
10179SOL     OW31435   6.908   3.525   0.541
10179SOL    HW131436   6.848   3.509   0.463
10179SOL    HW231437   6.891   3.457   0.611
10180SOL     OW31438   1.767   6.593   6.692
10180SOL    HW131439   1.840   6.526   6.686
10180SOL    HW231440   1.767   6.635   6.783
10181SOL     OW31441   5.726   3.215   2.219
10181SOL    HW131442   5.792   3.148   2.184
10181SOL    HW231443   5.639   3.169   2.239
10182SOL     OW31444   3.922   1.302   1.199
10182SOL    HW131445   3.970   1.389   1.209
10182SOL    HW231446   3.944   1.243   1.276
10183SOL     OW31447   1.745   1.426   6.129
10183SOL    HW131448   1.829   1.382   6.095
10183SOL    HW231449   1.763   1.469   6.217
10184SOL     OW31450   4.804   0.307   0.066
10184SOL    HW131451   4.748   0.269   0.139
10184SOL    HW231452   4.889   0.254   0.057
10185SOL     OW31453   4.065   1.098   0.488
10185SOL    HW131454   3.982   1.101   0.433
10185SOL    HW231455   4.133   1.040   0.443
10186SOL     OW31456   4.778   2.068   2.748
10186SOL    HW131457   4.764   2.164   2.771
10186SOL    HW231458   4.723   2.011   2.810
10187SOL     OW31459   7.019   2.318   2.121
10187SOL    HW131460   6.957   2.244   2.094
10187SOL    HW231461   0.073   2.326   2.054
10188SOL     OW31462   3.987   6.015   0.283
10188SOL    HW131463   3.930   5.963   0.219
10188SOL    HW231464   4.083   5.987   0.271
10189SOL     OW31465   0.697   6.758   4.513
10189SOL    HW131466   0.760   6.693   4.471
10189SOL    HW231467   0.645   6.713   4.586
10190SOL     OW31468   5.730   3.065   6.932
10190SOL    HW131469   5.769   3.118   6.856
10190SOL    HW231470   5.635   3.092   6.946
10191SOL     OW31471   6.576   4.490   6.922
10191SOL    HW131472   6.482   4.522   6.927
10191SOL    HW231473   6.638   4.568   6.917
10192SOL     OW31474   3.633   1.737   0.201
10192SOL    HW131475   3.676   1.649   0.178
10192SOL    HW231476   3.685   1.811   0.160
10193SOL     OW31477   5.429   4.261   0.744
10193SOL    HW131478   5.348   4.268   0.685
10193SOL    HW231479   5.400   4.268   0.839
10194SOL     OW31480   4.827   2.507   4.638
10194SOL    HW131481   4.799   2.597   4.605
10194SOL    HW231482   4.756   2.471   4.699
10195SOL     OW31483   5.853   5.275   2.527
10195SOL    HW131484   5.917   5.199   2.534
10195SOL    HW231485   5.759   5.242   2.535
10196SOL     OW31486   0.947   1.348   4.588
10196SOL    HW131487   0.908   1.440   4.600
10196SOL    HW231488   1.047   1.353   4.594
10197SOL     OW31489   5.046   0.633   6.933
10197SOL    HW131490   5.060   0.732   6.934
10197SOL    HW231491   5.038   0.602   6.838
10198SOL     OW31492   4.618   6.875   2.229
10198SOL    HW131493   4.640   6.850   2.324
10198SOL    HW231494   4.703   6.884   2.177
10199SOL     OW31495   0.419   2.163   5.752
10199SOL    HW131496   0.423   2.064   5.749
10199SOL    HW231497   0.417   2.199   5.659
10200SOL     OW31498   5.575   2.636   2.529
10200SOL    HW131499   5.518   2.557   2.549
10200SOL    HW231500   5.671   2.607   2.523
10201SOL     OW31501   1.790   3.474   0.886
10201SOL    HW131502   1.849   3.495   0.964
10201SOL    HW231503   1.767   3.559   0.838
10202SOL     OW31504   5.015   7.012   3.034
10202SOL    HW131505   4.943   6.975   2.976
10202SOL    HW231506   4.981   0.002   3.128
10203SOL     OW31507   0.587   3.572   5.405
10203SOL    HW131508   0.563   3.476   5.417
10203SOL    HW231509   0.608   3.590   5.309
10204SOL     OW31510   4.505   4.400   6.329
10204SOL    HW131511   4.491   4.404   6.428
10204SOL    HW231512   4.585   4.344   6.310
10205SOL     OW31513   6.864   1.584   6.768
10205SOL    HW131514   6.846   1.668   6.717
10205SOL    HW231515   6.854   1.505   6.707
10206SOL     OW31516   2.562   2.019   4.670
10206SOL    HW131517   2.566   1.972   4.581
10206SOL    HW231518   2.613   1.965   4.738
10207SOL     OW31519   2.171   2.435   6.416
10207SOL    HW131520   2.232   2.509   6.388
10207SOL    HW231521   2.081   2.447   6.372
10208SOL     OW31522   6.530   0.229   5.537
10208SOL    HW131523   6.472   0.280   5.601
10208SOL    HW231524   6.530   0.275   5.448
10209SOL     OW31525   6.940   6.626   5.558
10209SOL    HW131526   6.979   6.544   5.598
10209SOL    HW231527   6.883   6.673   5.626
10210SOL     OW31528   3.517   0.639   1.790
10210SOL    HW131529   3.450   0.710   1.766
10210SOL    HW231530   3.474   0.573   1.852
10211SOL     OW31531   5.576   5.503   6.499
10211SOL    HW131532   5.493   5.462   6.461
10211SOL    HW231533   5.655   5.475   6.444
10212SOL     OW31534   0.536   0.238   0.309
10212SOL    HW131535   0.488   0.326   0.306
10212SOL    HW231536   0.496   0.181   0.381
10213SOL     OW31537   6.832   3.184   1.595
10213SOL    HW131538   6.745   3.179   1.645
10213SOL    HW231539   6.881   3.267   1.623
10214SOL     OW31540   1.222   2.499   0.941
10214SOL    HW131541   1.256   2.473   1.031
10214SOL    HW231542   1.219   2.598   0.934
10215SOL     OW31543   3.858   3.980   2.227
10215SOL    HW131544   3.772   4.021   2.256
10215SOL    HW231545   3.884   4.016   2.137
10216SOL     OW31546   0.485   6.454   2.037
10216SOL    HW131547   0.389   6.441   2.064
10216SOL    HW231548   0.510   6.550   2.050
10217SOL     OW31549   3.625   1.762   5.122
10217SOL    HW131550   3.703   1.739   5.180
10217SOL    HW231551   3.633   1.857   5.091
10218SOL     OW31552   0.881   2.643   2.926
10218SOL    HW131553   0.814   2.695   2.872
10218SOL    HW231554   0.948   2.601   2.865
10219SOL     OW31555   7.004   6.099   2.748
10219SOL    HW131556   0.079   6.074   2.771
10219SOL    HW231557   6.953   6.116   2.832
10220SOL     OW31558   3.505   3.183   6.827
10220SOL    HW131559   3.495   3.234   6.912
10220SOL    HW231560   3.503   3.085   6.846
10221SOL     OW31561   1.293   6.030   3.004
10221SOL    HW131562   1.196   6.029   3.027
10221SOL    HW231563   1.304   6.015   2.906
10222SOL     OW31564   2.979   3.236   3.365
10222SOL    HW131565   2.882   3.211   3.374
10222SOL    HW231566   3.035   3.153   3.374
10223SOL     OW31567   3.159   6.873   0.365
10223SOL    HW131568   3.156   6.791   0.423
10223SOL    HW231569   3.130   6.850   0.272
10224SOL     OW31570   6.866   3.466   3.809
10224SOL    HW131571   6.925   3.428   3.738
10224SOL    HW231572   6.917   3.533   3.862
10225SOL     OW31573   2.185   3.761   5.773
10225SOL    HW131574   2.129   3.809   5.704
10225SOL    HW231575   2.243   3.694   5.727
10226SOL     OW31576   3.892   4.770   6.422
10226SOL    HW131577   3.842   4.702   6.368
10226SOL    HW231578   3.986   4.775   6.390
10227SOL     OW31579   5.289   4.006   0.873
10227SOL    HW131580   5.388   4.017   0.886
10227SOL    HW231581   5.261   4.054   0.790
10228SOL     OW31582   5.339   6.904   0.010
10228SOL    HW131583   5.350   7.002   7.010
10228SOL    HW231584   5.268   6.866   6.971
10229SOL     OW31585   0.501   2.154   5.170
10229SOL    HW131586   0.517   2.244   5.129
10229SOL    HW231587   0.465   2.166   5.262
10230SOL     OW31588   5.668   5.920   1.470
10230SOL    HW131589   5.664   6.019   1.461
10230SOL    HW231590   5.667   5.878   1.380
10231SOL     OW31591   0.309   4.114   2.146
10231SOL    HW131592   0.373   4.079   2.078
10231SOL    HW231593   0.224   4.062   2.143
10232SOL     OW31594   4.607   4.951   2.225
10232SOL    HW131595   4.704   4.936   2.243
10232SOL    HW231596   4.594   4.966   2.127
10233SOL     OW31597   3.327   3.302   6.217
10233SOL    HW131598   3.355   3.253   6.299
10233SOL    HW231599   3.303   3.236   6.145
10234SOL     OW31600   1.008   0.876   2.037
10234SOL    HW131601   1.005   0.959   1.981
10234SOL    HW231602   0.940   0.883   2.110
10235SOL     OW31603   1.010   0.205   3.080
10235SOL    HW131604   1.076   0.142   3.040
10235SOL    HW231605   1.056   0.261   3.150
10236SOL     OW31606   1.134   0.543   2.863
10236SOL    HW131607   1.161   0.629   2.907
10236SOL    HW231608   1.196   0.470   2.892
10237SOL     OW31609   6.996   4.130   5.860
10237SOL    HW131610   6.911   4.079   5.847
10237SOL    HW231611   0.039   4.108   5.785
10238SOL     OW31612   2.661   0.130   0.690
10238SOL    HW131613   2.627   0.037   0.705
10238SOL    HW231614   2.722   0.156   0.765
10239SOL     OW31615   1.085   2.564   4.939
10239SOL    HW131616   1.140   2.639   4.974
10239SOL    HW231617   0.989   2.592   4.936
10240SOL     OW31618   1.507   6.603   1.587
10240SOL    HW131619   1.545   6.597   1.495
10240SOL    HW231620   1.496   6.511   1.624
10241SOL     OW31621   4.343   3.754   1.698
10241SOL    HW131622   4.355   3.695   1.778
10241SOL    HW231623   4.253   3.797   1.700
10242SOL     OW31624   0.892   3.669   1.474
10242SOL    HW131625   0.925   3.721   1.395
10242SOL    HW231626   0.928   3.710   1.558
10243SOL     OW31627   3.724   5.420   2.241
10243SOL    HW131628   3.723   5.343   2.178
10243SOL    HW231629   3.814   5.465   2.238
10244SOL     OW31630   1.787   5.759   1.394
10244SOL    HW131631   1.750   5.667   1.403
10244SOL    HW231632   1.847   5.762   1.314
10245SOL     OW31633   6.371   3.884   1.257
10245SOL    HW131634   6.286   3.895   1.205
10245SOL    HW231635   6.372   3.794   1.300
10246SOL     OW31636   3.623   3.306   3.421
10246SOL    HW131637   3.550   3.293   3.488
10246SOL    HW231638   3.634   3.403   3.402
10247SOL     OW31639   0.756   3.462   4.642
10247SOL    HW131640   0.677   3.468   4.581
10247SOL    HW231641   0.767   3.547   4.693
10248SOL     OW31642   1.238   1.147   4.350
10248SOL    HW131643   1.183   1.083   4.297
10248SOL    HW231644   1.276   1.217   4.289
10249SOL     OW31645   2.614   4.620   6.104
10249SOL    HW131646   2.595   4.523   6.085
10249SOL    HW231647   2.602   4.672   6.019
10250SOL     OW31648   2.953   2.917   0.289
10250SOL    HW131649   2.935   2.906   0.192
10250SOL    HW231650   2.905   2.997   0.324
10251SOL     OW31651   0.876   0.752   5.193
10251SOL    HW131652   0.888   0.783   5.098
10251SOL    HW231653   0.833   0.662   5.194
10252SOL     OW31654   5.316   3.745   6.178
10252SOL    HW131655   5.320   3.774   6.274
10252SOL    HW231656   5.401   3.696   6.156
10253SOL     OW31657   3.611   5.776   0.430
10253SOL    HW131658   3.606   5.876   0.430
10253SOL    HW231659   3.632   5.744   0.522
10254SOL     OW31660   6.636   1.552   6.507
10254SOL    HW131661   6.599   1.517   6.421
10254SOL    HW231662   6.696   1.483   6.548
10255SOL     OW31663   3.935   4.581   1.548
10255SOL    HW131664   3.949   4.583   1.449
10255SOL    HW231665   4.024   4.581   1.594
10256SOL     OW31666   1.862   1.116   4.799
10256SOL    HW131667   1.908   1.047   4.743
10256SOL    HW231668   1.765   1.094   4.808
10257SOL     OW31669   3.318   6.237   3.004
10257SOL    HW131670   3.227   6.203   2.980
10257SOL    HW231671   3.321   6.337   2.992
10258SOL     OW31672   3.232   1.647   2.464
10258SOL    HW131673   3.227   1.579   2.391
10258SOL    HW231674   3.326   1.679   2.474
10259SOL     OW31675   1.993   3.878   3.399
10259SOL    HW131676   1.909   3.832   3.428
10259SOL    HW231677   1.995   3.971   3.435
10260SOL     OW31678   0.234   0.348   3.784
10260SOL    HW131679   0.157   0.300   3.826
10260SOL    HW231680   0.275   0.411   3.850
10261SOL     OW31681   6.948   4.039   1.553
10261SOL    HW131682   6.850   4.022   1.559
10261SOL    HW231683   6.986   3.990   1.474
10262SOL     OW31684   4.675   0.937   6.687
10262SOL    HW131685   4.772   0.914   6.696
10262SOL    HW231686   4.621   0.875   6.745
10263SOL     OW31687   5.498   0.198   2.722
10263SOL    HW131688   5.531   0.293   2.725
10263SOL    HW231689   5.572   0.136   2.747
10264SOL     OW31690   6.895   1.063   5.924
10264SOL    HW131691   6.962   1.057   5.850
10264SOL    HW231692   6.888   0.975   5.971
10265SOL     OW31693   1.951   0.712   2.480
10265SOL    HW131694   2.009   0.668   2.549
10265SOL    HW231695   2.000   0.717   2.394
10266SOL     OW31696   2.653   3.825   1.689
10266SOL    HW131697   2.747   3.830   1.721
10266SOL    HW231698   2.638   3.894   1.618
10267SOL     OW31699   6.467   0.972   0.749
10267SOL    HW131700   6.452   1.028   0.830
10267SOL    HW231701   6.400   0.897   0.746
10268SOL     OW31702   3.470   5.891   2.561
10268SOL    HW131703   3.527   5.885   2.479
10268SOL    HW231704   3.421   5.978   2.561
10269SOL     OW31705   2.701   1.611   6.937
10269SOL    HW131706   2.643   1.540   6.978
10269SOL    HW231707   2.772   1.569   6.881
10270SOL     OW31708   2.652   0.657   3.574
10270SOL    HW131709   2.570   0.693   3.530
10270SOL    HW231710   2.630   0.626   3.666
10271SOL     OW31711   2.225   1.274   0.078
10271SOL    HW131712   2.267   1.348   0.130
10271SOL    HW231713   2.225   1.190   0.134
10272SOL     OW31714   5.903   6.771   5.307
10272SOL    HW131715   5.918   6.747   5.211
10272SOL    HW231716   5.889   6.688   5.360
10273SOL     OW31717   2.134   5.624   2.760
10273SOL    HW131718   2.095   5.538   2.728
10273SOL    HW231719   2.196   5.661   2.691
10274SOL     OW31720   0.858   4.197   5.297
10274SOL    HW131721   0.768   4.234   5.323
10274SOL    HW231722   0.881   4.227   5.205
10275SOL     OW31723   0.337   1.311   1.627
10275SOL    HW131724   0.390   1.226   1.622
10275SOL    HW231725   0.255   1.302   1.571
10276SOL     OW31726   3.407   4.728   5.370
10276SOL    HW131727   3.375   4.806   5.424
10276SOL    HW231728   3.363   4.645   5.404
10277SOL     OW31729   0.539   5.440   3.523
10277SOL    HW131730   0.636   5.417   3.528
10277SOL    HW231731   0.518   5.511   3.591
10278SOL     OW31732   5.880   0.086   3.928
10278SOL    HW131733   5.895   0.015   3.859
10278SOL    HW231734   5.944   0.075   4.003
10279SOL     OW31735   1.156   4.626   3.986
10279SOL    HW131736   1.245   4.655   3.948
10279SOL    HW231737   1.147   4.527   3.976
10280SOL     OW31738   6.110   5.907   0.455
10280SOL    HW131739   6.195   5.955   0.478
10280SOL    HW231740   6.041   5.973   0.426
10281SOL     OW31741   5.770   0.366   4.894
10281SOL    HW131742   5.711   0.328   4.822
10281SOL    HW231743   5.713   0.410   4.964
10282SOL     OW31744   5.169   2.381   3.122
10282SOL    HW131745   5.244   2.329   3.081
10282SOL    HW231746   5.200   2.475   3.140
10283SOL     OW31747   6.984   2.419   0.879
10283SOL    HW131748   6.976   2.502   0.935
10283SOL    HW231749   6.948   2.437   0.787
10284SOL     OW31750   1.131   5.083   5.235
10284SOL    HW131751   1.230   5.095   5.233
10284SOL    HW231752   1.091   5.121   5.151
10285SOL     OW31753   0.040   6.407   6.581
10285SOL    HW131754   6.969   6.448   6.568
10285SOL    HW231755   0.092   6.461   6.647
10286SOL     OW31756   3.111   0.850   1.470
10286SOL    HW131757   3.132   0.757   1.441
10286SOL    HW231758   3.085   0.905   1.391
10287SOL     OW31759   0.242   5.914   2.690
10287SOL    HW131760   0.283   5.824   2.703
10287SOL    HW231761   0.313   5.984   2.693
10288SOL     OW31762   3.853   6.183   4.460
10288SOL    HW131763   3.848   6.254   4.531
10288SOL    HW231764   3.919   6.113   4.487
10289SOL     OW31765   3.905   6.283   6.577
10289SOL    HW131766   3.896   6.318   6.670
10289SOL    HW231767   3.897   6.358   6.511
10290SOL     OW31768   3.553   3.275   2.547
10290SOL    HW131769   3.626   3.272   2.479
10290SOL    HW231770   3.476   3.328   2.511
10291SOL     OW31771   3.555   2.045   2.237
10291SOL    HW131772   3.619   1.971   2.219
10291SOL    HW231773   3.565   2.116   2.167
10292SOL     OW31774   0.303   0.436   5.578
10292SOL    HW131775   0.342   0.512   5.630
10292SOL    HW231776   0.374   0.369   5.558
10293SOL     OW31777   1.790   3.178   5.793
10293SOL    HW131778   1.888   3.197   5.794
10293SOL    HW231779   1.761   3.153   5.701
10294SOL     OW31780   1.074   0.168   1.551
10294SOL    HW131781   1.003   0.135   1.489
10294SOL    HW231782   1.141   0.095   1.567
10295SOL     OW31783   2.447   1.292   0.951
10295SOL    HW131784   2.488   1.220   1.007
10295SOL    HW231785   2.460   1.272   0.854
10296SOL     OW31786   6.763   3.026   4.857
10296SOL    HW131787   6.727   3.030   4.950
10296SOL    HW231788   6.706   3.083   4.797
10297SOL     OW31789   4.614   1.123   1.043
10297SOL    HW131790   4.543   1.153   0.979
10297SOL    HW231791   4.580   1.130   1.137
10298SOL     OW31792   1.427   1.100   1.996
10298SOL    HW131793   1.357   1.083   2.066
10298SOL    HW231794   1.489   1.021   1.992
10299SOL     OW31795   5.467   6.866   2.613
10299SOL    HW131796   5.439   6.874   2.709
10299SOL    HW231797   5.542   6.800   2.606
10300SOL     OW31798   1.088   3.124   0.735
10300SOL    HW131799   1.092   3.166   0.645
10300SOL    HW231800   1.143   3.040   0.735
10301SOL     OW31801   4.429   1.422   0.000
10301SOL    HW131802   4.480   1.486   0.058
10301SOL    HW231803   4.334   1.417   0.032
10302SOL     OW31804   2.951   5.793   5.647
10302SOL    HW131805   2.884   5.836   5.708
10302SOL    HW231806   3.021   5.860   5.622
10303SOL     OW31807   0.797   4.546   5.509
10303SOL    HW131808   0.838   4.493   5.583
10303SOL    HW231809   0.713   4.500   5.478
10304SOL     OW31810   4.872   5.214   0.741
10304SOL    HW131811   4.959   5.195   0.694
10304SOL    HW231812   4.858   5.147   0.814
10305SOL     OW31813   2.969   3.474   5.147
10305SOL    HW131814   2.973   3.377   5.126
10305SOL    HW231815   2.926   3.488   5.236
10306SOL     OW31816   3.780   0.969   1.701
10306SOL    HW131817   3.820   0.946   1.612
10306SOL    HW231818   3.853   0.989   1.766
10307SOL     OW31819   1.666   6.246   4.826
10307SOL    HW131820   1.754   6.239   4.779
10307SOL    HW231821   1.680   6.239   4.925
10308SOL     OW31822   2.589   4.614   1.822
10308SOL    HW131823   2.677   4.616   1.870
10308SOL    HW231824   2.605   4.599   1.724
10309SOL     OW31825   0.372   0.829   4.804
10309SOL    HW131826   0.450   0.822   4.742
10309SOL    HW231827   0.375   0.917   4.852
10310SOL     OW31828   3.025   4.151   6.163
10310SOL    HW131829   3.026   4.210   6.082
10310SOL    HW231830   3.111   4.100   6.168
10311SOL     OW31831   5.111   6.311   0.095
10311SOL    HW131832   5.079   6.394   0.141
10311SOL    HW231833   5.046   6.286   0.023
10312SOL     OW31834   2.565   0.006   1.758
10312SOL    HW131835   2.488   0.069   1.765
10312SOL    HW231836   2.633   0.042   1.694
10313SOL     OW31837   4.942   6.373   3.435
10313SOL    HW131838   4.871   6.441   3.416
10313SOL    HW231839   4.983   6.343   3.349
10314SOL     OW31840   0.541   6.726   0.657
10314SOL    HW131841   0.453   6.680   0.668
10314SOL    HW231842   0.595   6.680   0.586
10315SOL     OW31843   4.849   4.643   3.815
10315SOL    HW131844   4.938   4.656   3.859
10315SOL    HW231845   4.790   4.722   3.836
10316SOL     OW31846   1.310   2.100   6.959
10316SOL    HW131847   1.365   2.074   0.018
10316SOL    HW231848   1.322   2.032   6.886
10317SOL     OW31849   4.249   6.167   4.458
10317SOL    HW131850   4.305   6.219   4.522
10317SOL    HW231851   4.182   6.112   4.509
10318SOL     OW31852   5.945   6.962   6.999
10318SOL    HW131853   6.035   7.004   6.988
10318SOL    HW231854   5.874   0.013   6.994
10319SOL     OW31855   1.313   4.484   4.267
10319SOL    HW131856   1.308   4.495   4.366
10319SOL    HW231857   1.311   4.575   4.224
10320SOL     OW31858   6.876   6.685   3.184
10320SOL    HW131859   6.879   6.749   3.107
10320SOL    HW231860   6.935   6.607   3.165
10321SOL     OW31861   5.906   2.449   3.292
10321SOL    HW131862   5.815   2.445   3.333
10321SOL    HW231863   5.911   2.526   3.229
10322SOL     OW31864   4.571   4.470   4.912
10322SOL    HW131865   4.480   4.488   4.949
10322SOL    HW231866   4.592   4.537   4.840
10323SOL     OW31867   1.054   4.660   5.968
10323SOL    HW131868   1.098   4.585   6.017
10323SOL    HW231869   0.955   4.653   5.979
10324SOL     OW31870   3.025   3.694   2.567
10324SOL    HW131871   2.981   3.617   2.614
10324SOL    HW231872   3.116   3.709   2.606
10325SOL     OW31873   6.039   6.168   5.099
10325SOL    HW131874   6.050   6.266   5.079
10325SOL    HW231875   5.962   6.132   5.046
10326SOL     OW31876   5.144   4.116   6.899
10326SOL    HW131877   5.121   4.109   6.802
10326SOL    HW231878   5.234   4.076   6.915
10327SOL     OW31879   1.612   5.651   0.026
10327SOL    HW131880   1.512   5.652   0.022
10327SOL    HW231881   1.643   5.732   0.075
10328SOL     OW31882   6.067   2.337   2.927
10328SOL    HW131883   6.001   2.402   2.889
10328SOL    HW231884   6.023   2.280   2.997
10329SOL     OW31885   3.450   2.020   1.924
10329SOL    HW131886   3.519   2.087   1.952
10329SOL    HW231887   3.460   2.001   1.826
10330SOL     OW31888   5.004   6.491   2.011
10330SOL    HW131889   5.000   6.488   1.911
10330SOL    HW231890   5.080   6.434   2.042
10331SOL     OW31891   5.188   5.838   5.546
10331SOL    HW131892   5.155   5.898   5.473
10331SOL    HW231893   5.281   5.865   5.572
10332SOL     OW31894   2.424   1.390   6.413
10332SOL    HW131895   2.426   1.309   6.353
10332SOL    HW231896   2.417   1.473   6.357
10333SOL     OW31897   1.685   3.637   3.930
10333SOL    HW131898   1.636   3.675   4.009
10333SOL    HW231899   1.709   3.542   3.949
10334SOL     OW31900   3.645   1.388   4.256
10334SOL    HW131901   3.713   1.460   4.266
10334SOL    HW231902   3.686   1.300   4.276
10335SOL     OW31903   1.930   3.727   4.044
10335SOL    HW131904   1.847   3.696   3.998
10335SOL    HW231905   2.008   3.716   3.982
10336SOL     OW31906   5.867   6.704   3.345
10336SOL    HW131907   5.894   6.683   3.251
10336SOL    HW231908   5.918   6.783   3.377
10337SOL     OW31909   5.904   6.533   6.703
10337SOL    HW131910   5.911   6.597   6.626
10337SOL    HW231911   5.936   6.578   6.786
10338SOL     OW31912   0.360   6.121   1.720
10338SOL    HW131913   0.308   6.100   1.803
10338SOL    HW231914   0.408   6.208   1.732
10339SOL     OW31915   5.362   2.632   6.048
10339SOL    HW131916   5.403   2.603   5.962
10339SOL    HW231917   5.266   2.607   6.050
10340SOL     OW31918   3.091   3.462   6.591
10340SOL    HW131919   3.113   3.551   6.632
10340SOL    HW231920   3.173   3.407   6.584
10341SOL     OW31921   3.570   5.108   3.220
10341SOL    HW131922   3.659   5.062   3.220
10341SOL    HW231923   3.520   5.085   3.136
10342SOL     OW31924   0.791   1.602   3.782
10342SOL    HW131925   0.786   1.601   3.882
10342SOL    HW231926   0.724   1.538   3.744
10343SOL     OW31927   4.215   5.424   1.622
10343SOL    HW131928   4.302   5.406   1.578
10343SOL    HW231929   4.182   5.340   1.666
10344SOL     OW31930   4.882   6.736   6.687
10344SOL    HW131931   4.795   6.703   6.723
10344SOL    HW231932   4.866   6.809   6.621
10345SOL     OW31933   1.060   4.293   4.735
10345SOL    HW131934   1.091   4.202   4.706
10345SOL    HW231935   1.021   4.287   4.828
10346SOL     OW31936   0.751   5.524   0.561
10346SOL    HW131937   0.804   5.466   0.498
10346SOL    HW231938   0.656   5.495   0.560
10347SOL     OW31939   0.230   2.176   5.263
10347SOL    HW131940   0.252   2.098   5.204
10347SOL    HW231941   0.245   2.261   5.212
10348SOL     OW31942   0.377   5.087   1.455
10348SOL    HW131943   0.344   5.171   1.499
10348SOL    HW231944   0.475   5.096   1.438
10349SOL     OW31945   6.670   0.147   6.605
10349SOL    HW131946   6.744   0.163   6.671
10349SOL    HW231947   6.628   0.058   6.623
10350SOL     OW31948   3.965   0.407   6.384
10350SOL    HW131949   3.913   0.322   6.384
10350SOL    HW231950   3.913   0.477   6.335
10351SOL     OW31951   4.519   5.735   5.946
10351SOL    HW131952   4.454   5.693   6.010
10351SOL    HW231953   4.587   5.787   5.998
10352SOL     OW31954   4.615   4.885   6.106
10352SOL    HW131955   4.566   4.965   6.142
10352SOL    HW231956   4.550   4.818   6.072
10353SOL     OW31957   0.448   3.799   4.659
10353SOL    HW131958   0.542   3.773   4.678
10353SOL    HW231959   0.440   3.899   4.665
10354SOL     OW31960   5.303   1.185   0.863
10354SOL    HW131961   5.214   1.139   0.861
10354SOL    HW231962   5.356   1.150   0.939
10355SOL     OW31963   1.079   4.829   3.013
10355SOL    HW131964   1.055   4.733   3.026
10355SOL    HW231965   0.996   4.883   2.998
10356SOL     OW31966   0.565   3.139   4.916
10356SOL    HW131967   0.607   3.076   4.850
10356SOL    HW231968   0.513   3.209   4.866
10357SOL     OW31969   3.036   3.109   6.117
10357SOL    HW131970   3.111   3.126   6.053
10357SOL    HW231971   2.956   3.163   6.089
10358SOL     OW31972   0.786   0.886   2.175
10358SOL    HW131973   0.696   0.917   2.144
10358SOL    HW231974   0.792   0.897   2.274
10359SOL     OW31975   1.285   1.827   0.573
10359SOL    HW131976   1.261   1.730   0.585
10359SOL    HW231977   1.231   1.865   0.498
10360SOL     OW31978   0.409   4.411   4.032
10360SOL    HW131979   0.468   4.339   3.996
10360SOL    HW231980   0.409   4.489   3.970
10361SOL     OW31981   2.768   5.497   0.351
10361SOL    HW131982   2.788   5.514   0.255
10361SOL    HW231983   2.724   5.577   0.392
10362SOL     OW31984   1.053   4.647   5.684
10362SOL    HW131985   1.066   4.558   5.727
10362SOL    HW231986   1.097   4.718   5.739
10363SOL     OW31987   5.324   0.696   4.541
10363SOL    HW131988   5.347   0.608   4.582
10363SOL    HW231989   5.305   0.762   4.614
10364SOL     OW31990   1.239   3.825   0.652
10364SOL    HW131991   1.250   3.737   0.698
10364SOL    HW231992   1.159   3.821   0.592
10365SOL     OW31993   5.752   4.836   0.036
10365SOL    HW131994   5.740   4.909   0.103
10365SOL    HW231995   5.668   4.826   7.002
10366SOL     OW31996   4.602   6.883   3.517
10366SOL    HW131997   4.613   6.887   3.616
10366SOL    HW231998   4.635   6.968   3.476
10367SOL     OW31999   6.412   1.466   3.279
10367SOL    HW132000   6.449   1.558   3.268
10367SOL    HW232001   6.355   1.463   3.360
10368SOL     OW32002   2.346   0.076   1.057
10368SOL    HW132003   2.424   0.082   0.995
10368SOL    HW232004   2.344   7.004   1.098
10369SOL     OW32005   5.265   2.764   6.695
10369SOL    HW132006   5.265   2.844   6.634
10369SOL    HW232007   5.171   2.741   6.719
10370SOL     OW32008   2.393   0.572   4.713
10370SOL    HW132009   2.316   0.566   4.649
10370SOL    HW232010   2.358   0.587   4.806
10371SOL     OW32011   4.735   6.823   5.729
10371SOL    HW132012   4.677   6.780   5.659
10371SOL    HW232013   4.711   6.786   5.819
10372SOL     OW32014   0.322   0.843   4.355
10372SOL    HW132015   0.271   0.850   4.440
10372SOL    HW232016   0.355   0.934   4.329
10373SOL     OW32017   1.365   6.434   5.258
10373SOL    HW132018   1.386   6.511   5.197
10373SOL    HW232019   1.274   6.446   5.298
10374SOL     OW32020   3.634   1.366   3.114
10374SOL    HW132021   3.626   1.323   3.024
10374SOL    HW232022   3.543   1.394   3.146
10375SOL     OW32023   6.772   2.272   1.083
10375SOL    HW132024   6.833   2.310   1.013
10375SOL    HW232025   6.822   2.261   1.169
10376SOL     OW32026   5.716   0.291   3.841
10376SOL    HW132027   5.780   0.223   3.878
10376SOL    HW232028   5.685   0.262   3.751
10377SOL     OW32029   6.695   6.619   3.381
10377SOL    HW132030   6.745   6.588   3.462
10377SOL    HW232031   6.760   6.650   3.312
10378SOL     OW32032   6.159   6.682   5.720
10378SOL    HW132033   6.180   6.584   5.714
10378SOL    HW232034   6.098   6.707   5.645
10379SOL     OW32035   4.404   1.272   4.572
10379SOL    HW132036   4.359   1.189   4.538
10379SOL    HW232037   4.491   1.247   4.615
10380SOL     OW32038   3.549   0.653   4.626
10380SOL    HW132039   3.450   0.654   4.636
10380SOL    HW232040   3.581   0.742   4.595
10381SOL     OW32041   3.054   5.540   5.087
10381SOL    HW132042   3.037   5.482   5.008
10381SOL    HW232043   3.147   5.523   5.121
10382SOL     OW32044   0.041   5.149   1.522
10382SOL    HW132045   0.073   5.229   1.573
10382SOL    HW232046   0.068   5.158   1.426
10383SOL     OW32047   5.579   3.416   1.259
10383SOL    HW132048   5.505   3.450   1.318
10383SOL    HW232049   5.582   3.316   1.264
10384SOL     OW32050   5.176   1.451   6.863
10384SOL    HW132051   5.234   1.387   6.813
10384SOL    HW232052   5.087   1.457   6.818
10385SOL     OW32053   6.520   3.373   6.463
10385SOL    HW132054   6.462   3.340   6.537
10385SOL    HW232055   6.609   3.328   6.467
10386SOL     OW32056   0.142   1.708   6.399
10386SOL    HW132057   0.198   1.658   6.466
10386SOL    HW232058   0.193   1.787   6.366
10387SOL     OW32059   1.398   3.850   3.048
10387SOL    HW132060   1.420   3.831   2.952
10387SOL    HW232061   1.343   3.776   3.085
10388SOL     OW32062   1.520   4.565   2.280
10388SOL    HW132063   1.422   4.551   2.293
10388SOL    HW232064   1.536   4.659   2.250
10389SOL     OW32065   1.740   5.570   3.199
10389SOL    HW132066   1.720   5.516   3.280
10389SOL    HW232067   1.658   5.619   3.169
10390SOL     OW32068   2.047   3.249   3.375
10390SOL    HW132069   1.955   3.280   3.351
10390SOL    HW232070   2.103   3.245   3.293
10391SOL     OW32071   3.515   5.248   4.405
10391SOL    HW132072   3.597   5.302   4.426
10391SOL    HW232073   3.453   5.250   4.484
10392SOL     OW32074   0.153   5.541   6.401
10392SOL    HW132075   0.242   5.571   6.436
10392SOL    HW232076   0.083   5.607   6.426
10393SOL     OW32077   1.393   1.725   4.288
10393SOL    HW132078   1.417   1.692   4.197
10393SOL    HW232079   1.384   1.647   4.351
10394SOL     OW32080   3.343   6.784   0.731
10394SOL    HW132081   3.269   6.749   0.788
10394SOL    HW232082   3.388   6.860   0.779
10395SOL     OW32083   1.264   0.002   3.342
10395SOL    HW132084   1.172   0.014   3.380
10395SOL    HW232085   1.287   6.925   3.339
10396SOL     OW32086   0.565   0.862   4.596
10396SOL    HW132087   0.534   0.953   4.570
10396SOL    HW232088   0.568   0.803   4.515
10397SOL     OW32089   4.833   2.861   2.682
10397SOL    HW132090   4.781   2.867   2.767
10397SOL    HW232091   4.923   2.821   2.700
10398SOL     OW32092   0.308   2.264   2.399
10398SOL    HW132093   0.322   2.245   2.497
10398SOL    HW232094   0.225   2.319   2.387
10399SOL     OW32095   6.865   2.803   6.031
10399SOL    HW132096   6.844   2.710   6.062
10399SOL    HW232097   6.833   2.868   6.100
10400SOL     OW32098   2.120   5.274   2.463
10400SOL    HW132099   2.036   5.301   2.509
10400SOL    HW232100   2.150   5.185   2.498
10401SOL     OW32101   1.072   5.908   1.086
10401SOL    HW132102   1.013   5.948   1.157
10401SOL    HW232103   1.162   5.952   1.090
10402SOL     OW32104   1.232   2.242   4.653
10402SOL    HW132105   1.141   2.209   4.630
10402SOL    HW232106   1.227   2.339   4.678
10403SOL     OW32107   5.619   1.202   3.705
10403SOL    HW132108   5.561   1.121   3.708
10403SOL    HW232109   5.622   1.237   3.611
10404SOL     OW32110   6.481   0.333   4.529
10404SOL    HW132111   6.461   0.425   4.494
10404SOL    HW232112   6.533   0.283   4.460
10405SOL     OW32113   3.697   6.908   6.153
10405SOL    HW132114   3.621   6.862   6.106
10405SOL    HW232115   3.724   6.989   6.101
10406SOL     OW32116   1.050   6.423   4.569
10406SOL    HW132117   1.129   6.370   4.537
10406SOL    HW232118   1.061   6.444   4.666
10407SOL     OW32119   3.389   0.509   0.163
10407SOL    HW132120   3.297   0.506   0.123
10407SOL    HW232121   3.389   0.461   0.250
10408SOL     OW32122   3.068   0.620   2.590
10408SOL    HW132123   3.065   0.632   2.690
10408SOL    HW232124   3.156   0.652   2.556
10409SOL     OW32125   0.386   4.579   2.183
10409SOL    HW132126   0.319   4.652   2.193
10409SOL    HW232127   0.442   4.574   2.266
10410SOL     OW32128   5.450   5.684   0.290
10410SOL    HW132129   5.499   5.602   0.319
10410SOL    HW232130   5.481   5.762   0.344
10411SOL     OW32131   2.137   4.838   2.032
10411SOL    HW132132   2.203   4.909   2.057
10411SOL    HW232133   2.186   4.760   1.993
10412SOL     OW32134   0.959   4.065   6.012
10412SOL    HW132135   1.008   4.112   5.938
10412SOL    HW232136   1.007   3.980   6.034
10413SOL     OW32137   6.767   1.046   4.913
10413SOL    HW132138   6.683   1.056   4.858
10413SOL    HW232139   6.743   1.043   5.010
10414SOL     OW32140   5.533   5.372   5.186
10414SOL    HW132141   5.521   5.447   5.120
10414SOL    HW232142   5.453   5.369   5.246
10415SOL     OW32143   6.990   4.616   3.003
10415SOL    HW132144   7.019   4.703   2.963
10415SOL    HW232145   6.912   4.580   2.952
10416SOL     OW32146   5.156   0.284   0.152
10416SOL    HW132147   5.110   0.284   0.063
10416SOL    HW232148   5.167   0.378   0.184
10417SOL     OW32149   5.022   4.696   4.556
10417SOL    HW132150   4.946   4.693   4.492
10417SOL    HW232151   5.070   4.608   4.556
10418SOL     OW32152   5.872   2.979   0.216
10418SOL    HW132153   5.910   2.961   0.125
10418SOL    HW232154   5.778   3.012   0.205
10419SOL     OW32155   0.969   6.656   4.807
10419SOL    HW132156   0.889   6.599   4.825
10419SOL    HW232157   1.040   6.635   4.875
10420SOL     OW32158   6.396   4.112   3.988
10420SOL    HW132159   6.424   4.153   3.902
10420SOL    HW232160   6.451   4.149   4.063
10421SOL     OW32161   0.341   3.642   3.960
10421SOL    HW132162   0.341   3.681   4.052
10421SOL    HW232163   0.342   3.715   3.892
10422SOL     OW32164   5.670   3.371   5.920
10422SOL    HW132165   5.627   3.298   5.972
10422SOL    HW232166   5.749   3.335   5.871
10423SOL     OW32167   2.721   5.670   1.462
10423SOL    HW132168   2.730   5.699   1.557
10423SOL    HW232169   2.673   5.582   1.459
10424SOL     OW32170   4.937   0.792   2.829
10424SOL    HW132171   4.991   0.708   2.819
10424SOL    HW232172   4.956   0.835   2.917
10425SOL     OW32173   0.415   4.760   0.967
10425SOL    HW132174   0.454   4.712   1.046
10425SOL    HW232175   0.339   4.818   0.997
10426SOL     OW32176   6.550   2.419   6.858
10426SOL    HW132177   6.482   2.479   6.900
10426SOL    HW232178   6.505   2.342   6.814
10427SOL     OW32179   6.251   0.679   3.445
10427SOL    HW132180   6.168   0.667   3.500
10427SOL    HW232181   6.327   0.707   3.504
10428SOL     OW32182   1.556   0.461   5.043
10428SOL    HW132183   1.595   0.488   5.131
10428SOL    HW232184   1.511   0.372   5.053
10429SOL     OW32185   2.135   5.126   1.841
10429SOL    HW132186   2.231   5.144   1.823
10429SOL    HW232187   2.119   5.126   1.940
10430SOL     OW32188   3.618   1.503   4.720
10430SOL    HW132189   3.542   1.565   4.740
10430SOL    HW232190   3.698   1.531   4.773
10431SOL     OW32191   4.780   2.305   3.724
10431SOL    HW132192   4.832   2.274   3.644
10431SOL    HW232193   4.708   2.239   3.745
10432SOL     OW32194   1.699   4.404   1.055
10432SOL    HW132195   1.647   4.427   1.137
10432SOL    HW232196   1.777   4.466   1.046
10433SOL     OW32197   3.397   6.605   3.861
10433SOL    HW132198   3.378   6.510   3.836
10433SOL    HW232199   3.470   6.608   3.929
10434SOL     OW32200   4.296   1.725   0.659
10434SOL    HW132201   4.367   1.679   0.606
10434SOL    HW232202   4.313   1.823   0.661
10435SOL     OW32203   2.837   1.120   1.543
10435SOL    HW132204   2.926   1.087   1.574
10435SOL    HW232205   2.824   1.095   1.447
10436SOL     OW32206   1.584   3.886   5.063
10436SOL    HW132207   1.645   3.948   5.014
10436SOL    HW232208   1.598   3.792   5.031
10437SOL     OW32209   6.371   0.265   5.143
10437SOL    HW132210   6.455   0.300   5.184
10437SOL    HW232211   6.374   0.278   5.044
10438SOL     OW32212   6.732   6.093   6.775
10438SOL    HW132213   6.823   6.132   6.762
10438SOL    HW232214   6.739   6.002   6.816
10439SOL     OW32215   5.833   5.200   5.489
10439SOL    HW132216   5.912   5.139   5.488
10439SOL    HW232217   5.791   5.200   5.580
10440SOL     OW32218   5.622   2.445   1.891
10440SOL    HW132219   5.597   2.384   1.967
10440SOL    HW232220   5.618   2.395   1.805
10441SOL     OW32221   5.334   1.744   5.567
10441SOL    HW132222   5.421   1.750   5.517
10441SOL    HW232223   5.323   1.651   5.603
10442SOL     OW32224   2.827   0.574   6.049
10442SOL    HW132225   2.857   0.591   6.143
10442SOL    HW232226   2.890   0.617   5.985
10443SOL     OW32227   0.965   1.243   6.595
10443SOL    HW132228   1.043   1.280   6.647
10443SOL    HW232229   0.882   1.292   6.622
10444SOL     OW32230   4.494   5.794   3.644
10444SOL    HW132231   4.587   5.761   3.635
10444SOL    HW232232   4.478   5.867   3.578
10445SOL     OW32233   1.648   3.153   3.721
10445SOL    HW132234   1.651   3.251   3.700
10445SOL    HW232235   1.647   3.101   3.635
10446SOL     OW32236   2.948   4.723   5.312
10446SOL    HW132237   2.945   4.628   5.281
10446SOL    HW232238   2.857   4.764   5.301
10447SOL     OW32239   1.792   2.499   3.153
10447SOL    HW132240   1.810   2.597   3.159
10447SOL    HW232241   1.868   2.453   3.107
10448SOL     OW32242   0.431   5.122   1.753
10448SOL    HW132243   0.515   5.071   1.736
10448SOL    HW232244   0.355   5.059   1.767
10449SOL     OW32245   3.937   5.446   4.248
10449SOL    HW132246   3.984   5.527   4.213
10449SOL    HW232247   3.897   5.394   4.172
10450SOL     OW32248   0.698   2.544   4.426
10450SOL    HW132249   0.630   2.501   4.485
10450SOL    HW232250   0.670   2.535   4.330
10451SOL     OW32251   2.082   2.092   5.127
10451SOL    HW132252   2.062   2.186   5.100
10451SOL    HW232253   2.113   2.090   5.222
10452SOL     OW32254   0.134   2.929   4.478
10452SOL    HW132255   0.155   2.911   4.574
10452SOL    HW232256   0.209   2.896   4.421
10453SOL     OW32257   3.186   5.682   4.066
10453SOL    HW132258   3.111   5.624   4.032
10453SOL    HW232259   3.240   5.715   3.989
10454SOL     OW32260   6.659   2.044   6.887
10454SOL    HW132261   6.755   2.065   6.866
10454SOL    HW232262   6.652   1.952   6.924
10455SOL     OW32263   1.016   6.004   2.730
10455SOL    HW132264   1.062   6.004   2.641
10455SOL    HW232265   0.977   5.913   2.747
10456SOL     OW32266   1.239   5.888   6.014
10456SOL    HW132267   1.197   5.969   6.055
10456SOL    HW232268   1.174   5.813   6.014
10457SOL     OW32269   4.485   1.561   1.228
10457SOL    HW132270   4.581   1.590   1.223
10457SOL    HW232271   4.452   1.536   1.137
10458SOL     OW32272   1.980   6.820   6.905
10458SOL    HW132273   2.077   6.799   6.891
10458SOL    HW232274   1.953   6.894   6.843
10459SOL     OW32275   5.492   6.174   0.970
10459SOL    HW132276   5.505   6.121   0.886
10459SOL    HW232277   5.397   6.167   0.999
10460SOL     OW32278   6.432   1.267   6.920
10460SOL    HW132279   6.388   1.185   6.957
10460SOL    HW232280   6.362   1.332   6.891
10461SOL     OW32281   6.628   4.097   5.888
10461SOL    HW132282   6.688   4.057   5.819
10461SOL    HW232283   6.673   4.092   5.978
10462SOL     OW32284   4.550   3.810   0.173
10462SOL    HW132285   4.531   3.712   0.185
10462SOL    HW232286   4.464   3.861   0.175
10463SOL     OW32287   4.542   2.682   5.175
10463SOL    HW132288   4.600   2.763   5.184
10463SOL    HW232289   4.445   2.709   5.181
10464SOL     OW32290   6.146   4.702   1.879
10464SOL    HW132291   6.211   4.626   1.868
10464SOL    HW232292   6.089   4.709   1.797
10465SOL     OW32293   5.216   4.121   0.630
10465SOL    HW132294   5.185   4.053   0.563
10465SOL    HW232295   5.151   4.197   0.633
10466SOL     OW32296   6.317   3.829   5.481
10466SOL    HW132297   6.409   3.826   5.441
10466SOL    HW232298   6.325   3.843   5.580
10467SOL     OW32299   0.435   3.697   6.692
10467SOL    HW132300   0.411   3.625   6.757
10467SOL    HW232301   0.356   3.758   6.679
10468SOL     OW32302   1.654   4.376   3.602
10468SOL    HW132303   1.643   4.441   3.526
10468SOL    HW232304   1.732   4.403   3.658
10469SOL     OW32305   1.450   0.526   4.121
10469SOL    HW132306   1.373   0.590   4.127
10469SOL    HW232307   1.432   0.448   4.181
10470SOL     OW32308   2.598   4.265   1.476
10470SOL    HW132309   2.526   4.329   1.450
10470SOL    HW232310   2.665   4.312   1.534
10471SOL     OW32311   1.801   4.440   6.068
10471SOL    HW132312   1.709   4.476   6.057
10471SOL    HW232313   1.803   4.343   6.042
10472SOL     OW32314   4.394   5.314   5.978
10472SOL    HW132315   4.341   5.263   5.910
10472SOL    HW232316   4.490   5.286   5.972
10473SOL     OW32317   6.195   6.077   0.201
10473SOL    HW132318   6.213   6.154   0.140
10473SOL    HW232319   6.265   6.074   0.272
10474SOL     OW32320   6.045   5.680   5.015
10474SOL    HW132321   5.993   5.629   4.947
10474SOL    HW232322   6.140   5.650   5.014
10475SOL     OW32323   6.671   6.137   1.590
10475SOL    HW132324   6.700   6.157   1.684
10475SOL    HW232325   6.679   6.220   1.535
10476SOL     OW32326   5.296   6.498   1.131
10476SOL    HW132327   5.267   6.593   1.147
10476SOL    HW232328   5.356   6.469   1.205
10477SOL     OW32329   0.112   5.725   3.142
10477SOL    HW132330   0.052   5.800   3.168
10477SOL    HW232331   0.150   5.683   3.225
10478SOL     OW32332   0.149   1.572   0.394
10478SOL    HW132333   0.062   1.621   0.401
10478SOL    HW232334   0.145   1.491   0.454
10479SOL     OW32335   0.303   4.815   2.643
10479SOL    HW132336   0.359   4.760   2.705
10479SOL    HW232337   0.361   4.855   2.572
10480SOL     OW32338   2.846   1.417   3.659
10480SOL    HW132339   2.781   1.381   3.593
10480SOL    HW232340   2.801   1.429   3.748
10481SOL     OW32341   5.835   0.588   2.056
10481SOL    HW132342   5.888   0.638   2.124
10481SOL    HW232343   5.793   0.653   1.992
10482SOL     OW32344   4.650   4.338   4.667
10482SOL    HW132345   4.621   4.377   4.754
10482SOL    HW232346   4.665   4.239   4.677
10483SOL     OW32347   5.968   1.135   6.700
10483SOL    HW132348   5.879   1.089   6.707
10483SOL    HW232349   6.005   1.122   6.608
10484SOL     OW32350   5.875   0.344   1.638
10484SOL    HW132351   5.960   0.371   1.683
10484SOL    HW232352   5.850   0.413   1.570
10485SOL     OW32353   5.757   3.558   5.517
10485SOL    HW132354   5.705   3.549   5.602
10485SOL    HW232355   5.758   3.654   5.488
10486SOL     OW32356   6.419   2.679   3.008
10486SOL    HW132357   6.486   2.672   2.934
10486SOL    HW232358   6.370   2.592   3.017
10487SOL     OW32359   3.986   0.167   2.604
10487SOL    HW132360   4.057   0.169   2.675
10487SOL    HW232361   4.012   0.226   2.528
10488SOL     OW32362   3.956   3.498   0.058
10488SOL    HW132363   3.908   3.502   0.146
10488SOL    HW232364   3.937   3.581   0.006
10489SOL     OW32365   1.481   5.602   5.323
10489SOL    HW132366   1.559   5.660   5.343
10489SOL    HW232367   1.461   5.543   5.401
10490SOL     OW32368   5.911   0.149   4.403
10490SOL    HW132369   5.908   0.087   4.482
10490SOL    HW232370   5.826   0.140   4.351
10491SOL     OW32371   6.726   5.600   4.825
10491SOL    HW132372   6.642   5.641   4.788
10491SOL    HW232373   6.799   5.611   4.758
10492SOL     OW32374   4.546   3.893   5.842
10492SOL    HW132375   4.571   3.797   5.842
10492SOL    HW232376   4.447   3.902   5.829
10493SOL     OW32377   3.482   1.211   0.345
10493SOL    HW132378   3.551   1.277   0.373
10493SOL    HW232379   3.520   1.118   0.350
10494SOL     OW32380   5.538   1.632   5.369
10494SOL    HW132381   5.456   1.677   5.333
10494SOL    HW232382   5.590   1.592   5.293
10495SOL     OW32383   0.934   0.820   0.100
10495SOL    HW132384   0.945   0.728   0.060
10495SOL    HW232385   0.958   0.888   0.031
10496SOL     OW32386   0.220   0.137   5.420
10496SOL    HW132387   0.234   0.133   5.321
10496SOL    HW232388   0.122   0.137   5.440
10497SOL     OW32389   2.331   0.947   6.313
10497SOL    HW132390   2.335   0.889   6.232
10497SOL    HW232391   2.245   0.931   6.362
10498SOL     OW32392   2.718   5.302   5.652
10498SOL    HW132393   2.775   5.265   5.725
10498SOL    HW232394   2.656   5.372   5.689
10499SOL     OW32395   3.379   6.527   2.368
10499SOL    HW132396   3.285   6.561   2.368
10499SOL    HW232397   3.427   6.563   2.448
10500SOL     OW32398   2.013   1.208   6.541
10500SOL    HW132399   1.933   1.261   6.569
10500SOL    HW232400   2.089   1.225   6.604
10501SOL     OW32401   1.630   3.437   2.967
10501SOL    HW132402   1.688   3.482   3.035
10501SOL    HW232403   1.685   3.375   2.912
10502SOL     OW32404   3.261   6.652   5.021
10502SOL    HW132405   3.239   6.580   4.955
10502SOL    HW232406   3.319   6.721   4.976
10503SOL     OW32407   2.442   3.460   6.953
10503SOL    HW132408   2.473   3.368   6.979
10503SOL    HW232409   2.392   3.500   0.010
10504SOL     OW32410   1.635   2.801   0.509
10504SOL    HW132411   1.713   2.805   0.447
10504SOL    HW232412   1.653   2.857   0.589
10505SOL     OW32413   0.638   5.319   0.319
10505SOL    HW132414   0.566   5.272   0.269
10505SOL    HW232415   0.640   5.415   0.293
10506SOL     OW32416   6.746   5.759   6.256
10506SOL    HW132417   6.658   5.779   6.298
10506SOL    HW232418   6.749   5.662   6.229
10507SOL     OW32419   3.284   0.630   3.848
10507SOL    HW132420   3.331   0.542   3.840
10507SOL    HW232421   3.279   0.656   3.945
10508SOL     OW32422   5.375   5.615   3.081
10508SOL    HW132423   5.448   5.650   3.140
10508SOL    HW232424   5.394   5.642   2.986
10509SOL     OW32425   1.925   1.212   5.179
10509SOL    HW132426   1.967   1.139   5.126
10509SOL    HW232427   1.828   1.218   5.156
10510SOL     OW32428   5.676   0.714   6.040
10510SOL    HW132429   5.604   0.753   5.983
10510SOL    HW232430   5.646   0.712   6.136
10511SOL     OW32431   6.928   2.677   1.921
10511SOL    HW132432   0.001   2.650   1.946
10511SOL    HW232433   6.931   2.743   1.846
10512SOL     OW32434   2.250   6.818   6.868
10512SOL    HW132435   2.301   6.737   6.897
10512SOL    HW232436   2.312   6.883   6.823
10513SOL     OW32437   6.940   2.700   1.061
10513SOL    HW132438   6.938   2.661   1.153
10513SOL    HW232439   6.851   2.688   1.018
10514SOL     OW32440   1.990   2.706   1.564
10514SOL    HW132441   2.021   2.792   1.603
10514SOL    HW232442   2.051   2.632   1.592
10515SOL     OW32443   0.003   3.764   4.747
10515SOL    HW132444   0.083   3.709   4.773
10515SOL    HW232445   0.030   3.859   4.736
10516SOL     OW32446   2.764   6.685   0.088
10516SOL    HW132447   2.765   6.784   0.073
10516SOL    HW232448   2.729   6.640   0.006
10517SOL     OW32449   0.578   2.379   3.860
10517SOL    HW132450   0.511   2.386   3.785
10517SOL    HW232451   0.648   2.449   3.848
10518SOL     OW32452   0.792   6.379   3.065
10518SOL    HW132453   0.836   6.298   3.103
10518SOL    HW232454   0.765   6.441   3.139
10519SOL     OW32455   3.437   3.577   4.996
10519SOL    HW132456   3.386   3.659   5.021
10519SOL    HW232457   3.528   3.579   5.038
10520SOL     OW32458   2.797   4.937   6.713
10520SOL    HW132459   2.716   4.934   6.655
10520SOL    HW232460   2.805   4.851   6.764
10521SOL     OW32461   6.447   5.598   2.020
10521SOL    HW132462   6.400   5.580   1.933
10521SOL    HW232463   6.484   5.513   2.057
10522SOL     OW32464   5.834   6.705   2.848
10522SOL    HW132465   5.775   6.703   2.767
10522SOL    HW232466   5.842   6.798   2.882
10523SOL     OW32467   5.673   6.204   6.307
10523SOL    HW132468   5.663   6.165   6.215
10523SOL    HW232469   5.696   6.131   6.371
10524SOL     OW32470   5.038   1.281   4.651
10524SOL    HW132471   5.104   1.348   4.686
10524SOL    HW232472   5.085   1.195   4.632
10525SOL     OW32473   1.721   0.344   5.247
10525SOL    HW132474   1.680   0.263   5.205
10525SOL    HW232475   1.725   0.332   5.346
10526SOL     OW32476   4.390   5.011   2.363
10526SOL    HW132477   4.313   5.005   2.300
10526SOL    HW232478   4.473   4.977   2.318
10527SOL     OW32479   1.925   2.765   4.104
10527SOL    HW132480   1.856   2.819   4.057
10527SOL    HW232481   1.881   2.693   4.158
10528SOL     OW32482   5.739   4.101   6.532
10528SOL    HW132483   5.815   4.038   6.522
10528SOL    HW232484   5.654   4.056   6.503
10529SOL     OW32485   6.933   5.644   5.263
10529SOL    HW132486   6.900   5.550   5.270
10529SOL    HW232487   6.881   5.692   5.193
10530SOL     OW32488   1.241   1.493   4.814
10530SOL    HW132489   1.227   1.584   4.775
10530SOL    HW232490   1.221   1.423   4.745
10531SOL     OW32491   3.000   2.237   4.672
10531SOL    HW132492   2.922   2.299   4.676
10531SOL    HW232493   3.075   2.279   4.620
10532SOL     OW32494   3.327   3.563   4.379
10532SOL    HW132495   3.277   3.630   4.434
10532SOL    HW232496   3.372   3.610   4.303
10533SOL     OW32497   3.390   0.986   6.261
10533SOL    HW132498   3.471   0.963   6.208
10533SOL    HW232499   3.324   0.911   6.257
10534SOL     OW32500   5.809   4.051   2.273
10534SOL    HW132501   5.767   4.117   2.211
10534SOL    HW232502   5.899   4.086   2.302
10535SOL     OW32503   6.777   1.426   1.676
10535SOL    HW132504   6.743   1.520   1.687
10535SOL    HW232505   6.791   1.407   1.578
10536SOL     OW32506   5.871   6.168   2.606
10536SOL    HW132507   5.786   6.161   2.554
10536SOL    HW232508   5.940   6.108   2.565
10537SOL     OW32509   6.374   5.324   1.159
10537SOL    HW132510   6.389   5.228   1.135
10537SOL    HW232511   6.461   5.373   1.155
10538SOL     OW32512   4.277   3.608   6.619
10538SOL    HW132513   4.274   3.515   6.654
10538SOL    HW232514   4.372   3.638   6.610
10539SOL     OW32515   1.468   3.130   5.149
10539SOL    HW132516   1.544   3.075   5.114
10539SOL    HW232517   1.486   3.155   5.244
10540SOL     OW32518   3.246   1.256   1.000
10540SOL    HW132519   3.165   1.271   0.944
10540SOL    HW232520   3.304   1.186   0.957
10541SOL     OW32521   3.270   2.636   1.685
10541SOL    HW132522   3.360   2.606   1.654
10541SOL    HW232523   3.208   2.558   1.686
10542SOL     OW32524   1.963   2.611   0.154
10542SOL    HW132525   1.903   2.535   0.178
10542SOL    HW232526   2.033   2.579   0.089
10543SOL     OW32527   2.793   0.322   4.025
10543SOL    HW132528   2.825   0.410   4.060
10543SOL    HW232529   2.832   0.306   3.934
10544SOL     OW32530   0.265   1.832   1.272
10544SOL    HW132531   0.168   1.812   1.253
10544SOL    HW232532   0.298   1.900   1.206
10545SOL     OW32533   3.642   0.546   3.151
10545SOL    HW132534   3.691   0.523   3.235
10545SOL    HW232535   3.561   0.487   3.142
10546SOL     OW32536   4.604   1.124   4.747
10546SOL    HW132537   4.694   1.119   4.790
10546SOL    HW232538   4.533   1.104   4.814
10547SOL     OW32539   4.692   5.835   1.970
10547SOL    HW132540   4.727   5.843   2.063
10547SOL    HW232541   4.678   5.739   1.947
10548SOL     OW32542   4.560   4.286   5.707
10548SOL    HW132543   4.575   4.189   5.686
10548SOL    HW232544   4.463   4.301   5.727
10549SOL     OW32545   0.146   1.327   2.598
10549SOL    HW132546   0.052   1.337   2.568
10549SOL    HW232547   0.187   1.417   2.612
10550SOL     OW32548   4.635   0.048   4.816
10550SOL    HW132549   4.730   0.071   4.836
10550SOL    HW232550   4.577   0.127   4.837
10551SOL     OW32551   2.177   2.747   5.836
10551SOL    HW132552   2.142   2.662   5.877
10551SOL    HW232553   2.230   2.725   5.754
10552SOL     OW32554   3.529   1.136   5.498
10552SOL    HW132555   3.577   1.114   5.413
10552SOL    HW232556   3.522   1.235   5.508
10553SOL     OW32557   2.412   4.551   6.601
10553SOL    HW132558   2.349   4.628   6.614
10553SOL    HW232559   2.506   4.586   6.591
10554SOL     OW32560   6.426   3.798   6.191
10554SOL    HW132561   6.373   3.750   6.261
10554SOL    HW232562   6.472   3.731   6.132
10555SOL     OW32563   3.449   2.790   0.575
10555SOL    HW132564   3.355   2.788   0.610
10555SOL    HW232565   3.503   2.721   0.623
10556SOL     OW32566   2.610   4.959   4.193
10556SOL    HW132567   2.547   4.917   4.128
10556SOL    HW232568   2.696   4.907   4.194
10557SOL     OW32569   5.327   1.607   3.130
10557SOL    HW132570   5.411   1.633   3.082
10557SOL    HW232571   5.266   1.559   3.068
10558SOL     OW32572   6.118   5.683   6.275
10558SOL    HW132573   6.154   5.775   6.288
10558SOL    HW232574   6.192   5.616   6.286
10559SOL     OW32575   4.250   3.261   1.476
10559SOL    HW132576   4.315   3.228   1.545
10559SOL    HW232577   4.165   3.210   1.483
10560SOL     OW32578   0.071   2.200   4.358
10560SOL    HW132579   7.017   2.133   4.354
10560SOL    HW232580   0.035   2.287   4.392
10561SOL     OW32581   1.522   4.343   6.315
10561SOL    HW132582   1.517   4.363   6.217
10561SOL    HW232583   1.596   4.278   6.332
10562SOL     OW32584   4.406   1.831   1.042
10562SOL    HW132585   4.311   1.831   1.070
10562SOL    HW232586   4.426   1.747   0.990
10563SOL     OW32587   2.087   2.142   2.291
10563SOL    HW132588   2.011   2.083   2.267
10563SOL    HW232589   2.106   2.204   2.215
10564SOL     OW32590   0.178   1.755   2.526
10564SOL    HW132591   0.159   1.850   2.501
10564SOL    HW232592   0.167   1.744   2.625
10565SOL     OW32593   5.379   2.354   5.150
10565SOL    HW132594   5.389   2.339   5.248
10565SOL    HW232595   5.285   2.380   5.129
10566SOL     OW32596   4.897   5.574   0.062
10566SOL    HW132597   4.859   5.666   0.051
10566SOL    HW232598   4.840   5.508   0.013
10567SOL     OW32599   2.131   5.831   4.981
10567SOL    HW132600   2.118   5.733   4.996
10567SOL    HW232601   2.216   5.846   4.931
10568SOL     OW32602   4.382   0.056   3.837
10568SOL    HW132603   4.381   0.152   3.865
10568SOL    HW232604   4.322   0.003   3.897
10569SOL     OW32605   6.535   2.031   3.811
10569SOL    HW132606   6.626   2.014   3.774
10569SOL    HW232607   6.483   1.945   3.811
10570SOL     OW32608   0.949   2.987   1.745
10570SOL    HW132609   0.889   2.909   1.723
10570SOL    HW232610   1.014   3.001   1.670
10571SOL     OW32611   6.947   6.994   4.791
10571SOL    HW132612   6.955   0.056   4.734
10571SOL    HW232613   6.869   7.005   4.853
10572SOL     OW32614   6.666   3.668   2.660
10572SOL    HW132615   6.625   3.685   2.750
10572SOL    HW232616   6.624   3.586   2.620
10573SOL     OW32617   6.640   4.669   5.523
10573SOL    HW132618   6.707   4.596   5.508
10573SOL    HW232619   6.602   4.660   5.615
10574SOL     OW32620   0.631   2.738   2.806
10574SOL    HW132621   0.635   2.823   2.753
10574SOL    HW232622   0.559   2.679   2.769
10575SOL     OW32623   0.200   0.220   6.014
10575SOL    HW132624   0.292   0.247   6.042
10575SOL    HW232625   0.182   0.253   5.921
10576SOL     OW32626   0.500   5.891   3.550
10576SOL    HW132627   0.599   5.894   3.563
10576SOL    HW232628   0.479   5.884   3.453
10577SOL     OW32629   0.594   3.334   5.663
10577SOL    HW132630   0.693   3.332   5.655
10577SOL    HW232631   0.553   3.312   5.575
10578SOL     OW32632   5.349   0.873   5.264
10578SOL    HW132633   5.286   0.851   5.338
10578SOL    HW232634   5.439   0.893   5.303
10579SOL     OW32635   5.488   6.668   1.324
10579SOL    HW132636   5.537   6.585   1.349
10579SOL    HW232637   5.542   6.721   1.258
10580SOL     OW32638   0.956   5.660   0.743
10580SOL    HW132639   1.004   5.607   0.813
10580SOL    HW232640   0.866   5.619   0.728
10581SOL     OW32641   4.308   2.274   2.616
10581SOL    HW132642   4.353   2.349   2.566
10581SOL    HW232643   4.258   2.312   2.694
10582SOL     OW32644   3.470   4.105   6.982
10582SOL    HW132645   3.560   4.116   0.003
10582SOL    HW232646   3.406   4.171   0.004
10583SOL     OW32647   4.707   0.727   1.624
10583SOL    HW132648   4.718   0.651   1.688
10583SOL    HW232649   4.760   0.710   1.541
10584SOL     OW32650   5.234   6.677   1.562
10584SOL    HW132651   5.235   6.581   1.535
10584SOL    HW232652   5.275   6.733   1.489
10585SOL     OW32653   2.991   4.139   6.643
10585SOL    HW132654   3.004   4.115   6.547
10585SOL    HW232655   3.015   4.060   6.700
10586SOL     OW32656   5.079   2.176   2.032
10586SOL    HW132657   5.100   2.265   1.990
10586SOL    HW232658   4.980   2.159   2.025
10587SOL     OW32659   0.302   3.852   0.704
10587SOL    HW132660   0.390   3.894   0.682
10587SOL    HW232661   0.237   3.923   0.731
10588SOL     OW32662   1.834   5.319   3.734
10588SOL    HW132663   1.899   5.344   3.807
10588SOL    HW232664   1.839   5.388   3.661
10589SOL     OW32665   5.817   0.887   4.640
10589SOL    HW132666   5.773   0.969   4.604
10589SOL    HW232667   5.894   0.862   4.581
10590SOL     OW32668   0.530   0.247   4.294
10590SOL    HW132669   0.447   0.271   4.343
10590SOL    HW232670   0.606   0.304   4.325
10591SOL     OW32671   1.351   2.379   1.197
10591SOL    HW132672   1.446   2.408   1.186
10591SOL    HW232673   1.345   2.280   1.179
10592SOL     OW32674   4.953   1.764   6.192
10592SOL    HW132675   4.981   1.672   6.162
10592SOL    HW232676   4.861   1.760   6.231
10593SOL     OW32677   1.727   3.779   2.285
10593SOL    HW132678   1.657   3.850   2.271
10593SOL    HW232679   1.767   3.754   2.197
10594SOL     OW32680   1.597   1.417   4.351
10594SOL    HW132681   1.632   1.337   4.401
10594SOL    HW232682   1.620   1.408   4.254
10595SOL     OW32683   1.537   5.718   4.863
10595SOL    HW132684   1.617   5.775   4.841
10595SOL    HW232685   1.542   5.633   4.812
10596SOL     OW32686   2.579   1.076   1.037
10596SOL    HW132687   2.560   0.999   0.976
10596SOL    HW232688   2.661   1.123   1.006
10597SOL     OW32689   1.834   0.652   3.744
10597SOL    HW132690   1.846   0.584   3.816
10597SOL    HW232691   1.805   0.605   3.660
10598SOL     OW32692   3.065   0.904   0.833
10598SOL    HW132693   3.155   0.943   0.853
10598SOL    HW232694   3.061   0.810   0.866
10599SOL     OW32695   4.768   6.955   6.158
10599SOL    HW132696   4.677   6.994   6.145
10599SOL    HW232697   4.781   6.877   6.097
10600SOL     OW32698   1.904   3.005   5.345
10600SOL    HW132699   1.994   3.003   5.300
10600SOL    HW232700   1.872   2.911   5.359
10601SOL     OW32701   4.599   6.318   5.287
10601SOL    HW132702   4.513   6.360   5.258
10601SOL    HW232703   4.675   6.361   5.239
10602SOL     OW32704   4.892   2.732   2.265
10602SOL    HW132705   4.935   2.800   2.207
10602SOL    HW232706   4.882   2.646   2.215
10603SOL     OW32707   0.468   5.685   4.998
10603SOL    HW132708   0.508   5.612   4.943
10603SOL    HW232709   0.376   5.658   5.027
10604SOL     OW32710   0.685   4.438   6.601
10604SOL    HW132711   0.612   4.458   6.666
10604SOL    HW232712   0.717   4.344   6.614
10605SOL     OW32713   1.303   4.679   0.477
10605SOL    HW132714   1.277   4.694   0.572
10605SOL    HW232715   1.253   4.600   0.441
10606SOL     OW32716   1.590   0.872   1.950
10606SOL    HW132717   1.686   0.889   1.928
10606SOL    HW232718   1.534   0.887   1.869
10607SOL     OW32719   5.647   3.972   0.101
10607SOL    HW132720   5.669   4.050   0.159
10607SOL    HW232721   5.668   3.887   0.149
10608SOL     OW32722   5.326   6.169   2.483
10608SOL    HW132723   5.421   6.136   2.488
10608SOL    HW232724   5.270   6.117   2.547
10609SOL     OW32725   3.960   6.606   3.070
10609SOL    HW132726   3.992   6.637   2.981
10609SOL    HW232727   4.037   6.571   3.124
10610SOL     OW32728   2.334   5.047   5.106
10610SOL    HW132729   2.333   5.043   5.006
10610SOL    HW232730   2.241   5.063   5.139
10611SOL     OW32731   4.698   2.260   5.947
10611SOL    HW132732   4.618   2.237   6.001
10611SOL    HW232733   4.703   2.359   5.934
10612SOL     OW32734   1.960   0.808   1.625
10612SOL    HW132735   1.919   0.723   1.593
10612SOL    HW232736   2.054   0.815   1.592
10613SOL     OW32737   1.598   6.159   0.302
10613SOL    HW132738   1.682   6.154   0.249
10613SOL    HW232739   1.608   6.227   0.375
10614SOL     OW32740   0.502   1.079   3.033
10614SOL    HW132741   0.538   0.987   3.045
10614SOL    HW232742   0.402   1.075   3.029
10615SOL     OW32743   0.564   6.153   5.787
10615SOL    HW132744   0.634   6.139   5.857
10615SOL    HW232745   0.559   6.073   5.727
10616SOL     OW32746   3.458   5.590   1.580
10616SOL    HW132747   3.408   5.664   1.536
10616SOL    HW232748   3.400   5.545   1.647
10617SOL     OW32749   6.365   2.205   6.334
10617SOL    HW132750   6.414   2.127   6.372
10617SOL    HW232751   6.431   2.274   6.304
10618SOL     OW32752   6.905   3.955   1.137
10618SOL    HW132753   6.851   3.872   1.149
10618SOL    HW232754   6.859   4.032   1.183
10619SOL     OW32755   0.538   3.478   4.005
10619SOL    HW132756   0.456   3.536   3.996
10619SOL    HW232757   0.510   3.387   4.034
10620SOL     OW32758   1.757   4.891   3.879
10620SOL    HW132759   1.827   4.855   3.941
10620SOL    HW232760   1.723   4.978   3.914
10621SOL     OW32761   3.453   1.048   0.628
10621SOL    HW132762   3.442   1.144   0.603
10621SOL    HW232763   3.419   1.034   0.721
10622SOL     OW32764   4.511   2.522   0.543
10622SOL    HW132765   4.552   2.498   0.631
10622SOL    HW232766   4.575   2.499   0.469
10623SOL     OW32767   6.561   1.424   4.396
10623SOL    HW132768   6.529   1.340   4.353
10623SOL    HW232769   6.521   1.503   4.349
10624SOL     OW32770   2.533   1.561   3.441
10624SOL    HW132771   2.451   1.555   3.385
10624SOL    HW232772   2.513   1.529   3.534
10625SOL     OW32773   1.010   2.567   1.459
10625SOL    HW132774   0.922   2.609   1.435
10625SOL    HW232775   1.054   2.531   1.377
10626SOL     OW32776   0.157   2.020   2.952
10626SOL    HW132777   0.222   2.077   3.002
10626SOL    HW232778   0.080   2.076   2.922
10627SOL     OW32779   3.162   5.496   4.512
10627SOL    HW132780   3.105   5.502   4.594
10627SOL    HW232781   3.208   5.407   4.509
10628SOL     OW32782   0.249   0.037   5.164
10628SOL    HW132783   0.318   7.009   5.217
10628SOL    HW232784   0.198   6.991   5.108
10629SOL     OW32785   3.258   4.217   6.569
10629SOL    HW132786   3.232   4.132   6.524
10629SOL    HW232787   3.179   4.256   6.616
10630SOL     OW32788   5.203   1.406   1.567
10630SOL    HW132789   5.212   1.356   1.481
10630SOL    HW232790   5.215   1.504   1.550
10631SOL     OW32791   1.643   6.912   4.153
10631SOL    HW132792   1.714   6.982   4.138
10631SOL    HW232793   1.596   6.931   4.239
10632SOL     OW32794   6.763   2.875   0.344
10632SOL    HW132795   6.700   2.895   0.269
10632SOL    HW232796   6.856   2.870   0.308
10633SOL     OW32797   1.749   4.825   6.717
10633SOL    HW132798   1.830   4.881   6.734
10633SOL    HW232799   1.776   4.736   6.681
10634SOL     OW32800   3.286   6.106   2.424
10634SOL    HW132801   3.331   6.164   2.356
10634SOL    HW232802   3.311   6.138   2.516
10635SOL     OW32803   0.808   0.510   1.374
10635SOL    HW132804   0.816   0.565   1.457
10635SOL    HW232805   0.896   0.509   1.326
10636SOL     OW32806   4.950   1.877   6.803
10636SOL    HW132807   4.859   1.879   6.847
10636SOL    HW232808   5.009   1.945   6.847
10637SOL     OW32809   3.429   3.592   6.964
10637SOL    HW132810   3.475   3.673   6.927
10637SOL    HW232811   3.380   3.618   0.028
10638SOL     OW32812   0.025   1.469   5.551
10638SOL    HW132813   6.954   1.509   5.547
10638SOL    HW232814   0.030   1.392   5.487
10639SOL     OW32815   3.501   1.707   4.408
10639SOL    HW132816   3.443   1.759   4.471
10639SOL    HW232817   3.574   1.662   4.459
10640SOL     OW32818   4.633   6.435   0.793
10640SOL    HW132819   4.626   6.339   0.821
10640SOL    HW232820   4.650   6.492   0.873
10641SOL     OW32821   3.724   6.605   6.889
10641SOL    HW132822   3.664   6.685   6.886
10641SOL    HW232823   3.669   6.523   6.904
10642SOL     OW32824   0.098   5.899   2.130
10642SOL    HW132825   0.157   5.846   2.192
10642SOL    HW232826   0.040   5.960   2.183
10643SOL     OW32827   3.474   3.535   6.108
10643SOL    HW132828   3.403   3.466   6.124
10643SOL    HW232829   3.468   3.568   6.014
10644SOL     OW32830   4.001   1.454   5.273
10644SOL    HW132831   3.970   1.542   5.236
10644SOL    HW232832   4.043   1.468   5.363
10645SOL     OW32833   1.841   0.881   3.030
10645SOL    HW132834   1.919   0.848   2.976
10645SOL    HW232835   1.758   0.877   2.975
10646SOL     OW32836   0.109   4.523   0.002
10646SOL    HW132837   0.179   4.572   0.055
10646SOL    HW232838   0.147   4.436   6.989
10647SOL     OW32839   6.045   6.233   1.227
10647SOL    HW132840   6.048   6.249   1.326
10647SOL    HW232841   6.136   6.207   1.195
10648SOL     OW32842   4.322   3.675   6.081
10648SOL    HW132843   4.347   3.732   6.159
10648SOL    HW232844   4.296   3.732   6.003
10649SOL     OW32845   6.521   4.753   6.279
10649SOL    HW132846   6.530   4.658   6.306
10649SOL    HW232847   6.488   4.808   6.356
10650SOL     OW32848   1.721   0.572   5.852
10650SOL    HW132849   1.689   0.478   5.866
10650SOL    HW232850   1.818   0.571   5.827
10651SOL     OW32851   1.419   0.533   5.813
10651SOL    HW132852   1.494   0.599   5.813
10651SOL    HW232853   1.455   0.441   5.802
10652SOL     OW32854   4.773   0.037   0.504
10652SOL    HW132855   4.801   6.963   0.528
10652SOL    HW232856   4.841   0.102   0.538
10653SOL     OW32857   5.990   4.098   3.431
10653SOL    HW132858   6.030   4.122   3.520
10653SOL    HW232859   5.890   4.097   3.439
10654SOL     OW32860   5.180   0.035   1.661
10654SOL    HW132861   5.277   0.056   1.655
10654SOL    HW232862   5.149   7.010   1.577
10655SOL     OW32863   3.067   6.068   0.823
10655SOL    HW132864   3.081   5.970   0.815
10655SOL    HW232865   3.056   6.093   0.919
10656SOL     OW32866   0.314   3.478   5.956
10656SOL    HW132867   0.399   3.501   6.003
10656SOL    HW232868   0.282   3.387   5.986
10657SOL     OW32869   6.011   0.377   6.864
10657SOL    HW132870   6.087   0.319   6.834
10657SOL    HW232871   5.940   0.321   6.906
10658SOL     OW32872   7.012   6.035   3.505
10658SOL    HW132873   0.076   6.001   3.548
10658SOL    HW232874   6.950   5.958   3.487
10659SOL     OW32875   6.174   1.211   1.705
10659SOL    HW132876   6.101   1.146   1.724
10659SOL    HW232877   6.212   1.194   1.614
10660SOL     OW32878   4.356   5.037   4.789
10660SOL    HW132879   4.360   5.053   4.690
10660SOL    HW232880   4.272   4.988   4.811
10661SOL     OW32881   6.998   0.934   2.014
10661SOL    HW132882   0.025   0.905   1.930
10661SOL    HW232883   6.931   1.005   1.992
10662SOL     OW32884   0.393   2.218   0.573
10662SOL    HW132885   0.402   2.228   0.474
10662SOL    HW232886   0.425   2.128   0.602
10663SOL     OW32887   1.071   2.512   2.746
10663SOL    HW132888   1.071   2.412   2.743
10663SOL    HW232889   1.067   2.548   2.653
10664SOL     OW32890   1.966   5.414   6.317
10664SOL    HW132891   2.056   5.380   6.344
10664SOL    HW232892   1.936   5.365   6.235
10665SOL     OW32893   5.935   2.071   6.471
10665SOL    HW132894   5.846   2.115   6.463
10665SOL    HW232895   6.007   2.136   6.448
10666SOL     OW32896   0.088   6.140   0.722
10666SOL    HW132897   0.169   6.085   0.737
10666SOL    HW232898   0.051   6.121   0.631
10667SOL     OW32899   3.576   2.603   5.626
10667SOL    HW132900   3.482   2.633   5.643
10667SOL    HW232901   3.639   2.666   5.673
10668SOL     OW32902   1.485   6.858   6.564
10668SOL    HW132903   1.446   6.917   6.635
10668SOL    HW232904   1.469   6.762   6.588
10669SOL     OW32905   1.920   5.960   6.383
10669SOL    HW132906   1.956   5.899   6.312
10669SOL    HW232907   1.858   5.910   6.443
10670SOL     OW32908   5.851   4.018   5.663
10670SOL    HW132909   5.797   4.003   5.746
10670SOL    HW232910   5.833   4.110   5.628
10671SOL     OW32911   2.273   2.873   3.666
10671SOL    HW132912   2.205   2.944   3.651
10671SOL    HW232913   2.233   2.798   3.717
10672SOL     OW32914   6.854   2.689   0.547
10672SOL    HW132915   6.823   2.738   0.629
10672SOL    HW232916   6.797   2.714   0.470
10673SOL     OW32917   3.160   4.046   3.576
10673SOL    HW132918   3.191   4.104   3.500
10673SOL    HW232919   3.134   3.956   3.541
10674SOL     OW32920   3.786   1.629   2.735
10674SOL    HW132921   3.704   1.574   2.718
10674SOL    HW232922   3.763   1.726   2.729
10675SOL     OW32923   1.380   1.916   5.368
10675SOL    HW132924   1.311   1.948   5.303
10675SOL    HW232925   1.444   1.990   5.388
10676SOL     OW32926   6.406   0.761   6.875
10676SOL    HW132927   6.318   0.719   6.899
10676SOL    HW232928   6.411   0.775   6.776
10677SOL     OW32929   4.860   0.416   6.563
10677SOL    HW132930   4.897   0.340   6.617
10677SOL    HW232931   4.778   0.385   6.514
10678SOL     OW32932   2.336   5.710   3.880
10678SOL    HW132933   2.400   5.633   3.881
10678SOL    HW232934   2.243   5.676   3.866
10679SOL     OW32935   6.155   5.074   4.417
10679SOL    HW132936   6.143   5.143   4.488
10679SOL    HW232937   6.250   5.076   4.385
10680SOL     OW32938   0.385   2.418   3.510
10680SOL    HW132939   0.362   2.475   3.431
10680SOL    HW232940   0.471   2.449   3.549
10681SOL     OW32941   0.694   3.021   6.853
10681SOL    HW132942   0.756   3.009   6.775
10681SOL    HW232943   0.674   2.931   6.893
10682SOL     OW32944   6.734   2.464   3.680
10682SOL    HW132945   6.718   2.546   3.626
10682SOL    HW232946   6.709   2.383   3.626
10683SOL     OW32947   0.936   0.154   4.122
10683SOL    HW132948   0.967   0.214   4.049
10683SOL    HW232949   0.905   0.210   4.199
10684SOL     OW32950   5.121   6.295   0.647
10684SOL    HW132951   5.107   6.348   0.731
10684SOL    HW232952   5.055   6.324   0.578
10685SOL     OW32953   6.669   2.196   4.136
10685SOL    HW132954   6.677   2.098   4.120
10685SOL    HW232955   6.651   2.243   4.049
10686SOL     OW32956   5.341   4.133   1.355
10686SOL    HW132957   5.265   4.076   1.325
10686SOL    HW232958   5.427   4.082   1.347
10687SOL     OW32959   0.377   5.163   1.146
10687SOL    HW132960   0.464   5.180   1.192
10687SOL    HW232961   0.379   5.205   1.055
10688SOL     OW32962   1.844   5.241   1.425
10688SOL    HW132963   1.892   5.162   1.387
10688SOL    HW232964   1.847   5.316   1.359
10689SOL     OW32965   6.893   0.662   1.788
10689SOL    HW132966   6.819   0.720   1.754
10689SOL    HW232967   6.981   0.700   1.759
10690SOL     OW32968   3.805   0.475   2.591
10690SOL    HW132969   3.768   0.564   2.562
10690SOL    HW232970   3.879   0.490   2.657
10691SOL     OW32971   5.232   1.664   1.540
10691SOL    HW132972   5.282   1.712   1.612
10691SOL    HW232973   5.147   1.713   1.520
10692SOL     OW32974   5.573   6.379   4.074
10692SOL    HW132975   5.594   6.397   3.978
10692SOL    HW232976   5.495   6.435   4.102
10693SOL     OW32977   4.106   2.255   4.713
10693SOL    HW132978   4.122   2.340   4.662
10693SOL    HW232979   4.185   2.234   4.770
10694SOL     OW32980   3.246   6.478   0.220
10694SOL    HW132981   3.181   6.471   0.295
10694SOL    HW232982   3.307   6.556   0.236
10695SOL     OW32983   5.782   3.027   5.668
10695SOL    HW132984   5.684   3.036   5.654
10695SOL    HW232985   5.819   2.961   5.603
10696SOL     OW32986   6.747   0.716   1.021
10696SOL    HW132987   6.704   0.631   0.989
10696SOL    HW232988   6.735   0.787   0.952
10697SOL     OW32989   3.099   6.069   2.754
10697SOL    HW132990   3.027   6.131   2.724
10697SOL    HW232991   3.072   6.025   2.840
10698SOL     OW32992   3.846   6.722   3.603
10698SOL    HW132993   3.751   6.702   3.626
10698SOL    HW232994   3.877   6.661   3.530
10699SOL     OW32995   0.210   3.962   3.317
10699SOL    HW132996   0.158   3.990   3.236
10699SOL    HW232997   0.163   3.887   3.363
10700SOL     OW32998   0.327   2.714   3.434
10700SOL    HW132999   0.418   2.707   3.393
10700SOL    HW233000   0.330   2.681   3.528
10701SOL     OW33001   2.344   6.727   1.655
10701SOL    HW133002   2.366   6.810   1.706
10701SOL    HW233003   2.246   6.711   1.657
10702SOL     OW33004   4.683   1.814   1.153
10702SOL    HW133005   4.710   1.909   1.170
10702SOL    HW233006   4.584   1.809   1.139
10703SOL     OW33007   3.463   4.142   4.620
10703SOL    HW133008   3.482   4.120   4.716
10703SOL    HW233009   3.365   4.134   4.603
10704SOL     OW33010   5.416   5.099   1.390
10704SOL    HW133011   5.355   5.084   1.312
10704SOL    HW233012   5.495   5.039   1.382
10705SOL     OW33013   1.003   3.047   0.143
10705SOL    HW133014   0.984   2.949   0.150
10705SOL    HW233015   0.922   3.099   0.169
10706SOL     OW33016   3.036   3.736   0.388
10706SOL    HW133017   2.979   3.686   0.324
10706SOL    HW233018   3.084   3.672   0.448
10707SOL     OW33019   6.432   0.815   6.604
10707SOL    HW133020   6.472   0.846   6.518
10707SOL    HW233021   6.338   0.849   6.611
10708SOL     OW33022   4.459   3.436   1.290
10708SOL    HW133023   4.389   3.365   1.282
10708SOL    HW233024   4.420   3.516   1.335
10709SOL     OW33025   0.735   1.124   5.516
10709SOL    HW133026   0.763   1.216   5.487
10709SOL    HW233027   0.636   1.114   5.505
10710SOL     OW33028   6.737   6.826   3.799
10710SOL    HW133029   6.662   6.837   3.733
10710SOL    HW233030   6.724   6.741   3.849
10711SOL     OW33031   2.058   4.053   5.070
10711SOL    HW133032   2.007   4.125   5.024
10711SOL    HW233033   2.156   4.063   5.051
10712SOL     OW33034   3.835   2.117   5.766
10712SOL    HW133035   3.930   2.090   5.751
10712SOL    HW233036   3.830   2.183   5.842
10713SOL     OW33037   2.556   0.223   0.112
10713SOL    HW133038   2.608   0.164   0.174
10713SOL    HW233039   2.496   0.167   0.055
10714SOL     OW33040   5.352   5.290   4.517
10714SOL    HW133041   5.290   5.275   4.593
10714SOL    HW233042   5.321   5.369   4.463
10715SOL     OW33043   5.702   6.690   2.558
10715SOL    HW133044   5.773   6.756   2.532
10715SOL    HW233045   5.705   6.612   2.495
10716SOL     OW33046   6.443   1.963   3.027
10716SOL    HW133047   6.474   2.049   2.986
10716SOL    HW233048   6.443   1.971   3.126
10717SOL     OW33049   6.932   6.612   0.801
10717SOL    HW133050   6.968   6.701   0.829
10717SOL    HW233051   7.004   6.559   0.757
10718SOL     OW33052   0.825   4.733   5.322
10718SOL    HW133053   0.794   4.663   5.387
10718SOL    HW233054   0.924   4.743   5.328
10719SOL     OW33055   3.684   6.576   3.336
10719SOL    HW133056   3.613   6.527   3.387
10719SOL    HW233057   3.774   6.552   3.372
10720SOL     OW33058   1.491   3.494   5.750
10720SOL    HW133059   1.506   3.417   5.812
10720SOL    HW233060   1.540   3.478   5.664
10721SOL     OW33061   5.473   0.782   4.288
10721SOL    HW133062   5.497   0.874   4.320
10721SOL    HW233063   5.430   0.731   4.363
10722SOL     OW33064   0.536   5.208   0.721
10722SOL    HW133065   0.494   5.118   0.729
10722SOL    HW233066   0.489   5.272   0.782
10723SOL     OW33067   6.936   4.833   6.356
10723SOL    HW133068   0.010   4.811   6.333
10723SOL    HW233069   6.891   4.754   6.397
10724SOL     OW33070   3.853   6.583   5.723
10724SOL    HW133071   3.935   6.637   5.702
10724SOL    HW233072   3.849   6.565   5.821
10725SOL     OW33073   6.603   0.351   4.950
10725SOL    HW133074   6.684   0.405   4.932
10725SOL    HW233075   6.612   0.261   4.907
10726SOL     OW33076   6.932   0.806   3.735
10726SOL    HW133077   6.872   0.802   3.815
10726SOL    HW233078   6.878   0.790   3.652
10727SOL     OW33079   5.486   5.659   5.803
10727SOL    HW133080   5.412   5.671   5.868
10727SOL    HW233081   5.486   5.564   5.770
10728SOL     OW33082   5.140   5.775   4.777
10728SOL    HW133083   5.126   5.845   4.848
10728SOL    HW233084   5.059   5.770   4.719
10729SOL     OW33085   6.430   3.389   4.523
10729SOL    HW133086   6.513   3.402   4.578
10729SOL    HW233087   6.437   3.302   4.473
10730SOL     OW33088   0.806   6.061   4.187
10730SOL    HW133089   0.866   6.141   4.178
10730SOL    HW233090   0.736   6.079   4.256
10731SOL     OW33091   5.115   4.117   5.422
10731SOL    HW133092   5.079   4.112   5.329
10731SOL    HW233093   5.058   4.061   5.482
10732SOL     OW33094   5.493   5.685   2.146
10732SOL    HW133095   5.416   5.626   2.171
10732SOL    HW233096   5.475   5.778   2.180
10733SOL     OW33097   0.692   1.718   6.038
10733SOL    HW133098   0.702   1.676   5.948
10733SOL    HW233099   0.782   1.726   6.082
10734SOL     OW33100   0.459   1.109   4.503
10734SOL    HW133101   0.364   1.126   4.527
10734SOL    HW233102   0.518   1.175   4.548
10735SOL     OW33103   0.525   0.947   2.108
10735SOL    HW133104   0.542   1.025   2.049
10735SOL    HW233105   0.494   0.979   2.198
10736SOL     OW33106   5.499   5.873   4.364
10736SOL    HW133107   5.443   5.814   4.422
10736SOL    HW233108   5.468   5.968   4.375
10737SOL     OW33109   5.649   1.248   0.607
10737SOL    HW133110   5.674   1.255   0.704
10737SOL    HW233111   5.567   1.192   0.598
10738SOL     OW33112   0.866   6.527   2.257
10738SOL    HW133113   0.853   6.432   2.287
10738SOL    HW233114   0.783   6.558   2.210
10739SOL     OW33115   5.108   2.844   4.209
10739SOL    HW133116   5.035   2.810   4.150
10739SOL    HW233117   5.193   2.848   4.157
10740SOL     OW33118   3.029   0.918   6.427
10740SOL    HW133119   3.051   0.865   6.509
10740SOL    HW233120   2.954   0.981   6.446
10741SOL     OW33121   2.517   2.605   3.796
10741SOL    HW133122   2.492   2.509   3.804
10741SOL    HW233123   2.475   2.645   3.715
10742SOL     OW33124   7.007   0.175   2.481
10742SOL    HW133125   6.933   0.161   2.546
10742SOL    HW233126   0.073   0.140   2.519
10743SOL     OW33127   4.060   2.837   6.492
10743SOL    HW133128   4.062   2.780   6.410
10743SOL    HW233129   4.071   2.933   6.465
10744SOL     OW33130   1.458   1.715   0.900
10744SOL    HW133131   1.495   1.750   0.815
10744SOL    HW233132   1.360   1.699   0.890
10745SOL     OW33133   3.999   5.542   2.183
10745SOL    HW133134   4.032   5.523   2.090
10745SOL    HW233135   3.962   5.635   2.186
10746SOL     OW33136   2.590   5.462   5.340
10746SOL    HW133137   2.681   5.449   5.379
10746SOL    HW233138   2.564   5.379   5.290
10747SOL     OW33139   6.764   0.108   5.131
10747SOL    HW133140   6.845   0.159   5.102
10747SOL    HW233141   6.694   0.172   5.164
10748SOL     OW33142   3.756   6.330   1.774
10748SOL    HW133143   3.705   6.265   1.718
10748SOL    HW233144   3.698   6.361   1.849
10749SOL     OW33145   5.201   2.278   2.658
10749SOL    HW133146   5.156   2.196   2.695
10749SOL    HW233147   5.169   2.294   2.565
10750SOL     OW33148   3.534   1.905   3.979
10750SOL    HW133149   3.544   1.908   4.079
10750SOL    HW233150   3.514   1.811   3.951
10751SOL     OW33151   5.787   6.152   3.381
10751SOL    HW133152   5.707   6.138   3.439
10751SOL    HW233153   5.758   6.186   3.292
10752SOL     OW33154   6.821   6.278   6.499
10752SOL    HW133155   6.741   6.218   6.511
10752SOL    HW233156   6.860   6.264   6.408
10753SOL     OW33157   5.114   0.029   4.750
10753SOL    HW133158   5.051   0.030   4.673
10753SOL    HW233159   5.189   0.093   4.733
10754SOL     OW33160   6.354   5.422   1.776
10754SOL    HW133161   6.333   5.444   1.681
10754SOL    HW233162   6.297   5.345   1.805
10755SOL     OW33163   0.346   1.451   2.418
10755SOL    HW133164   0.270   1.499   2.374
10755SOL    HW233165   0.340   1.353   2.396
10756SOL     OW33166   0.847   6.859   0.094
10756SOL    HW133167   0.933   6.867   0.045
10756SOL    HW233168   0.795   6.781   0.059
10757SOL     OW33169   0.073   2.056   2.418
10757SOL    HW133170   0.087   2.155   2.427
10757SOL    HW233171   7.007   2.031   2.462
10758SOL     OW33172   0.048   1.311   1.296
10758SOL    HW133173   0.121   1.362   1.251
10758SOL    HW233174   0.045   1.336   1.393
10759SOL     OW33175   3.661   5.471   5.644
10759SOL    HW133176   3.658   5.510   5.736
10759SOL    HW233177   3.692   5.540   5.579
10760SOL     OW33178   1.264   4.860   6.636
10760SOL    HW133179   1.250   4.956   6.610
10760SOL    HW233180   1.342   4.854   6.699
10761SOL     OW33181   1.656   0.658   0.036
10761SOL    HW133182   1.615   0.706   0.114
10761SOL    HW233183   1.586   0.603   7.010
10762SOL     OW33184   1.767   5.495   0.914
10762SOL    HW133185   1.740   5.561   0.843
10762SOL    HW233186   1.791   5.409   0.871
10763SOL     OW33187   5.344   1.403   1.802
10763SOL    HW133188   5.310   1.403   1.707
10763SOL    HW233189   5.283   1.458   1.859
10764SOL     OW33190   4.941   6.985   3.873
10764SOL    HW133191   4.922   0.062   3.855
10764SOL    HW233192   4.887   6.955   3.952
10765SOL     OW33193   0.210   2.819   1.858
10765SOL    HW133194   0.297   2.807   1.904
10765SOL    HW233195   0.223   2.874   1.775
10766SOL     OW33196   3.442   5.672   6.741
10766SOL    HW133197   3.495   5.678   6.825
10766SOL    HW233198   3.352   5.715   6.754
10767SOL     OW33199   1.074   5.567   6.994
10767SOL    HW133200   1.089   5.660   6.959
10767SOL    HW233201   1.035   5.510   6.923
10768SOL     OW33202   6.279   6.259   6.973
10768SOL    HW133203   6.259   6.352   7.003
10768SOL    HW233204   6.377   6.250   6.955
10769SOL     OW33205   2.893   3.489   4.515
10769SOL    HW133206   2.887   3.404   4.463
10769SOL    HW233207   2.802   3.530   4.522
10770SOL     OW33208   4.736   0.640   4.626
10770SOL    HW133209   4.729   0.540   4.629
10770SOL    HW233210   4.646   0.679   4.602
10771SOL     OW33211   5.388   6.381   5.679
10771SOL    HW133212   5.345   6.326   5.608
10771SOL    HW233213   5.488   6.376   5.671
10772SOL     OW33214   4.849   3.258   4.130
10772SOL    HW133215   4.771   3.201   4.107
10772SOL    HW233216   4.934   3.213   4.101
10773SOL     OW33217   0.982   3.497   0.404
10773SOL    HW133218   1.001   3.442   0.486
10773SOL    HW233219   1.061   3.555   0.385
10774SOL     OW33220   6.640   2.745   1.354
10774SOL    HW133221   6.585   2.811   1.404
10774SOL    HW233222   6.585   2.664   1.334
10775SOL     OW33223   1.981   4.159   6.229
10775SOL    HW133224   2.014   4.222   6.300
10775SOL    HW233225   2.059   4.121   6.179
10776SOL     OW33226   0.240   3.886   3.711
10776SOL    HW133227   0.326   3.931   3.687
10776SOL    HW233228   0.237   3.796   3.669
10777SOL     OW33229   0.553   6.942   1.818
10777SOL    HW133230   0.590   6.854   1.788
10777SOL    HW233231   0.471   6.964   1.764
10778SOL     OW33232   4.701   6.484   3.276
10778SOL    HW133233   4.693   6.492   3.177
10778SOL    HW233234   4.736   6.570   3.314
10779SOL     OW33235   5.459   3.067   5.323
10779SOL    HW133236   5.544   3.096   5.278
10779SOL    HW233237   5.382   3.114   5.280
10780SOL     OW33238   0.821   5.718   4.551
10780SOL    HW133239   0.805   5.731   4.649
10780SOL    HW233240   0.734   5.703   4.504
10781SOL     OW33241   6.210   2.693   5.883
10781SOL    HW133242   6.143   2.621   5.863
10781SOL    HW233243   6.174   2.752   5.955
10782SOL     OW33244   1.748   3.259   4.884
10782SOL    HW133245   1.788   3.176   4.845
10782SOL    HW233246   1.650   3.243   4.901
10783SOL     OW33247   1.729   4.039   4.321
10783SOL    HW133248   1.659   4.111   4.319
10783SOL    HW233249   1.807   4.071   4.374
10784SOL     OW33250   4.777   5.756   3.769
10784SOL    HW133251   4.747   5.720   3.858
10784SOL    HW233252   4.782   5.681   3.703
10785SOL     OW33253   1.587   5.494   1.697
10785SOL    HW133254   1.603   5.578   1.749
10785SOL    HW233255   1.522   5.436   1.745
10786SOL     OW33256   4.893   1.191   2.360
10786SOL    HW133257   4.829   1.262   2.330
10786SOL    HW233258   4.851   1.137   2.433
10787SOL     OW33259   3.289   1.328   3.665
10787SOL    HW133260   3.310   1.365   3.575
10787SOL    HW233261   3.372   1.324   3.721
10788SOL     OW33262   1.498   2.705   6.831
10788SOL    HW133263   1.429   2.728   6.762
10788SOL    HW233264   1.457   2.714   6.922
10789SOL     OW33265   0.255   2.744   2.688
10789SOL    HW133266   0.294   2.658   2.721
10789SOL    HW233267   0.270   2.752   2.590
10790SOL     OW33268   6.676   3.475   4.651
10790SOL    HW133269   6.695   3.438   4.742
10790SOL    HW233270   6.741   3.548   4.630
10791SOL     OW33271   2.203   2.943   3.321
10791SOL    HW133272   2.143   2.864   3.305
10791SOL    HW233273   2.187   2.979   3.413
10792SOL     OW33274   2.887   0.942   1.721
10792SOL    HW133275   2.801   0.968   1.765
10792SOL    HW233276   2.869   0.913   1.627
10793SOL     OW33277   3.809   2.087   3.416
10793SOL    HW133278   3.714   2.060   3.432
10793SOL    HW233279   3.823   2.180   3.450
10794SOL     OW33280   4.988   2.873   0.328
10794SOL    HW133281   5.044   2.792   0.313
10794SOL    HW233282   4.922   2.882   0.253
10795SOL     OW33283   6.061   2.586   3.492
10795SOL    HW133284   6.061   2.548   3.585
10795SOL    HW233285   6.016   2.521   3.430
10796SOL     OW33286   6.931   2.174   6.875
10796SOL    HW133287   6.890   2.234   6.943
10796SOL    HW233288   6.973   2.229   6.802
10797SOL     OW33289   5.730   4.639   6.802
10797SOL    HW133290   5.788   4.618   6.723
10797SOL    HW233291   5.774   4.708   6.859
10798SOL     OW33292   2.665   5.867   0.676
10798SOL    HW133293   2.747   5.921   0.661
10798SOL    HW233294   2.664   5.832   0.769
10799SOL     OW33295   2.114   0.815   2.932
10799SOL    HW133296   2.195   0.823   2.990
10799SOL    HW233297   2.127   0.868   2.848
10800SOL     OW33298   1.244   0.250   5.322
10800SOL    HW133299   1.201   0.339   5.335
10800SOL    HW233300   1.190   0.179   5.367
10801SOL     OW33301   2.686   6.383   6.651
10801SOL    HW133302   2.737   6.300   6.676
10801SOL    HW233303   2.680   6.443   6.731
10802SOL     OW33304   1.382   4.992   3.324
10802SOL    HW133305   1.353   4.913   3.270
10802SOL    HW233306   1.443   5.049   3.269
10803SOL     OW33307   0.664   4.237   4.740
10803SOL    HW133308   0.679   4.310   4.806
10803SOL    HW233309   0.751   4.195   4.716
10804SOL     OW33310   5.335   5.274   5.985
10804SOL    HW133311   5.366   5.341   5.918
10804SOL    HW233312   5.253   5.307   6.031
10805SOL     OW33313   5.842   5.337   6.397
10805SOL    HW133314   5.798   5.298   6.316
10805SOL    HW233315   5.886   5.423   6.373
10806SOL     OW33316   6.632   3.021   5.103
10806SOL    HW133317   6.699   3.041   5.174
10806SOL    HW233318   6.542   3.006   5.145
10807SOL     OW33319   4.314   2.680   5.347
10807SOL    HW133320   4.236   2.660   5.288
10807SOL    HW233321   4.311   2.776   5.375
10808SOL     OW33322   0.435   2.365   1.117
10808SOL    HW133323   0.429   2.333   1.022
10808SOL    HW233324   0.372   2.311   1.173
10809SOL     OW33325   0.675   0.553   3.487
10809SOL    HW133326   0.770   0.555   3.518
10809SOL    HW233327   0.621   0.617   3.543
10810SOL     OW33328   2.033   1.565   6.408
10810SOL    HW133329   2.103   1.504   6.444
10810SOL    HW233330   2.075   1.631   6.345
10811SOL     OW33331   4.360   4.827   5.982
10811SOL    HW133332   4.294   4.873   6.041
10811SOL    HW233333   4.318   4.807   5.893
10812SOL     OW33334   6.456   3.030   2.094
10812SOL    HW133335   6.525   3.099   2.070
10812SOL    HW233336   6.501   2.944   2.115
10813SOL     OW33337   2.622   5.769   2.206
10813SOL    HW133338   2.528   5.793   2.231
10813SOL    HW233339   2.666   5.723   2.283
10814SOL     OW33340   2.066   6.007   4.324
10814SOL    HW133341   2.045   5.943   4.398
10814SOL    HW233342   1.983   6.023   4.270
10815SOL     OW33343   5.489   2.835   6.133
10815SOL    HW133344   5.434   2.915   6.109
10815SOL    HW233345   5.441   2.752   6.105
10816SOL     OW33346   1.927   2.560   1.074
10816SOL    HW133347   1.929   2.636   1.009
10816SOL    HW233348   1.912   2.474   1.025
10817SOL     OW33349   3.789   1.319   1.985
10817SOL    HW133350   3.804   1.415   1.965
10817SOL    HW233351   3.843   1.262   1.922
10818SOL     OW33352   4.499   3.638   5.742
10818SOL    HW133353   4.418   3.591   5.778
10818SOL    HW233354   4.470   3.706   5.674
10819SOL     OW33355   2.119   3.285   4.780
10819SOL    HW133356   2.155   3.192   4.788
10819SOL    HW233357   2.121   3.314   4.684
10820SOL     OW33358   0.468   5.942   4.901
10820SOL    HW133359   0.370   5.956   4.913
10820SOL    HW233360   0.494   5.854   4.940
10821SOL     OW33361   0.123   0.645   6.177
10821SOL    HW133362   0.093   0.611   6.266
10821SOL    HW233363   0.204   0.593   6.148
10822SOL     OW33364   0.162   5.323   6.082
10822SOL    HW133365   0.152   5.419   6.109
10822SOL    HW233366   0.251   5.310   6.037
10823SOL     OW33367   2.655   2.415   0.400
10823SOL    HW133368   2.661   2.502   0.449
10823SOL    HW233369   2.735   2.404   0.341
10824SOL     OW33370   5.220   1.483   4.680
10824SOL    HW133371   5.312   1.472   4.644
10824SOL    HW233372   5.197   1.580   4.683
10825SOL     OW33373   4.346   1.851   2.067
10825SOL    HW133374   4.254   1.818   2.045
10825SOL    HW233375   4.359   1.850   2.166
10826SOL     OW33376   0.263   3.571   0.793
10826SOL    HW133377   0.348   3.590   0.842
10826SOL    HW233378   0.232   3.654   0.746
10827SOL     OW33379   0.248   3.628   4.747
10827SOL    HW133380   0.318   3.684   4.704
10827SOL    HW233381   0.291   3.550   4.793
10828SOL     OW33382   3.089   4.393   6.778
10828SOL    HW133383   3.116   4.309   6.825
10828SOL    HW233384   3.169   4.451   6.765
10829SOL     OW33385   1.797   3.753   1.307
10829SOL    HW133386   1.854   3.803   1.243
10829SOL    HW233387   1.833   3.660   1.318
10830SOL     OW33388   6.442   0.801   3.662
10830SOL    HW133389   6.410   0.866   3.731
10830SOL    HW233390   6.492   0.727   3.707
10831SOL     OW33391   5.177   3.078   2.499
10831SOL    HW133392   5.169   3.004   2.433
10831SOL    HW233393   5.246   3.144   2.466
10832SOL     OW33394   1.661   2.791   2.320
10832SOL    HW133395   1.703   2.756   2.403
10832SOL    HW233396   1.702   2.879   2.296
10833SOL     OW33397   3.415   0.439   4.999
10833SOL    HW133398   3.487   0.415   5.065
10833SOL    HW233399   3.419   0.377   4.921
10834SOL     OW33400   6.645   2.486   5.855
10834SOL    HW133401   6.555   2.446   5.873
10834SOL    HW233402   6.696   2.427   5.793
10835SOL     OW33403   0.552   0.959   0.975
10835SOL    HW133404   0.477   0.985   1.036
10835SOL    HW233405   0.519   0.894   0.907
10836SOL     OW33406   6.918   0.924   1.426
10836SOL    HW133407   6.873   0.940   1.514
10836SOL    HW233408   6.874   0.847   1.380
10837SOL     OW33409   1.576   5.021   0.760
10837SOL    HW133410   1.636   4.951   0.721
10837SOL    HW233411   1.569   5.007   0.859
10838SOL     OW33412   6.111   6.564   1.129
10838SOL    HW133413   6.209   6.542   1.136
10838SOL    HW233414   6.072   6.572   1.221
10839SOL     OW33415   2.607   1.298   6.587
10839SOL    HW133416   2.541   1.304   6.512
10839SOL    HW233417   2.572   1.235   6.657
10840SOL     OW33418   0.814   0.663   3.709
10840SOL    HW133419   0.719   0.648   3.735
10840SOL    HW233420   0.857   0.726   3.774
10841SOL     OW33421   4.415   4.209   6.850
10841SOL    HW133422   4.490   4.258   6.805
10841SOL    HW233423   4.449   4.164   6.933
10842SOL     OW33424   6.098   1.883   2.413
10842SOL    HW133425   6.113   1.871   2.512
10842SOL    HW233426   6.099   1.793   2.369
10843SOL     OW33427   1.102   2.259   1.507
10843SOL    HW133428   1.169   2.333   1.498
10843SOL    HW233429   1.137   2.190   1.570
10844SOL     OW33430   4.228   6.293   3.375
10844SOL    HW133431   4.263   6.308   3.467
10844SOL    HW233432   4.240   6.376   3.320
10845SOL     OW33433   2.573   3.527   1.044
10845SOL    HW133434   2.587   3.476   1.129
10845SOL    HW233435   2.509   3.477   0.985
10846SOL     OW33436   3.062   1.802   2.316
10846SOL    HW133437   3.124   1.864   2.268
10846SOL    HW233438   3.114   1.749   2.383
10847SOL     OW33439   5.594   2.006   4.934
10847SOL    HW133440   5.510   2.009   4.987
10847SOL    HW233441   5.579   2.049   4.845
10848SOL     OW33442   2.090   0.139   6.485
10848SOL    HW133443   2.085   0.039   6.486
10848SOL    HW233444   2.150   0.170   6.558
10849SOL     OW33445   0.728   4.847   5.080
10849SOL    HW133446   0.741   4.798   5.166
10849SOL    HW233447   0.630   4.861   5.065
10850SOL     OW33448   6.399   1.167   3.548
10850SOL    HW133449   6.411   1.098   3.476
10850SOL    HW233450   6.303   1.191   3.555
10851SOL     OW33451   5.335   3.080   0.563
10851SOL    HW133452   5.291   3.029   0.637
10851SOL    HW233453   5.434   3.083   0.577
10852SOL     OW33454   6.140   1.775   5.737
10852SOL    HW133455   6.058   1.829   5.760
10852SOL    HW233456   6.120   1.717   5.658
10853SOL     OW33457   1.315   6.664   5.461
10853SOL    HW133458   1.401   6.661   5.512
10853SOL    HW233459   1.238   6.664   5.526
10854SOL     OW33460   5.631   6.448   6.888
10854SOL    HW133461   5.645   6.433   6.791
10854SOL    HW233462   5.535   6.471   6.905
10855SOL     OW33463   0.545   6.157   6.981
10855SOL    HW133464   0.550   6.200   6.891
10855SOL    HW233465   0.568   6.225   0.032
10856SOL     OW33466   4.206   0.130   6.736
10856SOL    HW133467   4.200   0.224   6.771
10856SOL    HW233468   4.214   0.132   6.637
10857SOL     OW33469   6.045   6.705   4.584
10857SOL    HW133470   6.125   6.688   4.641
10857SOL    HW233471   5.987   6.624   4.582
10858SOL     OW33472   1.592   2.506   1.276
10858SOL    HW133473   1.680   2.551   1.295
10858SOL    HW233474   1.536   2.566   1.218
10859SOL     OW33475   2.227   5.020   2.514
10859SOL    HW133476   2.255   5.031   2.418
10859SOL    HW233477   2.238   4.925   2.541
10860SOL     OW33478   5.545   1.355   2.507
10860SOL    HW133479   5.500   1.394   2.588
10860SOL    HW233480   5.637   1.324   2.532
10861SOL     OW33481   2.856   4.660   1.179
10861SOL    HW133482   2.783   4.631   1.117
10861SOL    HW233483   2.940   4.610   1.157
10862SOL     OW33484   3.570   4.708   5.704
10862SOL    HW133485   3.481   4.677   5.673
10862SOL    HW233486   3.608   4.773   5.638
10863SOL     OW33487   0.375   0.593   4.262
10863SOL    HW133488   0.339   0.527   4.328
10863SOL    HW233489   0.337   0.684   4.281
10864SOL     OW33490   2.829   3.446   2.289
10864SOL    HW133491   2.892   3.379   2.250
10864SOL    HW233492   2.738   3.432   2.250
10865SOL     OW33493   3.755   1.951   2.484
10865SOL    HW133494   3.737   1.897   2.567
10865SOL    HW233495   3.815   2.027   2.507
10866SOL     OW33496   0.421   3.448   5.140
10866SOL    HW133497   0.462   3.539   5.143
10866SOL    HW233498   0.356   3.438   5.215
10867SOL     OW33499   5.167   3.344   0.591
10867SOL    HW133500   5.211   3.368   0.678
10867SOL    HW233501   5.213   3.265   0.551
10868SOL     OW33502   6.766   0.562   5.883
10868SOL    HW133503   6.791   0.467   5.867
10868SOL    HW233504   6.667   0.574   5.871
10869NA      NA33505   6.746   1.523   0.100
10870NA      NA33506   5.044   4.700   4.788
10871NA      NA33507   1.391   4.666   2.752
10872NA      NA33508   6.449   3.658   3.618
10873NA      NA33509   4.298   2.422   5.281
10874NA      NA33510   2.566   3.512   6.750
10875NA      NA33511   1.516   5.382   0.446
10876NA      NA33512   4.234   4.764   1.845
10877NA      NA33513   5.645   3.634   1.184
10878NA      NA33514   3.658   1.914   0.820
10879NA      NA33515   4.925   6.143   1.375
10880NA      NA33516   2.700   6.290   4.120
10881NA      NA33517   3.565   5.956   2.778
10882NA      NA33518   4.536   5.008   5.534
   7.01975   7.01975   7.01975
